#INFO: **** input file is /share/home/srwang/ExSCF/test/mom/test.py ****
from pyphf import suscf, guess
from pyscf import lib

lib.num_threads(4)
xyz = 'H 0.0 0.0 0.0; H 0.0 0.0 2.0'''
bas = '3-21g'
mf = guess.mix(xyz, bas, conv='tight')

mf2 = suscf.SUHF(mf)
mf2.verbose = 8
mf2.kernel()

#INFO: ******************** input file end ********************


System: uname_result(system='Linux', node='xn01', release='3.10.0-1127.el7.x86_64', version='#1 SMP Tue Feb 18 16:39:12 EST 2020', machine='x86_64', processor='x86_64')  Threads 4
Python 3.7.4 (default, Aug 13 2019, 20:35:49) 
[GCC 7.3.0]
numpy 1.17.2  scipy 1.4.1
Date: Wed Jun 23 20:16:20 2021
PySCF version 1.7.6a1
PySCF path  /share/home/srwang/pyscf/pyscf
GIT HEAD      ref: refs/heads/master
GIT master branch  80f71dfe77ac5f9caae26788acf76446987635bd

[CONFIG] conf_file None
[INPUT] verbose = 4
[INPUT] num. atoms = 2
[INPUT] num. electrons = 2
[INPUT] charge = 0
[INPUT] spin (= nelec alpha-beta = 2S) = 0
[INPUT] symmetry False subgroup None
[INPUT] Mole.unit = angstrom
[INPUT]  1 H      0.000000000000   0.000000000000   0.000000000000 AA    0.000000000000   0.000000000000   0.000000000000 Bohr
[INPUT]  2 H      0.000000000000   0.000000000000   2.000000000000 AA    0.000000000000   0.000000000000   3.779452249130 Bohr

nuclear repulsion = 0.26458860546
number of shells = 4
number of NR pGTOs = 6
number of NR cGTOs = 4
basis = 3-21g
ecp = {}
CPU time:         1.14


******** <class 'pyscf.scf.hf.RHF'> ********
method = RHF
initial guess = minao
damping factor = 0
level_shift factor = 0
DIIS = <class 'pyscf.scf.diis.CDIIS'>
diis_start_cycle = 1
diis_space = 8
SCF conv_tol = 1e-05
SCF conv_tol_grad = None
SCF max_cycles = 50
direct_scf = True
direct_scf_tol = 1e-13
chkfile to save SCF result = /share/home/srwang/ExSCF/test/mom/tmp0e3mhuow
max_memory 4000 MB (current use 107 MB)
Set gradient conv threshold to 0.00316228
init E= -0.648815945420394
  HOMO = -0.244674774926751  LUMO = -0.0864459286574333
cycle= 1 E= -0.907663399996247  delta_E= -0.259  |g|= 0.019  |ddm|= 0.828
  HOMO = -0.369605169894073  LUMO = -0.0101025752244096
cycle= 2 E= -0.907801422494246  delta_E= -0.000138  |g|= 0.00293  |ddm|= 0.0218
  HOMO = -0.370705495656876  LUMO = -0.0112684200431641
cycle= 3 E= -0.907804773936949  delta_E= -3.35e-06  |g|= 1.06e-06  |ddm|= 0.00397
  HOMO = -0.370702164933128  LUMO = -0.011267278240244
Extra cycle  E= -0.907804773937381  delta_E= -4.32e-13  |g|= 1.64e-07  |ddm|= 1.22e-06
converged SCF energy = -0.907804773937381
**** generating mix guess ****
rotating angle: 0.25 pi


******** <class 'pyscf.scf.uhf.UHF'> ********
method = UHF
initial guess = minao
damping factor = 0
level_shift factor = 0
DIIS = <class 'pyscf.scf.diis.CDIIS'>
diis_start_cycle = 1
diis_space = 8
SCF conv_tol = 1e-09
SCF conv_tol_grad = None
SCF max_cycles = 100
direct_scf = True
direct_scf_tol = 1e-13
chkfile to save SCF result = /share/home/srwang/ExSCF/test/mom/tmpudfbwu75
max_memory 4000 MB (current use 119 MB)
number electrons alpha = 1  beta = 1
Set gradient conv threshold to 3.16228e-05
init E= -1.69135654891561
  alpha nocc = 1  HOMO = -0.24136263647573  LUMO = 0.900983838942928
  beta  nocc = 1  HOMO = -0.24136263647573  LUMO = 0.900983838942928
cycle= 1 E= -0.985589254636279  delta_E= 0.706  |g|= 0.0835  |ddm|= 1.15
  alpha nocc = 1  HOMO = -0.500699367107887  LUMO = 0.115721881429081
  beta  nocc = 1  HOMO = -0.500699367107887  LUMO = 0.115721881429081
cycle= 2 E= -0.995568238270464  delta_E= -0.00998  |g|= 0.0263  |ddm|= 0.145
  alpha nocc = 1  HOMO = -0.497083605541942  LUMO = 0.125003394565143
  beta  nocc = 1  HOMO = -0.497083605541942  LUMO = 0.125003394565142
cycle= 3 E= -0.996982488678899  delta_E= -0.00141  |g|= 0.00453  |ddm|= 0.0714
  alpha nocc = 1  HOMO = -0.492766860752049  LUMO = 0.118670910813592
  beta  nocc = 1  HOMO = -0.492766860752048  LUMO = 0.118670910813594
cycle= 4 E= -0.997011162805863  delta_E= -2.87e-05  |g|= 0.000416  |ddm|= 0.00998
  alpha nocc = 1  HOMO = -0.49439549753304  LUMO = 0.120246563561695
  beta  nocc = 1  HOMO = -0.49439549753304  LUMO = 0.120246563561695
cycle= 5 E= -0.997011453176456  delta_E= -2.9e-07  |g|= 3.04e-05  |ddm|= 0.00094
  alpha nocc = 1  HOMO = -0.494331180495914  LUMO = 0.120178766572697
  beta  nocc = 1  HOMO = -0.494331180495914  LUMO = 0.120178766572697
cycle= 6 E= -0.997011455175522  delta_E= -2e-09  |g|= 5.7e-07  |ddm|= 7.89e-05
  alpha nocc = 1  HOMO = -0.494330560130925  LUMO = 0.120178160884984
  beta  nocc = 1  HOMO = -0.494330560130925  LUMO = 0.120178160884984
cycle= 7 E= -0.997011455176148  delta_E= -6.27e-13  |g|= 2.53e-07  |ddm|= 8.43e-07
  alpha nocc = 1  HOMO = -0.494330110948542  LUMO = 0.120177755068481
  beta  nocc = 1  HOMO = -0.494330110948543  LUMO = 0.120177755068481
Extra cycle  E= -0.997011455176268  delta_E= -1.19e-13  |g|= 1.16e-07  |ddm|= 3.54e-07
converged SCF energy = -0.997011455176268  <S^2> = 0.91048301  2S+1 = 2.1545143
**** checking UHF/UKS internal stability ...
tol 0.0001  toloose 0.01
max_cycle 50  max_space 12  max_memory 2000  incore True
davidson 0 1  |r|= 0.861  e= [1.13705881]  max|de|= 1.14  lindep= 0.529
davidson 1 2  |r|= 0.119  e= [0.67139996]  max|de|= -0.466  lindep= 0.998
Throwing out eigenvector 0 with norm=1.26e-15
davidson 2 3  |r|= 1.26e-15  e= [0.66357818]  max|de|= -0.00782  lindep=    1
Linear dependency in trial subspace. |r| for each state [1.2563446598977668e-15]
UHF/UKS wavefunction is stable in the internal stability analysis
time for guess: 0.105

******** <class 'pyphf.suscf.SUHF'> ********
Date: Wed Jun 23 20:16:20 2021
pyphf version 0.3.2
pyphf path  /share/home/srwang/ExSCF
GIT ORIG_HEAD 198e48480b188f02e90f0e6e8cbbe5568091e1c6
GIT HEAD (branch main) 198e48480b188f02e90f0e6e8cbbe5568091e1c6
max_cycle = 70
verbose: 8, debug2
conv_tol: 1e-07
chkfile0: 24088_ges.pchk # the file store hf for guess
chkfile: 24088_su.pchk # the file store suhf info
DIIS: <class 'pyscf.scf.diis.CDIIS'>
diis_start_cyc = 10
S
[[1.         0.64589894 0.00227256 0.07465634]
 [0.64589894 1.         0.07465634 0.27025724]
 [0.00227256 0.07465634 1.         0.64589894]
 [0.07465634 0.27025724 0.64589894 1.        ]]
SVD: S^(-1/2)
[[-0.3306004   0.46012676 -0.85621932  0.83453679]
 [-0.39774539  0.36468663  0.71167752 -1.05293881]
 [-0.3306004  -0.46012676 -0.85621932 -0.83453679]
 [-0.39774539 -0.36468663  0.71167752  1.05293881]]
S^(1/2)
[[-0.61794925 -0.74345483 -0.61794925 -0.74345483]
 [ 0.66740563  0.52897143 -0.66740563 -0.52897143]
 [-0.34536213  0.28706017 -0.34536213  0.28706017]
 [ 0.23115675 -0.29165151 -0.23115675  0.29165151]]
C (ortho)
 [[-0.80171109 -0.57009486 -0.09238995 -0.15399766]
 [-0.58103419  0.75902561 -0.10126721  0.27572512]
 [ 0.08280271  0.16885271 -0.79177919 -0.58113526]
 [ 0.11314731 -0.26525597 -0.59522665  0.75002813]] 
 [[-0.80171109 -0.57009486 -0.09238995 -0.15399766]
 [ 0.58103419 -0.75902561  0.10126721 -0.27572512]
 [ 0.08280271  0.16885271 -0.79177919 -0.58113526]
 [-0.11314731  0.26525597  0.59522665 -0.75002813]]
density matrix (ortho)
[[[ 0.64274066  0.46582155 -0.06638385 -0.09071146]
  [ 0.46582155  0.33760073 -0.04811121 -0.06574246]
  [-0.06638385 -0.04811121  0.00685629  0.0093689 ]
  [-0.09071146 -0.06574246  0.0093689   0.01280231]]

 [[ 0.64274066 -0.46582155 -0.06638385  0.09071146]
  [-0.46582155  0.33760073  0.04811121 -0.06574246]
  [-0.06638385  0.04811121  0.00685629 -0.0093689 ]
  [ 0.09071146 -0.06574246 -0.0093689   0.01280231]]]
grids:  [0.06237655 0.31939555 0.74529195 1.28265786 1.85893479 2.39630071
 2.8221971  3.07921611] 
weights:  [0.15900941 0.34931531 0.49276925 0.56970235 0.56970235 0.49276925
 0.34931531 0.15900941]
S = 0.0, Sz = 0.0
Wigner small d:  1
value : [1. 1. 1. 1. 1. 1. 1. 1.]
hcore (ortho)
 [[-7.96723266e-01  9.17301167e-17  1.03744072e-01  1.33062106e-16]
 [ 8.50105048e-17 -6.58935537e-01  4.05701508e-16  1.96745347e-01]
 [ 1.03744072e-01  4.21576640e-16  3.06545630e-01 -2.77570797e-16]
 [ 9.15077779e-17  1.96745347e-01 -1.99832916e-16  3.76082787e-01]]
time for Preparation before cyc: 0.100
**** Start Cycle 1 ****
dm (ortho)
[[[ 0.6427406647  0.4658215524 -0.0663838507 -0.0907114563]
  [ 0.4658215524  0.3376007317 -0.0481112058 -0.0657424584]
  [-0.0663838507 -0.0481112058  0.0068562888  0.0093689043]
  [-0.0907114563 -0.0657424584  0.0093689043  0.0128023148]]

 [[ 0.6427406647 -0.4658215524 -0.0663838507  0.0907114563]
  [-0.4658215524  0.3376007317  0.0481112058 -0.0657424584]
  [-0.0663838507  0.0481112058  0.0068562888 -0.0093689043]
  [ 0.0907114563 -0.0657424584 -0.0093689043  0.0128023148]]]
Fock (ortho)
 (array([[-0.2388873235, -0.326413236 ,  0.2163657457, -0.0245837681],
       [-0.326413236 ,  0.0110682141, -0.078060889 ,  0.339629591 ],
       [ 0.2163657457, -0.078060889 ,  1.1220172843, -0.0506526202],
       [-0.0245837681,  0.339629591 , -0.0506526202,  1.1126146476]]), array([[-0.2388873235,  0.326413236 ,  0.2163657457,  0.0245837681],
       [ 0.326413236 ,  0.0110682141,  0.078060889 ,  0.339629591 ],
       [ 0.2163657457,  0.078060889 ,  1.1220172843,  0.0506526202],
       [ 0.0245837681,  0.339629591 ,  0.0506526202,  1.1126146476]]))
E1 = -1.5345399459404923  Ecoul = 0.2729398853042251
E(UHF) =    -1.261600
[1 0 0 0] [1 0 0 0] [0 1 1 1] [0 1 1 1]
NO eigenvalue
[-1.0000000000e+00 -1.6746386953e-18 -1.2570428677e-18  1.6948190570e-16] 
 [-1.0000000000e+00 -2.2404208092e-18  6.2166877197e-19  1.1567377776e-16]
NO vec
[[ 0.8017110856  0.           -0.0462080381 -0.0634746015 -0.5925328071  0.            0.            0.          ]
 [ 0.5810341915  0.            0.0615276847 -0.1504861633  0.7974757219  0.            0.            0.          ]
 [-0.0828027103  0.            0.7991044341 -0.5848931602 -0.1116951464  0.            0.            0.          ]
 [-0.1131473145  0.           -0.5962476537 -0.794496621  -0.0214834782  0.            0.            0.          ]
 [ 0.            0.8017110856  0.            0.            0.            0.1153564618  0.0283830011  0.585787186 ]
 [ 0.           -0.5810341915  0.            0.            0.           -0.0359765191 -0.0986865165  0.807072444 ]
 [ 0.           -0.0828027103  0.            0.            0.            0.0130137431  0.9945143478  0.0625744817]
 [ 0.            0.1131473145  0.            0.            0.           -0.9925871344  0.019914538   0.0396469054]]
dm(NO)
[[ 1.0000000000e+00  0.0000000000e+00  3.3877896822e-17  5.9747172011e-18  5.1016576922e-16  0.0000000000e+00  0.0000000000e+00  0.0000000000e+00]
 [ 0.0000000000e+00  1.0000000000e+00  0.0000000000e+00  0.0000000000e+00  0.0000000000e+00  1.4076892720e-17 -5.1063000663e-18 -1.2221328471e-16]
 [ 1.7566866270e-17  0.0000000000e+00 -2.8755503311e-19 -2.0030936907e-19 -6.9638963330e-18  0.0000000000e+00  0.0000000000e+00  0.0000000000e+00]
 [-5.4225203432e-18  0.0000000000e+00 -9.7091172844e-19 -2.3593061258e-18  9.3374786423e-18  0.0000000000e+00  0.0000000000e+00  0.0000000000e+00]
 [ 3.3826911554e-16  0.0000000000e+00 -8.1547346463e-18  2.5798832465e-18 -3.2853933798e-17  0.0000000000e+00  0.0000000000e+00  0.0000000000e+00]
 [ 0.0000000000e+00  1.9117375430e-17  0.0000000000e+00  0.0000000000e+00  0.0000000000e+00  2.5016250881e-18  1.0854293862e-18  7.5260694404e-18]
 [ 0.0000000000e+00 -1.2023787486e-17  0.0000000000e+00  0.0000000000e+00  0.0000000000e+00  2.1623386202e-19 -7.7508135642e-19 -3.6370524806e-18]
 [ 0.0000000000e+00 -1.3989887216e-16  0.0000000000e+00  0.0000000000e+00  0.0000000000e+00 -2.2825340680e-18 -4.2773824788e-18 -5.7769446644e-18]]
D(g) (NO)
 [[ 9.9951368521e-01  9.3298287801e-03 -1.4231366461e-18 -7.7699087938e-18  4.5964278546e-17  5.7006028668e-03 -3.7166352318e-03  2.8966137457e-02]
 [-9.3298287801e-03  9.9951368521e-01  6.4370586895e-03  1.5326880718e-04  2.9049753076e-02  7.9207782386e-18  8.0384059059e-18 -1.6376263525e-16]
 [-2.2605929222e-17 -6.4370586895e-03  9.9951368521e-01 -1.5580860985e-17 -3.1431951617e-17  1.8544133966e-02  2.4181442658e-02  1.5265243416e-03]
 [-1.5657699699e-17 -1.5326880718e-04 -5.8526160881e-18  9.9951368521e-01 -1.2177222041e-17  2.4294447053e-02 -1.8225259842e-02 -7.0703132554e-03]
 [ 8.9783193744e-17 -2.9049753076e-02 -2.6485129567e-17 -3.1375829483e-17  9.9951368521e-01 -2.4064786622e-03 -6.4558060653e-03  9.0020191880e-03]
 [-5.7006028668e-03  1.6860963176e-17 -1.8544133966e-02 -2.4294447053e-02  2.4064786622e-03  9.9951368521e-01  2.2274914759e-16 -4.4516489435e-17]
 [ 3.7166352318e-03 -6.9388939039e-18 -2.4181442658e-02  1.8225259842e-02  6.4558060653e-03  2.2204460493e-16  9.9951368521e-01 -6.9388939039e-17]
 [-2.8966137457e-02 -1.1102230246e-16 -1.5265243416e-03  7.0703132554e-03 -9.0020191880e-03 -4.1633363423e-17 -6.9388939039e-17  9.9951368521e-01]]
N(g) (NO)
 [[ 1.0003993862 -0.0093380962]
 [ 0.0093380962  1.0003993862]]
P(g) (NO)
 [[ 1.0000000000e+00  1.4817515388e-17  3.3877896822e-17  5.9747172011e-18  5.1016576922e-16  1.9597408978e-34 -7.2222372915e-35 -1.5407439555e-33]
 [-4.3562882999e-18  1.0000000000e+00 -1.9412012779e-34 -2.6564297125e-35 -3.1365939615e-33  1.4076892720e-17 -5.1063000663e-18 -1.2221328471e-16]
 [-6.0109873539e-05 -6.4396295618e-03 -2.0363960937e-21 -3.5913949539e-22 -3.0665999872e-20 -9.0649974500e-20  3.2882680858e-20  7.8700828106e-19]
 [-1.4312388719e-06 -1.5333002062e-04 -4.8487362830e-23 -8.5512475069e-24 -7.3016908002e-22 -2.1584102511e-21  7.8294909447e-22  1.8738965465e-20]
 [-2.7126938994e-04 -2.9061355146e-02 -9.1900364035e-21 -1.6207578902e-21 -1.3839235699e-19 -4.0909357870e-19  1.4839599971e-19  3.5516836705e-18]
 [-5.7028796087e-03  5.3232778190e-05 -1.9320156697e-19 -3.4073092894e-20 -2.9094139624e-18  7.4935210779e-22 -2.7182253880e-22 -6.5057526768e-21]
 [ 3.7181196045e-03 -3.4706297480e-05  1.2596207233e-19  2.2214713157e-20  1.8968573481e-18 -4.8855682634e-22  1.7722076912e-22  4.2415706151e-21]
 [-2.8977706132e-02  2.7048857925e-04 -9.8170373848e-19 -1.7313359928e-19 -1.4783433739e-17  3.8076387121e-21 -1.3811958501e-21 -3.3057297746e-20]]
time for NO, Ng: 0.015
Pg_ortho
 [[ 6.4287182818e-01  4.6591661217e-01 -6.6397397639e-02 -9.0729967719e-02  1.4051671612e-02 -1.0183845280e-02 -1.4512915120e-03  1.9831444712e-03]
 [ 4.6564532526e-01  3.3747301236e-01 -4.8093004646e-02 -6.5717587048e-02 -1.8879387425e-02  1.3682696680e-02  1.9499099806e-03 -2.6644910175e-03]
 [-6.6397397639e-02 -4.8121023832e-02  6.8576879868e-03  9.3708162036e-03 -1.4512915120e-03  1.0518128107e-03  1.4989298859e-04 -2.0482408197e-04]
 [-9.0677138839e-02 -6.5717587048e-02  9.3653599057e-03  1.2797471469e-02  3.6764652018e-03 -2.6644910175e-03 -3.7971444884e-04  5.1886792119e-04]
 [-1.4051671612e-02 -1.0183845280e-02  1.4512915120e-03  1.9831444712e-03  6.4287182818e-01 -4.6591661217e-01 -6.6397397639e-02  9.0729967719e-02]
 [-1.8879387425e-02 -1.3682696680e-02  1.9499099806e-03  2.6644910175e-03 -4.6564532526e-01  3.3747301236e-01  4.8093004646e-02 -6.5717587048e-02]
 [ 1.4512915120e-03  1.0518128107e-03 -1.4989298859e-04 -2.0482408197e-04 -6.6397397639e-02  4.8121023832e-02  6.8576879868e-03 -9.3708162036e-03]
 [ 3.6764652018e-03  2.6644910175e-03 -3.7971444884e-04 -5.1886792119e-04  9.0677138839e-02 -6.5717587048e-02 -9.3653599057e-03  1.2797471469e-02]]
G(g) (NO)
 [[ 2.7295464423e-01 -1.5811381521e-03 -8.3757329747e-03 -1.1243755894e-02 -5.2487367304e-02 -3.3644777540e-04 -4.3316159132e-04  4.6724271036e-04]
 [ 1.5811381521e-03  2.7295464423e-01  1.5621923641e-04 -5.6148616009e-04  4.2363977900e-04  1.7268992021e-02  2.3138956166e-03  5.1458006934e-02]
 [-8.3628432756e-03 -1.1904505983e-03  8.0859620878e-01 -9.7778743151e-03 -1.7256441261e-01 -2.1816586878e-03 -2.4797383441e-03  7.3838458610e-04]
 [-1.1249711674e-02 -4.1782614011e-04 -9.7771619542e-03  7.3431209552e-01 -3.8042130783e-02 -3.7904406824e-04 -3.1277142393e-04 -1.5179305125e-04]
 [-5.2417744620e-02  1.9439184543e-02 -1.7256913971e-01 -3.8044561495e-02  9.6397788231e-01  3.6503981868e-03  4.8961888418e-03 -2.0936066530e-03]
 [ 1.7990564932e-04  1.7261928135e-02 -3.4240503176e-04  1.9230757589e-03 -2.4872642807e-05  7.3490264337e-01 -3.0505733234e-02 -1.1622017000e-01]
 [ 1.6705830045e-03  2.3244274120e-03  6.7105724799e-04 -2.6648187242e-03  5.7839865378e-04 -3.0505404853e-02  8.0449752985e-01  1.2793610046e-01]
 [ 1.9407483953e-02  5.1388091867e-02  1.8396128928e-03 -5.9797695940e-03  1.5986648204e-03 -1.1622493052e-01  1.2793854809e-01  9.6748601340e-01]]
time for Gg: 0.022
C(NO)
[[-1.0000000000e+00  0.0000000000e+00 -7.1999005184e-16  2.6780135437e-16 -1.6559826279e-16  0.0000000000e+00  0.0000000000e+00  0.0000000000e+00]
 [ 0.0000000000e+00 -1.0000000000e+00  0.0000000000e+00  0.0000000000e+00  0.0000000000e+00  7.6496423474e-17 -4.3715031595e-16  4.1633363423e-17]
 [-1.4396919626e-17  0.0000000000e+00  3.6613325465e-01 -2.7977334859e-01 -8.8750961305e-01  0.0000000000e+00  0.0000000000e+00  0.0000000000e+00]
 [ 1.0755002894e-17  0.0000000000e+00  3.3947873548e-02  9.5711552216e-01 -2.8771065174e-01  0.0000000000e+00  0.0000000000e+00  0.0000000000e+00]
 [-3.4566518215e-16  0.0000000000e+00  9.2994299918e-01  7.5211373201e-02  3.5992953146e-01  0.0000000000e+00  0.0000000000e+00  0.0000000000e+00]
 [ 0.0000000000e+00 -3.0197908893e-19  0.0000000000e+00  0.0000000000e+00  0.0000000000e+00 -2.9954928921e-01 -6.1541934318e-01  7.2906052930e-01]
 [ 0.0000000000e+00  4.8299303337e-18  0.0000000000e+00  0.0000000000e+00  0.0000000000e+00  2.3193348209e-01 -7.8819811406e-01 -5.7004437800e-01]
 [ 0.0000000000e+00  1.2166307337e-16  0.0000000000e+00  0.0000000000e+00  0.0000000000e+00 -9.2546047091e-01  1.6628410326e-03 -3.7884053603e-01]]
detC 0.9999999999999997
detNg [ 1.0008861319  1.0235662454  1.1372541875  1.4834076483  2.407356124   4.7572359479  8.8856775582 11.061660401 ]
xg [0.9991146526 0.9769763359 0.8793108973 0.6741235298 0.4153934642 0.2102060968 0.1125406581 0.0904023414]
ciS 1.0895169940284528
[[-0.767269973   0.            0.0083772146  0.0112384723  0.0524913882  0.            0.            0.          ]
 [ 0.           -0.767269973   0.            0.            0.           -0.017265835  -0.0023098118 -0.0514624381]
 [ 0.0083772146  0.            0.3031592059  0.0442218792 -0.2190876488  0.            0.            0.          ]
 [ 0.0112384723  0.            0.0442218792  0.3788789641 -0.0117716406  0.            0.            0.          ]
 [ 0.0524913882  0.           -0.2190876488 -0.0117716406 -0.6877985836  0.            0.            0.          ]
 [ 0.           -0.017265835   0.            0.            0.            0.3734876835  0.0226567852 -0.205607352 ]
 [ 0.           -0.0023098118  0.            0.            0.            0.0226567852  0.3013650758  0.1216245806]
 [ 0.           -0.0514624381  0.            0.            0.           -0.205607352   0.1216245806 -0.6806131728]]
ciH -1.3881309806323439
1.0 -1.5016200088924236e-17 -0.02840312920164357j -1.6046192152785466e-16
0.5448378560243115 0.0004033688742226288 -0.0004033688742226288 0.45516214397568866
0.9999999999999998 -8.727827488508311e-17 -0.14631114471448028j -1.0625181290357943e-16
0.5468929338947833 0.010703475533830794 -0.010703475533830798 0.4531070661052163
0.9999999999999997 -2.634611279139776e-16 -0.3511142553679506j -1.3530843112619095e-16
0.5578882717282241 0.06164061016129524 -0.06164061016129523 0.4421117282717752
0.9999999999999999 -4.638216893892988e-16 -0.6474688047364998j -1.6306400674181987e-16
0.5984909944003407 0.20960792655345586 -0.20960792655345584 0.4015090055996591
0.9999999999999997 -7.997075224253081e-16 -1.0507482511332715j -1.691355389077387e-16
0.7593917602584785 0.5520359436298142 -0.5520359436298142 0.24060823974152074
0.9999999999999998 -1.1037178115902435e-15 -1.4687423232674623j -2.463307335887066e-16
1.5129426988328052 1.0786020060785513 -1.0786020060785513 -0.5129426988328059
0.9999999999999994 -8.70397504071363e-16 -1.2701411960047604j -2.6020852139652106e-17
4.033919022645883 0.8066293288942012 -0.8066293288942014 -3.033919022645885
0.9999999999999998 -1.4799359654427136e-16 -0.31390760600918205j -2.0816681711721685e-16
5.9766645019665345 0.04926899255520794 -0.04926899255520794 -4.976664501966534
S2 = -0.000000
X(g)
[[ 2.0000000000e+00  2.0816681712e-17 -6.0109873539e-05 -1.4312388719e-06 -2.7126938994e-04  5.7028796087e-03 -3.7181196045e-03  2.8977706132e-02]
 [-1.9081958236e-17  2.0000000000e+00  6.4396295618e-03  1.5333002062e-04  2.9061355146e-02  5.3232778190e-05 -3.4706297480e-05  2.7048857925e-04]
 [-6.0109873539e-05 -6.4396295618e-03  0.0000000000e+00  0.0000000000e+00  0.0000000000e+00  0.0000000000e+00  0.0000000000e+00  0.0000000000e+00]
 [-1.4312388719e-06 -1.5333002062e-04  0.0000000000e+00  0.0000000000e+00  0.0000000000e+00  0.0000000000e+00  0.0000000000e+00  0.0000000000e+00]
 [-2.7126938994e-04 -2.9061355146e-02  0.0000000000e+00  0.0000000000e+00  0.0000000000e+00  0.0000000000e+00  0.0000000000e+00  0.0000000000e+00]
 [-5.7028796087e-03  5.3232778190e-05  0.0000000000e+00  0.0000000000e+00  0.0000000000e+00  0.0000000000e+00  0.0000000000e+00  0.0000000000e+00]
 [ 3.7181196045e-03 -3.4706297480e-05  0.0000000000e+00  0.0000000000e+00  0.0000000000e+00  0.0000000000e+00  0.0000000000e+00  0.0000000000e+00]
 [-2.8977706132e-02  2.7048857925e-04  0.0000000000e+00  0.0000000000e+00  0.0000000000e+00  0.0000000000e+00  0.0000000000e+00  0.0000000000e+00]]
X(g) int
[[ 2.0000000000e+00  4.5303504924e-16 -5.6687235322e-02 -1.3497445587e-03 -2.5582339203e-01  1.3178188973e-01 -8.5918143345e-02  6.6961555144e-01]
 [-3.1553077805e-16  2.0000000000e+00  1.4880667505e-01  3.5431433338e-03  6.7154850915e-01  5.0201719725e-02 -3.2730131284e-02  2.5508704046e-01]
 [-5.6687235322e-02 -1.4880667505e-01  0.0000000000e+00  0.0000000000e+00  0.0000000000e+00  0.0000000000e+00  0.0000000000e+00  0.0000000000e+00]
 [-1.3497445587e-03 -3.5431433338e-03  0.0000000000e+00  0.0000000000e+00  0.0000000000e+00  0.0000000000e+00  0.0000000000e+00  0.0000000000e+00]
 [-2.5582339203e-01 -6.7154850915e-01  0.0000000000e+00  0.0000000000e+00  0.0000000000e+00  0.0000000000e+00  0.0000000000e+00  0.0000000000e+00]
 [-1.3178188973e-01  5.0201719725e-02  0.0000000000e+00  0.0000000000e+00  0.0000000000e+00  0.0000000000e+00  0.0000000000e+00  0.0000000000e+00]
 [ 8.5918143345e-02 -3.2730131284e-02  0.0000000000e+00  0.0000000000e+00  0.0000000000e+00  0.0000000000e+00  0.0000000000e+00  0.0000000000e+00]
 [-6.6961555144e-01  2.5508704046e-01  0.0000000000e+00  0.0000000000e+00  0.0000000000e+00  0.0000000000e+00  0.0000000000e+00  0.0000000000e+00]]
Feff
 [[-5.2433346720e-17  3.3512215634e-17  1.4389268655e-02  3.3636371666e-03 -1.0563305816e-02 -6.1301119059e-03 -1.1081654233e-02  1.9153311204e-02]
 [-6.4155451357e-18  5.9022666283e-17  5.4668697647e-03 -1.2930594591e-02  1.8169857487e-02 -1.0472638043e-02  1.0230636298e-02  1.0752044948e-02]
 [ 1.4389268655e-02 -5.4668697647e-03  0.0000000000e+00  0.0000000000e+00  0.0000000000e+00  0.0000000000e+00  0.0000000000e+00  0.0000000000e+00]
 [ 3.3636371666e-03  1.2930594591e-02  0.0000000000e+00  0.0000000000e+00  0.0000000000e+00  0.0000000000e+00  0.0000000000e+00  0.0000000000e+00]
 [-1.0563305816e-02 -1.8169857487e-02  0.0000000000e+00  0.0000000000e+00  0.0000000000e+00  0.0000000000e+00  0.0000000000e+00  0.0000000000e+00]
 [ 6.1301119059e-03 -1.0472638043e-02  0.0000000000e+00  0.0000000000e+00  0.0000000000e+00  0.0000000000e+00  0.0000000000e+00  0.0000000000e+00]
 [ 1.1081654233e-02  1.0230636298e-02  0.0000000000e+00  0.0000000000e+00  0.0000000000e+00  0.0000000000e+00  0.0000000000e+00  0.0000000000e+00]
 [-1.9153311204e-02  1.0752044948e-02  0.0000000000e+00  0.0000000000e+00  0.0000000000e+00  0.0000000000e+00  0.0000000000e+00  0.0000000000e+00]]
Feff (ortho)
 [[ 8.6275334275e-03 -3.3232527142e-03  8.1416149611e-03 -9.4477000966e-03  1.1796119637e-16  5.8113236445e-17 -5.1174342541e-17  3.0357660830e-17]
 [-3.3232527142e-03 -9.3486337563e-03  6.8896077565e-03 -5.4956690449e-03 -7.8062556419e-18  1.0928757899e-16 -2.7755575616e-17  8.8904578144e-18]
 [ 8.1416149611e-03  6.8896077565e-03 -1.7738046284e-03 -2.9902195762e-04  1.1275702594e-17 -2.2551405188e-17  2.8189256485e-18  1.0842021725e-19]
 [-9.4477000966e-03 -5.4956690449e-03 -2.9902195762e-04  2.4949049572e-03 -6.9388939039e-18 -1.4961989980e-17  6.2883726004e-18 -2.9273458657e-18]
 [ 1.1796119637e-16 -7.8062556419e-18  1.1275702594e-17 -6.9388939039e-18  8.6275334275e-03  3.3232527142e-03  8.1416149611e-03  9.4477000966e-03]
 [ 5.8113236445e-17  1.0928757899e-16 -2.2551405188e-17 -1.4961989980e-17  3.3232527142e-03 -9.3486337563e-03 -6.8896077565e-03 -5.4956690449e-03]
 [-5.1174342541e-17 -2.7755575616e-17  2.8189256485e-18  6.2883726004e-18  8.1416149611e-03 -6.8896077565e-03 -1.7738046284e-03  2.9902195762e-04]
 [ 3.0357660830e-17  8.8904578144e-18  1.0842021725e-19 -2.9273458657e-18  9.4477000966e-03 -5.4956690449e-03  2.9902195762e-04  2.4949049572e-03]]
Hsp + Hph =  -1.2740792371670826
Feff (mod,ortho)
[[-0.2302597295 -0.3297365156  0.2245073286 -0.0340314871  0.            0.            0.            0.          ]
 [-0.3297365156  0.0017195096 -0.0711712972  0.3341339181  0.            0.            0.            0.          ]
 [ 0.2245073286 -0.0711712972  1.1202434857 -0.0509516366  0.            0.            0.            0.          ]
 [-0.0340314871  0.3341339181 -0.0509516366  1.1151095567  0.            0.            0.            0.          ]
 [ 0.            0.            0.            0.           -0.2302597295  0.3297365156  0.2245073286  0.0340314871]
 [ 0.            0.            0.            0.            0.3297365156  0.0017195096  0.0711712972  0.3341339181]
 [ 0.            0.            0.            0.            0.2245073286  0.0711712972  1.1202434857  0.0509516366]
 [ 0.            0.            0.            0.            0.0340314871  0.3341339181  0.0509516366  1.1151095567]]
Alpha occ 1 vir 3; Beta occ 1 vir 3
Alpha energies:  [-0.4945369813] <- HOMO
         LUMO->  [0.1202097884 1.099203477  1.2819365384]
Beta energies:   [-0.4945369813] <- HOMO
         LUMO->  [0.1202097884 1.099203477  1.2819365384]
e_a, e_b
 [-0.4945369813  0.1202097884  1.099203477   1.2819365384] 
 [-0.4945369813  0.1202097884  1.099203477   1.2819365384]
v_a, v_b
 [[ 0.7959192725  0.5758526377 -0.0931821925  0.1619361922]
 [ 0.5890939817 -0.7547802912 -0.1018733654 -0.2699940928]
 [-0.0881101107 -0.1695190739 -0.7916389213  0.5803513679]
 [-0.1082469437  0.2645065883 -0.5951862857 -0.7510473682]] 
 [[ 0.7959192725 -0.5758526377  0.0931821925  0.1619361922]
 [-0.5890939817 -0.7547802912 -0.1018733654  0.2699940928]
 [-0.0881101107  0.1695190739  0.7916389213  0.5803513679]
 [ 0.1082469437  0.2645065883 -0.5951862857  0.7510473682]]
P_a, P_b
 [[ 0.6334874883  0.4688712533 -0.0701285352 -0.0861558286]
 [ 0.4688712533  0.3470317192 -0.0519051359 -0.063767623 ]
 [-0.0701285352 -0.0519051359  0.0077633916  0.0095376502]
 [-0.0861558286 -0.063767623   0.0095376502  0.0117174008]] 
 [[ 0.6334874883 -0.4688712533 -0.0701285352  0.0861558286]
 [-0.4688712533  0.3470317192  0.0519051359 -0.063767623 ]
 [-0.0701285352  0.0519051359  0.0077633916 -0.0095376502]
 [ 0.0861558286 -0.063767623  -0.0095376502  0.0117174008]]
dm_reg
 [[[4.8550306572e-05 3.5164489128e-04 2.5670195034e-03 4.9338421879e-03]
  [3.5164489128e-04 2.5469278835e-03 1.8592658994e-02 3.5735312962e-02]
  [2.5670195034e-03 1.8592658994e-02 1.3572703441e-01 2.6086898347e-01]
  [4.9338421879e-03 3.5735312962e-02 2.6086898347e-01 5.0139330632e-01]]

 [[1.3572703441e-01 2.6086898347e-01 2.5670195034e-03 1.8592658994e-02]
  [2.6086898347e-01 5.0139330632e-01 4.9338421879e-03 3.5735312962e-02]
  [2.5670195034e-03 4.9338421879e-03 4.8550306572e-05 3.5164489128e-04]
  [1.8592658994e-02 3.5735312962e-02 3.5164489128e-04 2.5469278835e-03]]]
mo_reg
 [[-0.006967805  -0.1717857395  0.1650430939 -1.3014523862]
 [-0.050467097  -0.9034531786  0.0632140502  1.0409573352]
 [-0.3684115015  0.0813225227  1.2522021181  0.2005639432]
 [-0.7080913121  0.2040818896 -1.1158717218 -0.3437300395]] 
 [[-0.3684115015 -0.0813225227 -1.2522021181  0.2005639432]
 [-0.7080913121 -0.2040818896  1.1158717218 -0.3437300395]
 [-0.006967805   0.1717857395 -0.1650430939 -1.3014523862]
 [-0.050467097   0.9034531786 -0.0632140502  1.0409573352]]
time for xg, H, S2, Yg, Feff: 0.026
 E =     -1.00949063
**** Start Cycle 2 ****
dm (ortho)
[[[ 0.6334874883  0.4688712533 -0.0701285352 -0.0861558286]
  [ 0.4688712533  0.3470317192 -0.0519051359 -0.063767623 ]
  [-0.0701285352 -0.0519051359  0.0077633916  0.0095376502]
  [-0.0861558286 -0.063767623   0.0095376502  0.0117174008]]

 [[ 0.6334874883 -0.4688712533 -0.0701285352  0.0861558286]
  [-0.4688712533  0.3470317192  0.0519051359 -0.063767623 ]
  [-0.0701285352  0.0519051359  0.0077633916 -0.0095376502]
  [ 0.0861558286 -0.063767623  -0.0095376502  0.0117174008]]]
Fock (ortho)
 (array([[-0.2363081016, -0.3284564986,  0.2173277084, -0.0261901497],
       [-0.3284564986,  0.0087229249, -0.0778261308,  0.3390100841],
       [ 0.2173277084, -0.0778261308,  1.1216808993, -0.0509166931],
       [-0.0261901497,  0.3390100841, -0.0509166931,  1.1127032785]]), array([[-0.2363081016,  0.3284564986,  0.2173277084,  0.0261901497],
       [ 0.3284564986,  0.0087229249,  0.0778261308,  0.3390100841],
       [ 0.2173277084,  0.0778261308,  1.1216808993,  0.0509166931],
       [ 0.0261901497,  0.3390100841,  0.0509166931,  1.1127032785]]))
E1 = -1.5324840245868936  Ecoul = 0.2712126226598589
E(UHF) =    -1.261271
[1 0 0 0] [1 0 0 0] [0 1 1 1] [0 1 1 1]
NO eigenvalue
[-1.0000000000e+00 -1.2192972454e-17 -1.0042529644e-18  1.2510023006e-17] 
 [-1.0000000000e+00 -1.5563941463e-18  1.5057357825e-18  2.2313894314e-16]
NO vec
[[ 0.7959192725  0.            0.4307799823  0.0082088862  0.425292526   0.            0.            0.          ]
 [ 0.5890939817  0.           -0.4866495843  0.1997207851 -0.6133938953  0.            0.            0.          ]
 [-0.0881101107  0.           -0.2458404375  0.879915287   0.3969233874  0.            0.            0.          ]
 [-0.1082469437  0.            0.7191406456  0.4310374809 -0.534159172   0.            0.            0.          ]
 [ 0.            0.7959192725  0.            0.            0.            0.0376875298  0.0192281533 -0.6039225446]
 [ 0.           -0.5890939817  0.            0.            0.           -0.1455809001 -0.0992509442 -0.7886214126]
 [ 0.           -0.0881101107  0.            0.            0.            0.9408808525 -0.3200167038 -0.0675954072]
 [ 0.            0.1082469437  0.            0.            0.           -0.3035277137 -0.9420025677  0.0937266701]]
dm(NO)
[[ 1.0000000000e+00  0.0000000000e+00 -1.0554022689e-16 -1.5225643261e-18 -2.7281342871e-16  0.0000000000e+00  0.0000000000e+00  0.0000000000e+00]
 [ 0.0000000000e+00  1.0000000000e+00  0.0000000000e+00  0.0000000000e+00  0.0000000000e+00  2.6238108110e-17 -1.3848835454e-17  3.9755872367e-17]
 [-1.0357084152e-16  0.0000000000e+00 -1.6303035632e-17  3.6674653909e-18 -2.4576655018e-17  0.0000000000e+00  0.0000000000e+00  0.0000000000e+00]
 [-5.7522611248e-18  0.0000000000e+00  5.3431120797e-18  1.3530793258e-18  4.5660805648e-18  0.0000000000e+00  0.0000000000e+00  0.0000000000e+00]
 [-2.3864135361e-16  0.0000000000e+00 -1.7704033141e-17  2.5032565681e-18 -2.6108613753e-17  0.0000000000e+00  0.0000000000e+00  0.0000000000e+00]
 [ 0.0000000000e+00  2.3986950682e-17  0.0000000000e+00  0.0000000000e+00  0.0000000000e+00  2.4814732676e-18 -3.2614297332e-19  4.8176202531e-18]
 [ 0.0000000000e+00  1.0897688975e-17  0.0000000000e+00  0.0000000000e+00  0.0000000000e+00  3.8762039832e-19 -6.4738333446e-19  6.7108669672e-19]
 [ 0.0000000000e+00 -1.0744457600e-17  0.0000000000e+00  0.0000000000e+00  0.0000000000e+00  1.0722772667e-17  9.1116986432e-19  5.6291743997e-17]]
D(g) (NO)
 [[ 9.9951368521e-01  8.8093139182e-03 -2.2085126171e-17 -6.6715365802e-18 -1.5271055239e-16 -3.2994890945e-03  2.7129876611e-03 -2.9606454241e-02]
 [-8.8093139182e-03  9.9951368521e-01 -2.2734257074e-02  4.4277564055e-03 -1.8929806960e-02  2.6379657662e-18 -2.7034189477e-18 -4.8940617115e-17]
 [ 7.1812577052e-17  2.2734257074e-02  9.9951368521e-01  1.9175936072e-16 -1.2103953943e-16 -1.1304033666e-02 -1.6906784644e-02  6.4750355913e-03]
 [-1.2010470623e-17 -4.4277564055e-03  1.1269009781e-16  9.9951368521e-01 -8.1500616999e-17  2.0839665439e-02 -2.2055598048e-02 -5.6610058394e-03]
 [-4.5713379366e-17  1.8929806960e-02 -7.8276685024e-17 -1.0112341408e-16  9.9951368521e-01  1.9985835328e-02  1.3883227307e-02  4.6773784347e-03]
 [ 3.2994890945e-03  3.2566756770e-18  1.1304033666e-02 -2.0839665439e-02 -1.9985835328e-02  9.9951368521e-01  2.2877682300e-16 -3.1923396858e-17]
 [-2.7129876611e-03 -6.9388939039e-18  1.6906784644e-02  2.2055598048e-02 -1.3883227307e-02  1.6653345369e-16  9.9951368521e-01 -1.7347234760e-17]
 [ 2.9606454241e-02 -5.5511151231e-17 -6.4750355913e-03  5.6610058394e-03 -4.6773784347e-03  0.0000000000e+00  0.0000000000e+00  9.9951368521e-01]]
N(g) (NO)
 [[ 1.0004088401 -0.0088172035]
 [ 0.0088172035  1.0004088401]]
P(g) (NO)
 [[ 1.0000000000e+00  6.7019945339e-18 -1.0554022689e-16 -1.5225643261e-18 -2.7281342871e-16  1.9091531770e-34 -1.2037062152e-34  3.3703774027e-34]
 [-8.3219686566e-19  1.0000000000e+00  3.3282254960e-34  3.7544747592e-36  8.1546611581e-34  2.6238108110e-17 -1.3848835454e-17  3.9755872367e-17]
 [ 2.0045257003e-04  2.2743551750e-02 -2.1155809722e-20 -3.0520193221e-22 -5.4686152923e-20  5.9674776963e-19 -3.1497170582e-19  9.0418974055e-19]
 [-3.9040429079e-05 -4.4295666499e-03  4.1203357429e-21  5.9441564592e-23  1.0650753315e-20 -1.1622344864e-19  6.1344339666e-20 -1.7610128637e-19]
 [ 1.6690795934e-04  1.8937546224e-02 -1.7615503898e-20 -2.5412810463e-22 -4.5534732665e-20  4.9688538517e-19 -2.6226296155e-19  7.5287867062e-19]
 [ 3.3008380579e-03 -2.9092266645e-05 -3.4837119757e-19 -5.0257382734e-21 -9.0051294819e-19 -7.6332603741e-22  4.0289401374e-22 -1.1565884396e-21]
 [-2.7140968393e-03  2.3920964180e-05  2.8644639623e-19  4.1323870251e-21  7.4044206456e-19  6.2764084426e-22 -3.3127749683e-22  9.5099879884e-22]
 [ 2.9618558546e-02 -2.6104613063e-04 -3.1259493892e-18 -4.5096160634e-20 -8.0803405103e-18 -6.8493565973e-21  3.6151849090e-21 -1.0378116651e-20]]
time for NO, Ng: 0.014
Pg_ortho
 [[ 6.3361245974e-01  4.6896375003e-01 -7.0142369841e-02 -8.6172825060e-02  1.4179382930e-02 -1.0494769302e-02 -1.5696905992e-03  1.9284303297e-03]
 [ 4.6870591887e-01  3.4690934813e-01 -5.1886833036e-02 -6.3745137158e-02 -1.8759014792e-02  1.3884351212e-02  2.0766664751e-03 -2.5512713253e-03]
 [-7.0142369841e-02 -5.1915375543e-02  7.7649231344e-03  9.5395317321e-03 -1.5696905992e-03  1.1617953190e-03  1.7376839241e-04 -2.1348171318e-04]
 [-8.6125448181e-02 -6.3745137158e-02  9.5342870016e-03  1.1713268995e-02  3.4469984084e-03 -2.5512713253e-03 -3.8159072392e-04  4.6880011000e-04]
 [-1.4179382930e-02 -1.0494769302e-02  1.5696905992e-03  1.9284303297e-03  6.3361245974e-01 -4.6896375003e-01 -7.0142369841e-02  8.6172825060e-02]
 [-1.8759014792e-02 -1.3884351212e-02  2.0766664751e-03  2.5512713253e-03 -4.6870591887e-01  3.4690934813e-01  5.1886833036e-02 -6.3745137158e-02]
 [ 1.5696905992e-03  1.1617953190e-03 -1.7376839241e-04 -2.1348171318e-04 -7.0142369841e-02  5.1915375543e-02  7.7649231344e-03 -9.5395317321e-03]
 [ 3.4469984084e-03  2.5512713253e-03 -3.8159072392e-04 -4.6880011000e-04  8.6125448181e-02 -6.3745137158e-02 -9.5342870016e-03  1.1713268995e-02]]
G(g) (NO)
 [[ 2.7122543777e-01 -1.4540154567e-03  4.2188044903e-02  2.2155093986e-03  2.6625538149e-02 -4.7698355899e-04 -1.7963954027e-04 -3.4967741280e-04]
 [ 1.4540154567e-03  2.7122543777e-01 -1.4655474344e-04  5.1567582940e-04 -3.0766559631e-04  3.0113986147e-03  1.2347663440e-02 -4.8292086125e-02]
 [ 4.2140562372e-02 -1.1354516283e-02  6.8956235778e-01  8.6922525026e-04  5.6103311861e-02 -1.5206907624e-03 -2.9354481473e-04 -7.2463153822e-04]
 [ 2.2302520944e-03  7.8438586441e-04  8.6975748339e-04  7.5354926040e-01  4.5460890377e-02 -7.9133149784e-04 -2.8130620287e-04 -2.8430447352e-04]
 [ 2.6579577808e-02 -1.6037986631e-02  5.6097772000e-02  4.5461587386e-02  1.0654880164e+00 -6.5683995551e-03 -2.3988966775e-03 -1.3171042309e-03]
 [ 6.7105622936e-04  3.0228326685e-03  2.7276045892e-05  1.6739184028e-03 -4.8028627486e-04  7.7044099305e-01 -4.7335516986e-02 -6.9050321295e-02]
 [-2.9348576350e-03  1.2347177562e-02 -5.3561817231e-04 -3.4615852393e-03  7.3783714888e-04 -4.7336091233e-02  8.0255636459e-01  1.7603972470e-01]
 [-1.9434341013e-02 -4.8225352946e-02  1.5372203940e-05 -6.0098570040e-03  1.5418712776e-03 -6.9051257079e-02  1.7604522504e-01  9.3560227690e-01]]
time for Gg: 0.022
C(NO)
[[ 1.0000000000e+00  0.0000000000e+00  7.4566597661e-17 -8.5364480640e-17  1.9482174816e-16  0.0000000000e+00  0.0000000000e+00  0.0000000000e+00]
 [ 0.0000000000e+00  1.0000000000e+00  0.0000000000e+00  0.0000000000e+00  0.0000000000e+00  2.0125497041e-16  9.0205620751e-17  1.3877787808e-16]
 [-7.6071612991e-17  0.0000000000e+00  8.4727138603e-01 -2.2397018336e-01 -4.8163114037e-01  0.0000000000e+00  0.0000000000e+00  0.0000000000e+00]
 [-1.1572163306e-17  0.0000000000e+00 -1.8116837464e-01 -9.7423393641e-01  1.3433635839e-01  0.0000000000e+00  0.0000000000e+00  0.0000000000e+00]
 [-2.2234495641e-16  0.0000000000e+00  4.9930874060e-01  2.6563021687e-02  8.6601685171e-01  0.0000000000e+00  0.0000000000e+00  0.0000000000e+00]
 [ 0.0000000000e+00  1.6572613507e-17  0.0000000000e+00  0.0000000000e+00  0.0000000000e+00  1.6739130150e-01  9.4383605859e-01  2.8487479123e-01]
 [ 0.0000000000e+00 -7.7592370508e-19  0.0000000000e+00  0.0000000000e+00  0.0000000000e+00 -2.3957474686e-01  3.1923208035e-01 -9.1689411577e-01]
 [ 0.0000000000e+00 -1.7055997704e-17  0.0000000000e+00  0.0000000000e+00  0.0000000000e+00  9.5633890063e-01 -8.5231293387e-02 -2.7955595822e-01]]
detC 0.9999999999999994
detNg [ 1.0008955904  1.0238235524  1.1389212638  1.4910946134  2.4440377096  4.9558084798  9.7015378317 12.3912615067]
xg [0.9991052109 0.9767308025 0.8780238211 0.6706482547 0.4091589897 0.2017834232 0.1030764418 0.0807020334]
ciS 1.0798072443385682
[[-7.6624201229e-01  0.0000000000e+00 -3.7423730835e-02 -5.7601844409e-03 -4.0519969271e-02  0.0000000000e+00  0.0000000000e+00  0.0000000000e+00]
 [ 0.0000000000e+00 -7.6624201229e-01  0.0000000000e+00  0.0000000000e+00  0.0000000000e+00 -8.7543897609e-03  4.0602726509e-05  5.4762599239e-02]
 [-3.7423730835e-02  0.0000000000e+00 -2.5056363697e-01  1.3759518920e-01 -5.4579458558e-01  0.0000000000e+00  0.0000000000e+00  0.0000000000e+00]
 [-5.7601844409e-03  0.0000000000e+00  1.3759518920e-01  3.1625253519e-01  6.4569890932e-02  0.0000000000e+00  0.0000000000e+00  0.0000000000e+00]
 [-4.0519969271e-02  0.0000000000e+00 -5.4579458558e-01  6.4569890932e-02 -7.2477272433e-02  0.0000000000e+00  0.0000000000e+00  0.0000000000e+00]
 [ 0.0000000000e+00 -8.7543897609e-03  0.0000000000e+00  0.0000000000e+00  0.0000000000e+00  3.1566770609e-01  3.8666431407e-02 -1.0251620380e-01]
 [ 0.0000000000e+00  4.0602726509e-05  0.0000000000e+00  0.0000000000e+00  0.0000000000e+00  3.8666431407e-02  3.9384464905e-01  9.5346361367e-02]
 [ 0.0000000000e+00  5.4762599239e-02  0.0000000000e+00  0.0000000000e+00  0.0000000000e+00 -1.0251620380e-01  9.5346361367e-02 -7.1630072936e-01]]
ciH -1.3762059921027006
1.0 -7.15573433840433e-18 -0.02870630264430035j -3.686287386450715e-17
0.539975128779351 0.0004120259057530826 -0.00041202590575308256 0.4600248712206489
0.9999999999999998 -3.04118709382184e-17 -0.14790863679661315j -6.375108774214766e-17
0.5418275620056383 0.010938482419516215 -0.010938482419516216 0.4581724379943613
0.9999999999999999 -7.719519468096792e-17 -0.3553788558710545j -9.280770596475918e-17
0.5517606501108673 0.06314706560010985 -0.06314706560010987 0.44823934988913244
1.0000000000000002 -1.734723475976807e-17 -0.6577646081167313j -2.6281060661048627e-16
0.5887202429278525 0.21632713984547855 -0.21632713984547852 0.41127975707214776
0.9999999999999999 -4.623038063478191e-16 -1.0781351443449212j 7.806255641895632e-18
0.7383571173754336 0.5811876947358223 -0.5811876947358222 0.261642882624566
1.0 -6.019490461639521e-16 -1.5463663761488582j -1.5005358067199381e-16
1.480034464395233 1.195624484641876 -1.1956244846418762 -0.48003446439523334
0.9999999999999998 -4.883246584874712e-16 -1.4015513045175507j -1.97758476261356e-16
4.25572238635723 0.9821730295974243 -0.9821730295974241 -3.2557223863572298
1.0000000000000002 -1.3270634591222574e-16 -0.3553890199510394j -6.245004513516506e-16
6.626936292951376 0.06315067775088014 -0.06315067775088014 -5.626936292951377
S2 = 0.000000
X(g)
[[ 2.0000000000e+00  6.9388939039e-18  2.0045257003e-04 -3.9040429079e-05  1.6690795934e-04 -3.3008380579e-03  2.7140968393e-03 -2.9618558546e-02]
 [-8.6736173799e-18  2.0000000000e+00 -2.2743551750e-02  4.4295666499e-03 -1.8937546224e-02 -2.9092266645e-05  2.3920964180e-05 -2.6104613063e-04]
 [ 2.0045257003e-04  2.2743551750e-02  0.0000000000e+00  0.0000000000e+00  0.0000000000e+00  0.0000000000e+00  0.0000000000e+00  0.0000000000e+00]
 [-3.9040429079e-05 -4.4295666499e-03  0.0000000000e+00  0.0000000000e+00  0.0000000000e+00  0.0000000000e+00  0.0000000000e+00  0.0000000000e+00]
 [ 1.6690795934e-04  1.8937546224e-02  0.0000000000e+00  0.0000000000e+00  0.0000000000e+00  0.0000000000e+00  0.0000000000e+00  0.0000000000e+00]
 [ 3.3008380579e-03 -2.9092266645e-05  0.0000000000e+00  0.0000000000e+00  0.0000000000e+00  0.0000000000e+00  0.0000000000e+00  0.0000000000e+00]
 [-2.7140968393e-03  2.3920964180e-05  0.0000000000e+00  0.0000000000e+00  0.0000000000e+00  0.0000000000e+00  0.0000000000e+00  0.0000000000e+00]
 [ 2.9618558546e-02 -2.6104613063e-04  0.0000000000e+00  0.0000000000e+00  0.0000000000e+00  0.0000000000e+00  0.0000000000e+00  0.0000000000e+00]]
X(g) int
[[ 2.0000000000e+00  1.9671411136e-16  1.9073691713e-01 -3.7148194631e-02  1.5881816633e-01 -7.6960771594e-02  6.3280592160e-02 -6.9057223627e-01]
 [-1.6613785308e-16  2.0000000000e+00 -5.3027784482e-01  1.0327767107e-01 -4.4153882860e-01 -2.7682205578e-02  2.2761548838e-02 -2.4839359344e-01]
 [ 1.9073691713e-01  5.3027784482e-01  0.0000000000e+00  0.0000000000e+00  0.0000000000e+00  0.0000000000e+00  0.0000000000e+00  0.0000000000e+00]
 [-3.7148194631e-02 -1.0327767107e-01  0.0000000000e+00  0.0000000000e+00  0.0000000000e+00  0.0000000000e+00  0.0000000000e+00  0.0000000000e+00]
 [ 1.5881816633e-01  4.4153882860e-01  0.0000000000e+00  0.0000000000e+00  0.0000000000e+00  0.0000000000e+00  0.0000000000e+00  0.0000000000e+00]
 [ 7.6960771594e-02 -2.7682205578e-02  0.0000000000e+00  0.0000000000e+00  0.0000000000e+00  0.0000000000e+00  0.0000000000e+00  0.0000000000e+00]
 [-6.3280592160e-02  2.2761548838e-02  0.0000000000e+00  0.0000000000e+00  0.0000000000e+00  0.0000000000e+00  0.0000000000e+00  0.0000000000e+00]
 [ 6.9057223627e-01 -2.4839359344e-01  0.0000000000e+00  0.0000000000e+00  0.0000000000e+00  0.0000000000e+00  0.0000000000e+00  0.0000000000e+00]]
Feff
 [[-6.3440414810e-17  1.8389370268e-17 -2.8019883663e-03 -2.9897099858e-03  4.6987282152e-04 -2.0415364817e-02 -1.0448903367e-02 -1.8938979344e-02]
 [-3.8185505571e-17 -4.3190278868e-17 -7.0559284267e-03  2.2679307333e-02 -1.7902919699e-02 -2.6997758752e-03 -2.7591555408e-03  1.4520867735e-03]
 [-2.8019883663e-03  7.0559284267e-03  0.0000000000e+00  0.0000000000e+00  0.0000000000e+00  0.0000000000e+00  0.0000000000e+00  0.0000000000e+00]
 [-2.9897099858e-03 -2.2679307333e-02  0.0000000000e+00  0.0000000000e+00  0.0000000000e+00  0.0000000000e+00  0.0000000000e+00  0.0000000000e+00]
 [ 4.6987282152e-04  1.7902919699e-02  0.0000000000e+00  0.0000000000e+00  0.0000000000e+00  0.0000000000e+00  0.0000000000e+00  0.0000000000e+00]
 [ 2.0415364817e-02 -2.6997758752e-03  0.0000000000e+00  0.0000000000e+00  0.0000000000e+00  0.0000000000e+00  0.0000000000e+00  0.0000000000e+00]
 [ 1.0448903367e-02 -2.7591555408e-03  0.0000000000e+00  0.0000000000e+00  0.0000000000e+00  0.0000000000e+00  0.0000000000e+00  0.0000000000e+00]
 [ 1.8938979344e-02  1.4520867735e-03  0.0000000000e+00  0.0000000000e+00  0.0000000000e+00  0.0000000000e+00  0.0000000000e+00  0.0000000000e+00]]
Feff (ortho)
 [[-1.6423782864e-03 -2.2713925169e-04 -1.3062061373e-03 -2.7175607100e-03  3.4694469520e-18  6.7654215563e-17 -3.2959746044e-17  2.5153490402e-17]
 [-2.2713925169e-04  5.6348268232e-04 -1.0762034712e-03 -2.1458155214e-03  4.5970172113e-17  1.7347234760e-17 -2.9056618223e-17  2.5153490402e-17]
 [-1.3062061373e-03 -1.0762034712e-03  3.0932745416e-04  5.0321475884e-04 -1.0408340856e-17  0.0000000000e+00  4.7704895589e-18 -3.9031278209e-18]
 [-2.7175607100e-03 -2.1458155214e-03  5.0321475884e-04  7.6956814991e-04  2.3418766926e-17 -2.5587171271e-17  2.3852447795e-18 -6.5052130349e-19]
 [ 3.4694469520e-18  4.5970172113e-17 -1.0408340856e-17  2.3418766926e-17 -1.6423782864e-03  2.2713925169e-04 -1.3062061373e-03  2.7175607100e-03]
 [ 6.7654215563e-17  1.7347234760e-17  0.0000000000e+00 -2.5587171271e-17  2.2713925169e-04  5.6348268232e-04  1.0762034712e-03 -2.1458155214e-03]
 [-3.2959746044e-17 -2.9056618223e-17  4.7704895589e-18  2.3852447795e-18 -1.3062061373e-03  1.0762034712e-03  3.0932745416e-04 -5.0321475884e-04]
 [ 2.5153490402e-17  2.5153490402e-17 -3.9031278209e-18 -6.5052130349e-19  2.7175607100e-03 -2.1458155214e-03 -5.0321475884e-04  7.6956814991e-04]]
Hsp + Hph =  -1.2744922756521144
Feff (mod,ortho)
[[-0.2317673778 -0.330767483   0.2234860663 -0.0367442925  0.            0.            0.            0.          ]
 [-0.330767483   0.0028145471 -0.0726401881  0.3319698847  0.            0.            0.            0.          ]
 [ 0.2234860663 -0.0726401881  1.1202617637 -0.0506542407  0.            0.            0.            0.          ]
 [-0.0367442925  0.3319698847 -0.0506542407  1.1154900681  0.            0.            0.            0.          ]
 [ 0.            0.            0.            0.           -0.2317673778  0.330767483   0.2234860663  0.0367442925]
 [ 0.            0.            0.            0.            0.330767483   0.0028145471  0.0726401881  0.3319698847]
 [ 0.            0.            0.            0.            0.2234860663  0.0726401881  1.1202617637  0.0506542407]
 [ 0.            0.            0.            0.            0.0367442925  0.3319698847  0.0506542407  1.1154900681]]
Alpha occ 1 vir 3; Beta occ 1 vir 3
Alpha energies:  [-0.4950424854] <- HOMO
         LUMO->  [0.1210952317 1.0986655487 1.2820807062]
Beta energies:   [-0.4950424854] <- HOMO
         LUMO->  [0.1210952317 1.0986655487 1.2820807062]
e_a, e_b
 [-0.4950424854  0.1210952317  1.0986655487  1.2820807062] 
 [-0.4950424854  0.1210952317  1.0986655487  1.2820807062]
v_a, v_b
 [[ 0.7974915584  0.5736705522 -0.0914127488  0.1629509779]
 [ 0.5875665017 -0.7561938732 -0.100614062  -0.2698392906]
 [-0.0872278145 -0.1698559336 -0.7911459207  0.5810580025]
 [-0.1056604407  0.2649941235 -0.596329315  -0.7503368136]] 
 [[ 0.7974915584 -0.5736705522  0.0914127488  0.1629509779]
 [-0.5875665017 -0.7561938732 -0.100614062   0.2698392906]
 [-0.0872278145  0.1698559336  0.7911459207  0.5810580025]
 [ 0.1056604407  0.2649941235 -0.596329315   0.7503368136]]
P_a, P_b
 [[ 0.6359927857  0.4685793251 -0.0695634458 -0.0842633095]
 [ 0.4685793251  0.3452343939 -0.0512521418 -0.0620825355]
 [-0.0695634458 -0.0512521418  0.0076086916  0.0092165293]
 [-0.0842633095 -0.0620825355  0.0092165293  0.0111641287]] 
 [[ 0.6359927857 -0.4685793251 -0.0695634458  0.0842633095]
 [-0.4685793251  0.3452343939  0.0512521418 -0.0620825355]
 [-0.0695634458  0.0512521418  0.0076086916 -0.0092165293]
 [ 0.0842633095 -0.0620825355 -0.0092165293  0.0111641287]]
dm_reg
 [[[4.6068051295e-05 3.6478610464e-04 2.5190717357e-03 4.7837769815e-03]
  [3.6478610464e-04 2.8885290000e-03 1.9947063962e-02 3.7879947632e-02]
  [2.5190717357e-03 1.9947063962e-02 1.3774670800e-01 2.6158426600e-01]
  [4.7837769815e-03 3.7879947632e-02 2.6158426600e-01 4.9675472623e-01]]

 [[1.3774670800e-01 2.6158426600e-01 2.5190717357e-03 1.9947063962e-02]
  [2.6158426600e-01 4.9675472623e-01 4.7837769815e-03 3.7879947632e-02]
  [2.5190717357e-03 4.7837769815e-03 4.6068051295e-05 3.6478610464e-04]
  [1.9947063962e-02 3.7879947632e-02 3.6478610464e-04 2.8885290000e-03]]]
mo_reg
 [[-0.0067873449 -0.1710194762  0.1636615375 -1.3017286963]
 [-0.053745037  -0.9038538588  0.0645239106  1.0403648886]
 [-0.3711424363  0.0825759076  1.2515694835  0.1989592078]
 [-0.7048082904  0.2057389277 -1.1178874435 -0.3429390536]] 
 [[-0.3711424363 -0.0825759076 -1.2515694835  0.1989592078]
 [-0.7048082904 -0.2057389277  1.1178874435 -0.3429390536]
 [-0.0067873449  0.1710194762 -0.1636615375 -1.3017286963]
 [-0.053745037   0.9038538588 -0.0645239106  1.0403648886]]
time for xg, H, S2, Yg, Feff: 0.026
 E =     -1.00990367, delta E = -0.000413038, MaxD(dm) =  0.0025053, RMSD(dm) = 0.00123863
**** Start Cycle 3 ****
dm (ortho)
[[[ 0.6359927857  0.4685793251 -0.0695634458 -0.0842633095]
  [ 0.4685793251  0.3452343939 -0.0512521418 -0.0620825355]
  [-0.0695634458 -0.0512521418  0.0076086916  0.0092165293]
  [-0.0842633095 -0.0620825355  0.0092165293  0.0111641287]]

 [[ 0.6359927857 -0.4685793251 -0.0695634458  0.0842633095]
  [-0.4685793251  0.3452343939  0.0512521418 -0.0620825355]
  [-0.0695634458  0.0512521418  0.0076086916 -0.0092165293]
  [ 0.0842633095 -0.0620825355 -0.0092165293  0.0111641287]]]
Fock (ortho)
 (array([[-0.2364629329, -0.3286842211,  0.21724542  , -0.0271364021],
       [-0.3286842211,  0.0096475354, -0.078571497 ,  0.3387525615],
       [ 0.21724542  , -0.078571497 ,  1.1222633262, -0.0510834219],
       [-0.0271364021,  0.3387525615, -0.0510834219,  1.1132570917]]), array([[-0.2364629329,  0.3286842211,  0.21724542  ,  0.0271364021],
       [ 0.3286842211,  0.0096475354,  0.078571497 ,  0.3387525615],
       [ 0.21724542  ,  0.078571497 ,  1.1222633262,  0.0510834219],
       [ 0.0271364021,  0.3387525615,  0.0510834219,  1.1132570917]]))
E1 = -1.5330578051195323  Ecoul = 0.271808665842615
E(UHF) =    -1.261249
[1 0 0 0] [1 0 0 0] [0 1 1 1] [0 1 1 1]
NO eigenvalue
[-1.0000000000e+00 -1.1322435922e-16 -4.9065008183e-19  1.2907005044e-18] 
 [-1.0000000000e+00 -2.7976929153e-16 -8.9122908478e-19  6.8732790800e-19]
NO vec
[[ 0.7974915584  0.           -0.5974457935  0.065184025   0.0530733553  0.            0.            0.          ]
 [ 0.5875665017  0.            0.8005522003  0.0748048817  0.0910275247  0.            0.            0.          ]
 [-0.0872278145  0.           -0.0172014646  0.9910004985 -0.1000671276  0.            0.            0.          ]
 [-0.1056604407  0.           -0.0433452189  0.0898514584  0.9893855561  0.            0.            0.          ]
 [ 0.            0.7974915584  0.            0.            0.            0.6009310556  0.0535044107 -0.0051340783]
 [ 0.           -0.5875665017  0.            0.            0.            0.7920602129 -0.1281414123  0.1048141382]
 [ 0.           -0.0872278145  0.            0.            0.            0.0364899629  0.9255016967  0.3667511423]
 [ 0.            0.1056604407  0.            0.            0.           -0.1009503249 -0.3523686505  0.9243815431]]
dm(NO)
[[ 1.0000000000e+00  0.0000000000e+00 -8.5390120192e-17 -1.9324056554e-17  1.8525400352e-17  0.0000000000e+00  0.0000000000e+00  0.0000000000e+00]
 [ 0.0000000000e+00  1.0000000000e+00  0.0000000000e+00  0.0000000000e+00  0.0000000000e+00 -1.7146615016e-16  9.8124255795e-18 -2.3596294032e-17]
 [-1.4478907613e-16  0.0000000000e+00 -1.2390558530e-17  7.1371912082e-18  2.7892175662e-18  0.0000000000e+00  0.0000000000e+00  0.0000000000e+00]
 [-1.4340497166e-18  0.0000000000e+00 -2.7288340063e-18  1.7467199788e-18  8.4155885725e-19  0.0000000000e+00  0.0000000000e+00  0.0000000000e+00]
 [ 4.4538831313e-18  0.0000000000e+00  9.5053013779e-19  1.5294577827e-18 -6.8011236589e-19  0.0000000000e+00  0.0000000000e+00  0.0000000000e+00]
 [ 0.0000000000e+00 -1.0021388334e-16  0.0000000000e+00  0.0000000000e+00  0.0000000000e+00 -2.4109981565e-17  1.2652409015e-18 -5.7089239917e-18]
 [ 0.0000000000e+00  1.5978086676e-18  0.0000000000e+00  0.0000000000e+00  0.0000000000e+00 -7.9864327845e-19  2.1184398410e-18 -1.3389494453e-18]
 [ 0.0000000000e+00 -5.6686480950e-18  0.0000000000e+00  0.0000000000e+00  0.0000000000e+00  1.3761690722e-18 -1.3342406364e-19  1.2165355216e-18]]
D(g) (NO)
 [[ 9.9951368521e-01  8.9559122983e-03 -1.3981369551e-16 -2.1140540313e-17  5.5190641089e-18  2.9689822620e-02 -2.3736774221e-03 -2.2505105891e-03]
 [-8.9559122983e-03  9.9951368521e-01  2.9621408289e-02  2.1490911177e-03 -3.1840678361e-03 -3.3585078697e-16  9.4598199798e-18 -4.4581899856e-18]
 [-1.4936590015e-16 -2.9621408289e-02  9.9951368521e-01 -7.3870382449e-17 -1.8698138279e-17  8.6941882275e-03 -4.2158576420e-03  1.2660494142e-03]
 [-1.0955290775e-17 -2.1490911177e-03 -7.1803043089e-17  9.9951368521e-01  1.9163740046e-16  3.9138715619e-03  2.7422953196e-02  1.4157603242e-02]
 [ 9.9196262749e-18  3.1840678361e-03 -1.6998003712e-17  1.8580626582e-16  9.9951368521e-01  1.4421268741e-05 -1.4034490109e-02  2.7663833179e-02]
 [-2.9689822620e-02 -3.0194072389e-16 -8.6941882275e-03 -3.9138715619e-03 -1.4421268741e-05  9.9951368521e-01  1.0121197355e-17  3.4107556125e-17]
 [ 2.3736774221e-03  2.0816681712e-17  4.2158576420e-03 -2.7422953196e-02  1.4034490109e-02  1.3877787808e-17  9.9951368521e-01  0.0000000000e+00]
 [ 2.2505105891e-03  0.0000000000e+00 -1.2660494142e-03 -1.4157603242e-02 -2.7663833179e-02  2.7755575616e-17  0.0000000000e+00  9.9951368521e-01]]
N(g) (NO)
 [[ 1.0004062324 -0.0089639098]
 [ 0.0089639098  1.0004062324]]
P(g) (NO)
 [[ 1.0000000000e+00 -5.2514469819e-19 -8.5390120192e-17 -1.9324056554e-17  1.8525400352e-17  1.3414608165e-34 -1.2037062152e-35  4.8148248610e-35]
 [-6.1761757000e-18  1.0000000000e+00  5.8000503977e-34  1.2982957715e-34 -1.0979114405e-34 -1.7146615016e-16  9.8124255795e-18 -2.3596294032e-17]
 [-2.6552363091e-04 -2.9633441464e-02  2.2673094758e-20  5.1309936603e-21 -4.9189315657e-21  5.0811321239e-18 -2.9077593903e-19  6.9923939795e-19]
 [-1.9264258849e-05 -2.1499641481e-03  1.6449773785e-21  3.7226362746e-22 -3.5687810766e-22  3.6864607546e-19 -2.1096363201e-20  5.0731186196e-20]
 [ 2.8541696758e-05  3.1853613075e-03 -2.4371789166e-21 -5.5154136230e-22  5.2874635917e-22 -5.4618164028e-19  3.1256120774e-20 -7.5162722010e-20]
 [-2.9701883587e-02  2.6613689081e-04  2.5362474094e-18  5.7396087820e-19 -5.5023928466e-19 -4.5633468083e-20  2.6114484350e-21 -6.2798443282e-21]
 [ 2.3746416867e-03 -2.1277430215e-05 -2.0277093904e-19 -4.5887710250e-20  4.3991187939e-20  3.6483590444e-21 -2.0878320051e-22  5.0206849960e-22]
 [ 2.2514248194e-03 -2.0173373838e-05 -1.9224943593e-19 -4.3506660537e-20  4.1708546141e-20  3.4590507479e-21 -1.9794972948e-22  4.7601686071e-22]]
time for NO, Ng: 0.014
Pg_ortho
 [[ 6.3611950316e-01  4.6867268652e-01 -6.9577305819e-02 -8.4280098463e-02  1.4142148634e-02 -1.0419486843e-02 -1.5468360828e-03  1.8737071784e-03]
 [ 4.6841072861e-01  3.4511017739e-01 -5.1233701139e-02 -6.2060198016e-02 -1.8816007077e-02  1.3863037594e-02  2.0580520990e-03 -2.4929512792e-03]
 [-6.9577305819e-02 -5.1262353500e-02  7.6102076119e-03  9.2183656625e-03 -1.5468360828e-03  1.1396597950e-03  1.6918941590e-04 -2.0494183360e-04]
 [-8.4232991304e-02 -6.2060198016e-02  9.2132131885e-03  1.1160111843e-02  3.3836299292e-03 -2.4929512792e-03 -3.7009375313e-04  4.4830045640e-04]
 [-1.4142148634e-02 -1.0419486843e-02  1.5468360828e-03  1.8737071784e-03  6.3611950316e-01 -4.6867268652e-01 -6.9577305819e-02  8.4280098463e-02]
 [-1.8816007077e-02 -1.3863037594e-02  2.0580520990e-03  2.4929512792e-03 -4.6841072861e-01  3.4511017739e-01  5.1233701139e-02 -6.2060198016e-02]
 [ 1.5468360828e-03  1.1396597950e-03 -1.6918941590e-04 -2.0494183360e-04 -6.9577305819e-02  5.1262353500e-02  7.6102076119e-03 -9.2183656625e-03]
 [ 3.3836299292e-03  2.4929512792e-03 -3.7009375313e-04 -4.4830045640e-04  8.4232991304e-02 -6.2060198016e-02 -9.2132131885e-03  1.1160111843e-02]]
G(g) (NO)
 [[ 2.7182187537e-01 -1.4742329413e-03 -4.8363075935e-02  2.9910729604e-03  1.4878188714e-02  3.7504979997e-04 -4.8497027023e-04  1.6254036769e-04]
 [ 1.4742329413e-03  2.7182187537e-01  4.0111451827e-04  4.1281598541e-04  2.6639818321e-04  4.9180532505e-02  4.9952975313e-03 -1.1207870263e-02]
 [-4.8294710397e-02  1.9438268350e-02  9.3764362623e-01 -1.1701442642e-01  1.4642508359e-01 -1.5685948493e-03  5.7700118552e-03 -1.6406382481e-03]
 [ 2.9987176917e-03 -2.4195710703e-03 -1.1701217215e-01  8.0547968675e-01 -5.3223623729e-02  6.2839598144e-04 -2.6340811547e-03  8.7132299841e-04]
 [ 1.4877412508e-02  1.8687296138e-03  1.4641980040e-01 -5.3223791321e-02  7.6678551229e-01 -2.3231471663e-04  2.6394864267e-03 -1.0063567124e-03]
 [ 1.9357752994e-02  4.9112444801e-02  1.8647762267e-03  4.9853957908e-03  2.9887091578e-03  9.2637456024e-01  6.3998380850e-02  1.8077602276e-01]
 [ 1.0555300086e-03  5.0051363423e-03  5.6523715328e-04  1.3830669653e-03  8.8555669896e-04  6.3997660379e-02  7.6940250516e-01  5.1729802744e-02]
 [ 3.3698674154e-03 -1.1208262083e-02  6.6663799782e-04  3.0305235458e-03  2.1592361425e-03  1.8077033761e-01  5.1730229197e-02  8.1413175987e-01]]
time for Gg: 0.022
C(NO)
[[ 1.0000000000e+00  0.0000000000e+00 -1.1965559775e-16 -2.7322923786e-16  4.1745908970e-16  0.0000000000e+00  0.0000000000e+00  0.0000000000e+00]
 [ 0.0000000000e+00  1.0000000000e+00  0.0000000000e+00  0.0000000000e+00  0.0000000000e+00  5.1797706334e-16  6.2450045135e-17  2.7755575616e-17]
 [-1.4029973567e-16  0.0000000000e+00 -9.5667418477e-01  1.3524246710e-02 -2.9084634936e-01  0.0000000000e+00  0.0000000000e+00  0.0000000000e+00]
 [-6.6932082204e-18  0.0000000000e+00 -1.6369004403e-01 -8.5109213439e-01  4.9884641752e-01  0.0000000000e+00  0.0000000000e+00  0.0000000000e+00]
 [ 4.7949175440e-18  0.0000000000e+00  2.4079051824e-01 -5.2484214154e-01 -8.1643165837e-01  0.0000000000e+00  0.0000000000e+00  0.0000000000e+00]
 [ 0.0000000000e+00 -8.6130943554e-17  0.0000000000e+00  0.0000000000e+00  0.0000000000e+00 -9.6424073688e-01  6.4308887614e-02  2.5710730896e-01]
 [ 0.0000000000e+00 -8.9554595903e-18  0.0000000000e+00  0.0000000000e+00  0.0000000000e+00  1.3003217911e-01  9.6011846126e-01  2.4751600502e-01]
 [ 0.0000000000e+00 -1.0767923123e-17  0.0000000000e+00  0.0000000000e+00  0.0000000000e+00  2.3093599491e-01 -2.7209723872e-01  9.3414755737e-01]]
detC 1.0000000000000002
detNg [ 1.0008929814  1.0237525651  1.1384609372  1.4889663308  2.4338084505  4.89939833    9.4619009517 11.9936114546]
xg [0.9991078153 0.9767985293 0.8783788423 0.6716068586 0.4108786785 0.2041066949 0.1056870078 0.0833777219]
ciS 1.082485537154121
[[-0.7665289026  0.            0.0541695243 -0.0102153889 -0.0018819981  0.            0.            0.          ]
 [ 0.           -0.7665289026  0.            0.            0.           -0.0544296712 -0.0081997674 -0.0035225225]
 [ 0.0541695243  0.           -0.7174092418 -0.0631491177  0.1228084287  0.            0.            0.          ]
 [-0.0102153889  0.           -0.0631491177  0.3130646448  0.016740905   0.            0.            0.          ]
 [-0.0018819981  0.            0.1228084287  0.016740905   0.3978431131  0.            0.            0.          ]
 [ 0.           -0.0544296712  0.            0.            0.           -0.7237730192  0.0705280864  0.0815748767]
 [ 0.           -0.0081997674  0.            0.            0.            0.0705280864  0.3242096288 -0.0384078168]
 [ 0.           -0.0035225225  0.            0.            0.            0.0815748767 -0.0384078168  0.3930619065]]
ciH -1.3796559397301462
0.9999999999999998 -5.7462715141731735e-18 -0.028622676100253566j -9.974659986866641e-17
0.5413164595163011 0.0004096287935700133 -0.00040962879357001335 0.4586835404836987
1.0 -4.445228907190568e-18 -0.14746791169784138j -1.5439038936193583e-16
0.5432252801945664 0.010873392490261168 -0.01087339249026117 0.45677471980543377
0.9999999999999998 -1.1254018550399536e-16 -0.3542012798190224j -4.683753385137379e-17
0.5534544762542694 0.0627292733127167 -0.06272927331271669 0.4465455237457306
1.0 -1.6306400674181987e-16 -0.654914018979619j -7.19910242530375e-17
0.5914360730738409 0.2144561861280184 -0.2144561861280184 0.40856392692615917
0.9999999999999998 -1.947227101783966e-16 -1.0704978620388028j -2.42861286636753e-17
0.7442983876439173 0.5729828363148236 -0.5729828363148238 0.25570161235608213
0.9999999999999999 -6.678685382510707e-17 -1.5243150661737184j 1.8388068845354155e-16
1.4899957060014393 1.1617682104820937 -1.1617682104820939 -0.4899957060014394
1.0000000000000002 -3.3133218391157016e-16 -1.362953140800441j 5.84601811404184e-16
4.1923648350814124 0.9288206320088935 -0.9288206320088932 -3.192364835081412
1.0 -6.917209860457518e-17 -0.3429829785108591j 6.730727086790012e-16
6.432636807126321 0.058818661774090224 -0.05881866177409022 -5.43263680712632
S2 = -0.000000
X(g)
[[ 2.0000000000e+00  5.2041704279e-18 -2.6552363091e-04 -1.9264258849e-05  2.8541696758e-05  2.9701883587e-02 -2.3746416867e-03 -2.2514248194e-03]
 [-5.2041704279e-18  2.0000000000e+00  2.9633441464e-02  2.1499641481e-03 -3.1853613075e-03  2.6613689081e-04 -2.1277430215e-05 -2.0173373838e-05]
 [-2.6552363091e-04 -2.9633441464e-02  0.0000000000e+00  0.0000000000e+00  0.0000000000e+00  0.0000000000e+00  0.0000000000e+00  0.0000000000e+00]
 [-1.9264258849e-05 -2.1499641481e-03  0.0000000000e+00  0.0000000000e+00  0.0000000000e+00  0.0000000000e+00  0.0000000000e+00  0.0000000000e+00]
 [ 2.8541696758e-05  3.1853613075e-03  0.0000000000e+00  0.0000000000e+00  0.0000000000e+00  0.0000000000e+00  0.0000000000e+00  0.0000000000e+00]
 [-2.9701883587e-02  2.6613689081e-04  0.0000000000e+00  0.0000000000e+00  0.0000000000e+00  0.0000000000e+00  0.0000000000e+00  0.0000000000e+00]
 [ 2.3746416867e-03 -2.1277430215e-05  0.0000000000e+00  0.0000000000e+00  0.0000000000e+00  0.0000000000e+00  0.0000000000e+00  0.0000000000e+00]
 [ 2.2514248194e-03 -2.0173373838e-05  0.0000000000e+00  0.0000000000e+00  0.0000000000e+00  0.0000000000e+00  0.0000000000e+00  0.0000000000e+00]]
X(g) int
[[ 2.0000000000e+00  1.8828465154e-17 -2.5202961420e-01 -1.8285241539e-02  2.7091196357e-02  6.9080337886e-01 -5.5229174135e-02 -5.2363408802e-02]
 [-3.8535723617e-17  2.0000000000e+00  6.8921155893e-01  5.0003646858e-02 -7.4084808381e-02  2.5261170798e-01 -2.0196102734e-02 -1.9148154942e-02]
 [-2.5202961420e-01 -6.8921155893e-01  0.0000000000e+00  0.0000000000e+00  0.0000000000e+00  0.0000000000e+00  0.0000000000e+00  0.0000000000e+00]
 [-1.8285241539e-02 -5.0003646858e-02  0.0000000000e+00  0.0000000000e+00  0.0000000000e+00  0.0000000000e+00  0.0000000000e+00  0.0000000000e+00]
 [ 2.7091196357e-02  7.4084808381e-02  0.0000000000e+00  0.0000000000e+00  0.0000000000e+00  0.0000000000e+00  0.0000000000e+00  0.0000000000e+00]
 [-6.9080337886e-01  2.5261170798e-01  0.0000000000e+00  0.0000000000e+00  0.0000000000e+00  0.0000000000e+00  0.0000000000e+00  0.0000000000e+00]
 [ 5.5229174135e-02 -2.0196102734e-02  0.0000000000e+00  0.0000000000e+00  0.0000000000e+00  0.0000000000e+00  0.0000000000e+00  0.0000000000e+00]
 [ 5.2363408802e-02 -1.9148154942e-02  0.0000000000e+00  0.0000000000e+00  0.0000000000e+00  0.0000000000e+00  0.0000000000e+00  0.0000000000e+00]]
Feff
 [[ 1.1789623961e-17 -1.4046533688e-17 -4.1493797377e-04 -3.3254300347e-04 -1.8074825460e-03  1.9507674370e-02 -2.0768185026e-02  1.2307949273e-02]
 [-2.3313893982e-17 -3.5230071022e-16  2.0869125796e-02  1.6135926837e-02  1.6354324736e-02  3.0453244264e-04 -8.2519459868e-04  1.6661528714e-03]
 [-4.1493797377e-04 -2.0869125796e-02  0.0000000000e+00  0.0000000000e+00  0.0000000000e+00  0.0000000000e+00  0.0000000000e+00  0.0000000000e+00]
 [-3.3254300347e-04 -1.6135926837e-02  0.0000000000e+00  0.0000000000e+00  0.0000000000e+00  0.0000000000e+00  0.0000000000e+00  0.0000000000e+00]
 [-1.8074825460e-03 -1.6354324736e-02  0.0000000000e+00  0.0000000000e+00  0.0000000000e+00  0.0000000000e+00  0.0000000000e+00  0.0000000000e+00]
 [-1.9507674370e-02  3.0453244264e-04  0.0000000000e+00  0.0000000000e+00  0.0000000000e+00  0.0000000000e+00  0.0000000000e+00  0.0000000000e+00]
 [ 2.0768185026e-02 -8.2519459868e-04  0.0000000000e+00  0.0000000000e+00  0.0000000000e+00  0.0000000000e+00  0.0000000000e+00  0.0000000000e+00]
 [-1.2307949273e-02  1.6661528714e-03  0.0000000000e+00  0.0000000000e+00  0.0000000000e+00  0.0000000000e+00  0.0000000000e+00  0.0000000000e+00]]
Feff (ortho)
 [[ 2.0782198115e-04 -3.3940211584e-04 -1.2424501918e-04 -1.4494044116e-03 -6.9388939039e-17  4.9439619065e-17 -4.7704895589e-17  2.6888213878e-17]
 [-3.3940211584e-04 -6.1293293454e-04 -3.7669208594e-05 -1.0026209326e-03  6.2450045135e-17 -4.5102810375e-17 -4.7704895589e-17  3.5128150389e-17]
 [-1.2424501918e-04 -3.7669208594e-05  2.4693000123e-05  1.7198224059e-04  1.9081958236e-17 -1.4311468677e-17  3.9031278209e-18 -1.5178830415e-18]
 [-1.4494044116e-03 -1.0026209326e-03  1.7198224059e-04  3.8041795326e-04  5.2909066017e-17 -3.9464959078e-17  1.7347234760e-18  2.3852447795e-18]
 [-6.9388939039e-17  6.2450045135e-17  1.9081958236e-17  5.2909066017e-17  2.0782198115e-04  3.3940211584e-04 -1.2424501918e-04  1.4494044116e-03]
 [ 4.9439619065e-17 -4.5102810375e-17 -1.4311468677e-17 -3.9464959078e-17  3.3940211584e-04 -6.1293293453e-04  3.7669208594e-05 -1.0026209326e-03]
 [-4.7704895589e-17 -4.7704895589e-17  3.9031278209e-18  1.7347234760e-18 -1.2424501918e-04  3.7669208594e-05  2.4693000123e-05 -1.7198224059e-04]
 [ 2.6888213878e-17  3.5128150389e-17 -1.5178830415e-18  2.3852447795e-18  1.4494044116e-03 -1.0026209326e-03 -1.7198224059e-04  3.8041795326e-04]]
Hsp + Hph =  -1.2745259796794077
Feff (mod,ortho)
[[-0.2310739402 -0.3313317711  0.223666772  -0.0384629739  0.            0.            0.            0.          ]
 [-0.3313317711  0.0028209801 -0.0731165878  0.3312843263  0.            0.            0.            0.          ]
 [ 0.223666772  -0.0731165878  1.1207941493 -0.0507734134  0.            0.            0.            0.          ]
 [-0.0384629739  0.3312843263 -0.0507734134  1.1161638314  0.            0.            0.            0.          ]
 [ 0.            0.            0.            0.           -0.2310739402  0.3313317711  0.223666772   0.0384629739]
 [ 0.            0.            0.            0.            0.3313317711  0.0028209801  0.0731165878  0.3312843263]
 [ 0.            0.            0.            0.            0.223666772   0.0731165878  1.1207941493  0.0507734134]
 [ 0.            0.            0.            0.            0.0384629739  0.3312843263  0.0507734134  1.1161638314]]
Alpha occ 1 vir 3; Beta occ 1 vir 3
Alpha energies:  [-0.4947223317] <- HOMO
         LUMO->  [0.1214844235 1.0988027767 1.283140152 ]
Beta energies:   [-0.4947223317] <- HOMO
         LUMO->  [0.1214844235 1.0988027767 1.283140152 ]
e_a, e_b
 [-0.4947223317  0.1214844235  1.0988027767  1.283140152 ] 
 [-0.4947223317  0.1214844235  1.0988027767  1.283140152 ]
v_a, v_b
 [[ 0.7974155857  0.5736013608 -0.0906731316  0.1639763574]
 [ 0.5878800685 -0.7560562714 -0.1003878331 -0.269626079 ]
 [-0.0870821898 -0.1702230952 -0.7905455423  0.5817890817]
 [-0.1046044975  0.2653007562 -0.5972758255 -0.7496232361]] 
 [[ 0.7974155857 -0.5736013608  0.0906731316  0.1639763574]
 [-0.5878800685 -0.7560562714 -0.1003878331  0.269626079 ]
 [-0.0870821898  0.1702230952  0.7905455423  0.5817890817]
 [ 0.1046044975  0.2653007562 -0.5972758255  0.7496232361]]
P_a, P_b
 [[ 0.6358716164  0.4687847292 -0.0694406954 -0.0834132566]
 [ 0.4687847292  0.345602975  -0.0511938837 -0.0614948992]
 [-0.0694406954 -0.0511938837  0.0075833078  0.0091091887]
 [-0.0834132566 -0.0614948992  0.0091091887  0.0109421009]] 
 [[ 0.6358716164 -0.4687847292 -0.0694406954  0.0834132566]
 [-0.4687847292  0.345602975   0.0511938837 -0.0614948992]
 [-0.0694406954  0.0511938837  0.0075833078 -0.0091091887]
 [ 0.0834132566 -0.0614948992 -0.0091091887  0.0109421009]]
dm_reg
 [[[3.4356140591e-05 3.2008387454e-04 2.1820129336e-03 4.1245398854e-03]
  [3.2008387454e-04 2.9821069823e-03 2.0329034114e-02 3.8426862986e-02]
  [2.1820129336e-03 2.0329034114e-02 1.3858309928e-01 2.6195606434e-01]
  [4.1245398854e-03 3.8426862986e-02 2.6195606434e-01 4.9516124260e-01]]

 [[1.3858309928e-01 2.6195606434e-01 2.1820129336e-03 2.0329034114e-02]
  [2.6195606434e-01 4.9516124260e-01 4.1245398854e-03 3.8426862986e-02]
  [2.1820129336e-03 4.1245398854e-03 3.4356140591e-05 3.2008387454e-04]
  [2.0329034114e-02 3.8426862986e-02 3.2008387454e-04 2.9821069823e-03]]]
mo_reg
 [[-0.0058614111 -0.1703630201  0.1622171604 -1.3020000403]
 [-0.0546086713 -0.9043603228  0.0657361274  1.0398037433]
 [-0.3722675104  0.0825939426  1.2514967139  0.1973006417]
 [-0.7036769448  0.2057778316 -1.1188334673 -0.342153003 ]] 
 [[-0.3722675104 -0.0825939426 -1.2514967139  0.1973006417]
 [-0.7036769448 -0.2057778316  1.1188334673 -0.342153003 ]
 [-0.0058614111  0.1703630201 -0.1622171604 -1.3020000403]
 [-0.0546086713  0.9043603228 -0.0657361274  1.0398037433]]
time for xg, H, S2, Yg, Feff: 0.026
 E =     -1.00993737, delta E = -3.3704e-05, MaxD(dm) = 0.000850053, RMSD(dm) = 0.000393751
**** Start Cycle 4 ****
dm (ortho)
[[[ 0.6358716164  0.4687847292 -0.0694406954 -0.0834132566]
  [ 0.4687847292  0.345602975  -0.0511938837 -0.0614948992]
  [-0.0694406954 -0.0511938837  0.0075833078  0.0091091887]
  [-0.0834132566 -0.0614948992  0.0091091887  0.0109421009]]

 [[ 0.6358716164 -0.4687847292 -0.0694406954  0.0834132566]
  [-0.4687847292  0.345602975   0.0511938837 -0.0614948992]
  [-0.0694406954  0.0511938837  0.0075833078 -0.0091091887]
  [ 0.0834132566 -0.0614948992 -0.0091091887  0.0109421009]]]
Fock (ortho)
 (array([[-0.2362400512, -0.3289820046,  0.2172415354, -0.0275600898],
       [-0.3289820046,  0.0097338328, -0.0788642211,  0.3386483747],
       [ 0.2172415354, -0.0788642211,  1.1224638275, -0.0511749333],
       [-0.0275600898,  0.3386483747, -0.0511749333,  1.1134700019]]), array([[-0.2362400512,  0.3289820046,  0.2172415354,  0.0275600898],
       [ 0.3289820046,  0.0097338328,  0.0788642211,  0.3386483747],
       [ 0.2172415354,  0.0788642211,  1.1224638275,  0.0511749333],
       [ 0.0275600898,  0.3386483747,  0.0511749333,  1.1134700019]]))
E1 = -1.5330196374628728  Ecoul = 0.2718267860723609
E(UHF) =    -1.261193
[1 0 0 0] [1 0 0 0] [0 1 1 1] [0 1 1 1]
NO eigenvalue
[-1.0000000000e+00 -1.3152940642e-17  1.6855760658e-19  9.7399157962e-18] 
 [-1.0000000000e+00 -1.6838459814e-16 -2.7231845628e-18  8.3856872002e-19]
NO vec
[[ 0.7974155857  0.           -0.3849438624  0.1269585338 -0.4470214057  0.            0.            0.          ]
 [ 0.5878800685  0.            0.6283695608  0.0064826333  0.5094179969  0.            0.            0.          ]
 [-0.0870821898  0.            0.6750907198  0.0149945261 -0.7324236318  0.            0.            0.          ]
 [-0.1046044975  0.            0.0349633798  0.9917734975  0.0649676137  0.            0.            0.          ]
 [ 0.            0.7974155857  0.            0.            0.            0.6000812477  0.0475820706  0.042033633 ]
 [ 0.           -0.5878800685  0.            0.            0.            0.7928579811 -0.1598771399  0.0145789912]
 [ 0.           -0.0870821898  0.            0.            0.            0.0164666237  0.4813865008  0.8720163871]
 [ 0.            0.1046044975  0.            0.            0.           -0.1049169587 -0.8604895604  0.4874505588]]
dm(NO)
[[ 1.0000000000e+00  0.0000000000e+00  1.1070161636e-16 -1.5394109173e-17  9.2152401488e-17  0.0000000000e+00  0.0000000000e+00  0.0000000000e+00]
 [ 0.0000000000e+00  1.0000000000e+00  0.0000000000e+00  0.0000000000e+00  0.0000000000e+00 -4.2818156274e-18 -6.3539295494e-18 -9.6750273108e-19]
 [ 3.9132624896e-17  0.0000000000e+00  1.2015052548e-18  7.4761352897e-19  9.0130205607e-19  0.0000000000e+00  0.0000000000e+00  0.0000000000e+00]
 [ 2.0403102362e-18  0.0000000000e+00 -5.3575549027e-18  1.1869517129e-18 -6.6854695174e-18  0.0000000000e+00  0.0000000000e+00  0.0000000000e+00]
 [ 6.4042250911e-17  0.0000000000e+00 -5.9346318248e-18  2.4640404501e-18 -3.8061796883e-18  0.0000000000e+00  0.0000000000e+00  0.0000000000e+00]
 [ 0.0000000000e+00  1.0003900329e-16  0.0000000000e+00  0.0000000000e+00  0.0000000000e+00 -8.5194650875e-18 -8.1513792553e-18 -9.2209453862e-18]
 [ 0.0000000000e+00 -9.7289652555e-19  0.0000000000e+00  0.0000000000e+00  0.0000000000e+00 -1.3882253551e-17  3.4500707014e-18 -2.4759049537e-19]
 [ 0.0000000000e+00  6.3905556714e-18  0.0000000000e+00  0.0000000000e+00  0.0000000000e+00 -3.4767752406e-18 -4.0786934855e-19 -1.0603313880e-18]]
D(g) (NO)
 [[ 9.9951368521e-01  8.9467722981e-03 -3.5294006821e-17  1.1917463545e-17 -2.7751327143e-17  2.9753790982e-02 -2.4806286568e-04 -2.6455107614e-03]
 [-8.9467722981e-03  9.9951368521e-01  2.2810437389e-02 -6.2324623615e-03  1.8253457186e-02 -2.2464849713e-16  3.0508176782e-17 -5.1543777062e-18]
 [-4.9305561385e-17 -2.2810437389e-02  9.9951368521e-01  2.7757862916e-17 -1.9722810204e-16  8.5647340115e-03  5.4918505494e-03  1.8669813329e-02]
 [ 1.0414517879e-17  6.2324623615e-03  3.1103750873e-17  9.9951368521e-01  7.8764886979e-18 -7.0105196489e-04 -2.6230950312e-02  1.5652324414e-02]
 [-7.1734761338e-17 -1.8253457186e-02 -2.4280632804e-16  1.2777256435e-17  9.9951368521e-01  3.6412709844e-03 -1.5940776733e-02 -1.9283079585e-02]
 [-2.9753790982e-02 -1.9031283928e-16 -8.5647340115e-03  7.0105196489e-04 -3.6412709844e-03  9.9951368521e-01 -3.8753385209e-17 -1.3606302316e-17]
 [ 2.4806286568e-04  2.7755575616e-17 -5.4918505494e-03  2.6230950312e-02  1.5940776733e-02 -5.5511151231e-17  9.9951368521e-01  1.6653345369e-16]
 [ 2.6455107614e-03 -1.3877787808e-17 -1.8669813329e-02 -1.5652324414e-02  1.9283079585e-02 -6.9388939039e-18  2.2204460493e-16  9.9951368521e-01]]
N(g) (NO)
 [[ 1.0004063962 -0.0089547631]
 [ 0.0089547631  1.0004063962]]
P(g) (NO)
 [[ 1.0000000000e+00  3.1514868879e-18  1.1070161636e-16 -1.5394109173e-17  9.2152401488e-17 -1.4928413996e-35 -1.2037062152e-35 -3.0092655381e-36]
 [-3.3198821180e-18  1.0000000000e+00 -3.0663211037e-34  5.8290490036e-35 -2.0984506623e-34 -4.2818156274e-18 -6.3539295494e-18 -9.6750273108e-19]
 [-2.0426206225e-04 -2.2819707464e-02 -2.2612140452e-20  3.1444324862e-21 -1.8823239569e-20  9.7709780032e-20  1.4499481356e-19  2.2078129294e-20]
 [ 5.5810223765e-05  6.2349952105e-03  6.1782819801e-21 -8.5914867761e-22  5.1430461475e-21 -2.6697099929e-20 -3.9616720308e-20 -6.0323748944e-21]
 [-1.6345538423e-04 -1.8260875321e-02 -1.8094775237e-20  2.5162500298e-21 -1.5062806193e-20  7.8189701320e-20  1.1602831530e-19  1.7667446745e-20]
 [-2.9765882810e-02  2.6643814856e-04 -3.2951313394e-18  4.5821924961e-19 -2.7429975833e-18 -1.1408390283e-21 -1.6929292252e-21 -2.5777963640e-22]
 [ 2.4816367749e-04 -2.2213441876e-06  2.7472120219e-20 -3.8202587440e-21  2.2868878842e-20  9.5113862564e-24  1.4114264473e-23  2.1491565682e-24]
 [ 2.6465858869e-03 -2.3689922057e-05  2.9298133551e-19 -4.0741832078e-20  2.4388924522e-19  1.0143587847e-22  1.5052409578e-22  2.2920064289e-23]]
time for NO, Ng: 0.014
Pg_ortho
 [[ 6.3599823245e-01  4.6887807458e-01 -6.9454522530e-02 -8.3429866069e-02  1.4145270817e-02 -1.0428342418e-02 -1.5447417626e-03  1.8555681282e-03]
 [ 4.6861626925e-01  3.4547878097e-01 -5.1175486928e-02 -6.1472800689e-02 -1.8819971816e-02  1.3874680304e-02  2.0552449517e-03 -2.4687925971e-03]
 [-6.9454522530e-02 -5.1204077517e-02  7.5848177774e-03  9.1110025421e-03 -1.5447417626e-03  1.1388326358e-03  1.6869433920e-04 -2.0263829645e-04]
 [-8.3383281713e-02 -6.1472800689e-02  9.1059152729e-03  1.0938168804e-02  3.3487335262e-03 -2.4687925971e-03 -3.6570021153e-04  4.3928485228e-04]
 [-1.4145270817e-02 -1.0428342418e-02  1.5447417626e-03  1.8555681282e-03  6.3599823245e-01 -4.6887807458e-01 -6.9454522530e-02  8.3429866069e-02]
 [-1.8819971816e-02 -1.3874680304e-02  2.0552449517e-03  2.4687925971e-03 -4.6861626925e-01  3.4547878097e-01  5.1175486928e-02 -6.1472800689e-02]
 [ 1.5447417626e-03  1.1388326358e-03 -1.6869433920e-04 -2.0263829645e-04 -6.9454522530e-02  5.1204077517e-02  7.5848177774e-03 -9.1110025421e-03]
 [ 3.3487335262e-03  2.4687925971e-03 -3.6570021153e-04 -4.3928485228e-04  8.3383281713e-02 -6.1472800689e-02 -9.1059152729e-03  1.0938168804e-02]]
G(g) (NO)
 [[ 2.7183994384e-01 -1.4699564463e-03 -3.2687736067e-02  2.0634769902e-02 -3.2597979391e-02  3.8025844587e-04 -4.7147868239e-04 -1.7644929113e-04]
 [ 1.4699564463e-03  2.7183994384e-01  5.7419526988e-04  2.6035743130e-04  2.3168641615e-05  4.9052560875e-02  1.1322940374e-02 -4.7484072395e-03]
 [-3.2633216573e-02  1.2328092013e-02  7.5764366006e-01  5.6301820475e-02  8.1075070060e-02 -7.2744826088e-04  2.1672215979e-03  1.0274402107e-03]
 [ 2.0627215082e-02 -6.2039215484e-04  5.6298304726e-02  7.2778658798e-01  9.7948140969e-02 -1.9431098912e-06  1.7295490530e-03  5.0512856868e-04]
 [-3.2556756156e-02  1.5355194141e-02  8.1072193089e-02  9.7951724476e-02  1.0251828951e+00 -1.6461770715e-03  6.0278597128e-03  2.4820571719e-03]
 [ 1.9317676870e-02  4.8984362118e-02  4.7683921642e-03  3.2545206635e-03 -1.7737250342e-03  9.2058347076e-01 -6.4215419884e-02  1.8201803316e-01]
 [-1.2201395681e-03  1.1330472187e-02 -5.6157745660e-04 -7.5981661218e-04  4.9832392803e-04 -6.4212351373e-02  7.3587779889e-01 -1.2230538514e-02]
 [ 3.6725122189e-03 -4.7438239046e-03  2.9720225775e-03  2.5301341736e-03 -1.3721072780e-03  1.8201313857e-01 -1.2230212647e-02  8.5415187354e-01]]
time for Gg: 0.022
C(NO)
[[ 1.0000000000e+00  0.0000000000e+00  2.2538840894e-16 -4.9196543917e-17  2.6747126874e-16  0.0000000000e+00  0.0000000000e+00  0.0000000000e+00]
 [ 0.0000000000e+00  1.0000000000e+00  0.0000000000e+00  0.0000000000e+00  0.0000000000e+00  6.9118656922e-16  4.8572257327e-17 -1.5265566589e-16]
 [ 4.6083166878e-17  0.0000000000e+00 -8.0152729123e-01 -5.8274933381e-01  1.3400453485e-01  0.0000000000e+00  0.0000000000e+00  0.0000000000e+00]
 [-1.5163213652e-18  0.0000000000e+00  3.2848819645e-01 -6.1637869555e-01 -7.1566249620e-01  0.0000000000e+00  0.0000000000e+00  0.0000000000e+00]
 [ 4.7049591113e-17  0.0000000000e+00 -4.9964938328e-01  5.2960411404e-01 -6.8547062386e-01  0.0000000000e+00  0.0000000000e+00  0.0000000000e+00]
 [ 0.0000000000e+00  1.1832613480e-16  0.0000000000e+00  0.0000000000e+00  0.0000000000e+00 -9.6868421805e-01  5.0499930399e-02  2.4310623754e-01]
 [ 0.0000000000e+00  3.6516657032e-18  0.0000000000e+00  0.0000000000e+00  0.0000000000e+00 -5.2762457154e-02  9.1487169981e-01 -4.0028227042e-01]
 [ 0.0000000000e+00  1.3258602040e-17  0.0000000000e+00  0.0000000000e+00  0.0000000000e+00  2.4262524357e-01  4.0057400056e-01  8.8355727673e-01]]
detC 1.0000000000000002
detNg [ 1.0008931453  1.0237570249  1.1384898484  1.4890998711  2.4344486294  4.9029047234  9.4766081671 12.0178427422]
xg [0.9991076517 0.9767942741 0.8783565364 0.6715466299 0.4107706311 0.2039607246 0.105522987  0.0832096094]
ciS 1.0823172610257348
[[-0.7665098187  0.            0.03218872   -0.0079158123  0.0441390597  0.            0.            0.          ]
 [ 0.           -0.7665098187  0.            0.            0.           -0.0542836382 -0.003234271  -0.0094792662]
 [ 0.03218872    0.           -0.2833477178  0.1833465162 -0.4892656862  0.            0.            0.          ]
 [-0.0079158123  0.            0.1833465162  0.3600446806  0.1530478409  0.            0.            0.          ]
 [ 0.0441390597  0.           -0.4892656862  0.1530478409 -0.0832175305  0.            0.            0.          ]
 [ 0.           -0.0542836382  0.            0.            0.           -0.7275797019 -0.003718299   0.087551366 ]
 [ 0.           -0.003234271   0.            0.            0.           -0.003718299   0.3897437807 -0.0405204868]
 [ 0.           -0.0094792662  0.            0.            0.            0.087551366  -0.0405204868  0.3313153535]]
ciH -1.3794479334848129
1.0000000000000002 -2.054563116860031e-17 -0.028627930311668947j -1.222980050563649e-16
[...]
 [-2.0728418351e-18  0.0000000000e+00  4.0038068721e-19 -9.9760426668e-19  1.2687367820e-18  0.0000000000e+00  0.0000000000e+00  0.0000000000e+00]
 [ 9.9211975097e-17  0.0000000000e+00  1.1844900077e-18  3.0587269895e-19 -1.7314840969e-17  0.0000000000e+00  0.0000000000e+00  0.0000000000e+00]
 [ 0.0000000000e+00 -2.8836378416e-16  0.0000000000e+00  0.0000000000e+00  0.0000000000e+00  1.4144509417e-17  5.5621563728e-18  1.1193333874e-17]
 [ 0.0000000000e+00 -9.0711665561e-18  0.0000000000e+00  0.0000000000e+00  0.0000000000e+00  7.2370897212e-19 -3.4869254990e-19  9.1886729822e-19]
 [ 0.0000000000e+00 -2.8019795377e-16  0.0000000000e+00  0.0000000000e+00  0.0000000000e+00  2.9448101282e-18  3.4595617515e-18  2.1106424378e-18]]
D(g) (NO)
 [[ 9.9951368521e-01  8.9589007532e-03 -3.4721048761e-17  2.1398589943e-18 -2.4915959761e-17 -2.0531947672e-02 -1.9879967463e-03 -2.1601346388e-02]
 [-8.9589007532e-03  9.9951368521e-01  2.1279337544e-03 -3.8321876135e-03  2.9545175716e-02 -3.0661932547e-16  1.6122794279e-18 -2.9495265196e-16]
 [-2.9034303906e-17 -2.1279337544e-03  9.9951368521e-01  1.9942046863e-16 -2.8720168366e-17 -1.4699184560e-02  2.5215920907e-02  1.0768299716e-02]
 [-9.7891182835e-18  3.8321876135e-03  2.1061213270e-16  9.9951368521e-01  1.5808714457e-18 -1.6759371474e-02 -1.7620078132e-02  1.9140630273e-02]
 [-2.9879682492e-17 -2.9545175716e-02 -2.4015501702e-17  6.1339043575e-18  9.9951368521e-01 -7.3409563828e-03 -4.7043727646e-03 -4.8430262183e-03]
 [ 2.0531947672e-02 -2.9826494542e-16  1.4699184560e-02  1.6759371474e-02  7.3409563828e-03  9.9951368521e-01 -2.8648613946e-16  2.1336348113e-16]
 [ 1.9879967463e-03  0.0000000000e+00 -2.5215920907e-02  1.7620078132e-02  4.7043727646e-03 -2.7755575616e-16  9.9951368521e-01  5.5511151231e-17]
 [ 2.1601346388e-02 -3.3306690739e-16 -1.0768299716e-02 -1.9140630273e-02  4.8430262183e-03  1.6653345369e-16  1.6653345369e-16  9.9951368521e-01]]
N(g) (NO)
 [[ 1.0004061787 -0.0089669004]
 [ 0.0089669004  1.0004061787]]
P(g) (NO)
 [[ 1.0000000000e+00  3.9437992949e-18 -3.9122107124e-17 -7.2139441919e-18  1.4282164078e-16 -4.7565302164e-34 -7.2222372915e-35 -7.7037197775e-34]
 [ 4.5671288201e-18  1.0000000000e+00 -1.9032370993e-34 -2.9419263316e-35  5.7926225537e-34 -1.2199890425e-16 -2.4096732926e-17 -1.6334137357e-16]
 [-1.9080970043e-05 -2.1287980758e-03  7.4648775404e-22  1.3764905302e-22 -2.7251754492e-21  2.5971103262e-19  5.1297078687e-20  3.4772080177e-19]
 [ 3.4362844662e-05  3.8337441667e-03 -1.3443468899e-21 -2.4789164367e-22  4.9077578564e-21 -4.6771258752e-19 -9.2380709292e-20 -6.2620903812e-19]
 [-2.6492864808e-04 -2.9557176338e-02  1.0364566950e-20  1.9111804821e-21 -3.7837544207e-20  3.6059431260e-18  7.1223138427e-19  4.8279097820e-18]
 [ 2.0540287313e-02 -1.8410792989e-04 -8.0357932061e-19 -1.4817648636e-19  2.9335975361e-18  2.2460965710e-20  4.4363996161e-21  3.0072442154e-20]
 [ 1.9888042283e-03 -1.7826168828e-05 -7.7806212068e-20 -1.4347122712e-20  2.8404428307e-19  2.1747730641e-21  4.2955242935e-22  2.9117509020e-21]
 [ 2.1610120396e-02 -1.9369712166e-04 -8.4543344507e-19 -1.5589420251e-19  3.0863928523e-18  2.3630836599e-20  4.6674678092e-21  3.1638753910e-20]]
time for NO, Ng: 0.014
Pg_ortho
 [[ 6.3623144058e-01  4.6896203824e-01 -6.9290290093e-02 -8.2711832561e-02  1.4142734155e-02 -1.0424516949e-02 -1.5402479189e-03  1.8385942360e-03]
 [ 4.6869983116e-01  3.4547558345e-01 -5.1044863859e-02 -6.0932263770e-02 -1.8829023813e-02  1.3878750439e-02  2.0506193799e-03 -2.4478247467e-03]
 [-6.9290290093e-02 -5.1073420142e-02  7.5462229543e-03  9.0079277866e-03 -1.5402479189e-03  1.1353066783e-03  1.6774434319e-04 -2.0023645461e-04]
 [-8.2665586540e-02 -6.0932263770e-02  9.0028912542e-03  1.0746753015e-02  3.3209149950e-03 -2.4478247467e-03 -3.6167210342e-04  4.3172805916e-04]
 [-1.4142734155e-02 -1.0424516949e-02  1.5402479189e-03  1.8385942360e-03  6.3623144058e-01 -4.6896203824e-01 -6.9290290093e-02  8.2711832561e-02]
 [-1.8829023813e-02 -1.3878750439e-02  2.0506193799e-03  2.4478247467e-03 -4.6869983116e-01  3.4547558345e-01  5.1044863859e-02 -6.0932263770e-02]
 [ 1.5402479189e-03  1.1353066783e-03 -1.6774434319e-04 -2.0023645461e-04 -6.9290290093e-02  5.1073420142e-02  7.5462229543e-03 -9.0079277866e-03]
 [ 3.3209149950e-03  2.4478247467e-03 -3.6167210342e-04 -4.3172805916e-04  8.2665586540e-02 -6.0932263770e-02 -9.0028912542e-03  1.0746753015e-02]]
G(g) (NO)
 [[ 2.7192295173e-01 -1.4700361256e-03  8.2591425011e-03  6.9071459046e-03 -4.9430663770e-02 -5.9894343193e-04 -1.9559499412e-04  3.4386477850e-05]
 [ 1.4700361256e-03  2.7192295173e-01  4.9348914522e-04 -1.9056522129e-04  3.4398608435e-04 -2.5266994190e-02 -3.1373422103e-03 -4.3715543101e-02]
 [ 8.2710169978e-03  2.4195052872e-03  7.4443598937e-01  2.0204664102e-02  7.5683336458e-02  9.8634859872e-04  5.1647296548e-04 -8.7222869301e-04]
 [ 6.8998582872e-03  2.9092203869e-03  2.0203915000e-02  8.3978464916e-01  1.7838147592e-01  3.0607862937e-03  1.4994833336e-03 -1.8974012238e-03]
 [-4.9363209439e-02  1.9350858659e-02  7.5686369048e-02  1.7838639198e-01  9.2697482324e-01  5.0164347256e-03  2.6322604349e-03 -2.3550437064e-03]
 [-1.4247273694e-02 -2.5214722902e-02 -4.5644719547e-03  1.8765884642e-03 -7.3520241473e-04  8.9414821268e-01 -1.3815536158e-01  9.1964204645e-02]
 [ 4.0369527584e-03 -3.1338542842e-03  3.9201757971e-03 -1.4494653577e-03  4.9062155108e-04 -1.3815192131e-01  8.6042912720e-01 -1.1666326460e-01]
 [-1.3018890300e-02 -4.3670824574e-02 -3.0407961042e-03  1.4477139374e-03 -9.5330116659e-04  9.1967558895e-02 -1.1666655685e-01  7.5661812190e-01]]
time for Gg: 0.022
C(NO)
[[ 1.0000000000e+00  0.0000000000e+00 -1.1496766356e-16 -9.7254637211e-17  5.1260394434e-17  0.0000000000e+00  0.0000000000e+00  0.0000000000e+00]
 [ 0.0000000000e+00  1.0000000000e+00  0.0000000000e+00  0.0000000000e+00  0.0000000000e+00  1.6916916499e-16 -3.4694469520e-17 -1.3877787808e-17]
 [-3.9122107124e-17  0.0000000000e+00 -7.9668572990e-03 -9.1140081059e-01 -4.1144269546e-01  0.0000000000e+00  0.0000000000e+00  0.0000000000e+00]
 [-7.2139441919e-18  0.0000000000e+00  2.8258986210e-01  3.9263205595e-01 -8.7520456950e-01  0.0000000000e+00  0.0000000000e+00  0.0000000000e+00]
 [ 8.7310489547e-17  0.0000000000e+00 -9.5920774550e-01  1.2324216449e-01 -2.5442458582e-01  0.0000000000e+00  0.0000000000e+00  0.0000000000e+00]
 [ 0.0000000000e+00 -2.5290903084e-16  0.0000000000e+00  0.0000000000e+00  0.0000000000e+00  6.1928492077e-01  6.2072049504e-01 -4.8082455631e-01]
 [ 0.0000000000e+00 -1.6263734996e-17  0.0000000000e+00  0.0000000000e+00  0.0000000000e+00  2.1857751035e-01  4.5188647418e-01  8.6488293220e-01]
 [ 0.0000000000e+00 -2.7008179890e-16  0.0000000000e+00  0.0000000000e+00  0.0000000000e+00  7.5412867528e-01 -6.4070639258e-01  1.4417093893e-01]]
detC 1.0000000000000002
detNg [ 1.0008929278  1.0237511059  1.1384514782  1.4889226435  2.4335990661  4.8982521761  9.4570988642 11.9857045199]
xg [0.9991078688 0.9767999216 0.8783861404 0.6716265646 0.4109140301 0.2041544543 0.1057406732 0.0834327259]
ciS 1.0825405947341333
[[-0.766530541   0.            0.0011661393  0.0075392791  0.0546870839  0.            0.            0.          ]
 [ 0.           -0.766530541   0.            0.            0.            0.0359039538 -0.0110564583  0.040466512 ]
 [ 0.0011661393  0.            0.3856716315  0.0486571731 -0.0637700408  0.            0.            0.          ]
 [ 0.0075392791  0.            0.0486571731  0.3228347835  0.1276355317  0.            0.            0.          ]
 [ 0.0546870839  0.           -0.0637700408  0.1276355317 -0.7150062605  0.            0.            0.          ]
 [ 0.            0.0359039538  0.            0.            0.           -0.1271798199 -0.0710629302 -0.5610406003]
 [ 0.           -0.0110564583  0.            0.            0.           -0.0710629302  0.3302046921 -0.0212761547]
 [ 0.            0.040466512   0.            0.            0.           -0.5610406003 -0.0212761547 -0.2095247177]]
ciH -1.37973425564008
0.9999999999999999 7.26415455565288e-18 -0.0286209569966273j 3.903127820947816e-17
0.5413440330627802 0.0004095795897013947 -0.0004095795897013946 0.4586559669372196
1.0 4.092863201132779e-17 -0.14745885236712863j 6.028164079019405e-17
0.5432540089722799 0.010872056570715317 -0.010872056570715313 0.4567459910277202
1.0 -3.621235256101585e-17 -0.3541770824108058j -4.640385298237959e-17
0.5534892672817615 0.06272070285251537 -0.06272070285251537 0.44651073271823866
0.9999999999999999 1.0256552551712872e-16 -0.6548555048672371j 1.465841337200402e-16
0.5914917358733452 0.21441786612746208 -0.21441786612746205 0.40850826412665486
1.0000000000000002 2.181414771040835e-16 -1.0703415332244286j -2.7321894746634712e-17
0.7444193913200183 0.5728154988726104 -0.5728154988726104 0.25558060867998206
1.0000000000000007 3.5214886562329184e-16 -1.5238670227759556j -2.6020852139652106e-16
1.4901930603702347 1.1610853515520272 -1.1610853515520274 -0.49019306037023347
1.0000000000000007 1.5092094240998222e-16 -1.3621796715484003j -5.585809592645319e-16
4.19107998567182 0.9277667287898539 -0.9277667287898537 -3.1910799856718177
1.0000000000000004 -1.9949319973733282e-17 -0.3427362948787408j -6.852157730108388e-16
6.428771765718335 0.05873408391360359 -0.05873408391360359 -5.428771765718335
S2 = -0.000000
X(g)
[[ 2.0000000000e+00 -8.6736173799e-18 -1.9080970043e-05  3.4362844662e-05 -2.6492864808e-04 -2.0540287313e-02 -1.9888042283e-03 -2.1610120396e-02]
 [ 0.0000000000e+00  2.0000000000e+00  2.1287980758e-03 -3.8337441667e-03  2.9557176338e-02 -1.8410792989e-04 -1.7826168829e-05 -1.9369712166e-04]
 [-1.9080970043e-05 -2.1287980758e-03  0.0000000000e+00  0.0000000000e+00  0.0000000000e+00  0.0000000000e+00  0.0000000000e+00  0.0000000000e+00]
 [ 3.4362844662e-05  3.8337441667e-03  0.0000000000e+00  0.0000000000e+00  0.0000000000e+00  0.0000000000e+00  0.0000000000e+00  0.0000000000e+00]
 [-2.6492864808e-04 -2.9557176338e-02  0.0000000000e+00  0.0000000000e+00  0.0000000000e+00  0.0000000000e+00  0.0000000000e+00  0.0000000000e+00]
 [ 2.0540287313e-02 -1.8410792989e-04  0.0000000000e+00  0.0000000000e+00  0.0000000000e+00  0.0000000000e+00  0.0000000000e+00  0.0000000000e+00]
 [ 1.9888042283e-03 -1.7826168828e-05  0.0000000000e+00  0.0000000000e+00  0.0000000000e+00  0.0000000000e+00  0.0000000000e+00  0.0000000000e+00]
 [ 2.1610120396e-02 -1.9369712166e-04  0.0000000000e+00  0.0000000000e+00  0.0000000000e+00  0.0000000000e+00  0.0000000000e+00  0.0000000000e+00]]
X(g) int
[[ 2.0000000000e+00 -1.6953962978e-16 -1.8110347382e-02  3.2614854091e-02 -2.5145209270e-01 -4.7769963596e-01 -4.6253055830e-02 -5.0258044051e-01]
 [ 5.1030339416e-17  2.0000000000e+00  4.9508853034e-02 -8.9160300676e-02  6.8740286645e-01 -1.7474261311e-01 -1.6919376177e-02 -1.8384401591e-01]
 [-1.8110347382e-02 -4.9508853034e-02  0.0000000000e+00  0.0000000000e+00  0.0000000000e+00  0.0000000000e+00  0.0000000000e+00  0.0000000000e+00]
 [ 3.2614854091e-02  8.9160300676e-02  0.0000000000e+00  0.0000000000e+00  0.0000000000e+00  0.0000000000e+00  0.0000000000e+00  0.0000000000e+00]
 [-2.5145209270e-01 -6.8740286645e-01  0.0000000000e+00  0.0000000000e+00  0.0000000000e+00  0.0000000000e+00  0.0000000000e+00  0.0000000000e+00]
 [ 4.7769963596e-01 -1.7474261311e-01  0.0000000000e+00  0.0000000000e+00  0.0000000000e+00  0.0000000000e+00  0.0000000000e+00  0.0000000000e+00]
 [ 4.6253055830e-02 -1.6919376177e-02  0.0000000000e+00  0.0000000000e+00  0.0000000000e+00  0.0000000000e+00  0.0000000000e+00  0.0000000000e+00]
 [ 5.0258044051e-01 -1.8384401591e-01  0.0000000000e+00  0.0000000000e+00  0.0000000000e+00  0.0000000000e+00  0.0000000000e+00  0.0000000000e+00]]
Feff
 [[-6.4180453338e-17 -2.3019980994e-18  9.8756255223e-11  1.7067127587e-10  2.8845620372e-10 -3.2290996783e-02 -3.1799737321e-03  2.9537558884e-03]
 [-2.0211630830e-17 -5.1507399789e-16  2.6881227582e-02 -2.8407268097e-03  1.8189976771e-02  2.6082302971e-10 -1.8337076524e-10  1.4295111080e-10]
 [ 9.8756244098e-11 -2.6881227582e-02  0.0000000000e+00  0.0000000000e+00  0.0000000000e+00  0.0000000000e+00  0.0000000000e+00  0.0000000000e+00]
 [ 1.7067096181e-10  2.8407268097e-03  0.0000000000e+00  0.0000000000e+00  0.0000000000e+00  0.0000000000e+00  0.0000000000e+00  0.0000000000e+00]
 [ 2.8845605659e-10 -1.8189976771e-02  0.0000000000e+00  0.0000000000e+00  0.0000000000e+00  0.0000000000e+00  0.0000000000e+00  0.0000000000e+00]
 [ 3.2290996783e-02  2.6082270380e-10  0.0000000000e+00  0.0000000000e+00  0.0000000000e+00  0.0000000000e+00  0.0000000000e+00  0.0000000000e+00]
 [ 3.1799737321e-03 -1.8337046683e-10  0.0000000000e+00  0.0000000000e+00  0.0000000000e+00  0.0000000000e+00  0.0000000000e+00  0.0000000000e+00]
 [-2.9537558884e-03  1.4295084678e-10  0.0000000000e+00  0.0000000000e+00  0.0000000000e+00  0.0000000000e+00  0.0000000000e+00  0.0000000000e+00]]
Feff (ortho)
 [[-2.8064967857e-10  9.0435424077e-11 -8.3797751011e-11  1.2104466515e-10  7.6327832943e-17  7.6327832943e-17  5.2041704279e-18  3.8163916471e-17]
 [ 9.0435424077e-11  2.8579759336e-10 -9.4144985628e-11  5.0571355412e-11  1.7347234760e-17  8.5001450323e-17  8.2399365109e-18  2.4286128664e-17]
 [-8.3797751011e-11 -9.4144985628e-11  2.1581118323e-11  1.6847919763e-12  5.1174342541e-17 -5.2041704279e-17 -7.1557343384e-18  3.0357660830e-18]
 [ 1.2104466515e-10  5.0571355412e-11  1.6847919763e-12 -2.6729097293e-11  5.2041704279e-18 -2.0816681712e-17 -2.1684043450e-18 -3.4694469520e-18]
 [ 7.6327832943e-17  1.7347234760e-17  5.1174342541e-17  5.2041704279e-18 -2.8065006584e-10 -9.0435262869e-11 -8.3797467024e-11 -1.2104461000e-10]
 [ 7.6327832943e-17  8.5001450323e-17 -5.2041704279e-17 -2.0816681712e-17 -9.0435262869e-11  2.8579756612e-10  9.4144789835e-11  5.0571298612e-11]
 [ 5.2041704279e-18  8.2399365109e-18 -7.1557343384e-18 -2.1684043450e-18 -8.3797467024e-11  9.4144789835e-11  2.1581061060e-11 -1.6847665460e-12]
 [ 3.8163916471e-17  2.4286128664e-17  3.0357660830e-18 -3.4694469520e-18 -1.2104461000e-10  5.0571298612e-11 -1.6847665460e-12 -2.6729076410e-11]]
Hsp + Hph =  -1.2745335023477211
Feff (mod,ortho)
[[-0.2308163172 -0.3318709593  0.2236619129 -0.0397983682  0.            0.            0.            0.          ]
 [-0.3318709593  0.0030568182 -0.0736695092  0.3306629314  0.            0.            0.            0.          ]
 [ 0.2236619129 -0.0736695092  1.1211906459 -0.0508694262  0.            0.            0.            0.          ]
 [-0.0397983682  0.3306629314 -0.0508694262  1.1166619521  0.            0.            0.            0.          ]
 [ 0.            0.            0.            0.           -0.2308163172  0.3318709593  0.2236619129  0.0397983682]
 [ 0.            0.            0.            0.            0.3318709593  0.0030568182  0.0736695092  0.3306629314]
 [ 0.            0.            0.            0.            0.2236619129  0.0736695092  1.1211906459  0.0508694262]
 [ 0.            0.            0.            0.            0.0397983682  0.3306629314  0.0508694262  1.1166619521]]
F(mod,ortho) updated with CDIIS
[[[-0.2308163171 -0.3318709593  0.223661913  -0.0397983682]
  [-0.3318709593  0.0030568181 -0.0736695092  0.3306629315]
  [ 0.223661913  -0.0736695092  1.1211906459 -0.0508694262]
  [-0.0397983682  0.3306629315 -0.0508694262  1.1166619521]]

 [[-0.2308163171  0.3318709593  0.223661913   0.0397983682]
  [ 0.3318709593  0.0030568181  0.0736695092  0.3306629315]
  [ 0.223661913   0.0736695092  1.1211906459  0.0508694262]
  [ 0.0397983682  0.3306629315  0.0508694262  1.1166619521]]]
Alpha occ 1 vir 3; Beta occ 1 vir 3
Alpha energies:  [-0.4946207656] <- HOMO
         LUMO->  [0.1219281958 1.0988253817 1.283960287 ]
Beta energies:   [-0.4946207656] <- HOMO
         LUMO->  [0.1219281958 1.0988253817 1.283960287 ]
e_a, e_b
 [-0.4946207656  0.1219281958  1.0988253817  1.283960287 ] 
 [-0.4946207656  0.1219281958  1.0988253817  1.283960287 ]
v_a, v_b
 [[ 0.7975617066  0.5732885075 -0.0900046244  0.1647263759]
 [ 0.5878775229 -0.7561293528 -0.100110005  -0.2695299736]
 [-0.0868603443 -0.1705432304 -0.7900354027  0.5824211102]
 [-0.1036852097  0.2655629786 -0.5980979994 -0.749002313 ]] 
 [[ 0.7975617066 -0.5732885075  0.0900046244  0.1647263759]
 [-0.5878775229 -0.7561293528 -0.100110005   0.2695299736]
 [-0.0868603443  0.1705432304  0.7900354027  0.5824211102]
 [ 0.1036852097  0.2655629786 -0.5980979994  0.749002313 ]]
P_a, P_b
 [[ 0.6361046759  0.4688686005 -0.0692764845 -0.0826953528]
 [ 0.4688686005  0.345599982  -0.0510632441 -0.0609542043]
 [-0.0692764845 -0.0510632441  0.0075447194  0.009006133 ]
 [-0.0826953528 -0.0609542043  0.009006133   0.0107506227]] 
 [[ 0.6361046759 -0.4688686005 -0.0692764845  0.0826953528]
 [-0.4688686005  0.345599982   0.0510632441 -0.0609542043]
 [-0.0692764845  0.0510632441  0.0075447194 -0.009006133 ]
 [ 0.0826953528 -0.0609542043 -0.009006133   0.0107506227]]
dm_reg
 [[[2.8447917801e-05 2.9589961078e-04 1.9909043412e-03 3.7474730437e-03]
  [2.9589961078e-04 3.0777851746e-03 2.0708293090e-02 3.8979155619e-02]
  [1.9909043412e-03 2.0708293090e-02 1.3933181765e-01 2.6226384662e-01]
  [3.7474730437e-03 3.8979155619e-02 2.6226384662e-01 4.9365842207e-01]]

 [[1.3933181765e-01 2.6226384662e-01 1.9909043412e-03 2.0708293090e-02]
  [2.6226384662e-01 4.9365842207e-01 3.7474730437e-03 3.8979155619e-02]
  [1.9909043412e-03 3.7474730437e-03 2.8447917801e-05 2.9589961078e-04]
  [2.0708293090e-02 3.8979155619e-02 2.9589961078e-04 3.0777851746e-03]]]
mo_reg
 [[-0.005333659  -0.1698002773  0.1610010621 -1.3022267479]
 [-0.0554777899 -0.9047664758  0.0668003056  1.0393364815]
 [-0.3732717745  0.0827862706  1.2513972121  0.1959491265]
 [-0.7026082992  0.2059771904 -1.1197033271 -0.3413827732]] 
 [[-0.3732717745 -0.0827862706 -1.2513972121  0.1959491265]
 [-0.7026082992 -0.2059771904  1.1197033271 -0.3413827732]
 [-0.005333659   0.1698002773 -0.1610010621 -1.3022267479]
 [-0.0554777899  0.9047664758 -0.0668003056  1.0393364815]]
time for xg, H, S2, Yg, Feff: 0.027

***************
SUHF converged at cycle 12
Final E(SUHF) =     -1.00994490, delta E = -2.85794e-11, MaxD(dm) = 3.05487e-10, RMSD(dm) = 1.14883e-10
time for cyc: 0.747
******* suhf density *****
time for Ngg: 0.002
time for Pgg: 0.004
time for xgg: 0.000
Clebsch-Gordan coeff: < 0 0 0 0 | 0 0 > = 1
Clebsch-Gordan coeff: < 0 0 1 0 | 0 0 > = 0
xggint 0.9999999999999998
SUHF DM alpha
 [[0.0648955961 0.1245153575 0.0203317291 0.046136313 ]
 [0.1245153575 0.2397755512 0.046136313  0.1019222852]
 [0.0203317291 0.046136313  0.0648955961 0.1245153575]
 [0.046136313  0.1019222852 0.1245153575 0.2397755512]] 
SUHF DM beta
 [[0.0648955961 0.1245153575 0.0203317291 0.046136313 ]
 [0.1245153575 0.2397755512 0.046136313  0.1019222852]
 [0.0203317291 0.046136313  0.0648955961 0.1245153575]
 [0.046136313  0.1019222852 0.1245153575 0.2397755512]]
time for 1pdm: 0.016
SUHF natural orbitals alpha
 [[-0.2359566186  0.3081811236  0.40470846   -1.1983890681]
 [-0.4724586982  0.5420297568 -0.1731233162  1.1659234976]
 [-0.2359566186 -0.3081811236  1.1915319734  0.42447244  ]
 [-0.4724586982 -0.5420297568 -1.0226114774 -0.5861868739]]
SUHF natural orbitals beta
 [[-0.2359566186  0.3081811236  0.40470846   -1.1983890681]
 [-0.4724586982  0.5420297568 -0.1731233162  1.1659234976]
 [-0.2359566186 -0.3081811236  1.1915319734  0.42447244  ]
 [-0.4724586982 -0.5420297568 -1.0226114774 -0.5861868739]]
SUHF natural orbitals, total
 [[-0.2359566186  0.3081811236  0.40470846   -1.1983890681]
 [-0.4724586982  0.5420297568 -0.1731233162  1.1659234976]
 [-0.2359566186 -0.3081811236  1.1915319734  0.42447244  ]
 [-0.4724586982 -0.5420297568 -1.0226114774 -0.5861868739]]
SUHF NO occ alpha:  0.765393  0.234607  ...
SUHF NO occ beta:   0.765393  0.234607  ...
SUHF NO occ total:  1.530786  0.469214  ...
core 0, active 2, external 2
time for natorb: 0.002
time tot: 0.866
Date: Wed Jun 23 20:16:21 2021
