

#INFO: **** input file is /share/home/srwang/ExSCF/test/pytest/scan_h2/scan_dft.py ****
#import phf
from pyscf import gto, scf
#import scipy
#import numpy as np
import sys, os, contextlib

from pyphf import util, sudft

#xyz = 'h2.xyz' #sys.argv[1]
fch = '../../test_carlos/test_uhf.fchk' #sys.argv[2]
bas = '../h2.bas'

for r in [0.6, 0.8, 1.0, 1.2, 1.4, 1.6, 1.8, 2.0]:
    output = 'sudft_%.1f.out' % r
    os.system("echo '\n' > %s" % output)
    with open(output, 'a', encoding='utf-8') as f:
        with contextlib.redirect_stdout(f):
            xyz = '''H 0.0 0.0 0.0; H 0.0 0.0 %f'''%r
            mf = util.guess_from_fchk(xyz, bas, fch)
            #f.flush()
            mf2 = util.SUHF(mf)
            mf2.cut_no = False
            mf2.debug = False
            mf2.max_cycle = 50
            #mf2.output = 'sudft_%.1f.out'%r
            #mf2.kernel()
            
            mf3 = sudft.SUDFT(mf2)
            mf3.kernel()
                    #INFO: ******************** input file end ********************


System: uname_result(system='Linux', node='xcluster', release='3.10.0-693.el7.x86_64', version='#1 SMP Thu Jul 6 19:56:57 EDT 2017', machine='x86_64', processor='x86_64')  Threads 16
Python 3.7.4 (default, Aug 13 2019, 20:35:49) 
[GCC 7.3.0]
numpy 1.17.2  scipy 1.4.1
Date: Thu Nov 19 17:46:19 2020
PySCF version 1.7.3
PySCF path  /share/apps/Python/Anaconda3-2019/lib/python3.7/site-packages/pyscf

[CONFIG] conf_file None
[INPUT] verbose = 4
[INPUT] num. atoms = 2
[INPUT] num. electrons = 2
[INPUT] charge = 0
[INPUT] spin (= nelec alpha-beta = 2S) = 0
[INPUT] symmetry False subgroup None
[INPUT] Mole.unit = angstrom
[INPUT]  1 H      0.000000000000   0.000000000000   0.000000000000 AA    0.000000000000   0.000000000000   0.000000000000 Bohr
[INPUT]  2 H      0.000000000000   0.000000000000   0.800000000000 AA    0.000000000000   0.000000000000   1.511780899652 Bohr

nuclear repulsion = 0.66147151365
number of shells = 4
number of NR pGTOs = 6
number of NR cGTOs = 4
basis = ../h2.bas
ecp = {}
CPU time:        37.73


******** <class 'pyscf.scf.uhf.UHF'> ********
method = UHF
initial guess = minao
damping factor = 0
level_shift factor = 0
DIIS = <class 'pyscf.scf.diis.CDIIS'>
diis_start_cycle = 1
diis_space = 8
SCF conv_tol = 1e-09
SCF conv_tol_grad = None
SCF max_cycles = 1
direct_scf = True
direct_scf_tol = 1e-13
chkfile to save SCF result = /share/home/srwang/ExSCF/test/pytest/scan_h2/tmpfgj12fl6
max_memory 4000 MB (current use 124 MB)
number electrons alpha = 1  beta = 1
Set gradient conv threshold to 3.16228e-05
init E= -0.785294262164954
  alpha nocc = 1  HOMO = -0.532361430448675  LUMO = 0.181725274859819
  beta  nocc = 1  HOMO = -0.522393527775105  LUMO = 0.183616959995521
cycle= 1 E= -1.11984566775899  delta_E= -0.335  |g|= 0.0219  |ddm|= 0.434
SCF not converged.
SCF energy = -1.11984566775899 after 1 cycles  <S^2> = 4.041146e-06  2S+1 = 1.0000081


******** <class 'pyscf.scf.uhf.UHF'> ********
method = UHF
initial guess = minao
damping factor = 0
level_shift factor = 0
DIIS = <class 'pyscf.scf.diis.CDIIS'>
diis_start_cycle = 1
diis_space = 8
SCF conv_tol = 1e-09
SCF conv_tol_grad = None
SCF max_cycles = 0
direct_scf = True
direct_scf_tol = 1e-13
chkfile to save SCF result = /share/home/srwang/ExSCF/test/pytest/scan_h2/tmpfgj12fl6
max_memory 4000 MB (current use 124 MB)
number electrons alpha = 1  beta = 1
Set gradient conv threshold to 3.16228e-05
init E= -1.10120433321045
  alpha nocc = 1  HOMO = -0.575261144486103  LUMO = 0.287207694824037
  beta  nocc = 1  HOMO = -0.575261144486103  LUMO = 0.287207694824038
SCF not converged.
SCF energy = -1.10120433321045 after 0 cycles  <S^2> = 0.32941785  2S+1 = 1.52239

******** <class 'pyphf.util.SUHF'> ********
SVD: S^(-1/2)
[[-0.27098929  0.78606632 -0.81498289  0.68191169]
 [-0.333545    0.28056739  0.66213446 -1.91051355]
 [-0.27098929 -0.78606632 -0.81498289 -0.68191169]
 [-0.333545   -0.28056739  0.66213446  1.91051355]]
C (ortho)
[[-0.96718877 -0.69094897 -0.08824653 -0.16848814]
 [ 0.32845269 -0.36827813  0.37555195 -0.57188307]
 [ 0.08337462  0.17588245 -0.83997567 -0.61698545]
 [-0.12503387  0.23699323  0.36386768 -0.4447134 ]]
[[-0.96718877 -0.69094897 -0.08824653 -0.16848814]
 [-0.32845269  0.36827813 -0.37555195  0.57188307]
 [ 0.08337462  0.17588245 -0.83997567 -0.61698545]
 [ 0.12503387 -0.23699323 -0.36386768  0.4447134 ]]
grids:  [0.06237655 0.31939555 0.74529195 1.28265786 1.85893479 2.39630071 2.8221971  3.07921611] 
weights:  [0.15900941 0.34931531 0.49276925 0.56970235 0.56970235 0.49276925 0.34931531 0.15900941]
S = 0.0, Sz = 0.0
Wigner small d:  1
value : [1. 1. 1. 1. 1. 1. 1. 1.]
**** Start Cycle 1 ****
dm (ortho)
[[[ 0.93545412 -0.31767575 -0.080639    0.12093135]
  [-0.31767575  0.10788117  0.02738462 -0.04106771]
  [-0.080639    0.02738462  0.00695133 -0.01042465]
  [ 0.12093135 -0.04106771 -0.01042465  0.01563347]]

 [[ 0.93545412  0.31767575 -0.080639   -0.12093135]
  [ 0.31767575  0.10788117 -0.02738462 -0.04106771]
  [-0.080639   -0.02738462  0.00695133  0.01042465]
  [-0.12093135 -0.04106771  0.01042465  0.01563347]]]
Fock (ortho)
 (array([[-0.51354614,  0.2520715 ,  0.01921763, -0.01870241],
       [ 0.2520715 ,  0.76356416,  0.06221488,  0.60509398],
       [ 0.01921763,  0.06221488,  0.98712653,  0.03106946],
       [-0.01870241,  0.60509398,  0.03106946,  0.93555285]]), array([[-0.51354614, -0.2520715 ,  0.01921763,  0.01870241],
       [-0.2520715 ,  0.76356416, -0.06221488,  0.60509398],
       [ 0.01921763, -0.06221488,  0.98712653, -0.03106946],
       [ 0.01870241,  0.60509398, -0.03106946,  0.93555285]]))
E(UHF) =    -1.762676
NO eigenvalue
[-1.06592008 -0.          0.          0.        ] [-1.06592008 -0.          0.          0.        ]
NO vec
[[ 0.9368044   0.          0.28782584  0.02933123  0.19670658  0.          0.          0.        ]
 [-0.3181343   0.          0.92615212 -0.10182553  0.17511248  0.          0.          0.        ]
 [-0.0807554   0.          0.04854265  0.98140605  0.1672254   0.          0.          0.        ]
 [ 0.12110591  0.          0.23883499  0.16004186 -0.95009358  0.          0.          0.        ]
 [ 0.          0.9368044   0.          0.          0.          0.3397946   0.00269739 -0.08324582]
 [ 0.          0.3181343   0.          0.          0.         -0.92563919 -0.0459877  -0.19966921]
 [ 0.         -0.0807554   0.          0.          0.          0.11583613 -0.87435555 -0.46428755]
 [ 0.         -0.12110591  0.          0.          0.          0.11963995  0.48309443 -0.85885936]]
dm(NO)
[[ 1.06592008  0.         -0.          0.          0.          0.          0.          0.        ]
 [ 0.          1.06592008  0.          0.          0.         -0.         -0.          0.        ]
 [ 0.          0.          0.          0.          0.          0.          0.          0.        ]
 [ 0.          0.         -0.         -0.         -0.          0.          0.          0.        ]
 [ 0.          0.         -0.         -0.          0.          0.          0.          0.        ]
 [ 0.         -0.          0.          0.          0.          0.         -0.          0.        ]
 [ 0.          0.          0.          0.          0.         -0.         -0.          0.        ]
 [ 0.          0.          0.          0.          0.          0.          0.         -0.        ]]
D(g) (NO)
[[ 0.99951369  0.02395644 -0.          0.          0.          0.01926915  0.00456122 -0.0025253 ]
 [-0.02395644  0.99951369 -0.01657179  0.0032291  -0.01065039 -0.          0.          0.        ]
 [-0.          0.01657179  0.99951369 -0.         -0.         -0.02261668  0.00097046 -0.01361296]
 [ 0.         -0.0032291  -0.          0.99951369  0.          0.00739198 -0.02419882 -0.01793716]
 [ 0.          0.01065039 -0.          0.          0.99951369 -0.00591076 -0.01910664  0.02142339]
 [-0.01926915 -0.          0.02261668 -0.00739198  0.00591076  0.99951369 -0.         -0.        ]
 [-0.00456122  0.         -0.00097046  0.02419882  0.01910664 -0.          0.99951369 -0.        ]
 [ 0.0025253   0.          0.01361296  0.01793716 -0.02142339 -0.         -0.          0.99951369]]
...
N(g) (NO)
[[ 0.88006054 -0.02109338]
 [ 0.02109338  0.88006054]]
...
P(g) (NO)
[[ 1.         -0.         -0.          0.          0.          0.          0.         -0.        ]
 [-0.          1.          0.         -0.         -0.         -0.         -0.          0.        ]
 [ 0.00039716  0.01657033 -0.          0.          0.         -0.         -0.          0.        ]
 [-0.00007739 -0.00322881  0.         -0.         -0.          0.          0.         -0.        ]
 [ 0.00025525  0.01064946 -0.          0.          0.         -0.         -0.          0.        ]
 [-0.01926746  0.0004618   0.         -0.         -0.         -0.         -0.          0.        ]
 [-0.00456082  0.00010931  0.         -0.         -0.         -0.         -0.          0.        ]
 [ 0.00252508 -0.00006052 -0.          0.          0.          0.          0.         -0.        ]]
...
Pg_ortho
[[ 0.87775449 -0.29808123 -0.07566511  0.1134722   0.00634168  0.0021536  -0.00054667 -0.00081982]
 [-0.29763578  0.10107569  0.02565711 -0.03847703  0.01643181  0.00558016 -0.00141647 -0.00212423]
 [-0.07566511  0.02569551  0.00652256 -0.00978165 -0.00054667 -0.00018565  0.00004712  0.00007067]
 [ 0.11330263 -0.03847703 -0.00976703  0.01464726 -0.00625519 -0.00212423  0.00053922  0.00080864]
 [-0.00634168  0.0021536   0.00054667 -0.00081982  0.87775449  0.29808123 -0.07566511 -0.1134722 ]
 [ 0.01643181 -0.00558016 -0.00141647  0.00212423  0.29763578  0.10107569 -0.02565711 -0.03847703]
 [ 0.00054667 -0.00018565 -0.00004712  0.00007067 -0.07566511 -0.02569551  0.00652256  0.00978165]
 [-0.00625519  0.00212423  0.00053922 -0.00080864 -0.11330263 -0.03847703  0.00976703  0.01464726]]
G(g) (NO)
[[ 0.51066442 -0.00150552  0.06016309  0.10173321  0.07853095  0.00165275  0.00035871  0.00059772]
 [ 0.00150552  0.51066442 -0.00170488  0.00052406 -0.00019049  0.08554845 -0.07728067 -0.08273761]
 [ 0.05997519 -0.01197214  1.23776628  0.11179674 -0.03176582  0.00132601  0.00253721  0.00326217]
 [ 0.10174815 -0.00002159  0.11183238  0.9658445   0.06228446  0.0007586   0.00043561  0.00137637]
 [ 0.07846035 -0.00439637 -0.03174311  0.06228219  0.75765547  0.00075282  0.00014877  0.00011069]
 [ 0.01275121  0.0853479  -0.0021993   0.00331773  0.00138063  1.15600228 -0.18050432  0.13159939]
 [ 0.00002222 -0.0772959   0.00106657 -0.00116291 -0.00099271 -0.18052855  0.93667462  0.05382009]
 [ 0.00025865 -0.08274548  0.00030786  0.00075121  0.0004619   0.13156634  0.05383064  0.86858935]]
...
C(NO)
[[-1.03243406  0.         -0.5156243  -0.0902466   0.02006268  0.          0.          0.        ]
 [ 0.         -1.03243406  0.          0.          0.         -0.5156243  -0.0902466   0.02006268]
 [ 0.          0.         -0.47481445  0.36854829 -0.71430919  0.          0.          0.        ]
 [-0.          0.          0.22777467 -0.80695231 -0.62339569  0.          0.          0.        ]
 [-0.          0.         -0.39615804 -0.43776846  0.18605712  0.          0.          0.        ]
 [ 0.          0.          0.          0.          0.         -0.58365371  0.17680726 -0.60487246]
 [ 0.         -0.          0.          0.          0.         -0.28707393  0.57568767  0.72754916]
 [ 0.          0.          0.          0.          0.          0.10586864  0.78483373 -0.19564911]]
detC 1.0659200804861255
detNg [0.77495149 0.78275407 0.81913864 0.90779038 1.05125094 1.20188119 1.28985144 1.31161267]
xg [1.13573287 1.12441176 1.07446754 0.96953867 0.8372291  0.73230023 0.68235601 0.6710349 ]
ciS 1.8067677695464701
[[-1.09897752  0.         -0.19735516 -0.22343964 -0.1028286   0.          0.          0.        ]
 [ 0.         -1.09897752  0.          0.          0.         -0.22347198  0.19958098  0.09836542]
 [-0.19735516  0.         -0.24492871  0.02987429 -0.50889068  0.          0.          0.        ]
 [-0.22343964  0.          0.02987429 -0.07028459 -0.00623671  0.          0.          0.        ]
 [-0.1028286   0.         -0.50889068 -0.00623671 -0.11390734  0.          0.          0.        ]
 [ 0.         -0.22347198  0.          0.          0.         -0.57062352 -0.14190427  0.30112454]
 [ 0.          0.19958098  0.          0.          0.         -0.14190427 -0.02944626 -0.1009444 ]
 [ 0.          0.09836542  0.          0.          0.          0.30112454 -0.1009444   0.17094915]]
ciH -3.205692710308234
S2 = -0.000000
X(g)
[[ 1.87631328 -0.          0.0003726  -0.0000726   0.00023946  0.01807589  0.00427877 -0.00236892]
 [-0.          1.87631328 -0.01554557  0.00302913 -0.00999086  0.00043324  0.00010255 -0.00005678]
 [ 0.0003726   0.01554557  0.          0.          0.          0.          0.          0.        ]
 [-0.0000726  -0.00302913  0.          0.          0.          0.          0.          0.        ]
 [ 0.00023946  0.00999086  0.          0.          0.          0.          0.          0.        ]
 [-0.01807589  0.00043324  0.          0.          0.          0.          0.          0.        ]
 [-0.00427877  0.00010255  0.          0.          0.          0.          0.          0.        ]
 [ 0.00236892 -0.00005678  0.          0.          0.          0.          0.          0.        ]]
X(g) int
[[ 1.87631328 -0.          0.24086409 -0.04693361  0.15479908  0.28632142  0.06777547 -0.03752357]
 [ 0.          1.87631328 -0.24624113  0.04798135 -0.15825481  0.28006917  0.06629549 -0.03670419]
 [ 0.24086409  0.24624113  0.          0.          0.          0.          0.          0.        ]
 [-0.04693361 -0.04798135  0.          0.          0.          0.          0.          0.        ]
 [ 0.15479908  0.15825481  0.          0.          0.          0.          0.          0.        ]
 [-0.28632142  0.28006917  0.          0.          0.          0.          0.          0.        ]
 [-0.06777547  0.06629549  0.          0.          0.          0.          0.          0.        ]
 [ 0.03752357 -0.03670419  0.          0.          0.          0.          0.          0.        ]]
Hsp + Hph =  -1.7742693689476863
Feff (mod,ortho)
[[-0.51617443  0.37756229  0.01253714  0.01375207  0.          0.          0.          0.        ]
 [ 0.37756229  0.67863512  0.05374279  0.61018009  0.          0.          0.          0.        ]
 [ 0.01253714  0.05374279  0.98829781  0.02737887  0.          0.          0.          0.        ]
 [ 0.01375207  0.61018009  0.02737887  0.94398792  0.          0.          0.          0.        ]
 [ 0.          0.          0.          0.         -0.51617443 -0.37756229  0.01253714 -0.01375207]
 [ 0.          0.          0.          0.         -0.37756229  0.67863512 -0.05374279  0.61018009]
 [ 0.          0.          0.          0.          0.01253714 -0.05374279  0.98829781 -0.02737887]
 [ 0.          0.          0.          0.         -0.01375207  0.61018009 -0.02737887  0.94398792]]
E(SUHF) =     -1.11279786
e_a, e_b
[-0.64369814  0.28167224  0.98242867  1.47434365] [-0.64369814  0.28167224  0.98242867  1.47434365]
P_a, P_b
[[ 0.88319512 -0.30230097  0.00134985  0.10850716]
 [-0.30230097  0.1034719  -0.00046203 -0.03713995]
 [ 0.00134985 -0.00046203  0.00000206  0.00016584]
 [ 0.10850716 -0.03713995  0.00016584  0.01333092]] 
 [[ 0.88319512  0.30230097  0.00134985 -0.10850716]
 [ 0.30230097  0.1034719   0.00046203 -0.03713995]
 [ 0.00134985  0.00046203  0.00000206 -0.00016584]
 [-0.10850716 -0.03713995 -0.00016584  0.01333092]]
**** Start Cycle 2 ****
dm (ortho)
[array([[ 0.88319512, -0.30230097,  0.00134985,  0.10850716],
       [-0.30230097,  0.1034719 , -0.00046203, -0.03713995],
       [ 0.00134985, -0.00046203,  0.00000206,  0.00016584],
       [ 0.10850716, -0.03713995,  0.00016584,  0.01333092]]), array([[ 0.88319512,  0.30230097,  0.00134985, -0.10850716],
       [ 0.30230097,  0.1034719 ,  0.00046203, -0.03713995],
       [ 0.00134985,  0.00046203,  0.00000206, -0.00016584],
       [-0.10850716, -0.03713995, -0.00016584,  0.01333092]])]
Fock (ortho)
 (array([[-0.53299604,  0.24807796, -0.00899116, -0.01049366],
       [ 0.24807796,  0.73669781,  0.0777092 ,  0.60505344],
       [-0.00899116,  0.0777092 ,  0.94805203,  0.02926405],
       [-0.01049366,  0.60505344,  0.02926405,  0.90313534]]), array([[-0.53299604, -0.24807796, -0.00899116,  0.01049366],
       [-0.24807796,  0.73669781, -0.0777092 ,  0.60505344],
       [-0.00899116, -0.0777092 ,  0.94805203, -0.02926405],
       [ 0.01049366,  0.60505344, -0.02926405,  0.90313534]]))
E(UHF) =    -1.711508
NO eigenvalue
[-1. -0.  0.  0.] [-1. -0. -0.  0.]
NO vec
[[ 0.93978461  0.         -0.17638732  0.00052006 -0.29273217  0.          0.          0.        ]
 [-0.32167048  0.         -0.74588497 -0.00073247 -0.58325225  0.          0.          0.        ]
 [ 0.00143634  0.         -0.00350596 -0.99998058  0.00494721  0.          0.          0.        ]
 [ 0.11545961  0.         -0.64228564  0.00616626  0.75769401  0.          0.          0.        ]
 [ 0.          0.93978461  0.          0.          0.          0.31080285  0.0072703  -0.14196343]
 [ 0.          0.32167048  0.          0.          0.         -0.94489135  0.00199115  0.06086444]
 [ 0.          0.00143634  0.          0.          0.         -0.00500256 -0.99860291 -0.05258467]
 [ 0.         -0.11545961  0.          0.          0.         -0.10274682  0.05230119 -0.98659858]]
dm(NO)
[[ 1.  0. -0.  0. -0.  0.  0.  0.]
 [ 0.  1.  0.  0.  0. -0. -0.  0.]
 [-0.  0.  0. -0.  0.  0.  0.  0.]
 [ 0.  0. -0. -0. -0.  0.  0.  0.]
 [-0.  0.  0. -0.  0.  0.  0.  0.]
 [ 0. -0.  0.  0.  0. -0. -0.  0.]
 [ 0. -0.  0.  0.  0. -0.  0. -0.]
 [ 0.  0.  0.  0.  0.  0.  0. -0.]]
D(g) (NO)
[[ 0.99951369  0.02389864 -0.          0.         -0.          0.01821602  0.00033667 -0.00832533]
 [-0.02389864  0.99951369  0.01033855  0.0000591   0.01715689 -0.         -0.          0.        ]
 [-0.         -0.01033855  0.99951369 -0.          0.          0.02232621 -0.00102464  0.01913106]
 [ 0.         -0.0000591  -0.          0.99951369  0.          0.00016286  0.03114918  0.00144633]
 [-0.         -0.01715689  0.          0.          0.99951369  0.01191987  0.0009791  -0.0231299 ]
 [-0.01821602 -0.         -0.02232621 -0.00016286 -0.01191987  0.99951369  0.         -0.        ]
 [-0.00033667 -0.          0.00102464 -0.03114918 -0.0009791   0.          0.99951369  0.        ]
 [ 0.00832533  0.         -0.01913106 -0.00144633  0.0231299  -0.          0.          0.99951369]]
...
N(g) (NO)
[[ 0.9999149  -0.02390824]
 [ 0.02390824  0.9999149 ]]
...
P(g) (NO)
[[ 1.         -0.         -0.          0.         -0.          0.          0.         -0.        ]
 [ 0.          1.         -0.          0.         -0.         -0.         -0.          0.        ]
 [-0.00024718 -0.01033767  0.         -0.          0.          0.          0.         -0.        ]
 [-0.00000141 -0.00005909  0.         -0.          0.          0.          0.         -0.        ]
 [-0.00041019 -0.01715543  0.         -0.          0.          0.          0.         -0.        ]
 [-0.01821447  0.00043551  0.         -0.          0.         -0.         -0.          0.        ]
 [-0.00033664  0.00000805  0.         -0.          0.         -0.         -0.          0.        ]
 [ 0.00832462 -0.00019904 -0.          0.         -0.          0.          0.         -0.        ]]
...
Pg_ortho
[[ 0.88334893 -0.30235362  0.00135009  0.10852606  0.00643315  0.00220195  0.00000983 -0.00079036]
 [-0.30190287  0.10333564 -0.00046142 -0.03709104  0.01664988  0.00569894  0.00002545 -0.00204556]
 [ 0.00135009 -0.00046211  0.00000206  0.00016587  0.00000983  0.00000337  0.00000002 -0.00000121]
 [ 0.10836427 -0.03709104  0.00016562  0.01331337 -0.00597627 -0.00204556 -0.00000913  0.00073423]
 [-0.00643315  0.00220195 -0.00000983 -0.00079036  0.88334893  0.30235362  0.00135009 -0.10852606]
 [ 0.01664988 -0.00569894  0.00002545  0.00204556  0.30190287  0.10333564  0.00046142 -0.03709104]
 [-0.00000983  0.00000337 -0.00000002 -0.00000121  0.00135009  0.00046211  0.00000206 -0.00016587]
 [-0.00597627  0.00204556 -0.00000913 -0.00073423 -0.10836427 -0.03709104 -0.00016562  0.01331337]]
G(g) (NO)
[[ 0.55201921 -0.00177956 -0.03226266 -0.1324493  -0.08378556  0.00199252  0.00040765  0.00018483]
 [ 0.00177956  0.55201921  0.00173384 -0.00042795  0.00099051  0.07323644 -0.12960772 -0.05866837]
 [-0.03211869  0.00961818  1.22248239  0.10545321  0.17459737 -0.0017275  -0.00311826 -0.001509  ]
 [-0.13243617  0.00178785  0.10548883  0.99397468  0.06921829 -0.00130226 -0.00106315 -0.0009458 ]
 [-0.08363363  0.00942956  0.17461342  0.06919862  0.81453    -0.00145928 -0.00139776 -0.00047472]
 [ 0.0132522   0.07303192  0.00257606 -0.00345175  0.00017473  1.25397622 -0.13464127  0.11893621]
 [-0.00171409 -0.12959616 -0.00158117  0.00117605  0.00002375 -0.13468077  0.99488913  0.00949496]
 [-0.0024624  -0.05862344 -0.00004649 -0.00056231 -0.00048046  0.11891783  0.00949891  0.78212173]]
...
C(NO)
[[-1.02891926  0.         -0.50326323 -0.16293118 -0.02661729  0.          0.          0.        ]
 [ 0.         -1.02891926  0.          0.          0.         -0.50326323 -0.16293118 -0.02661729]
 [ 0.00562706  0.          0.24373377 -0.49531504  0.74407432  0.          0.          0.        ]
 [-0.08488758  0.         -0.17450726  0.84188209  0.61456252  0.          0.          0.        ]
 [-0.00276844  0.          0.59750052  0.07833591  0.04286495  0.          0.          0.        ]
 [ 0.         -0.00351684  0.          0.          0.         -0.53926128  0.36901679 -0.63534034]
 [ 0.         -0.08440447  0.          0.          0.         -0.19232186  0.81838208  0.63929625]
 [ 0.         -0.01042811  0.          0.          0.          0.345073    0.3928312  -0.34758314]]
detC 1.0586748519224538
detNg [1.00040141 1.01054457 1.05786239 1.17328252 1.36045042 1.55749222 1.67281465 1.70137019]
xg [0.89186786 0.88291589 0.84342337 0.7604527  0.65583122 0.57286055 0.53336803 0.52441606]
ciS 1.4162839203088091
[[-1.13174243  0.          0.15005759  0.16017571  0.13954141  0.          0.          0.        ]
 [ 0.         -1.13174243  0.          0.          0.         -0.20180482  0.15914049  0.03993071]
 [ 0.15005759  0.          0.18652766 -0.03269536 -0.35765341  0.          0.          0.        ]
 [ 0.16017571  0.         -0.03269536 -0.04616533 -0.05129901  0.          0.          0.        ]
 [ 0.13954141  0.         -0.35765341 -0.05129901 -0.53671804  0.          0.          0.        ]
 [ 0.         -0.20180482  0.          0.          0.         -0.37640817  0.03015992  0.46927373]
 [ 0.          0.15914049  0.          0.          0.          0.03015992 -0.04341485 -0.03041009]
 [ 0.          0.03993071  0.          0.          0.          0.46927373 -0.03041009  0.0234673 ]]
ciH -2.551400121409062
S2 = -0.000000
X(g)
[[ 2.          0.         -0.00024718 -0.00000141 -0.00041019  0.01821447  0.00033664 -0.00832462]
 [ 0.          2.          0.01033767  0.00005909  0.01715543  0.00043551  0.00000805 -0.00019904]
 [-0.00024718 -0.01033767  0.          0.          0.          0.          0.          0.        ]
 [-0.00000141 -0.00005909  0.          0.          0.          0.          0.          0.        ]
 [-0.00041019 -0.01715543  0.          0.          0.          0.          0.          0.        ]
 [-0.01821447  0.00043551  0.          0.          0.          0.          0.          0.        ]
 [-0.00033664  0.00000805  0.          0.          0.          0.          0.          0.        ]
 [ 0.00832462 -0.00019904  0.          0.          0.          0.          0.          0.        ]]
X(g) int
[[ 2.          0.         -0.16007211 -0.00091499 -0.26564054  0.28903271  0.00534185 -0.13209762]
 [ 0.          2.          0.16404132  0.00093768  0.27222746  0.28203916  0.0052126  -0.12890133]
 [-0.16007211 -0.16404132  0.          0.          0.          0.          0.          0.        ]
 [-0.00091499 -0.00093768  0.          0.          0.          0.          0.          0.        ]
 [-0.26564054 -0.27222746  0.          0.          0.          0.          0.          0.        ]
 [-0.28903271  0.28203916  0.          0.          0.          0.          0.          0.        ]
 [-0.00534185  0.0052126   0.          0.          0.          0.          0.          0.        ]
 [ 0.13209762 -0.12890133  0.          0.          0.          0.          0.          0.        ]]
Hsp + Hph =  -1.8014750325293185
Feff (mod,ortho)
[[-0.46427155  0.35101195 -0.00371406  0.03351297  0.          0.          0.          0.        ]
 [ 0.35101195  0.65818159  0.07609622  0.60552701  0.          0.          0.          0.        ]
 [-0.00371406  0.07609622  0.948068    0.02996674  0.          0.          0.          0.        ]
 [ 0.03351297  0.60552701  0.02996674  0.91291111  0.          0.          0.          0.        ]
 [ 0.          0.          0.          0.         -0.46427155 -0.35101195 -0.00371406 -0.03351297]
 [ 0.          0.          0.          0.         -0.35101195  0.65818159 -0.07609622  0.60552701]
 [ 0.          0.          0.          0.         -0.00371406 -0.07609622  0.948068   -0.02996674]
 [ 0.          0.          0.          0.         -0.03351297  0.60552701 -0.02996674  0.91291111]]
E(SUHF) =     -1.14000352
e_a, e_b
[-0.58015457  0.24776469  0.93979974  1.44747929] [-0.58015457  0.24776469  0.93979974  1.44747929]
P_a, P_b
[[ 0.88502971 -0.30178259  0.0151734   0.10222112]
 [-0.30178259  0.10290359 -0.00517391 -0.03485595]
 [ 0.0151734  -0.00517391  0.00026014  0.00175253]
 [ 0.10222112 -0.03485595  0.00175253  0.01180656]] 
 [[ 0.88502971  0.30178259  0.0151734  -0.10222112]
 [ 0.30178259  0.10290359  0.00517391 -0.03485595]
 [ 0.0151734   0.00517391  0.00026014 -0.00175253]
 [-0.10222112 -0.03485595 -0.00175253  0.01180656]]
**** Start Cycle 3 ****
dm (ortho)
[array([[ 0.88502971, -0.30178259,  0.0151734 ,  0.10222112],
       [-0.30178259,  0.10290359, -0.00517391, -0.03485595],
       [ 0.0151734 , -0.00517391,  0.00026014,  0.00175253],
       [ 0.10222112, -0.03485595,  0.00175253,  0.01180656]]), array([[ 0.88502971,  0.30178259,  0.0151734 , -0.10222112],
       [ 0.30178259,  0.10290359,  0.00517391, -0.03485595],
       [ 0.0151734 ,  0.00517391,  0.00026014, -0.00175253],
       [-0.10222112, -0.03485595, -0.00175253,  0.01180656]])]
Fock (ortho)
 (array([[-0.52829011,  0.24975585, -0.01172171, -0.00695548],
       [ 0.24975585,  0.74586987,  0.08180464,  0.60679945],
       [-0.01172171,  0.08180464,  0.95261766,  0.02951553],
       [-0.00695548,  0.60679945,  0.02951553,  0.9070563 ]]), array([[-0.52829011, -0.24975585, -0.01172171,  0.00695548],
       [-0.24975585,  0.74586987, -0.08180464,  0.60679945],
       [-0.01172171, -0.08180464,  0.95261766, -0.02951553],
       [ 0.00695548,  0.60679945, -0.02951553,  0.9070563 ]]))
E(UHF) =    -1.712185
NO eigenvalue
[-1. -0. -0.  0.] [-1. -0.  0.  0.]
NO vec
[[ 0.94076018  0.         -0.33902482 -0.00567618 -0.00048897  0.          0.          0.        ]
 [-0.32078589  0.         -0.89070398  0.0604044  -0.31637657  0.          0.          0.        ]
 [ 0.01612887  0.          0.02796082  0.99496414  0.09489162  0.          0.          0.        ]
 [ 0.108658    0.          0.30154067  0.07978381 -0.94387563  0.          0.          0.        ]
 [ 0.          0.94076018  0.          0.          0.          0.01603951 -0.0018311   0.33868816]
 [ 0.          0.32078589  0.          0.          0.          0.28147036  0.00027847 -0.90436208]
 [ 0.          0.01612887  0.          0.          0.         -0.1267944   0.99123409 -0.03343674]
 [ 0.         -0.108658    0.          0.          0.          0.95102069  0.1321043   0.25749086]]
dm(NO)
[[ 1.  0.  0.  0.  0.  0.  0.  0.]
 [ 0.  1.  0.  0.  0. -0. -0.  0.]
 [ 0.  0.  0.  0. -0.  0.  0.  0.]
 [ 0.  0. -0.  0. -0.  0.  0.  0.]
 [ 0.  0. -0.  0. -0.  0.  0.  0.]
 [ 0. -0.  0.  0.  0. -0. -0.  0.]
 [ 0. -0.  0.  0.  0.  0. -0.  0.]
 [ 0.  0.  0.  0.  0.  0. -0.  0.]]
D(g) (NO)
[[ 0.99951369  0.02402915  0.         -0.          0.          0.00081353  0.00088965  0.01983783]
 [-0.02402915  0.99951369  0.01986309 -0.0006678  -0.00006676 -0.         -0.          0.        ]
 [ 0.         -0.01986309  0.99951369  0.          0.          0.00084449  0.00211807  0.02393013]
 [-0.          0.0006678   0.          0.99951369  0.         -0.00104055  0.03108372 -0.00216021]
 [ 0.          0.00006676  0.          0.          0.99951369 -0.03114379 -0.00095787  0.00123926]
 [-0.00081353 -0.         -0.00084449  0.00104055  0.03114379  0.99951369 -0.          0.        ]
 [-0.00088965 -0.         -0.00211807 -0.03108372  0.00095787 -0.          0.99951369  0.        ]
 [-0.01983783  0.         -0.02393013  0.00216021 -0.00123926  0.          0.          0.99951369]]
...
N(g) (NO)
[[ 0.99990864 -0.02403865]
 [ 0.02403865  0.99990864]]
...
P(g) (NO)
[[ 1.         -0.          0.          0.          0.          0.         -0.          0.        ]
 [ 0.          1.          0.          0.          0.         -0.         -0.          0.        ]
 [-0.00047748 -0.01986128 -0.         -0.         -0.          0.          0.         -0.        ]
 [ 0.00001605  0.00066774  0.          0.          0.         -0.         -0.          0.        ]
 [ 0.0000016   0.00006676  0.          0.          0.         -0.         -0.          0.        ]
 [-0.00081345  0.00001956 -0.         -0.         -0.         -0.         -0.          0.        ]
 [-0.00088957  0.00002139 -0.         -0.         -0.         -0.         -0.          0.        ]
 [-0.01983602  0.00047687 -0.         -0.         -0.         -0.         -0.          0.        ]]
...
Pg_ortho
[[ 0.88518192 -0.30183449  0.01517601  0.10223869  0.00633098  0.00215877  0.00010854 -0.00073123]
 [-0.30138205  0.10276701 -0.00516705 -0.03480969  0.01666061  0.00568103  0.00028564 -0.0019243 ]
 [ 0.01517601 -0.0051748   0.00026019  0.00175283  0.00010854  0.00003701  0.00000186 -0.00001254]
 [ 0.10208544 -0.03480969  0.00175021  0.01179089 -0.00564335 -0.0019243  -0.00009675  0.00065181]
 [-0.00633098  0.00215877 -0.00010854 -0.00073123  0.88518192  0.30183449  0.01517601 -0.10223869]
 [ 0.01666061 -0.00568103  0.00028564  0.0019243   0.30138205  0.10276701  0.00516705 -0.03480969]
 [-0.00010854  0.00003701 -0.00000186 -0.00001254  0.01517601  0.0051748   0.00026019 -0.00175283]
 [-0.00564335  0.0019243  -0.00009675 -0.00065181 -0.10208544 -0.03480969 -0.00175021  0.01179089]]
G(g) (NO)
[[ 0.56141088 -0.00179914 -0.08590331  0.13507216  0.02899167 -0.00085394 -0.00046963  0.00185885]
 [ 0.00179914  0.56141088  0.00181309  0.00027316  0.00102135  0.00252897  0.13910032  0.0843154 ]
 [-0.08569698  0.01309481  1.08739547 -0.14373487  0.24981945  0.00134646  0.00300636 -0.00169874]
 [ 0.13504824 -0.0025336  -0.14376865  1.01260076 -0.05631469 -0.00126545 -0.00151196  0.00102974]
 [ 0.02903462  0.00314935  0.24980062 -0.05629416  0.94396263  0.00073172  0.00194675 -0.00029456]
 [-0.00303482  0.00256678 -0.0003703  -0.00183916 -0.00138459  0.94682515 -0.06467433 -0.26820234]
 [ 0.00193014  0.13908407  0.00089705  0.00081897  0.00134363 -0.0646933   0.98720468  0.0897467 ]
 [ 0.01322407  0.08410733  0.00161076  0.0027167   0.00209861 -0.26821309  0.08970872  1.10992903]]
...
C(NO)
[[-1.02749686  0.         -0.50329085 -0.17750131 -0.03332786  0.          0.          0.        ]
 [ 0.         -1.02749686  0.          0.          0.         -0.50329085 -0.17750131 -0.03332786]
 [-0.00002469  0.          0.63865656 -0.21835335  0.41514959  0.          0.          0.        ]
 [ 0.098309    0.          0.17558128 -0.78352903 -0.68294722  0.          0.          0.        ]
 [ 0.02248616  0.         -0.09014994 -0.54192518  0.54222019  0.          0.          0.        ]
 [ 0.          0.00037543  0.          0.          0.         -0.15510948 -0.34666365  0.65942761]
 [ 0.          0.10084084  0.          0.          0.          0.14440061 -0.880624   -0.55236069]
 [ 0.         -0.00112792  0.          0.          0.         -0.63397753  0.24414033 -0.43911468]]
detC 1.0557497926679285
detNg [1.00039515 1.01037849 1.05690902 1.1701216  1.35284852 1.5440728  1.65545108 1.6829688 ]
xg [0.89682233 0.88796102 0.84886844 0.76673801 0.66317603 0.5810456  0.54195302 0.5330917 ]
ciS 1.4299140346424786
[[-1.13677619  0.          0.19452532 -0.15473604  0.04605321  0.          0.          0.        ]
 [ 0.         -1.13677619  0.          0.          0.          0.07002967 -0.1430856  -0.19628194]
 [ 0.19452532  0.         -0.65023857  0.05576545  0.17439098  0.          0.          0.        ]
 [-0.15473604  0.          0.05576545 -0.0407459  -0.03856231  0.          0.          0.        ]
 [ 0.04605321  0.          0.17439098 -0.03856231  0.29966252  0.          0.          0.        ]
 [ 0.          0.07002967  0.          0.          0.          0.28364883  0.03153038 -0.20039201]
 [ 0.         -0.1430856   0.          0.          0.          0.03153038 -0.04307136 -0.10093369]
 [ 0.         -0.19628194  0.          0.          0.         -0.20039201 -0.10093369 -0.63189943]]
ciH -2.577267268626631
S2 = 0.000000
X(g)
[[ 2.         -0.         -0.00047748  0.00001605  0.0000016   0.00081345  0.00088957  0.01983602]
 [ 0.          2.          0.01986128 -0.00066774 -0.00006676  0.00001956  0.00002139  0.00047687]
 [-0.00047748 -0.01986128  0.          0.          0.          0.          0.          0.        ]
 [ 0.00001605  0.00066774  0.          0.          0.          0.          0.          0.        ]
 [ 0.0000016   0.00006676  0.          0.          0.          0.          0.          0.        ]
 [-0.00081345  0.00001956  0.          0.          0.          0.          0.          0.        ]
 [-0.00088957  0.00002139  0.          0.          0.          0.          0.          0.        ]
 [-0.01983602  0.00047687  0.          0.          0.          0.          0.          0.        ]]
X(g) int
[[ 2.          0.         -0.30797221  0.01035412  0.00103514  0.01285607  0.01405903  0.3134954 ]
 [ 0.          2.          0.3138946  -0.01055323 -0.00105505  0.01261351  0.01379377  0.30758054]
 [-0.30797221 -0.3138946   0.          0.          0.          0.          0.          0.        ]
 [ 0.01035412  0.01055323  0.          0.          0.          0.          0.          0.        ]
 [ 0.00103514  0.00105505  0.          0.          0.          0.          0.          0.        ]
 [-0.01285607  0.01261351  0.          0.          0.          0.          0.          0.        ]
 [-0.01405903  0.01379377  0.          0.          0.          0.          0.          0.        ]
 [-0.3134954   0.30758054  0.          0.          0.          0.          0.          0.        ]]
Hsp + Hph =  -1.802393155243787
Feff (mod,ortho)
[[-0.45902247  0.35521575 -0.00331153  0.04223447  0.          0.          0.          0.        ]
 [ 0.35521575  0.66589537  0.08114988  0.60493504  0.          0.          0.          0.        ]
 [-0.00331153  0.08114988  0.95288568  0.03119309  0.          0.          0.          0.        ]
 [ 0.04223447  0.60493504  0.03119309  0.91749515  0.          0.          0.          0.        ]
 [ 0.          0.          0.          0.         -0.45902247 -0.35521575 -0.00331153 -0.04223447]
 [ 0.          0.          0.          0.         -0.35521575  0.66589537 -0.08114988  0.60493504]
 [ 0.          0.          0.          0.         -0.00331153 -0.08114988  0.95288568 -0.03119309]
 [ 0.          0.          0.          0.         -0.04223447  0.60493504 -0.03119309  0.91749515]]
E(SUHF) =     -1.14092164
e_a, e_b
[-0.57545705  0.25248906  0.94376306  1.45645865] [-0.57545705  0.25248906  0.94376306  1.45645865]
P_a, P_b
[[ 0.88628613 -0.30188602  0.01597145  0.09691631]
 [-0.30188602  0.10282816 -0.00544018 -0.03301155]
 [ 0.01597145 -0.00544018  0.00028782  0.0017465 ]
 [ 0.09691631 -0.03301155  0.0017465   0.0105979 ]] 
 [[ 0.88628613  0.30188602  0.01597145 -0.09691631]
 [ 0.30188602  0.10282816  0.00544018 -0.03301155]
 [ 0.01597145  0.00544018  0.00028782 -0.0017465 ]
 [-0.09691631 -0.03301155 -0.0017465   0.0105979 ]]
**** Start Cycle 4 ****
dm (ortho)
[array([[ 0.88628613, -0.30188602,  0.01597145,  0.09691631],
       [-0.30188602,  0.10282816, -0.00544018, -0.03301155],
       [ 0.01597145, -0.00544018,  0.00028782,  0.0017465 ],
       [ 0.09691631, -0.03301155,  0.0017465 ,  0.0105979 ]]), array([[ 0.88628613,  0.30188602,  0.01597145, -0.09691631],
       [ 0.30188602,  0.10282816,  0.00544018, -0.03301155],
       [ 0.01597145,  0.00544018,  0.00028782, -0.0017465 ],
       [-0.09691631, -0.03301155, -0.0017465 ,  0.0105979 ]])]
Fock (ortho)
 (array([[-0.52758474,  0.25060017, -0.01157492, -0.00451439],
       [ 0.25060017,  0.74726916,  0.08300515,  0.60660815],
       [-0.01157492,  0.08300515,  0.95364241,  0.02984884],
       [-0.00451439,  0.60660815,  0.02984884,  0.90788115]]), array([[-0.52758474, -0.25060017, -0.01157492,  0.00451439],
       [-0.25060017,  0.74726916, -0.08300515,  0.60660815],
       [-0.01157492, -0.08300515,  0.95364241, -0.02984884],
       [ 0.00451439,  0.60660815, -0.02984884,  0.90788115]]))
E(UHF) =    -1.711396
NO eigenvalue
[-1. -0. -0.  0.] [-1. -0. -0.  0.]
NO vec
[[-0.94142771  0.          0.33721488  0.          0.          0.          0.          0.        ]
 [ 0.3206683   0.          0.8952334  -0.01765063  0.30889715  0.          0.          0.        ]
 [-0.01696514  0.         -0.04736284 -0.99390565  0.09808416  0.          0.          0.        ]
 [-0.1029461   0.         -0.28740223  0.10881182  0.94602434  0.          0.          0.        ]
 [ 0.          0.94142771  0.          0.          0.         -0.07105919  0.00286606  0.32963048]
 [ 0.          0.3206683   0.          0.          0.          0.49021126 -0.03075193 -0.80988831]
 [ 0.          0.01696514  0.          0.          0.         -0.06681572  0.995055   -0.071508  ]
 [ 0.         -0.1029461   0.          0.          0.          0.86612884  0.09440156  0.47990757]]
dm(NO)
[[ 1.  0.  0.  0.  0.  0.  0.  0.]
 [ 0.  1.  0.  0.  0.  0. -0. -0.]
 [ 0.  0.  0.  0.  0.  0.  0.  0.]
 [ 0.  0.  0.  0.  0.  0.  0.  0.]
 [ 0.  0. -0.  0.  0.  0.  0.  0.]
 [ 0.  0.  0.  0.  0.  0. -0. -0.]
 [ 0. -0.  0.  0.  0. -0.  0. -0.]
 [ 0. -0.  0.  0.  0. -0. -0.  0.]]
D(g) (NO)
[[ 0.99951369 -0.02410924  0.         -0.          0.          0.00424283 -0.0012211  -0.0192781 ]
 [ 0.02410924  0.99951369 -0.01974895  0.00105161 -0.00010378  0.         -0.          0.        ]
 [ 0.          0.01974895  0.99951369  0.          0.          0.00527397 -0.003144   -0.02333822]
 [ 0.         -0.00105161 -0.          0.99951369 -0.          0.00473988 -0.03050267  0.0042904 ]
 [ 0.          0.00010378  0.         -0.          0.99951369  0.03006843  0.00553209  0.00613743]
 [-0.00424283  0.         -0.00527397 -0.00473988 -0.03006843  0.99951369 -0.         -0.        ]
 [ 0.0012211   0.          0.003144    0.03050267 -0.00553209 -0.          0.99951369 -0.        ]
 [ 0.0192781   0.          0.02333822 -0.0042904  -0.00613743 -0.         -0.          0.99951369]]
...
N(g) (NO)
[[ 0.99990479  0.02411867]
 [-0.02411867  0.99990479]]
...
P(g) (NO)
[[ 1.          0.          0.          0.          0.          0.         -0.         -0.        ]
 [ 0.          1.          0.          0.          0.          0.         -0.         -0.        ]
 [-0.00047632  0.01974707 -0.         -0.         -0.          0.         -0.         -0.        ]
 [ 0.00002536 -0.00105151  0.          0.          0.         -0.          0.          0.        ]
 [-0.0000025   0.00010377 -0.         -0.         -0.          0.         -0.         -0.        ]
 [-0.00424242 -0.00010233 -0.         -0.         -0.         -0.          0.          0.        ]
 [ 0.00122098  0.00002945  0.          0.          0.          0.         -0.         -0.        ]
 [ 0.01927626  0.00046496  0.          0.          0.          0.         -0.         -0.        ]]
...
Pg_ortho
[[ 0.88643734 -0.30193753  0.01597418  0.09693284  0.00626897  0.00213533  0.00011297 -0.00068552]
 [-0.30148343  0.10269103 -0.00543293 -0.03296753  0.01669043  0.00568508  0.00030077 -0.00182512]
 [ 0.01597418 -0.00544111  0.00028787  0.00174679  0.00011297  0.00003848  0.00000204 -0.00001235]
 [ 0.09678706 -0.03296753  0.00174417  0.01058377 -0.00535823 -0.00182512 -0.00009656  0.00058593]
 [-0.00626897  0.00213533 -0.00011297 -0.00068552  0.88643734  0.30193753  0.01597418 -0.09693284]
 [ 0.01669043 -0.00568508  0.00030077  0.00182512  0.30148343  0.10269103  0.00543293 -0.03296753]
 [-0.00011297  0.00003848 -0.00000204 -0.00001235  0.01597418  0.00544111  0.00028787 -0.00174679]
 [-0.00535823  0.00182512 -0.00009656 -0.00058593 -0.09678706 -0.03296753 -0.00174417  0.01058377]]
G(g) (NO)
[[ 0.56293166  0.00177772 -0.08254686  0.13986478  0.00274001  0.0013027   0.00038567 -0.00161679]
 [-0.00177772  0.56293166 -0.00185166 -0.00041796 -0.00092544 -0.01203345  0.14049042  0.08063055]
 [-0.0823397  -0.01309502  1.09144198 -0.0966706   0.27112192 -0.00183183 -0.00293265  0.00134682]
 [ 0.13984553  0.00216388 -0.09670741  0.99341617 -0.070949    0.00139854  0.00109771 -0.00072291]
 [ 0.00278725 -0.0035694   0.27111042 -0.07092835  0.9615306  -0.00113473 -0.00213281  0.00026226]
 [ 0.0062065  -0.01194399  0.00080103  0.00271148  0.00127631  1.07554317 -0.09252536 -0.27179339]
 [-0.00233826  0.14046857 -0.00101459 -0.00119102 -0.00122512 -0.09255337  0.99766221  0.08471137]
 [-0.01203804  0.08043811 -0.00153471 -0.0024469  -0.00120188 -0.27180537  0.08467997  0.97318337]]
...
C(NO)
[[ 1.02731996  0.          0.50500198  0.18029688  0.03148338  0.          0.          0.        ]
 [ 0.         -1.02731996  0.          0.          0.         -0.50500198 -0.18029688 -0.03148338]
 [-0.00012247  0.         -0.63913583  0.24165586 -0.41175173  0.          0.          0.        ]
 [-0.10226907  0.         -0.14252255  0.86782095  0.57492935  0.          0.          0.        ]
 [-0.00864925  0.          0.12769258  0.3778463  -0.65787926  0.          0.          0.        ]
 [ 0.          0.01044115  0.          0.          0.          0.01261397 -0.43686178  0.71871958]
 [ 0.          0.10209426  0.          0.          0.          0.13933461 -0.85887564 -0.59002223]
 [ 0.          0.00123785  0.          0.          0.         -0.65233384  0.16050851 -0.26115952]]
detC -1.0553862935733331
detNg [1.00039129 1.01027615 1.05632231 1.16818198 1.34820559 1.53591689 1.64492819 1.67182484]
xg [0.89744367 0.8886628  0.84992509 0.76854022 0.66591834 0.58453347 0.54579576 0.53701489]
ciS 1.4344585580182927
[[-1.13714256  0.          0.19256624 -0.14554068  0.07963671  0.          0.          0.        ]
 [ 0.         -1.13714256  0.          0.          0.          0.11561976 -0.14856595 -0.1707808 ]
 [ 0.19256624  0.         -0.64127272  0.1003983   0.17232223  0.          0.          0.        ]
 [-0.14554068  0.          0.1003983  -0.04625065  0.02426957  0.          0.          0.        ]
 [ 0.07963671  0.          0.17232223  0.02426957  0.29656778  0.          0.          0.        ]
 [ 0.          0.11561976  0.          0.          0.          0.32749945  0.03786976  0.03424523]
 [ 0.         -0.14856595  0.          0.          0.          0.03786976 -0.04870272 -0.09654044]
 [ 0.         -0.1707808   0.          0.          0.          0.03424523 -0.09654044 -0.66975232]]
ciH -2.5857137205724476
S2 = 0.000000
X(g)
[[ 2.         -0.         -0.00047632  0.00002536 -0.0000025   0.00424242 -0.00122098 -0.01927626]
 [ 0.          2.         -0.01974707  0.00105151 -0.00010377 -0.00010233  0.00002945  0.00046496]
 [-0.00047632  0.01974707  0.          0.          0.          0.          0.          0.        ]
 [ 0.00002536 -0.00105151  0.          0.          0.          0.          0.          0.        ]
 [-0.0000025   0.00010377  0.          0.          0.          0.          0.          0.        ]
 [-0.00424242 -0.00010233  0.          0.          0.          0.          0.          0.        ]
 [ 0.00122098  0.00002945  0.          0.          0.          0.          0.          0.        ]
 [ 0.01927626  0.00046496  0.          0.          0.          0.          0.          0.        ]]
X(g) int
[[ 2.         -0.         -0.30646067  0.01631865 -0.00161042  0.06688265 -0.01924905 -0.30389405]
 [-0.          2.         -0.31131644  0.01657722 -0.00163593 -0.06583944  0.01894881  0.29915405]
 [-0.30646067  0.31131644  0.          0.          0.          0.          0.          0.        ]
 [ 0.01631865 -0.01657722  0.          0.          0.          0.          0.          0.        ]
 [-0.00161042  0.00163593  0.          0.          0.          0.          0.          0.        ]
 [-0.06688265 -0.06583944  0.          0.          0.          0.          0.          0.        ]
 [ 0.01924905  0.01894881  0.          0.          0.          0.          0.          0.        ]
 [ 0.30389405  0.29915405  0.          0.          0.          0.          0.          0.        ]]
Hsp + Hph =  -1.8025712253023303
Feff (mod,ortho)
[[-0.45728033  0.3582152  -0.00311477  0.04908582  0.          0.          0.          0.        ]
 [ 0.3582152   0.66580086  0.08249429  0.60273734  0.          0.          0.          0.        ]
 [-0.00311477  0.08249429  0.95392449  0.03160134  0.          0.          0.          0.        ]
 [ 0.04908582  0.60273734  0.03160134  0.91876295  0.          0.          0.          0.        ]
 [ 0.          0.          0.          0.         -0.45728033 -0.3582152  -0.00311477 -0.04908582]
 [ 0.          0.          0.          0.         -0.3582152   0.66580086 -0.08249429  0.60273734]
 [ 0.          0.          0.          0.         -0.00311477 -0.08249429  0.95392449 -0.03160134]
 [ 0.          0.          0.          0.         -0.04908582  0.60273734 -0.03160134  0.91876295]]
E(SUHF) =     -1.14109971
e_a, e_b
[-0.57428834  0.25360043  0.94454183  1.45735406] [-0.57428834  0.25360043  0.94454183  1.45735406]
P_a, P_b
[[ 0.88704229 -0.30228249  0.01621216  0.09252422]
 [-0.30228249  0.10301054 -0.00552471 -0.03153001]
 [ 0.01621216 -0.00552471  0.0002963   0.00169103]
 [ 0.09252422 -0.03153001  0.00169103  0.00965087]] 
 [[ 0.88704229  0.30228249  0.01621216 -0.09252422]
 [ 0.30228249  0.10301054  0.00552471 -0.03153001]
 [ 0.01621216  0.00552471  0.0002963  -0.00169103]
 [-0.09252422 -0.03153001 -0.00169103  0.00965087]]
**** Start Cycle 5 ****
dm (ortho)
[array([[ 0.88704229, -0.30228249,  0.01621216,  0.09252422],
       [-0.30228249,  0.10301054, -0.00552471, -0.03153001],
       [ 0.01621216, -0.00552471,  0.0002963 ,  0.00169103],
       [ 0.09252422, -0.03153001,  0.00169103,  0.00965087]]), array([[ 0.88704229,  0.30228249,  0.01621216, -0.09252422],
       [ 0.30228249,  0.10301054,  0.00552471, -0.03153001],
       [ 0.01621216,  0.00552471,  0.0002963 , -0.00169103],
       [-0.09252422, -0.03153001, -0.00169103,  0.00965087]])]
Fock (ortho)
 (array([[-0.52701124,  0.25153025, -0.01133807, -0.00247654],
       [ 0.25153025,  0.74806944,  0.08401039,  0.60637877],
       [-0.01133807,  0.08401039,  0.95438447,  0.03016343],
       [-0.00247654,  0.60637877,  0.03016343,  0.90845425]]), array([[-0.52701124, -0.25153025, -0.01133807,  0.00247654],
       [-0.25153025,  0.74806944, -0.08401039,  0.60637877],
       [-0.01133807, -0.08401039,  0.95438447, -0.03016343],
       [ 0.00247654,  0.60637877, -0.03016343,  0.90845425]]))
E(UHF) =    -1.710413
NO eigenvalue
[-1. -0.  0.  0.] [-1. -0. -0.  0.]
NO vec
[[ 0.94182922  0.         -0.25508735 -0.00933877 -0.21863427  0.          0.          0.        ]
 [-0.32095254  0.         -0.49348576  0.02615369 -0.80794632  0.          0.          0.        ]
 [ 0.01721348  0.          0.01067416  0.9996143   0.01900045  0.          0.          0.        ]
 [ 0.09823885  0.          0.8314375  -0.00017533 -0.5468645   0.          0.          0.        ]
 [ 0.          0.94182922  0.          0.          0.          0.07165882 -0.01062838  0.32819166]
 [ 0.          0.32095254  0.          0.          0.          0.09752935  0.01087959 -0.94199741]
 [ 0.          0.01721348  0.          0.          0.         -0.10734486  0.99405329  0.00623179]
 [ 0.         -0.09823885  0.          0.          0.          0.98682831  0.10782732  0.06994481]]
dm(NO)
[[ 1.  0. -0. -0.  0.  0.  0.  0.]
 [ 0.  1.  0.  0.  0. -0. -0.  0.]
 [-0.  0.  0. -0.  0.  0.  0.  0.]
 [ 0.  0. -0. -0. -0.  0.  0.  0.]
 [ 0.  0.  0. -0. -0.  0.  0.  0.]
 [ 0. -0.  0.  0.  0.  0.  0.  0.]
 [ 0. -0.  0.  0.  0.  0. -0.  0.]
 [ 0.  0.  0.  0.  0.  0.  0.  0.]]
D(g) (NO)
[[ 0.99951369  0.02415693 -0.         -0.          0.          0.00409389  0.00044286  0.01928419]
 [-0.02415693  0.99951369  0.014972   -0.00052458  0.01282186 -0.         -0.          0.        ]
 [ 0.         -0.014972    0.99951369  0.          0.          0.02347883  0.00304363  0.01370085]
 [-0.          0.00052458  0.          0.99951369 -0.         -0.00329279  0.0309972  -0.00066996]
 [ 0.         -0.01282186  0.         -0.          0.99951369 -0.01983772 -0.00145145  0.02030643]
 [-0.00409389 -0.         -0.02347883  0.00329279  0.01983772  0.99951369 -0.         -0.        ]
 [-0.00044286 -0.         -0.00304363 -0.0309972   0.00145145 -0.          0.99951369  0.        ]
 [-0.01928419  0.         -0.01370085  0.00066996 -0.02030643 -0.          0.          0.99951369]]
...
N(g) (NO)
[[ 0.99990248 -0.02416632]
 [ 0.02416632  0.99990248]]
...
P(g) (NO)
[[ 1.         -0.         -0.         -0.          0.          0.          0.         -0.        ]
 [-0.          1.          0.          0.         -0.         -0.         -0.          0.        ]
 [-0.00036182 -0.01497054  0.          0.         -0.          0.          0.         -0.        ]
 [ 0.00001268  0.00052453 -0.         -0.          0.         -0.         -0.          0.        ]
 [-0.00030986 -0.01282061  0.          0.         -0.          0.          0.         -0.        ]
 [-0.0040935   0.00009893  0.          0.         -0.         -0.         -0.          0.        ]
 [-0.00044282  0.0000107   0.          0.         -0.         -0.         -0.          0.        ]
 [-0.01928231  0.00046603  0.          0.         -0.         -0.         -0.          0.        ]]
...
Pg_ortho
[[ 0.88719291 -0.30233381  0.01621491  0.09253993  0.00623201  0.00212372  0.0001139  -0.00065004]
 [-0.30187822  0.10287277 -0.00551732 -0.03148784  0.01672673  0.00570006  0.00030571 -0.00174471]
 [ 0.01621491 -0.00552565  0.00029635  0.00169132  0.0001139   0.00003881  0.00000208 -0.00001188]
 [ 0.09240049 -0.03148784  0.00168877  0.00963797 -0.0051198  -0.00174471 -0.00009357  0.00053403]
 [-0.00623201  0.00212372 -0.0001139  -0.00065004  0.88719291  0.30233381  0.01621491 -0.09253993]
 [ 0.01672673 -0.00570006  0.00030571  0.00174471  0.30187822  0.10287277  0.00551732 -0.03148784]
 [-0.0001139   0.00003881 -0.00000208 -0.00001188  0.01621491  0.00552565  0.00029635 -0.00169132]
 [-0.0051198   0.00174471 -0.00009357 -0.00053403 -0.09240049 -0.03148784 -0.00168877  0.00963797]]
G(g) (NO)
[[ 0.56379832 -0.00176072 -0.07669287  0.13644366 -0.04212996 -0.00047845 -0.00047392  0.00201077]
 [ 0.00176072  0.56379832  0.00080741  0.00036212  0.00192709  0.0203577   0.13725122  0.08379301]
 [-0.07656357  0.00789349  0.7787386  -0.05596046  0.12135049  0.0003096   0.00104784 -0.00113737]
 [ 0.13642508 -0.00219979 -0.05597431  1.00204805 -0.1251343  -0.00099529 -0.00131023  0.00123644]
 [-0.0419599   0.01109534  0.12133466 -0.12509597  1.26742128  0.0012632   0.0035655  -0.00161868]
 [-0.00065838  0.02035953  0.00047073 -0.00137284 -0.00066973  0.84919715 -0.04193669 -0.2173856 ]
 [ 0.0017585   0.13723872 -0.00007964  0.00092043  0.00155957 -0.0419485   0.98726545  0.10422922]
 [ 0.01366481  0.08357894  0.00000569  0.0032916   0.00264137 -0.21739737  0.10418881  1.21174534]]
...
C(NO)
[[-1.02719239  0.         -0.50624664 -0.18236047 -0.02944833  0.          0.          0.        ]
 [ 0.         -1.02719239  0.          0.          0.         -0.50624664 -0.18236047 -0.02944833]
 [-0.018437    0.          0.55691481  0.13074823 -0.05114186  0.          0.          0.        ]
 [ 0.10098698  0.          0.17259384 -0.82906931 -0.63005289  0.          0.          0.        ]
 [ 0.01604921  0.          0.32235274 -0.49907833  0.73036308  0.          0.          0.        ]
 [ 0.          0.01309574  0.          0.          0.         -0.26634637 -0.31185884  0.54878771]
 [ 0.          0.1030671   0.          0.          0.          0.16063256 -0.87736339 -0.55735156]
 [ 0.          0.00124334  0.          0.          0.         -0.58916111  0.29412198 -0.56674831]]
detC 1.0551242092457636
detNg [1.00038899 1.01021506 1.05597232 1.16702696 1.34544863 1.53108825 1.6387089  1.66524129]
xg [0.89789163 0.88915809 0.85062921 0.76968307 0.66761441 0.58666827 0.54813939 0.53940585]
ciS 1.4372974810924686
[[-1.13708463  0.          0.10618403 -0.1477539   0.17999716  0.          0.          0.        ]
 [ 0.         -1.13708463  0.          0.          0.          0.04036399 -0.1383149  -0.21153009]
 [ 0.10618403  0.         -0.43627149  0.05440096 -0.43110237  0.          0.          0.        ]
 [-0.1477539   0.          0.05440096 -0.0434706   0.03653841  0.          0.          0.        ]
 [ 0.17999716  0.         -0.43110237  0.03653841  0.08872857  0.          0.          0.        ]
 [ 0.          0.04036399  0.          0.          0.          0.17276943  0.01282363 -0.35958412]
 [ 0.         -0.1383149   0.          0.          0.          0.01282363 -0.04017005 -0.08893555]
 [ 0.         -0.21153009  0.          0.          0.         -0.35958412 -0.08893555 -0.52361291]]
ciH -2.591015526849436
S2 = -0.000000
X(g)
[[ 2.         -0.         -0.00036182  0.00001268 -0.00030986  0.0040935   0.00044282  0.01928231]
 [-0.          2.          0.01497054 -0.00052453  0.01282061  0.00009893  0.0000107   0.00046603]
 [-0.00036182 -0.01497054  0.          0.          0.          0.          0.          0.        ]
 [ 0.00001268  0.00052453  0.          0.          0.          0.          0.          0.        ]
 [-0.00030986 -0.01282061  0.          0.          0.          0.          0.          0.        ]
 [-0.0040935   0.00009893  0.          0.          0.          0.          0.          0.        ]
 [-0.00044282  0.0000107   0.          0.          0.          0.          0.          0.        ]
 [-0.01928231  0.00046603  0.          0.          0.          0.          0.          0.        ]]
X(g) int
[[ 2.         -0.         -0.23244795  0.00814443 -0.19906595  0.06443944  0.00697085  0.30354035]
 [-0.          2.          0.23566487 -0.00825715  0.20182088  0.06355982  0.00687569  0.29939691]
 [-0.23244795 -0.23566487  0.          0.          0.          0.          0.          0.        ]
 [ 0.00814443  0.00825715  0.          0.          0.          0.          0.          0.        ]
 [-0.19906595 -0.20182088  0.          0.          0.          0.          0.          0.        ]
 [-0.06443944  0.06355982  0.          0.          0.          0.          0.          0.        ]
 [-0.00697085  0.00687569  0.          0.          0.          0.          0.          0.        ]
 [-0.30354035  0.29939691  0.          0.          0.          0.          0.          0.        ]]
Hsp + Hph =  -1.8026995531085492
Feff (mod,ortho)
[[-0.45568264  0.36088314 -0.00292038  0.05493337  0.          0.          0.          0.        ]
 [ 0.36088314  0.66525656  0.0835847   0.60075645  0.          0.          0.          0.        ]
 [-0.00292038  0.0835847   0.95466834  0.03195474  0.          0.          0.          0.        ]
 [ 0.05493337  0.60075645  0.03195474  0.91965466  0.          0.          0.          0.        ]
 [ 0.          0.          0.          0.         -0.45568264 -0.36088314 -0.00292038 -0.05493337]
 [ 0.          0.          0.          0.         -0.36088314  0.66525656 -0.0835847   0.60075645]
 [ 0.          0.          0.          0.         -0.00292038 -0.0835847   0.95466834 -0.03195474]
 [ 0.          0.          0.          0.         -0.05493337  0.60075645 -0.03195474  0.91965466]]
E(SUHF) =     -1.14122804
e_a, e_b
[-0.57335432  0.25440773  0.94506293  1.45778057] [-0.57335432  0.25440773  0.94506293  1.45778057]
P_a, P_b
[[ 0.8875146  -0.30277641  0.01640091  0.08882507]
 [-0.30277641  0.10329245 -0.00559519 -0.03030275]
 [ 0.01640091 -0.00559519  0.00030308  0.00164145]
 [ 0.08882507 -0.03030275  0.00164145  0.00888987]] 
 [[ 0.8875146   0.30277641  0.01640091 -0.08882507]
 [ 0.30277641  0.10329245  0.00559519 -0.03030275]
 [ 0.01640091  0.00559519  0.00030308 -0.00164145]
 [-0.08882507 -0.03030275 -0.00164145  0.00888987]]
**** Start Cycle 6 ****
dm (ortho)
[array([[ 0.8875146 , -0.30277641,  0.01640091,  0.08882507],
       [-0.30277641,  0.10329245, -0.00559519, -0.03030275],
       [ 0.01640091, -0.00559519,  0.00030308,  0.00164145],
       [ 0.08882507, -0.03030275,  0.00164145,  0.00888987]]), array([[ 0.8875146 ,  0.30277641,  0.01640091, -0.08882507],
       [ 0.30277641,  0.10329245,  0.00559519, -0.03030275],
       [ 0.01640091,  0.00559519,  0.00030308, -0.00164145],
       [-0.08882507, -0.03030275, -0.00164145,  0.00888987]])]
Fock (ortho)
 (array([[-0.52646381,  0.25245217, -0.0111239 , -0.00074002],
       [ 0.25245217,  0.74867018,  0.08490853,  0.60617733],
       [-0.0111239 ,  0.08490853,  0.95500402,  0.03044814],
       [-0.00074002,  0.60617733,  0.03044814,  0.90892227]]), array([[-0.52646381, -0.25245217, -0.0111239 ,  0.00074002],
       [-0.25245217,  0.74867018, -0.08490853,  0.60617733],
       [-0.0111239 , -0.08490853,  0.95500402, -0.03044814],
       [ 0.00074002,  0.60617733, -0.03044814,  0.90892227]]))
E(UHF) =    -1.709395
NO eigenvalue
[-1. -0.  0.  0.] [-1. -0. -0.  0.]
NO vec
[[ 0.94207993  0.         -0.32678996 -0.00213311 -0.07542661  0.          0.          0.        ]
 [-0.32139142  0.         -0.93818038  0.11959073  0.04715075  0.          0.          0.        ]
 [ 0.01740926  0.          0.1034888   0.96040444 -0.25808971  0.          0.          0.        ]
 [ 0.09428613  0.          0.04812454  0.25162834  0.96201732  0.          0.          0.        ]
 [ 0.          0.94207993  0.          0.          0.          0.32531397 -0.00120838  0.08157675]
 [ 0.          0.32139142  0.          0.          0.         -0.94244567  0.07878421  0.04792456]
 [ 0.          0.01740926  0.          0.          0.          0.05973557  0.90263132 -0.4258935 ]
 [ 0.         -0.09428613  0.          0.          0.          0.04897599  0.42314097  0.89981287]]
dm(NO)
[[ 1.  0.  0. -0.  0.  0.  0.  0.]
 [ 0.  1.  0.  0.  0. -0.  0.  0.]
 [ 0.  0. -0.  0. -0.  0.  0.  0.]
 [ 0.  0. -0. -0. -0.  0.  0.  0.]
 [ 0.  0.  0.  0.  0.  0.  0.  0.]
 [ 0. -0.  0.  0.  0.  0.  0.  0.]
 [ 0.  0.  0.  0.  0. -0.  0.  0.]
 [ 0.  0.  0.  0.  0. -0.  0.  0.]]
D(g) (NO)
[[ 0.99951369  0.02418681 -0.         -0.          0.          0.01917841  0.00090904  0.00433056]
 [-0.02418681  0.99951369  0.01908791 -0.00091743  0.00471185 -0.          0.          0.        ]
 [-0.         -0.01908791  0.99951369  0.         -0.          0.02452291  0.00125534 -0.00225743]
 [-0.          0.00091743  0.          0.99951369 -0.         -0.00136294  0.03064655 -0.00552112]
 [ 0.         -0.00471185 -0.         -0.          0.99951369 -0.00116238  0.00554796  0.03029951]
 [-0.01917841 -0.         -0.02452291  0.00136294  0.00116238  0.99951369 -0.         -0.        ]
 [-0.00090904  0.         -0.00125534 -0.03064655 -0.00554796 -0.          0.99951369  0.        ]
 [-0.00433056  0.          0.00225743  0.00552112 -0.03029951 -0.          0.          0.99951369]]
...
N(g) (NO)
[[ 0.99990104 -0.02419618]
 [ 0.02419618  0.99990104]]
...
P(g) (NO)
[[ 1.         -0.          0.         -0.          0.          0.          0.         -0.        ]
 [ 0.          1.          0.         -0.          0.         -0.          0.          0.        ]
 [-0.00046185 -0.01908602 -0.          0.         -0.          0.          0.         -0.        ]
 [ 0.0000222   0.00091734  0.         -0.          0.         -0.          0.          0.        ]
 [-0.00011401 -0.00471138 -0.          0.         -0.          0.          0.         -0.        ]
 [-0.01917651  0.00046404 -0.          0.         -0.         -0.          0.          0.        ]
 [-0.00090895  0.000022   -0.          0.         -0.         -0.          0.          0.        ]
 [-0.00433013  0.00010478 -0.          0.         -0.         -0.          0.          0.        ]]
...
Pg_ortho
[[ 0.88766484 -0.30282767  0.01640369  0.08884011  0.0062088   0.00211814  0.00011474 -0.0006214 ]
 [-0.30237077  0.10315406 -0.00558769 -0.03026216  0.01676308  0.00571874  0.00030977 -0.0016777 ]
 [ 0.01640369 -0.00559613  0.00030313  0.00164173  0.00011474  0.00003914  0.00000212 -0.00001148]
 [ 0.08870607 -0.03026216  0.00163925  0.00887796 -0.00491776 -0.0016777  -0.00009088  0.00049218]
 [-0.0062088   0.00211814 -0.00011474 -0.0006214   0.88766484  0.30282767  0.01640369 -0.08884011]
 [ 0.01676308 -0.00571874  0.00030977  0.0016777   0.30237077  0.10315406  0.00558769 -0.03026216]
 [-0.00011474  0.00003914 -0.00000212 -0.00001148  0.01640369  0.00559613  0.00030313 -0.00164173]
 [-0.00491776  0.0016777  -0.00009088 -0.00049218 -0.08870607 -0.03026216 -0.00163925  0.00887796]]
G(g) (NO)
[[ 0.56443749 -0.00174762 -0.06762514  0.1282181  -0.07182911  0.00200532 -0.00067854 -0.00020979]
 [ 0.00174762  0.56443749  0.00206408  0.00006007 -0.00051155  0.08992387  0.1325594  -0.02267522]
 [-0.06741278  0.01343448  1.19083087 -0.19504736 -0.14808367 -0.00173143  0.00364794 -0.00014641]
 [ 0.12818372 -0.00329376 -0.19508129  1.03590694 -0.0086265   0.0013164  -0.00220757 -0.00044257]
 [-0.07181781  0.00059289 -0.14805936 -0.00863945  0.82306409 -0.00035441 -0.00082463  0.00006633]
 [ 0.01379797  0.08970846  0.00248575  0.00268015 -0.00237984  1.23445605  0.01968199 -0.22896889]
 [ 0.00087555  0.13255759  0.00100825  0.00003735 -0.00064155  0.01972439  0.94435336 -0.06623134]
 [-0.00073144 -0.02267647 -0.00069537 -0.00111996  0.00132124 -0.22897057 -0.06622094  0.87099249]]
...
C(NO)
[[-1.02706848  0.         -0.50716057 -0.18415014 -0.02760254  0.          0.          0.        ]
 [ 0.         -1.02706848  0.          0.          0.         -0.50716057 -0.18415014 -0.02760254]
 [ 0.01053086  0.          0.60091355 -0.39291449  0.506337    0.          0.          0.        ]
 [ 0.08995431  0.          0.18598372 -0.67005618 -0.77249057  0.          0.          0.        ]
 [-0.05336432  0.          0.21734949  0.59119978 -0.28284062  0.          0.          0.        ]
 [ 0.          0.00601289  0.          0.          0.         -0.57295801  0.25723227 -0.60885597]
 [ 0.          0.10345534  0.          0.          0.          0.08832489 -0.94163661 -0.32347498]
 [ 0.         -0.01764269  0.          0.          0.         -0.32687256  0.00513033  0.67659147]]
detC 1.0548696531172403
detNg [1.00038754 1.01017673 1.0557528  1.1663033  1.34372426 1.52807351 1.63482995 1.66113619]
xg [0.89832633 0.88962104 0.85121675 0.77053239 0.66879381 0.58810945 0.54970516 0.54099987]
ciS 1.4393262010056553
[[-1.13689525  0.          0.19680969 -0.1653547   0.01757731  0.          0.          0.        ]
 [ 0.         -1.13689525  0.          0.          0.         -0.22090594 -0.10649328  0.07902491]
 [ 0.19680969  0.         -0.49112832 -0.00200536 -0.39021802  0.          0.          0.        ]
 [-0.1653547   0.         -0.00200536 -0.01617667  0.09888604  0.          0.          0.        ]
 [ 0.01757731  0.         -0.39021802  0.09888604  0.11610209  0.          0.          0.        ]
 [ 0.         -0.22090594  0.          0.          0.         -0.51184019 -0.18440354 -0.33382282]
 [ 0.         -0.10649328  0.          0.          0.         -0.18440354  0.0062905   0.08085091]
 [ 0.          0.07902491  0.          0.          0.         -0.33382282  0.08085091  0.1143468 ]]
ciH -2.5948091157794244
S2 = 0.000000
X(g)
[[ 2.         -0.         -0.00046185  0.0000222  -0.00011401  0.01917651  0.00090895  0.00433013]
 [ 0.          2.          0.01908602 -0.00091734  0.00471138  0.00046404  0.000022    0.00010478]
 [-0.00046185 -0.01908602  0.          0.          0.          0.          0.          0.        ]
 [ 0.0000222   0.00091734  0.          0.          0.          0.          0.          0.        ]
 [-0.00011401 -0.00471138  0.          0.          0.          0.          0.          0.        ]
 [-0.01917651  0.00046404  0.          0.          0.          0.          0.          0.        ]
 [-0.00090895  0.000022    0.          0.          0.          0.          0.          0.        ]
 [-0.00433013  0.00010478  0.          0.          0.          0.          0.          0.        ]]
X(g) int
[[ 2.          0.         -0.29644095  0.01424802 -0.07317643  0.3015954   0.01429533  0.0681014 ]
 [ 0.          2.          0.30017221 -0.01442736  0.07409749  0.29784645  0.01411763  0.06725488]
 [-0.29644095 -0.30017221  0.          0.          0.          0.          0.          0.        ]
 [ 0.01424802  0.01442736  0.          0.          0.          0.          0.          0.        ]
 [-0.07317643 -0.07409749  0.          0.          0.          0.          0.          0.        ]
 [-0.3015954   0.29784645  0.          0.          0.          0.          0.          0.        ]
 [-0.01429533  0.01411763  0.          0.          0.          0.          0.          0.        ]
 [-0.0681014   0.06725488  0.          0.          0.          0.          0.          0.        ]]
Hsp + Hph =  -1.802794331101897
Feff (mod,ortho)
[[-0.45418103  0.36322684 -0.00273581  0.05996076  0.          0.          0.          0.        ]
 [ 0.36322684  0.66467587  0.08454969  0.59902384  0.          0.          0.          0.        ]
 [-0.00273581  0.08454969  0.95528935  0.03227568  0.          0.          0.          0.        ]
 [ 0.05996076  0.59902384  0.03227568  0.92034847  0.          0.          0.          0.        ]
 [ 0.          0.          0.          0.         -0.45418103 -0.36322684 -0.00273581 -0.05996076]
 [ 0.          0.          0.          0.         -0.36322684  0.66467587 -0.08454969  0.59902384]
 [ 0.          0.          0.          0.         -0.00273581 -0.08454969  0.95528935 -0.03227568]
 [ 0.          0.          0.          0.         -0.05996076  0.59902384 -0.03227568  0.92034847]]
E(SUHF) =     -1.14132282
e_a, e_b
[-0.57251896  0.2550801   0.94548076  1.45809076] [-0.57251896  0.2550801   0.94548076  1.45809076]
P_a, P_b
[[ 0.88783166 -0.30326993  0.01656308  0.08567155]
 [-0.30326993  0.10359245 -0.0056577  -0.02926411]
 [ 0.01656308 -0.0056577   0.000309    0.00159826]
 [ 0.08567155 -0.02926411  0.00159826  0.0082669 ]] 
 [[ 0.88783166  0.30326993  0.01656308 -0.08567155]
 [ 0.30326993  0.10359245  0.0056577  -0.02926411]
 [ 0.01656308  0.0056577   0.000309   -0.00159826]
 [-0.08567155 -0.02926411 -0.00159826  0.0082669 ]]
**** Start Cycle 7 ****
dm (ortho)
[array([[ 0.88783166, -0.30326993,  0.01656308,  0.08567155],
       [-0.30326993,  0.10359245, -0.0056577 , -0.02926411],
       [ 0.01656308, -0.0056577 ,  0.000309  ,  0.00159826],
       [ 0.08567155, -0.02926411,  0.00159826,  0.0082669 ]]), array([[ 0.88783166,  0.30326993,  0.01656308, -0.08567155],
       [ 0.30326993,  0.10359245,  0.0056577 , -0.02926411],
       [ 0.01656308,  0.0056577 ,  0.000309  , -0.00159826],
       [-0.08567155, -0.02926411, -0.00159826,  0.0082669 ]])]
Fock (ortho)
 (array([[-0.52596234,  0.25330171, -0.0109363 ,  0.00074998],
       [ 0.25330171,  0.74915033,  0.0856994 ,  0.60600103],
       [-0.0109363 ,  0.0856994 ,  0.95552952,  0.03070004],
       [ 0.00074998,  0.60600103,  0.03070004,  0.90931248]]), array([[-0.52596234, -0.25330171, -0.0109363 , -0.00074998],
       [-0.25330171,  0.74915033, -0.0856994 ,  0.60600103],
       [-0.0109363 , -0.0856994 ,  0.95552952, -0.03070004],
       [-0.00074998,  0.60600103, -0.03070004,  0.90931248]]))
E(UHF) =    -1.708416
NO eigenvalue
[-1. -0. -0.  0.] [-1. -0. -0.  0.]
NO vec
[[ 0.94224819  0.          0.04036027  0.01590683 -0.3320939   0.          0.          0.        ]
 [-0.3218578   0.         -0.16390742  0.01613241 -0.93235275  0.          0.          0.        ]
 [ 0.01757825  0.         -0.08564618 -0.99613639 -0.00824767  0.          0.          0.        ]
 [ 0.09092249  0.         -0.98192166  0.08484695  0.14270234  0.          0.          0.        ]
 [ 0.          0.94224819  0.          0.          0.          0.05944482 -0.00743396  0.32951387]
 [ 0.          0.3218578   0.          0.          0.          0.11138753  0.02319291 -0.93992684]
 [ 0.          0.01757825  0.          0.          0.         -0.19523802  0.9805728   0.00707816]
 [ 0.         -0.09092249  0.          0.          0.          0.97259511  0.19463763  0.0889272 ]]
dm(NO)
[[ 1.  0.  0. -0. -0.  0.  0.  0.]
 [ 0.  1.  0.  0.  0.  0.  0.  0.]
 [ 0.  0.  0.  0.  0.  0.  0.  0.]
 [-0.  0.  0.  0.  0.  0.  0.  0.]
 [-0.  0.  0. -0.  0.  0.  0.  0.]
 [ 0.  0.  0.  0.  0.  0. -0.  0.]
 [ 0. -0.  0.  0.  0.  0.  0. -0.]
 [ 0.  0.  0.  0.  0. -0.  0. -0.]]
D(g) (NO)
[[ 0.99951369  0.02420695  0.          0.         -0.          0.00327922  0.00063814  0.01937153]
 [-0.02420695  0.99951369 -0.00227786  0.0001573   0.01952443  0.          0.          0.        ]
 [ 0.          0.00227786  0.99951369 -0.          0.         -0.02975343 -0.00870644  0.00247702]
 [ 0.         -0.0001573  -0.          0.99951369 -0.          0.00872344 -0.02993632 -0.00029398]
 [-0.         -0.01952443  0.         -0.          0.99951369  0.00052413  0.00001661  0.02430874]
 [-0.00327922  0.          0.02975343 -0.00872344 -0.00052413  0.99951369  0.         -0.        ]
 [-0.00063814  0.          0.00870644  0.02993632 -0.00001661  0.          0.99951369 -0.        ]
 [-0.01937153  0.         -0.00247702  0.00029398 -0.02430874 -0.         -0.          0.99951369]]
...
N(g) (NO)
[[ 0.99990006 -0.02421631]
 [ 0.02421631  0.99990006]]
...
P(g) (NO)
[[ 1.         -0.          0.         -0.         -0.         -0.         -0.         -0.        ]
 [ 0.          1.          0.         -0.         -0.          0.          0.          0.        ]
 [ 0.00005516  0.00227764  0.         -0.         -0.          0.          0.          0.        ]
 [-0.00000381 -0.00015728 -0.          0.          0.         -0.         -0.         -0.        ]
 [-0.00047281 -0.01952248 -0.          0.          0.         -0.         -0.         -0.        ]
 [-0.00327889  0.00007941 -0.          0.          0.          0.          0.          0.        ]
 [-0.00063808  0.00001545 -0.          0.          0.          0.          0.          0.        ]
 [-0.01936959  0.00046911 -0.          0.          0.          0.          0.          0.        ]]
...
Pg_ortho
[[ 0.88798165 -0.30332117  0.01656588  0.08568603  0.00619313  0.00211548  0.00011554 -0.00059761]
 [-0.30286314  0.10345349 -0.00565011 -0.02922486  0.01679649  0.00573743  0.00031335 -0.00162078]
 [ 0.01656588 -0.00565865  0.00030905  0.00159853  0.00011554  0.00003947  0.00000216 -0.00001115]
 [ 0.08555664 -0.02922486  0.00159611  0.00825581 -0.00474489 -0.00162078 -0.00008852  0.00045786]
 [-0.00619313  0.00211548 -0.00011554 -0.00059761  0.88798165  0.30332117  0.01656588 -0.08568603]
 [ 0.01679649 -0.00573743  0.00031335  0.00162078  0.30286314  0.10345349  0.00565011 -0.02922486]
 [-0.00011554  0.00003947 -0.00000216 -0.00001115  0.01656588  0.00565865  0.00030905 -0.00159853]
 [-0.00474489  0.00162078 -0.00008852 -0.00045786 -0.08555664 -0.02922486 -0.00159611  0.00825581]]
G(g) (NO)
[[ 0.5649414  -0.0017371   0.01603387 -0.13577424 -0.08596862 -0.0004654  -0.00051541  0.00201667]
 [ 0.0017371   0.5649414   0.00062788 -0.00047222  0.00198293  0.00538826  0.13771703  0.08418622]
 [ 0.01605516  0.00183077  0.88099465  0.04648651  0.24121212  0.00054043  0.0017766  -0.00033916]
 [-0.13576382  0.00168323  0.04650164  0.98803465  0.1057066   0.00082254  0.00114756 -0.00117221]
 [-0.08575364  0.01367015  0.24122485  0.10566765  1.18216381  0.0008852   0.00354062 -0.00198811]
 [-0.00127839  0.00539914 -0.00078422  0.00162969 -0.00030992  0.86676313 -0.05570506 -0.23407373]
 [ 0.00163113  0.1377065   0.00093346 -0.00090077  0.00109674 -0.05571814  0.97837132  0.0838426 ]
 [ 0.01373911  0.08397047  0.00141036 -0.00351291  0.00190288 -0.23408189  0.08380173  1.20605866]]
...
C(NO)
[[-1.02694974  0.         -0.50787251 -0.18570601 -0.02597259  0.          0.          0.        ]
 [ 0.         -1.02694974  0.          0.          0.         -0.50787251 -0.18570601 -0.02597259]
 [ 0.02276091  0.         -0.21529582 -0.35046625  0.57645182  0.          0.          0.        ]
 [-0.10374741  0.         -0.17202678  0.87225824  0.56496312  0.          0.          0.        ]
 [-0.00356655  0.          0.60519393 -0.26198815  0.53077769  0.          0.          0.        ]
 [ 0.          0.01124954  0.          0.          0.         -0.26488915 -0.23697834  0.60666999]
 [ 0.          0.10566346  0.          0.          0.          0.14001568 -0.90253376 -0.50392503]
 [ 0.          0.00172843  0.          0.          0.         -0.59366198  0.28560968 -0.55786743]]
detC 1.0546257750464125
detNg [1.00038657 1.01015086 1.05560471 1.16581544 1.34256306 1.52604572 1.63222261 1.6583773 ]
xg [0.89874272 0.89005532 0.85172995 0.77121139 0.66968187 0.58916331 0.55083794 0.54215054]
ciS 1.4408932597207749
[[-1.1366577   0.          0.0624881   0.1362552   0.21151231  0.          0.          0.        ]
 [ 0.         -1.1366577   0.          0.          0.          0.06592698 -0.13098513 -0.21378547]
 [ 0.0624881   0.          0.22131567 -0.01747193  0.30522612  0.          0.          0.        ]
 [ 0.1362552   0.         -0.01747193 -0.03906895 -0.07545908  0.          0.          0.        ]
 [ 0.21151231  0.          0.30522612 -0.07545908 -0.57368717  0.          0.          0.        ]
 [ 0.          0.06592698  0.          0.          0.          0.18074858  0.03603341 -0.3354772 ]
 [ 0.         -0.13098513  0.          0.          0.          0.03603341 -0.03467379 -0.11718991]
 [ 0.         -0.21378547  0.          0.          0.         -0.3354772  -0.11718991 -0.53751525]]
ciH -2.5977356894884562
S2 = -0.000000
X(g)
[[ 2.         -0.          0.00005516 -0.00000381 -0.00047281  0.00327889  0.00063808  0.01936959]
 [ 0.          2.         -0.00227764  0.00015728  0.01952248  0.00007941  0.00001545  0.00046911]
 [ 0.00005516  0.00227764  0.          0.          0.          0.          0.          0.        ]
 [-0.00000381 -0.00015728  0.          0.          0.          0.          0.          0.        ]
 [-0.00047281 -0.01952248  0.          0.          0.          0.          0.          0.        ]
 [-0.00327889  0.00007941  0.          0.          0.          0.          0.          0.        ]
 [-0.00063808  0.00001545  0.          0.          0.          0.          0.          0.        ]
 [-0.01936959  0.00046911  0.          0.          0.          0.          0.          0.        ]]
X(g) int
[[ 2.          0.          0.03538323 -0.00244339 -0.30328291  0.05153597  0.01002898  0.30444183]
 [-0.          2.         -0.03579878  0.00247208  0.30684475  0.05093774  0.00991257  0.30090789]
 [ 0.03538323  0.03579878  0.          0.          0.          0.          0.          0.        ]
 [-0.00244339 -0.00247208  0.          0.          0.          0.          0.          0.        ]
 [-0.30328291 -0.30684475  0.          0.          0.          0.          0.          0.        ]
 [-0.05153597  0.05093774  0.          0.          0.          0.          0.          0.        ]
 [-0.01002898  0.00991257  0.          0.          0.          0.          0.          0.        ]
 [-0.30444183  0.30090789  0.          0.          0.          0.          0.          0.        ]]
Hsp + Hph =  -1.802864765979863
Feff (mod,ortho)
[[-0.4528124   0.36525531 -0.00256773  0.06429137  0.          0.          0.          0.        ]
 [ 0.36525531  0.66413184  0.08539554  0.59751036  0.          0.          0.          0.        ]
 [-0.00256773  0.08539554  0.9558163   0.03256129  0.          0.          0.          0.        ]
 [ 0.06429137  0.59751036  0.03256129  0.92089425  0.          0.          0.          0.        ]
 [ 0.          0.          0.          0.         -0.4528124  -0.36525531 -0.00256773 -0.06429137]
 [ 0.          0.          0.          0.         -0.36525531  0.66413184 -0.08539554  0.59751036]
 [ 0.          0.          0.          0.         -0.00256773 -0.08539554  0.9558163  -0.03256129]
 [ 0.          0.          0.          0.         -0.06429137  0.59751036 -0.03256129  0.92089425]]
E(SUHF) =     -1.14139325
e_a, e_b
[-0.57177244  0.25564886  0.94582565  1.45832792] [-0.57177244  0.25564886  0.94582565  1.45832792]
P_a, P_b
[[ 0.88806304 -0.30371892  0.0167029   0.08296329]
 [-0.30371892  0.10387234 -0.00571242 -0.02837357]
 [ 0.0167029  -0.00571242  0.00031415  0.00156039]
 [ 0.08296329 -0.02837357  0.00156039  0.00775047]] 
 [[ 0.88806304  0.30371892  0.0167029  -0.08296329]
 [ 0.30371892  0.10387234  0.00571242 -0.02837357]
 [ 0.0167029   0.00571242  0.00031415 -0.00156039]
 [-0.08296329 -0.02837357 -0.00156039  0.00775047]]
**** Start Cycle 8 ****
dm (ortho)
[array([[ 0.88806304, -0.30371892,  0.0167029 ,  0.08296329],
       [-0.30371892,  0.10387234, -0.00571242, -0.02837357],
       [ 0.0167029 , -0.00571242,  0.00031415,  0.00156039],
       [ 0.08296329, -0.02837357,  0.00156039,  0.00775047]]), array([[ 0.88806304,  0.30371892,  0.0167029 , -0.08296329],
       [ 0.30371892,  0.10387234,  0.00571242, -0.02837357],
       [ 0.0167029 ,  0.00571242,  0.00031415, -0.00156039],
       [-0.08296329, -0.02837357, -0.00156039,  0.00775047]])]
Fock (ortho)
 (array([[-0.52551654,  0.25405347, -0.01077349,  0.002033  ],
       [ 0.25405347,  0.74954828,  0.08638757,  0.60584614],
       [-0.01077349,  0.08638757,  0.95597758,  0.03091982],
       [ 0.002033  ,  0.60584614,  0.03091982,  0.90964053]]), array([[-0.52551654, -0.25405347, -0.01077349, -0.002033  ],
       [-0.25405347,  0.74954828, -0.08638757,  0.60584614],
       [-0.01077349, -0.08638757,  0.95597758, -0.03091982],
       [-0.002033  ,  0.60584614, -0.03091982,  0.90964053]]))
E(UHF) =    -1.707511
NO eigenvalue
[-1. -0. -0.  0.] [-1. -0. -0.  0.]
NO vec
[[ 0.94237097  0.         -0.32546046  0.07286072 -0.02652862  0.          0.          0.        ]
 [-0.32229232  0.         -0.94411183 -0.06076385 -0.03298896  0.          0.          0.        ]
 [ 0.01772433  0.          0.04916427 -0.35015213 -0.93523377  0.          0.          0.        ]
 [ 0.08803677  0.          0.01764142 -0.93187583  0.35149075  0.          0.          0.        ]
 [ 0.          0.94237097  0.          0.          0.          0.32000075  0.03248542 -0.09209332]
 [ 0.          0.32229232  0.          0.          0.         -0.94418652  0.05702242  0.03725486]
 [ 0.          0.01772433  0.          0.          0.         -0.06450561 -0.92674907 -0.36967693]
 [ 0.         -0.08803677  0.          0.          0.         -0.04416293  0.36990444 -0.92383433]]
dm(NO)
[[ 1.  0.  0.  0.  0.  0.  0.  0.]
 [ 0.  1.  0.  0.  0.  0. -0.  0.]
 [ 0.  0. -0.  0. -0.  0.  0.  0.]
 [ 0.  0. -0.  0.  0.  0.  0.  0.]
 [ 0.  0.  0. -0.  0.  0.  0.  0.]
 [ 0.  0.  0.  0.  0. -0.  0.  0.]
 [ 0. -0.  0.  0.  0. -0.  0.  0.]
 [ 0.  0.  0.  0.  0.  0. -0.  0.]]
D(g) (NO)
[[ 0.99951369  0.0242217  -0.          0.         -0.          0.01873588  0.00088481 -0.00582118]
[...]
       [-0.00999558,  0.60480213, -0.03222778,  0.91151008]]))
E(UHF) =    -1.701334
NO eigenvalue
[-1. -0.  0.  0.] [-1. -0.  0.  0.]
NO vec
[[ 0.94318594  0.          0.00923114 -0.025514    0.33115572  0.          0.          0.        ]
 [-0.32428716  0.         -0.05230631  0.13195841  0.93524802  0.          0.          0.        ]
 [ 0.01860165  0.         -0.99327982 -0.10914842 -0.03370173  0.          0.          0.        ]
 [ 0.06994355  0.         -0.10283015  0.98489727 -0.12046254  0.          0.          0.        ]
 [ 0.          0.94318594  0.          0.          0.          0.24669167 -0.00788819  0.22244389]
 [ 0.          0.32428716  0.          0.          0.         -0.82345579  0.07773237 -0.45903821]
 [ 0.          0.01860165  0.          0.          0.         -0.06051457 -0.99688131 -0.04711285]
 [ 0.         -0.06994355  0.          0.          0.         -0.50734778 -0.01109551  0.85882654]]
dm(NO)
[[ 1.  0.  0.  0.  0.  0.  0.  0.]
 [ 0.  1.  0.  0.  0.  0. -0.  0.]
 [ 0.  0.  0.  0. -0.  0.  0.  0.]
 [ 0.  0.  0.  0.  0.  0.  0.  0.]
 [ 0.  0. -0. -0. -0.  0.  0.  0.]
 [ 0.  0.  0.  0.  0. -0.  0. -0.]
 [ 0. -0.  0.  0.  0. -0. -0.  0.]
 [ 0.  0.  0.  0.  0. -0.  0. -0.]]
D(g) (NO)
[[ 0.99951369  0.02431953  0.          0.          0.          0.01444098 -0.00162051  0.01303019]
 [-0.02431953  0.99951369  0.00060932  0.00162744 -0.01944052 -0.         -0.          0.        ]
 [ 0.         -0.00060932  0.99951369 -0.         -0.          0.00491534  0.03078358 -0.00048187]
 [ 0.         -0.00162744 -0.          0.99951369  0.         -0.01896053  0.00337835  0.02447099]
 [ 0.          0.01944052 -0.          0.          0.99951369 -0.01949844  0.00327486 -0.01426693]
 [-0.01444098  0.         -0.00491534  0.01896053  0.01949844  0.99951369 -0.         -0.        ]
 [ 0.00162051 -0.         -0.03078358 -0.00337835 -0.00327486 -0.          0.99951369 -0.        ]
 [-0.01303019  0.          0.00048187 -0.02447099  0.01426693 -0.         -0.          0.99951369]]
...
N(g) (NO)
[[ 0.9998946  -0.02432879]
 [ 0.02432879  0.9998946 ]]
...
P(g) (NO)
[[ 1.         -0.          0.          0.          0.         -0.          0.         -0.        ]
 [ 0.          1.         -0.          0.         -0.          0.         -0.          0.        ]
 [-0.00001482 -0.00060925 -0.         -0.         -0.         -0.          0.         -0.        ]
 [-0.00003959 -0.00162727 -0.         -0.         -0.         -0.          0.         -0.        ]
 [ 0.00047296  0.01943847  0.          0.          0.          0.         -0.          0.        ]
 [-0.01443945  0.00035133 -0.         -0.         -0.          0.         -0.          0.        ]
 [ 0.00162034 -0.00003943  0.          0.          0.         -0.          0.         -0.        ]
 [-0.01302882  0.00031701 -0.         -0.         -0.          0.         -0.          0.        ]]
...
Pg_ortho
[[ 0.88974826 -0.30591417  0.01754774  0.06598079  0.0061053   0.00209913  0.00012041 -0.00045275]
 [-0.30545008  0.10502016 -0.00602413 -0.02265117  0.01697445  0.00583617  0.00033477 -0.00125877]
 [ 0.01754774 -0.00603328  0.00034608  0.00130128  0.00012041  0.0000414   0.00000237 -0.00000893]
 [ 0.06588069 -0.02265117  0.00129931  0.00488549 -0.00366112 -0.00125877 -0.00007221  0.0002715 ]
 [-0.0061053   0.00209913 -0.00012041 -0.00045275  0.88974826  0.30591417  0.01754774 -0.06598079]
 [ 0.01697445 -0.00583617  0.00033477  0.00125877  0.30545008  0.10502016  0.00602413 -0.02265117]
 [-0.00012041  0.0000414  -0.00000237 -0.00000893  0.01754774  0.00603328  0.00034608 -0.00130128]
 [-0.00366112  0.00125877 -0.00007221 -0.0002715  -0.06588069 -0.02265117 -0.00129931  0.00488549]]
G(g) (NO)
[[ 0.56802541 -0.00167138 -0.13303957 -0.04079858  0.07834911  0.00200472  0.00022522  0.00078095]
 [ 0.00167138  0.56802541 -0.00024614 -0.00063121 -0.00205438  0.04165034 -0.13996065  0.06464441]
 [-0.13301527  0.00274016  1.01803808 -0.03117743 -0.16303008 -0.00196441 -0.00131555  0.0001014 ]
 [-0.04082334 -0.00168589 -0.03116098  0.85487528  0.20966437  0.00054995  0.00140834 -0.00037031]
 [ 0.07813025 -0.01382833 -0.16299458  0.20968339  1.18653154  0.00270541  0.00323664  0.00013316]
 [ 0.0120786   0.04146097 -0.00334461 -0.00202539 -0.00179264  1.27556311 -0.15117176  0.09190888]
 [-0.00313149 -0.13992981  0.00121017  0.00140583  0.00150233 -0.1512118   1.02155584 -0.04297125]
 [ 0.00677308  0.06453355 -0.00071827 -0.00037972 -0.0009877   0.09192316 -0.04296206  0.76232595]]
...
C(NO)
[[-1.02594624  0.         -0.51241763 -0.1951943  -0.01604308  0.          0.          0.        ]
 [ 0.         -1.02594624  0.          0.          0.         -0.51241763 -0.1951943  -0.01604308]
 [-0.09606548  0.         -0.18618551  0.77645596  0.6869269   0.          0.          0.        ]
 [-0.06422677  0.          0.18324817  0.50186306 -0.44182001  0.          0.          0.        ]
 [-0.00085333  0.         -0.60771944  0.30648708 -0.51628354  0.          0.          0.        ]
 [ 0.         -0.03661218  0.          0.          0.         -0.36411757  0.52291897 -0.7007728 ]
 [ 0.         -0.10240395  0.          0.          0.         -0.1386269   0.81289691  0.65590984]
 [ 0.          0.03908149  0.          0.          0.         -0.53457351 -0.12016277  0.11100428]]
detC 1.052565697188873
detNg [1.0003811  1.01000592 1.05477554 1.16308893 1.33609242 1.5147804  1.61776305 1.64308387]
xg [0.90226913 0.89367098 0.85573939 0.77604813 0.67556179 0.59587052 0.55793893 0.54934078]
ciS 1.4516099118316
[[-1.13465958  0.          0.156389   -0.05723849 -0.21313032  0.          0.          0.        ]
 [ 0.         -1.13465958  0.          0.          0.         -0.20893667  0.15819724 -0.06691335]
 [ 0.156389    0.         -0.03819629 -0.0435939   0.03441106  0.          0.          0.        ]
 [-0.05723849  0.         -0.0435939   0.19887     0.32891339  0.          0.          0.        ]
 [-0.21313032  0.          0.03441106  0.32891339 -0.55411228  0.          0.          0.        ]
 [ 0.         -0.20893667  0.          0.          0.          0.04276056  0.0543598  -0.44696801]
 [ 0.          0.15819724  0.          0.          0.          0.0543598  -0.05184519  0.08022055]
 [ 0.         -0.06691335  0.          0.          0.         -0.44696801  0.08022055 -0.38435394]]
ciH -2.617352825663318
S2 = -0.000000
X(g)
[[ 2.         -0.         -0.00001482 -0.00003959  0.00047296  0.01443945 -0.00162034  0.01302882]
 [ 0.          2.          0.00060925  0.00162727 -0.01943847  0.00035133 -0.00003943  0.00031701]
 [-0.00001482 -0.00060925  0.          0.          0.          0.          0.          0.        ]
 [-0.00003959 -0.00162727  0.          0.          0.          0.          0.          0.        ]
 [ 0.00047296  0.01943847  0.          0.          0.          0.          0.          0.        ]
 [-0.01443945  0.00035133  0.          0.          0.          0.          0.          0.        ]
 [ 0.00162034 -0.00003943  0.          0.          0.          0.          0.          0.        ]
 [-0.01302882  0.00031701  0.          0.          0.          0.          0.          0.        ]]
X(g) int
[[ 2.         -0.         -0.00947564 -0.02530869  0.30232414  0.2261607  -0.02537885  0.20406637]
 [-0.          2.          0.00954255  0.02548739 -0.30445881  0.22457501 -0.02520091  0.20263559]
 [-0.00947564 -0.00954255  0.          0.          0.          0.          0.          0.        ]
 [-0.02530869 -0.02548739  0.          0.          0.          0.          0.          0.        ]
 [ 0.30232414  0.30445881  0.          0.          0.          0.          0.          0.        ]
 [-0.2261607   0.22457501  0.          0.          0.          0.          0.          0.        ]
 [ 0.02537885 -0.02520091  0.          0.          0.          0.          0.          0.        ]
 [-0.20406637  0.20263559  0.          0.          0.          0.          0.          0.        ]]
Hsp + Hph =  -1.8030689955546093
Feff (mod,ortho)
[[-0.44383108  0.37681748 -0.00151835  0.09099825  0.          0.          0.          0.        ]
 [ 0.37681748  0.66118182  0.09050267  0.58776468  0.          0.          0.          0.        ]
 [-0.00151835  0.09050267  0.9589392   0.0343241   0.          0.          0.          0.        ]
 [ 0.09099825  0.58776468  0.0343241   0.92308917  0.          0.          0.          0.        ]
 [ 0.          0.          0.          0.         -0.44383108 -0.37681748 -0.00151835 -0.09099825]
 [ 0.          0.          0.          0.         -0.37681748  0.66118182 -0.09050267  0.58776468]
 [ 0.          0.          0.          0.         -0.00151835 -0.09050267  0.9589392  -0.0343241 ]
 [ 0.          0.          0.          0.         -0.09099825  0.58776468 -0.0343241   0.92308917]]
E(SUHF) =     -1.14159748
e_a, e_b
[-0.56667484  0.2589733   0.94778608  1.45929456] [-0.56667484  0.2589733   0.94778608  1.45929456]
P_a, P_b
[[ 0.88960451 -0.30586519  0.01754659  0.06593127]
 [-0.30586519  0.10516304 -0.00603289 -0.02266859]
 [ 0.01754659 -0.00603289  0.00034609  0.00130043]
 [ 0.06593127 -0.02266859  0.00130043  0.00488636]] 
 [[ 0.88960451  0.30586519  0.01754659 -0.06593127]
 [ 0.30586519  0.10516304  0.00603289 -0.02266859]
 [ 0.01754659  0.00603289  0.00034609 -0.00130043]
 [-0.06593127 -0.02266859 -0.00130043  0.00488636]]
**** Start Cycle 37 ****
dm (ortho)
[array([[ 0.88960451, -0.30586519,  0.01754659,  0.06593127],
       [-0.30586519,  0.10516304, -0.00603289, -0.02266859],
       [ 0.01754659, -0.00603289,  0.00034609,  0.00130043],
       [ 0.06593127, -0.02266859,  0.00130043,  0.00488636]]), array([[ 0.88960451,  0.30586519,  0.01754659, -0.06593127],
       [ 0.30586519,  0.10516304,  0.00603289, -0.02266859],
       [ 0.01754659,  0.00603289,  0.00034609, -0.00130043],
       [-0.06593127, -0.02266859, -0.00130043,  0.00488636]])]
Fock (ortho)
 (array([[-0.52287334,  0.25818996, -0.00980137,  0.01001325],
       [ 0.25818996,  0.7521106 ,  0.09048379,  0.60479963],
       [-0.00980137,  0.09048379,  0.95864879,  0.03223043],
       [ 0.01001325,  0.60479963,  0.03223043,  0.91151389]]), array([[-0.52287334, -0.25818996, -0.00980137, -0.01001325],
       [-0.25818996,  0.7521106 , -0.09048379,  0.60479963],
       [-0.00980137, -0.09048379,  0.95864879, -0.03223043],
       [-0.01001325,  0.60479963, -0.03223043,  0.91151389]]))
E(UHF) =    -1.701321
NO eigenvalue
[-1. -0.  0.  0.] [-1. -0.  0.  0.]
NO vec
[[ 0.94318848  0.         -0.03809184  0.01937779  0.32949811  0.          0.          0.        ]
 [-0.32428851  0.          0.10335155 -0.00120054  0.94029462  0.          0.          0.        ]
 [ 0.01860348  0.         -0.0018048  -0.99981106  0.0053378   0.          0.          0.        ]
 [ 0.06990254  0.          0.99391358 -0.00094801 -0.08513827  0.          0.          0.        ]
 [ 0.          0.94318848  0.          0.          0.         -0.00042465 -0.00323632  0.33224214]
 [ 0.          0.32428851  0.          0.          0.         -0.2147416  -0.01889729 -0.9210678 ]
 [ 0.          0.01860348  0.          0.          0.          0.12531643  0.99100998 -0.04299918]
 [ 0.         -0.06990254  0.          0.          0.         -0.96859778  0.13240712  0.19849517]]
dm(NO)
[[ 1.  0. -0.  0.  0.  0.  0.  0.]
 [ 0.  1.  0.  0.  0.  0.  0.  0.]
 [-0.  0.  0. -0. -0.  0.  0.  0.]
 [ 0.  0. -0. -0. -0.  0.  0.  0.]
 [ 0.  0. -0. -0. -0.  0.  0.  0.]
 [ 0. -0.  0.  0.  0.  0. -0.  0.]
 [ 0.  0.  0.  0.  0. -0.  0. -0.]
 [ 0.  0.  0.  0.  0. -0. -0.  0.]]
D(g) (NO)
[[ 0.99951369  0.02431983 -0.          0.         -0.          0.00012042  0.00095943  0.01949369]
 [-0.02431983  0.99951369  0.00224278  0.00002015 -0.01938836  0.         -0.          0.        ]
 [ 0.         -0.00224278  0.99951369 -0.          0.         -0.03071879  0.00399092  0.00279137]
 [ 0.         -0.00002015 -0.          0.99951369  0.         -0.00387061 -0.0309022   0.00156997]
 [ 0.          0.01938836  0.          0.          0.99951369 -0.00370852 -0.00077392 -0.02412742]
 [-0.00012042  0.          0.03071879  0.00387061  0.00370852  0.99951369  0.         -0.        ]
 [-0.00095943  0.         -0.00399092  0.0309022   0.00077392  0.          0.99951369 -0.        ]
 [-0.01949369  0.         -0.00279137 -0.00156997  0.02412742 -0.         -0.          0.99951369]]
...
N(g) (NO)
[[ 0.99989458 -0.0243291 ]
 [ 0.0243291   0.99989458]]
...
P(g) (NO)
[[ 1.         -0.         -0.          0.          0.         -0.         -0.         -0.        ]
 [ 0.          1.         -0.          0.          0.          0.          0.          0.        ]
 [-0.00005456 -0.00224255  0.         -0.         -0.         -0.         -0.         -0.        ]
 [-0.00000049 -0.00002015  0.         -0.         -0.         -0.         -0.         -0.        ]
 [ 0.0004717   0.01938632 -0.          0.          0.          0.          0.          0.        ]
 [-0.0001204   0.00000293  0.         -0.         -0.          0.          0.          0.        ]
 [-0.00095933  0.00002334  0.         -0.         -0.          0.          0.          0.        ]
 [-0.01949164  0.00047426  0.         -0.         -0.          0.          0.          0.        ]]
...
Pg_ortho
[[ 0.88975305 -0.30591626  0.01754952  0.06594228  0.00610506  0.00209905  0.00012042 -0.00045246]
 [-0.30545217  0.10502103 -0.00602475 -0.02263798  0.01697466  0.00583625  0.00033481 -0.00125804]
 [ 0.01754952 -0.0060339   0.00034615  0.00130065  0.00012042  0.0000414   0.00000238 -0.00000892]
 [ 0.06584224 -0.02263798  0.00129867  0.00487977 -0.003659   -0.00125804 -0.00007217  0.00027118]
 [-0.00610506  0.00209905 -0.00012042 -0.00045246  0.88975305  0.30591626  0.01754952 -0.06594228]
 [ 0.01697466 -0.00583625  0.00033481  0.00125804  0.30545217  0.10502103  0.00602475 -0.02263798]
 [-0.00012042  0.0000414  -0.00000238 -0.00000892  0.01754952  0.0060339   0.00034615 -0.00130065]
 [-0.003659    0.00125804 -0.00007217 -0.00027118 -0.06584224 -0.02263798 -0.00129867  0.00487977]]
G(g) (NO)
[[ 0.56803214 -0.00167123 -0.02920106 -0.13348863  0.08264158  0.00071739 -0.00038985  0.00200328]
 [ 0.00167123  0.56803214 -0.00052788 -0.00039271 -0.00206079 -0.00195492  0.13884181  0.07887127]
 [-0.02922047 -0.00147472  0.84763388 -0.0342963   0.21523093  0.00053226 -0.00151374  0.00018468]
 [-0.1334757   0.00200033 -0.03431081  0.99885233 -0.13348887 -0.00109435  0.00122522 -0.00124766]
 [ 0.08242121 -0.01397892  0.21524664 -0.13345099  1.21297277  0.00132854 -0.0036081   0.00204712]
 [ 0.00338239 -0.00200211 -0.00101515 -0.00198372 -0.0006102   0.91876734  0.07338241  0.26372954]
 [ 0.00225325  0.13882422 -0.00104464 -0.00105293 -0.0013593   0.07340191  0.99447338  0.10326064]
 [ 0.01360399  0.07865547 -0.0014016  -0.00325844 -0.00196745  0.26373966  0.1032231   1.14621826]]
...
C(NO)
[[-1.02594386  0.         -0.51242829 -0.19521149 -0.01602563  0.          0.          0.        ]
 [ 0.         -1.02594386  0.          0.          0.         -0.51242829 -0.19521149 -0.01602563]
 [-0.05363524  0.          0.22349076  0.40534436 -0.49358014  0.          0.          0.        ]
 [-0.10237664  0.         -0.18902082  0.83731113  0.61471212  0.          0.          0.        ]
 [ 0.00124563  0.         -0.59319469  0.28858972 -0.55868632  0.          0.          0.        ]
 [ 0.         -0.03971614  0.          0.          0.          0.17280086  0.32786277 -0.63080237]
 [ 0.          0.10851746  0.          0.          0.          0.13819834 -0.87322044 -0.56281728]
 [ 0.          0.00241991  0.          0.          0.         -0.6233763   0.28048188 -0.46791861]]
detC 1.0525608138339904
detNg [1.00038108 1.01000553 1.0547733  1.16308159 1.33607504 1.51475023 1.61772438 1.64304298]
xg [0.90227751 0.89367962 0.85574915 0.77606022 0.67557684 0.59588792 0.55795744 0.54935955]
ciS 1.451637064922302
[[-1.13465602  0.         -0.06594255  0.14087052 -0.2213086   0.          0.          0.        ]
 [ 0.         -1.13465602  0.          0.          0.         -0.10930325 -0.13827484 -0.20519087]
 [-0.06594255  0.          0.18140887 -0.00631886  0.35012175  0.          0.          0.        ]
 [ 0.14087052  0.         -0.00631886 -0.04011782  0.04930056  0.          0.          0.        ]
 [-0.2213086   0.          0.35012175  0.04930056 -0.53473318  0.          0.          0.        ]
 [ 0.         -0.10930325  0.          0.          0.          0.25036486 -0.02467436  0.24706845]
 [ 0.         -0.13827484  0.          0.          0.         -0.02467436 -0.04479809 -0.10900744]
 [ 0.         -0.20519087  0.          0.          0.          0.24706845 -0.10900744 -0.59900889]]
ciH -2.6174017983527644
S2 = 0.000000
X(g)
[[ 2.         -0.         -0.00005456 -0.00000049  0.0004717   0.0001204   0.00095933  0.01949164]
 [ 0.          2.          0.00224255  0.00002015 -0.01938632  0.00000293  0.00002334  0.00047426]
 [-0.00005456 -0.00224255  0.          0.          0.          0.          0.          0.        ]
 [-0.00000049 -0.00002015  0.          0.          0.          0.          0.          0.        ]
 [ 0.0004717   0.01938632  0.          0.          0.          0.          0.          0.        ]
 [-0.0001204   0.00000293  0.          0.          0.          0.          0.          0.        ]
 [-0.00095933  0.00002334  0.          0.          0.          0.          0.          0.        ]
 [-0.01949164  0.00047426  0.          0.          0.          0.          0.          0.        ]]
X(g) int
[[ 2.         -0.         -0.03487813 -0.00031332  0.30151387  0.00188583  0.01502554  0.3052886 ]
 [-0.          2.          0.03512397  0.00031553 -0.30363903  0.00187263  0.01492038  0.3031519 ]
 [-0.03487813 -0.03512397  0.          0.          0.          0.          0.          0.        ]
 [-0.00031332 -0.00031553  0.          0.          0.          0.          0.          0.        ]
 [ 0.30151387  0.30363903  0.          0.          0.          0.          0.          0.        ]
 [-0.00188583  0.00187263  0.          0.          0.          0.          0.          0.        ]
 [-0.01502554  0.01492038  0.          0.          0.          0.          0.          0.        ]
 [-0.3052886   0.3031519   0.          0.          0.          0.          0.          0.        ]]
Hsp + Hph =  -1.8030690050566178
Feff (mod,ortho)
[[-0.44381444  0.37683647 -0.00151656  0.09104859  0.          0.          0.          0.        ]
 [ 0.37683647  0.66117834  0.09051163  0.58774574  0.          0.          0.          0.        ]
 [-0.00151656  0.09051163  0.95894485  0.03432721  0.          0.          0.          0.        ]
 [ 0.09104859  0.58774574  0.03432721  0.92309119  0.          0.          0.          0.        ]
 [ 0.          0.          0.          0.         -0.44381444 -0.37683647 -0.00151656 -0.09104859]
 [ 0.          0.          0.          0.         -0.37683647  0.66117834 -0.09051163  0.58774574]
 [ 0.          0.          0.          0.         -0.00151656 -0.09051163  0.95894485 -0.03432721]
 [ 0.          0.          0.          0.         -0.09104859  0.58774574 -0.03432721  0.92309119]]
E(SUHF) =     -1.14159749
e_a, e_b
[-0.56666455  0.25897923  0.94778961  1.45929565] [-0.56666455  0.25897923  0.94778961  1.45929565]
P_a, P_b
[[ 0.88960864 -0.30586699  0.01754811  0.06589807]
 [-0.30586699  0.10516379 -0.00603343 -0.0226572 ]
 [ 0.01754811 -0.00603343  0.00034615  0.00129988]
 [ 0.06589807 -0.0226572   0.00129988  0.00488142]] 
 [[ 0.88960864  0.30586699  0.01754811 -0.06589807]
 [ 0.30586699  0.10516379  0.00603343 -0.0226572 ]
 [ 0.01754811  0.00603343  0.00034615 -0.00129988]
 [-0.06589807 -0.0226572  -0.00129988  0.00488142]]

***************
SCF converged at cycle 36
Final E(SUHF) =     -1.14159749, delta E = -9.50201e-09
***** Start DFT Correlation for SUHF+DFT **********
tot grids = 20048
E(SUHF) =     -1.14159749
E_c(TPSS) =     -0.03618141
E(SUHF+DFT) =     -1.17777891
