

#INFO: **** input file is /share/home/srwang/ExSCF/test/pytest/scan_h2/scan_dft.py ****
#import phf
from pyscf import gto, scf
#import scipy
#import numpy as np
import sys, os, contextlib

from pyphf import util, sudft

#xyz = 'h2.xyz' #sys.argv[1]
fch = '../../test_carlos/test_uhf.fchk' #sys.argv[2]
bas = '../h2.bas'

for r in [0.6, 0.8, 1.0, 1.2, 1.4, 1.6, 1.8, 2.0]:
    output = 'sudft_%.1f.out' % r
    os.system("echo '\n' > %s" % output)
    with open(output, 'a', encoding='utf-8') as f:
        with contextlib.redirect_stdout(f):
            xyz = '''H 0.0 0.0 0.0; H 0.0 0.0 %f'''%r
            mf = util.guess_from_fchk(xyz, bas, fch)
            #f.flush()
            mf2 = util.SUHF(mf)
            mf2.cut_no = False
            mf2.debug = False
            mf2.max_cycle = 50
            #mf2.output = 'sudft_%.1f.out'%r
            #mf2.kernel()
            
            mf3 = sudft.SUDFT(mf2)
            mf3.kernel()
                    #INFO: ******************** input file end ********************


System: uname_result(system='Linux', node='xcluster', release='3.10.0-693.el7.x86_64', version='#1 SMP Thu Jul 6 19:56:57 EDT 2017', machine='x86_64', processor='x86_64')  Threads 16
Python 3.7.4 (default, Aug 13 2019, 20:35:49) 
[GCC 7.3.0]
numpy 1.17.2  scipy 1.4.1
Date: Thu Nov 19 17:46:23 2020
PySCF version 1.7.3
PySCF path  /share/apps/Python/Anaconda3-2019/lib/python3.7/site-packages/pyscf

[CONFIG] conf_file None
[INPUT] verbose = 4
[INPUT] num. atoms = 2
[INPUT] num. electrons = 2
[INPUT] charge = 0
[INPUT] spin (= nelec alpha-beta = 2S) = 0
[INPUT] symmetry False subgroup None
[INPUT] Mole.unit = angstrom
[INPUT]  1 H      0.000000000000   0.000000000000   0.000000000000 AA    0.000000000000   0.000000000000   0.000000000000 Bohr
[INPUT]  2 H      0.000000000000   0.000000000000   1.200000000000 AA    0.000000000000   0.000000000000   2.267671349478 Bohr

nuclear repulsion = 0.4409810091
number of shells = 4
number of NR pGTOs = 6
number of NR cGTOs = 4
basis = ../h2.bas
ecp = {}
CPU time:        87.22


******** <class 'pyscf.scf.uhf.UHF'> ********
method = UHF
initial guess = minao
damping factor = 0
level_shift factor = 0
DIIS = <class 'pyscf.scf.diis.CDIIS'>
diis_start_cycle = 1
diis_space = 8
SCF conv_tol = 1e-09
SCF conv_tol_grad = None
SCF max_cycles = 1
direct_scf = True
direct_scf_tol = 1e-13
chkfile to save SCF result = /share/home/srwang/ExSCF/test/pytest/scan_h2/tmpsy2mxyw8
max_memory 4000 MB (current use 118 MB)
number electrons alpha = 1  beta = 1
Set gradient conv threshold to 3.16228e-05
init E= -0.704705497650591
  alpha nocc = 1  HOMO = -0.387738801160255  LUMO = 0.0591143791880276
  beta  nocc = 1  HOMO = -0.377978600330882  LUMO = 0.0605141287609879
cycle= 1 E= -1.0518173112928  delta_E= -0.347  |g|= 0.00541  |ddm|= 0.465
SCF not converged.
SCF energy = -1.0518173112928 after 1 cycles  <S^2> = 1.2843124e-06  2S+1 = 1.0000026


******** <class 'pyscf.scf.uhf.UHF'> ********
method = UHF
initial guess = minao
damping factor = 0
level_shift factor = 0
DIIS = <class 'pyscf.scf.diis.CDIIS'>
diis_start_cycle = 1
diis_space = 8
SCF conv_tol = 1e-09
SCF conv_tol_grad = None
SCF max_cycles = 0
direct_scf = True
direct_scf_tol = 1e-13
chkfile to save SCF result = /share/home/srwang/ExSCF/test/pytest/scan_h2/tmpsy2mxyw8
max_memory 4000 MB (current use 121 MB)
number electrons alpha = 1  beta = 1
Set gradient conv threshold to 3.16228e-05
init E= -1.06314719431824
  alpha nocc = 1  HOMO = -0.51244319033244  LUMO = 0.204946801339898
  beta  nocc = 1  HOMO = -0.51244319033244  LUMO = 0.204946801339899
SCF not converged.
SCF energy = -1.06314719431824 after 0 cycles  <S^2> = 0.63099792  2S+1 = 1.8772298

******** <class 'pyphf.util.SUHF'> ********
SVD: S^(-1/2)
[[-0.27977197  0.61046385 -0.90692315  0.70661919]
 [-0.36778729  0.30573586  0.68988701 -1.41090896]
 [-0.27977197 -0.61046385 -0.90692315 -0.70661919]
 [-0.36778729 -0.30573586  0.68988701  1.41090896]]
C (ortho)
[[-0.90507576 -0.65502768 -0.02099608 -0.11178389]
 [ 0.44358282 -0.53221959  0.32471106 -0.5338439 ]
 [ 0.06512781  0.15366219 -0.77471345 -0.57029868]
 [-0.13850138  0.27881813  0.48839602 -0.60414562]]
[[-0.90507576 -0.65502768 -0.02099608 -0.11178389]
 [-0.44358282  0.53221959 -0.32471106  0.5338439 ]
 [ 0.06512781  0.15366219 -0.77471345 -0.57029868]
 [ 0.13850138 -0.27881813 -0.48839602  0.60414562]]
grids:  [0.06237655 0.31939555 0.74529195 1.28265786 1.85893479 2.39630071 2.8221971  3.07921611] 
weights:  [0.15900941 0.34931531 0.49276925 0.56970235 0.56970235 0.49276925 0.34931531 0.15900941]
S = 0.0, Sz = 0.0
Wigner small d:  1
value : [1. 1. 1. 1. 1. 1. 1. 1.]
**** Start Cycle 1 ****
dm (ortho)
[[[ 0.81916213 -0.40147605 -0.0589456   0.12535424]
  [-0.40147605  0.19676572  0.02888958 -0.06143683]
  [-0.0589456   0.02888958  0.00424163 -0.00902029]
  [ 0.12535424 -0.06143683 -0.00902029  0.01918263]]

 [[ 0.81916213  0.40147605 -0.0589456  -0.12535424]
  [ 0.40147605  0.19676572 -0.02888958 -0.06143683]
  [-0.0589456  -0.02888958  0.00424163  0.00902029]
  [-0.12535424 -0.06143683  0.00902029  0.01918263]]]
Fock (ortho)
 (array([[-0.38333557,  0.29883086,  0.10480599, -0.00781502],
       [ 0.29883086,  0.3672991 ,  0.08303183,  0.48079482],
       [ 0.10480599,  0.08303183,  1.18747048,  0.03819453],
       [-0.00781502,  0.48079482,  0.03819453,  0.95926881]]), array([[-0.38333557, -0.29883086,  0.10480599,  0.00781502],
       [-0.29883086,  0.3672991 , -0.08303183,  0.48079482],
       [ 0.10480599, -0.08303183,  1.18747048, -0.03819453],
       [ 0.00781502,  0.48079482, -0.03819453,  0.95926881]]))
E(UHF) =    -1.504128
NO eigenvalue
[-1.03935211 -0.         -0.          0.        ] [-1.03935211 -0.         -0.          0.        ]
NO vec
[[ 0.88777637  0.         -0.17715376  0.03351228 -0.42349331  0.          0.          0.        ]
 [-0.43510429  0.         -0.0603476  -0.0891161  -0.89392435  0.          0.          0.        ]
 [-0.06388297  0.          0.03670928  0.99478309 -0.07055491  0.          0.          0.        ]
 [ 0.1358541   0.          0.98164512 -0.03663125 -0.12874266  0.          0.          0.        ]
 [ 0.          0.88777637  0.          0.          0.          0.45278097  0.04674161  0.06824755]
 [ 0.          0.43510429  0.          0.          0.         -0.88279428  0.03361975  0.17386267]
 [ 0.         -0.06388297  0.          0.          0.          0.01547076  0.99679151  0.04567611]
 [ 0.         -0.1358541   0.          0.          0.          0.12419464 -0.05560234  0.98133977]]
dm(NO)
[[ 1.03935211  0.         -0.         -0.         -0.          0.          0.          0.        ]
 [ 0.          1.03935211  0.          0.          0.         -0.         -0.         -0.        ]
 [-0.          0.         -0.         -0.          0.          0.          0.          0.        ]
 [-0.          0.          0.         -0.         -0.          0.          0.          0.        ]
 [-0.          0.          0.         -0.          0.          0.          0.          0.        ]
 [ 0.         -0.          0.          0.          0.          0.          0.         -0.        ]
 [ 0.         -0.          0.          0.          0.         -0.          0.         -0.        ]
 [ 0.          0.          0.          0.          0.         -0.         -0.          0.        ]]
D(g) (NO)
[[ 0.99951369  0.01822521  0.         -0.         -0.          0.02500769 -0.00138341  0.00359671]
 [-0.01822521  0.99951369  0.00995481  0.00210788  0.02316664  0.         -0.          0.        ]
 [ 0.         -0.00995481  0.99951369 -0.         -0.          0.00297942 -0.00088247  0.02938774]
 [-0.         -0.00210788 -0.          0.99951369  0.          0.00326443  0.03093994 -0.0001159 ]
 [-0.         -0.02316664 -0.          0.          0.99951369  0.01809627 -0.00352428 -0.00978796]
 [-0.02500769  0.         -0.00297942 -0.00326443 -0.01809627  0.99951369 -0.         -0.        ]
 [ 0.00138341 -0.          0.00088247 -0.03093994  0.00352428 -0.          0.99951369 -0.        ]
 [-0.00359671  0.         -0.02938774  0.0001159   0.00978796 -0.         -0.          0.99951369]]
...
N(g) (NO)
[[ 0.92585181 -0.01688206]
 [ 0.01688206  0.92585181]]
...
P(g) (NO)
[[ 1.         -0.         -0.         -0.         -0.          0.          0.          0.        ]
 [-0.          1.          0.          0.          0.         -0.         -0.         -0.        ]
 [-0.00018154 -0.00995634  0.          0.          0.          0.          0.          0.        ]
 [-0.00003844 -0.0021082   0.          0.          0.          0.          0.          0.        ]
 [-0.00042249 -0.02317021  0.          0.          0.          0.          0.          0.        ]
 [-0.02501154  0.00045606  0.          0.          0.         -0.         -0.         -0.        ]
 [ 0.00138362 -0.00002523 -0.         -0.         -0.          0.          0.          0.        ]
 [-0.00359727  0.00006559  0.          0.          0.         -0.         -0.         -0.        ]]
...
Pg_ortho
[[ 0.78833314 -0.38636659 -0.05672719  0.12063656  0.01021438  0.00500613 -0.00073501 -0.00156308]
 [-0.38592725  0.18914516  0.02777071 -0.05905744  0.0190882   0.00935523 -0.00137356 -0.00292102]
 [-0.05672719  0.02780232  0.004082   -0.00868081 -0.00073501 -0.00036023  0.00005289  0.00011248]
 [ 0.12049939 -0.05905744 -0.00867094  0.01843971 -0.00595997 -0.00292102  0.00042887  0.00091204]
 [-0.01021438  0.00500613  0.00073501 -0.00156308  0.78833314  0.38636659 -0.05672719 -0.12063656]
 [ 0.0190882  -0.00935523 -0.00137356  0.00292102  0.38592725  0.18914516 -0.02777071 -0.05905744]
 [ 0.00073501 -0.00036023 -0.00005289  0.00011248 -0.05672719 -0.02780232  0.004082    0.00868081]
 [-0.00595997  0.00292102  0.00042887 -0.00091204 -0.12049939 -0.05905744  0.00867094  0.01843971]]
G(g) (NO)
[[ 0.41573464 -0.00198813 -0.04534776  0.05808005 -0.0715792   0.00130882 -0.0005538  -0.00057196]
 [ 0.00198813  0.41573464 -0.00017038  0.00066427  0.00136988  0.07817203  0.05869949  0.03157208]
 [-0.04531069  0.00298997  0.74832178  0.00248749 -0.10500431 -0.00034069 -0.00058867 -0.00065725]
 [ 0.05808973 -0.00140511  0.00248864  0.9031263  -0.12093259  0.00120136 -0.00139598 -0.00147003]
 [-0.0714188   0.01596832 -0.10501902 -0.12091913  1.12493298 -0.00233592  0.00415916  0.00299312]
 [ 0.01612619  0.07800721 -0.00165498  0.0041481   0.00262117  1.03823232  0.13969869 -0.16958839]
 [ 0.00221645  0.05870149 -0.00117243  0.00193528  0.00159097  0.13970991  0.92079512 -0.03165358]
 [-0.00096683  0.03157737  0.00102995 -0.00158659 -0.00034077 -0.1695727  -0.0316484   0.81735363]]
...
C(NO)
[[-1.0194862   0.         -0.32188488 -0.0440814   0.08739539  0.          0.          0.        ]
 [ 0.         -1.0194862   0.          0.          0.         -0.32188488 -0.0440814   0.08739539]
 [ 0.          0.          0.42750008  0.43511639 -0.56197271  0.          0.          0.        ]
 [ 0.          0.          0.16812495 -0.818203   -0.50136492  0.          0.          0.        ]
 [ 0.          0.          0.70642648 -0.28959299  0.64257248  0.          0.          0.        ]
 [ 0.          0.          0.          0.          0.         -0.79867492  0.20450487 -0.45567927]
 [ 0.          0.          0.          0.          0.          0.15594814 -0.75696992 -0.58933805]
 [ 0.          0.          0.          0.          0.         -0.21876754 -0.5725564   0.65200964]]
detC 1.039352109130562
detNg [0.85748658 0.8714467  0.93887894 1.12114123 1.4845311  1.99815524 2.39208959 2.5039898 ]
xg [1.07956119 1.06226719 0.98597294 0.82568476 0.62357012 0.46328194 0.38698769 0.36969369]
ciS 1.4492548844300472
[[-0.93961784  0.          0.03470005 -0.1015723   0.14128452  0.          0.          0.        ]
 [ 0.         -0.93961784  0.          0.          0.         -0.14089977 -0.10752626 -0.00822775]
 [ 0.03470005  0.          0.09067663 -0.01301792 -0.38977684  0.          0.          0.        ]
 [-0.1015723   0.         -0.01301792  0.23108455 -0.01741402  0.          0.          0.        ]
 [ 0.14128452  0.         -0.38977684 -0.01741402 -0.56916814  0.          0.          0.        ]
 [ 0.         -0.14089977  0.          0.          0.         -0.71845664 -0.00361635 -0.1777377 ]
 [ 0.         -0.10752626  0.          0.          0.         -0.00361635  0.23103535 -0.00043767]
 [ 0.         -0.00822775  0.          0.          0.         -0.1777377  -0.00043767  0.24001433]]
ciH -2.21332297080326
S2 = -0.000000
X(g)
[[ 1.92427569  0.         -0.00017467 -0.00003699 -0.00040649  0.02406455 -0.00133123  0.00346107]
 [-0.          1.92427569  0.00957937  0.00202838  0.02229294  0.00043879 -0.00002427  0.00006311]
 [-0.00017467 -0.00957937  0.          0.          0.          0.          0.          0.        ]
 [-0.00003699 -0.00202838  0.          0.          0.          0.          0.          0.        ]
 [-0.00040649 -0.02229294  0.          0.          0.          0.          0.          0.        ]
 [-0.02406455  0.00043879  0.          0.          0.          0.          0.          0.        ]
 [ 0.00133123 -0.00002427  0.          0.          0.          0.          0.          0.        ]
 [-0.00346107  0.00006311  0.          0.          0.          0.          0.          0.        ]]
X(g) int
[[ 1.92427569 -0.         -0.13380783 -0.02833312 -0.31139512  0.45171076 -0.02498829  0.06496696]
 [ 0.          1.92427569  0.17981243  0.03807435  0.41845617  0.3361416  -0.0185951   0.04834531]
 [-0.13380783 -0.17981243  0.          0.          0.          0.          0.          0.        ]
 [-0.02833312 -0.03807435  0.          0.          0.          0.          0.          0.        ]
 [-0.31139512 -0.41845617  0.          0.          0.          0.          0.          0.        ]
 [-0.45171076  0.3361416   0.          0.          0.          0.          0.          0.        ]
 [ 0.02498829 -0.0185951   0.          0.          0.          0.          0.          0.        ]
 [-0.06496696  0.04834531  0.          0.          0.          0.          0.          0.        ]]
Hsp + Hph =  -1.5272144290020455
Feff (mod,ortho)
[[-0.38352476  0.34840148  0.10715138  0.01684197  0.          0.          0.          0.        ]
 [ 0.34840148  0.31875485  0.07832199  0.47628176  0.          0.          0.          0.        ]
 [ 0.10715138  0.07832199  1.18713392  0.03677708  0.          0.          0.          0.        ]
 [ 0.01684197  0.47628176  0.03677708  0.96681963  0.          0.          0.          0.        ]
 [ 0.          0.          0.          0.         -0.38352476 -0.34840148  0.10715138 -0.01684197]
 [ 0.          0.          0.          0.         -0.34840148  0.31875485 -0.07832199  0.47628176]
 [ 0.          0.          0.          0.          0.10715138 -0.07832199  1.18713392 -0.03677708]
 [ 0.          0.          0.          0.         -0.01684197  0.47628176 -0.03677708  0.96681963]]
E(SUHF) =     -1.08623342
e_a, e_b
[-0.55051731  0.20284506  1.13376966  1.30308622] [-0.55051731  0.20284506  1.13376966  1.30308622]
P_a, P_b
[[ 0.80357609 -0.37983789 -0.03478401  0.11115218]
 [-0.37983789  0.17954345  0.01644186 -0.0525399 ]
 [-0.03478401  0.01644186  0.00150568 -0.00481139]
 [ 0.11115218 -0.0525399  -0.00481139  0.01537478]] 
 [[ 0.80357609  0.37983789 -0.03478401 -0.11115218]
 [ 0.37983789  0.17954345 -0.01644186 -0.0525399 ]
 [-0.03478401 -0.01644186  0.00150568  0.00481139]
 [-0.11115218 -0.0525399   0.00481139  0.01537478]]
**** Start Cycle 2 ****
dm (ortho)
[array([[ 0.80357609, -0.37983789, -0.03478401,  0.11115218],
       [-0.37983789,  0.17954345,  0.01644186, -0.0525399 ],
       [-0.03478401,  0.01644186,  0.00150568, -0.00481139],
       [ 0.11115218, -0.0525399 , -0.00481139,  0.01537478]]), array([[ 0.80357609,  0.37983789, -0.03478401, -0.11115218],
       [ 0.37983789,  0.17954345, -0.01644186, -0.0525399 ],
       [-0.03478401, -0.01644186,  0.00150568,  0.00481139],
       [-0.11115218, -0.0525399 ,  0.00481139,  0.01537478]])]
Fock (ortho)
 (array([[-0.4060259 ,  0.28671955,  0.09383092, -0.00211366],
       [ 0.28671955,  0.34511467,  0.08706107,  0.4753996 ],
       [ 0.09383092,  0.08706107,  1.15928685,  0.03699198],
       [-0.00211366,  0.4753996 ,  0.03699198,  0.935815  ]]), array([[-0.4060259 , -0.28671955,  0.09383092,  0.00211366],
       [-0.28671955,  0.34511467, -0.08706107,  0.4753996 ],
       [ 0.09383092, -0.08706107,  1.15928685, -0.03699198],
       [ 0.00211366,  0.4753996 , -0.03699198,  0.935815  ]]))
E(UHF) =    -1.469097
NO eigenvalue
[-1. -0.  0.  0.] [-1. -0.  0.  0.]
NO vec
[[ 0.89642406  0.          0.02324241 -0.00696238  0.44253274  0.          0.          0.        ]
 [-0.42372568  0.         -0.24775352 -0.01918363  0.87103773  0.          0.          0.        ]
 [-0.03880307  0.          0.27139771  0.95839921  0.07942647  0.          0.          0.        ]
 [ 0.12399509  0.         -0.92974258  0.28470067 -0.19786227  0.          0.          0.        ]
 [ 0.          0.89642406  0.          0.          0.          0.44184807  0.00683906  0.0338736 ]
 [ 0.          0.42372568  0.          0.          0.         -0.83191348 -0.02078845 -0.3576931 ]
 [ 0.         -0.03880307  0.          0.          0.          0.11297415 -0.96008458 -0.25292048]
 [ 0.         -0.12399509  0.          0.          0.          0.31611246  0.27885242 -0.89829809]]
dm(NO)
[[ 1.  0. -0.  0.  0.  0.  0.  0.]
 [ 0.  1.  0.  0.  0.  0. -0. -0.]
 [-0.  0.  0. -0. -0.  0.  0.  0.]
 [ 0.  0. -0.  0. -0.  0.  0.  0.]
 [ 0.  0.  0.  0. -0.  0.  0.  0.]
 [ 0.  0.  0.  0.  0. -0.  0. -0.]
 [ 0. -0.  0.  0.  0.  0.  0.  0.]
 [ 0. -0.  0.  0.  0. -0.  0. -0.]]
D(g) (NO)
[[ 0.99951369  0.01902686 -0.          0.          0.          0.0244289   0.00270576  0.00250583]
 [-0.01902686  0.99951369 -0.00064262  0.00270858 -0.02454836 -0.         -0.         -0.        ]
 [-0.          0.00064262  0.99951369 -0.          0.         -0.00146134 -0.01604428  0.02669131]
 [ 0.         -0.00270858 -0.          0.99951369  0.          0.00658448 -0.02620649 -0.01532714]
 [ 0.          0.02454836  0.          0.          0.99951369 -0.01816951 -0.0045687  -0.00433208]
 [-0.0244289  -0.          0.00146134 -0.00658448  0.01816951  0.99951369 -0.          0.        ]
 [-0.00270576 -0.          0.01604428  0.02620649  0.0045687  -0.          0.99951369 -0.        ]
 [-0.00250583 -0.         -0.02669131  0.01532714  0.00433208  0.         -0.          0.99951369]]
...
N(g) (NO)
[[ 1.00012413 -0.01903848]
 [ 0.01903848  1.00012413]]
...
P(g) (NO)
[[ 1.          0.         -0.          0.          0.          0.         -0.         -0.        ]
 [ 0.          1.         -0.          0.          0.          0.         -0.         -0.        ]
 [ 0.00001223  0.0006427  -0.          0.          0.          0.         -0.         -0.        ]
 [-0.00005157 -0.00270892  0.         -0.         -0.         -0.          0.          0.        ]
 [ 0.00046736  0.02455141 -0.          0.          0.          0.         -0.         -0.        ]
 [-0.02443193  0.00046509  0.         -0.         -0.          0.         -0.         -0.        ]
 [-0.0027061   0.00005151  0.         -0.         -0.          0.         -0.         -0.        ]
 [-0.00250614  0.00004771  0.         -0.         -0.          0.         -0.         -0.        ]]
...
Pg_ortho
[[ 0.80376207 -0.3799258  -0.03479206  0.11117791  0.00976977  0.00461802 -0.0004229  -0.00135137]
 [-0.3794748   0.17937182  0.01642614 -0.05248968  0.01907406  0.00901601 -0.00082565 -0.00263836]
 [-0.03479206  0.01644566  0.00150603 -0.0048125  -0.0004229  -0.0001999   0.00001831  0.0000585 ]
 [ 0.11104593 -0.05248968 -0.00480679  0.01536009 -0.00558165 -0.00263836  0.00024161  0.00077206]
 [-0.00976977  0.00461802  0.0004229  -0.00135137  0.80376207  0.3799258  -0.03479206 -0.11117791]
 [ 0.01907406 -0.00901601 -0.00082565  0.00263836  0.3794748   0.17937182 -0.01642614 -0.05248968]
 [ 0.0004229  -0.0001999  -0.00001831  0.0000585  -0.03479206 -0.01644566  0.00150603  0.0048125 ]
 [-0.00558165  0.00263836  0.00024161 -0.00077206 -0.11104593 -0.05248968  0.00480679  0.01536009]]
G(g) (NO)
[[ 0.42826588 -0.00207965  0.03507188  0.0530591   0.08961533  0.00126723  0.00045667  0.00106839]
 [ 0.00207965  0.42826588  0.00089923  0.00045095 -0.00139424  0.0933441  -0.05327415 -0.02291194]
 [ 0.03509442  0.00210397  0.83908633 -0.01784409 -0.15785279  0.00027744 -0.00113732 -0.00127895]
 [ 0.05306402 -0.0019665  -0.0178494   0.92088101  0.17161454  0.00074064  0.00139646  0.00243433]
 [ 0.0894469  -0.01594813 -0.15787066  0.17160709  1.03298799  0.00149128  0.00308639  0.00380006]
 [ 0.01554312  0.09317997  0.00339537  0.00289184 -0.00196524  0.98921716 -0.16682254  0.17840716]
 [-0.00195238 -0.05327923 -0.002319   -0.00137449  0.00104848 -0.16682936  0.92063524 -0.0401641 ]
 [ 0.00415167 -0.02295594  0.00177765  0.0015227  -0.0001504   0.17838934 -0.04015786  0.88310294]]
...
C(NO)
[[-1.01898976  0.         -0.33305795 -0.06578983  0.07321585  0.          0.          0.        ]
 [ 0.         -1.01898976  0.          0.          0.         -0.33305795 -0.06578983  0.07321585]
 [ 0.01551083  0.         -0.10089067 -0.74527434  0.53658573  0.          0.          0.        ]
 [ 0.02077896  0.          0.24141988 -0.60952103 -0.70755512  0.          0.          0.        ]
 [ 0.01842878  0.         -0.79641728  0.11537624 -0.4402254   0.          0.          0.        ]
 [ 0.          0.02025632  0.          0.          0.         -0.8029614   0.01894377 -0.36695449]
 [ 0.         -0.02087523  0.          0.          0.         -0.2408216   0.61420666  0.70414015]
 [ 0.         -0.01287934  0.          0.          0.         -0.00096193  0.7501018  -0.59320144]]
detC 1.0383401383532531
detNg [1.00061074 1.01612887 1.09075621 1.28976351 1.67514402 2.19536853 2.57617498 2.68161286]
xg [0.92694839 0.91279221 0.85034081 0.71913534 0.5536924  0.42248693 0.36003553 0.34587935]
ciS 1.2728277379876651
[[-0.94866183  0.         -0.00329349 -0.07155569 -0.14319936  0.          0.          0.        ]
 [ 0.         -0.94866183  0.          0.          0.         -0.14237764  0.07156752 -0.01561473]
 [-0.00329349  0.          0.26283164 -0.00062913 -0.08450813  0.          0.          0.        ]
 [-0.07155569  0.         -0.00062913  0.2305383   0.08074488  0.          0.          0.        ]
 [-0.14319936  0.         -0.08450813  0.08074488 -0.7317329   0.          0.          0.        ]
 [ 0.         -0.14237764  0.          0.          0.         -0.73694931 -0.07953957 -0.0447641 ]
 [ 0.          0.07156752  0.          0.          0.         -0.07953957  0.23052327 -0.01074963]
 [ 0.         -0.01561473  0.          0.          0.         -0.0447641  -0.01074963  0.26806308]]
ciH -1.9483261357835386
S2 = -0.000000
X(g)
[[ 2.          0.          0.00001223 -0.00005157  0.00046736  0.02443193  0.0027061   0.00250614]
 [ 0.          2.         -0.0006427   0.00270892 -0.02455141  0.00046509  0.00005151  0.00004771]
 [ 0.00001223  0.0006427   0.          0.          0.          0.          0.          0.        ]
 [-0.00005157 -0.00270892  0.          0.          0.          0.          0.          0.        ]
 [ 0.00046736  0.02455141  0.          0.          0.          0.          0.          0.        ]
 [-0.02443193  0.00046509  0.          0.          0.          0.          0.          0.        ]
 [-0.0027061   0.00005151  0.          0.          0.          0.          0.          0.        ]
 [-0.00250614  0.00004771  0.          0.          0.          0.          0.          0.        ]]
X(g) int
[[ 2.         -0.          0.00916289 -0.03862051  0.35002493  0.44835702  0.04966036  0.04599093]
 [ 0.          2.         -0.01179441  0.04971204 -0.4505496   0.34832155  0.03858036  0.03572964]
 [ 0.00916289  0.01179441  0.          0.          0.          0.          0.          0.        ]
 [-0.03862051 -0.04971204  0.          0.          0.          0.          0.          0.        ]
 [ 0.35002493  0.4505496   0.          0.          0.          0.          0.          0.        ]
 [-0.44835702  0.34832155  0.          0.          0.          0.          0.          0.        ]
 [-0.04966036  0.03858036  0.          0.          0.          0.          0.          0.        ]
 [-0.04599093  0.03572964  0.          0.          0.          0.          0.          0.        ]]
Hsp + Hph =  -1.5307068487239548
Feff (mod,ortho)
[[-0.36877442  0.32526948  0.10128887  0.03021574  0.          0.          0.          0.        ]
 [ 0.32526948  0.30034765  0.08110492  0.4678859   0.          0.          0.          0.        ]
 [ 0.10128887  0.08110492  1.15857139  0.03684719  0.          0.          0.          0.        ]
 [ 0.03021574  0.4678859   0.03684719  0.944046    0.          0.          0.          0.        ]
 [ 0.          0.          0.          0.         -0.36877442 -0.32526948  0.10128887 -0.03021574]
 [ 0.          0.          0.          0.         -0.32526948  0.30034765 -0.08110492  0.4678859 ]
 [ 0.          0.          0.          0.          0.10128887 -0.08110492  1.15857139 -0.03684719]
 [ 0.          0.          0.          0.         -0.03021574  0.4678859  -0.03684719  0.944046  ]]
E(SUHF) =     -1.08972584
e_a, e_b
[-0.52052709  0.1751778   1.10425922  1.2752807 ] [-0.52052709  0.1751778   1.10425922  1.2752807 ]
P_a, P_b
[[ 0.80945081 -0.37711421 -0.03290868  0.10460444]
 [-0.37711421  0.17569335  0.01533179 -0.04873406]
 [-0.03290868  0.01533179  0.00133792 -0.00425275]
 [ 0.10460444 -0.04873406 -0.00425275  0.01351792]] 
 [[ 0.80945081  0.37711421 -0.03290868 -0.10460444]
 [ 0.37711421  0.17569335 -0.01533179 -0.04873406]
 [-0.03290868 -0.01533179  0.00133792  0.00425275]
 [-0.10460444 -0.04873406  0.00425275  0.01351792]]
**** Start Cycle 3 ****
dm (ortho)
[array([[ 0.80945081, -0.37711421, -0.03290868,  0.10460444],
       [-0.37711421,  0.17569335,  0.01533179, -0.04873406],
       [-0.03290868,  0.01533179,  0.00133792, -0.00425275],
       [ 0.10460444, -0.04873406, -0.00425275,  0.01351792]]), array([[ 0.80945081,  0.37711421, -0.03290868, -0.10460444],
       [ 0.37711421,  0.17569335, -0.01533179, -0.04873406],
       [-0.03290868, -0.01533179,  0.00133792,  0.00425275],
       [-0.10460444, -0.04873406,  0.00425275,  0.01351792]])]
Fock (ortho)
 (array([[-0.40644949,  0.28567827,  0.09348859,  0.00062786],
       [ 0.28567827,  0.34836215,  0.08821525,  0.47504088],
       [ 0.09348859,  0.08821525,  1.1608391 ,  0.03708002],
       [ 0.00062786,  0.47504088,  0.03708002,  0.93721726]]), array([[-0.40644949, -0.28567827,  0.09348859, -0.00062786],
       [-0.28567827,  0.34836215, -0.08821525,  0.47504088],
       [ 0.09348859, -0.08821525,  1.1608391 , -0.03708002],
       [-0.00062786,  0.47504088, -0.03708002,  0.93721726]]))
E(UHF) =    -1.469639
NO eigenvalue
[-1. -0. -0.  0.] [-1. -0.  0.  0.]
NO vec
[[ 0.89969484  0.         -0.294681    0.00481821 -0.3220079   0.          0.          0.        ]
 [-0.41915791  0.         -0.78894309 -0.00709809 -0.44924945  0.          0.          0.        ]
 [-0.03657761  0.          0.1266126   0.97015404 -0.20354968  0.          0.          0.        ]
 [ 0.11626658  0.         -0.52411941  0.24233767  0.80811718  0.          0.          0.        ]
 [ 0.          0.89969484  0.          0.          0.          0.43530235  0.02618435 -0.01937614]
 [ 0.          0.41915791  0.          0.          0.         -0.88136996  0.11153601 -0.18722544]
 [ 0.         -0.03657761  0.          0.          0.          0.076129   -0.59838407 -0.79674523]
 [ 0.         -0.11626658  0.          0.          0.          0.16704262  0.79297579 -0.57425451]]
dm(NO)
[[ 1.  0. -0.  0. -0.  0.  0.  0.]
 [ 0.  1.  0.  0.  0.  0. -0.  0.]
 [-0.  0.  0.  0.  0.  0.  0.  0.]
 [ 0.  0.  0.  0.  0.  0.  0.  0.]
 [ 0.  0.  0.  0. -0.  0.  0.  0.]
 [ 0.  0.  0.  0.  0. -0.  0. -0.]
 [ 0.  0.  0.  0.  0.  0.  0. -0.]
 [ 0.  0.  0.  0.  0.  0.  0.  0.]]
D(g) (NO)
[[ 0.99951369  0.01938279 -0.          0.         -0.          0.02425148  0.00283427  0.00073034]
 [-0.01938279  0.99951369  0.01682361  0.00194278  0.01760377 -0.         -0.          0.        ]
 [-0.         -0.01682361  0.99951369  0.         -0.          0.01525371 -0.01830731  0.01102389]
 [-0.         -0.00194278  0.          0.99951369 -0.          0.0038259  -0.01213097 -0.02840459]
 [-0.         -0.01760377 -0.          0.          0.99951369  0.01170238  0.02195545 -0.00659642]
 [-0.02425148  0.         -0.01525371 -0.0038259  -0.01170238  0.99951369  0.          0.        ]
 [-0.00283427 -0.          0.01830731  0.01213097 -0.02195545  0.          0.99951369 -0.        ]
 [-0.00073034  0.         -0.01102389  0.02840459  0.00659642  0.         -0.          0.99951369]]
...
N(g) (NO)
[[ 1.00011045 -0.01939436]
 [ 0.01939436  1.00011045]]
...
P(g) (NO)
[[ 1.          0.         -0.          0.         -0.          0.         -0.          0.        ]
 [-0.          1.          0.          0.          0.          0.         -0.          0.        ]
 [-0.00032628 -0.01682546  0.          0.          0.         -0.          0.         -0.        ]
 [-0.00003768 -0.00194299  0.          0.          0.         -0.          0.         -0.        ]
 [-0.00034141 -0.01760571  0.          0.          0.         -0.          0.         -0.        ]
 [-0.02425416  0.00047034  0.          0.          0.          0.         -0.          0.        ]
 [-0.00283458  0.00005497  0.          0.          0.          0.         -0.          0.        ]
 [-0.00073042  0.00001416  0.          0.          0.          0.         -0.          0.        ]]
...
Pg_ortho
[[ 0.80963606 -0.37720052 -0.03291622  0.10462838  0.00955292  0.0044506  -0.00038838 -0.00123451]
 [-0.37674438  0.17552105  0.01531676 -0.04868626  0.01907126  0.00888509 -0.00077535 -0.00246456]
 [-0.03291622  0.0153353   0.00133823 -0.00425373 -0.00038838 -0.00018094  0.00001579  0.00005019]
 [ 0.10450186 -0.04868626 -0.00424858  0.01350466 -0.00529001 -0.00246456  0.00021507  0.00068362]
 [-0.00955292  0.0044506   0.00038838 -0.00123451  0.80963606  0.37720052 -0.03291622 -0.10462838]
 [ 0.01907126 -0.00888509 -0.00077535  0.00246456  0.37674438  0.17552105 -0.01531676 -0.04868626]
 [ 0.00038838 -0.00018094 -0.00001579  0.00005019 -0.03291622 -0.0153353   0.00133823  0.00425373]
 [-0.00529001  0.00246456  0.00021507 -0.00068362 -0.10450186 -0.04868626  0.00424858  0.01350466]]
G(g) (NO)
[[ 0.43173182 -0.00206696 -0.03963405  0.05768039 -0.08585115  0.00147505 -0.00014831  0.00095974]
 [ 0.00206696  0.43173182  0.0016558   0.00045209  0.0004157   0.08942333 -0.02018751 -0.062163  ]
 [-0.03949634  0.01274902  1.09806756 -0.13692827  0.09314969 -0.001428   -0.00034184 -0.00452233]
 [ 0.05768148 -0.00234035 -0.13693815  0.92921723 -0.10138444  0.0012135  -0.00026511  0.00269933]
 [-0.08574764  0.00955415  0.09316709 -0.10138304  0.76798023 -0.0014737  -0.00017631 -0.00194483]
 [ 0.01588973  0.08925225  0.00391824  0.00320337 -0.00097303  1.04512001 -0.22971215  0.01824851]
 [-0.00260189 -0.02017991 -0.00232755 -0.00180419  0.00117253 -0.22970729  0.89901821  0.04050362]
 [ 0.00020778 -0.06218182 -0.00086604  0.00001795 -0.00025153  0.01822978  0.04050887  0.85112681]]
...
C(NO)
[[-1.01870854  0.         -0.33944434 -0.06987397  0.07381172  0.          0.          0.        ]
 [ 0.         -1.01870854  0.          0.          0.         -0.33944434 -0.06987397  0.07381172]
 [-0.0024157   0.          0.48623675 -0.60405772  0.69855049  0.          0.          0.        ]
 [ 0.02211047  0.          0.21726581 -0.63564061 -0.69643414  0.          0.          0.        ]
 [-0.03301988  0.          0.64406327  0.41325853 -0.09631196  0.          0.          0.        ]
 [ 0.          0.02507271  0.          0.          0.         -0.78909381  0.13648982 -0.46167197]
 [ 0.         -0.00231748  0.          0.          0.         -0.27083487  0.03952323  0.87694632]
 [ 0.         -0.03083844  0.          0.          0.         -0.04927018  0.95891385  0.00966618]]
detC 1.037767088075474
detNg [1.00059706 1.01576192 1.0885435  1.2814469  1.65019047 2.13812367 2.48833053 2.58427828]
xg [0.92798508 0.91413068 0.85301059 0.72460211 0.56268604 0.43427756 0.37315747 0.35930308]
ciS 1.2872881535535292
[[-0.95066556  0.          0.10389473 -0.07450488  0.09469528  0.          0.          0.        ]
 [ 0.         -0.95066556  0.          0.          0.         -0.1426687   0.05594844  0.04275161]
 [ 0.10389473  0.         -0.14411195 -0.03852987 -0.49712727  0.          0.          0.        ]
 [-0.07450488  0.         -0.03852987  0.23384884 -0.03739316  0.          0.          0.        ]
 [ 0.09469528  0.         -0.49712727 -0.03739316 -0.32609612  0.          0.          0.        ]
 [ 0.         -0.1426687   0.          0.          0.         -0.72236171 -0.13851382  0.03982737]
 [ 0.          0.05594844  0.          0.          0.         -0.13851382  0.23637762 -0.01205931]
 [ 0.          0.04275161  0.          0.          0.          0.03982737 -0.01205931  0.24962486]]
ciH -1.9708190868254882
S2 = -0.000000
X(g)
[[ 2.          0.         -0.00032628 -0.00003768 -0.00034141  0.02425416  0.00283458  0.00073042]
 [-0.          2.          0.01682546  0.00194299  0.01760571  0.00047034  0.00005497  0.00001416]
 [-0.00032628 -0.01682546  0.          0.          0.          0.          0.          0.        ]
 [-0.00003768 -0.00194299  0.          0.          0.          0.          0.          0.        ]
 [-0.00034141 -0.01760571  0.          0.          0.          0.          0.          0.        ]
 [-0.02425416  0.00047034  0.          0.          0.          0.          0.          0.        ]
 [-0.00283458  0.00005497  0.          0.          0.          0.          0.          0.        ]
 [-0.00073042  0.00001416  0.          0.          0.          0.          0.          0.        ]]
X(g) int
[[ 2.         -0.         -0.24188996 -0.02793326 -0.25310713  0.44058695  0.05149133  0.01326834]
 [-0.          2.          0.30564161  0.03529525  0.31981514  0.348688    0.04075111  0.01050079]
 [-0.24188996 -0.30564161  0.          0.          0.          0.          0.          0.        ]
 [-0.02793326 -0.03529525  0.          0.          0.          0.          0.          0.        ]
 [-0.25310713 -0.31981514  0.          0.          0.          0.          0.          0.        ]
 [-0.44058695  0.348688    0.          0.          0.          0.          0.          0.        ]
 [-0.05149133  0.04075111  0.          0.          0.          0.          0.          0.        ]
 [-0.01326834  0.01050079  0.          0.          0.          0.          0.          0.        ]]
Hsp + Hph =  -1.5309851810451973
Feff (mod,ortho)
[[-0.36780994  0.32666557  0.10146037  0.03659377  0.          0.          0.          0.        ]
 [ 0.32666557  0.30178428  0.08210306  0.46590784  0.          0.          0.          0.        ]
 [ 0.10146037  0.08210306  1.16012704  0.03685099  0.          0.          0.          0.        ]
 [ 0.03659377  0.46590784  0.03685099  0.94586765  0.          0.          0.          0.        ]
 [ 0.          0.          0.          0.         -0.36780994 -0.32666557  0.10146037 -0.03659377]
 [ 0.          0.          0.          0.         -0.32666557  0.30178428 -0.08210306  0.46590784]
 [ 0.          0.          0.          0.          0.10146037 -0.08210306  1.16012704 -0.03685099]
 [ 0.          0.          0.          0.         -0.03659377  0.46590784 -0.03685099  0.94586765]]
E(SUHF) =     -1.09000417
e_a, e_b
[-0.51900536  0.17628566  1.10503755  1.27765118] [-0.51900536  0.17628566  1.10503755  1.27765118]
P_a, P_b
[[ 0.81145894 -0.3766268  -0.03281839  0.1003421 ]
 [-0.3766268   0.17480582  0.01523218 -0.04657232]
 [-0.03281839  0.01523218  0.0013273  -0.0040582 ]
 [ 0.1003421  -0.04657232 -0.0040582   0.01240794]] 
 [[ 0.81145894  0.3766268  -0.03281839 -0.1003421 ]
 [ 0.3766268   0.17480582 -0.01523218 -0.04657232]
 [-0.03281839 -0.01523218  0.0013273   0.0040582 ]
 [-0.1003421  -0.04657232  0.0040582   0.01240794]]
**** Start Cycle 4 ****
dm (ortho)
[array([[ 0.81145894, -0.3766268 , -0.03281839,  0.1003421 ],
       [-0.3766268 ,  0.17480582,  0.01523218, -0.04657232],
       [-0.03281839,  0.01523218,  0.0013273 , -0.0040582 ],
       [ 0.1003421 , -0.04657232, -0.0040582 ,  0.01240794]]), array([[ 0.81145894,  0.3766268 , -0.03281839, -0.1003421 ],
       [ 0.3766268 ,  0.17480582, -0.01523218, -0.04657232],
       [-0.03281839, -0.01523218,  0.0013273 ,  0.0040582 ],
       [-0.1003421 , -0.04657232,  0.0040582 ,  0.01240794]])]
Fock (ortho)
 (array([[-0.40632207,  0.28585921,  0.0936265 ,  0.00246754],
       [ 0.28585921,  0.34946393,  0.08896677,  0.47469749],
       [ 0.0936265 ,  0.08896677,  1.16155794,  0.03725277],
       [ 0.00246754,  0.47469749,  0.03725277,  0.93786788]]), array([[-0.40632207, -0.28585921,  0.0936265 , -0.00246754],
       [-0.28585921,  0.34946393, -0.08896677,  0.47469749],
       [ 0.0936265 , -0.08896677,  1.16155794, -0.03725277],
       [-0.00246754,  0.47469749, -0.03725277,  0.93786788]]))
E(UHF) =    -1.469333
NO eigenvalue
[-1. -0.  0.  0.] [-1. -0. -0.  0.]
NO vec
[[ 0.90081016  0.         -0.0956835  -0.00196854 -0.42353495  0.          0.          0.        ]
 [-0.41809786  0.          0.07179991 -0.01786143 -0.90538385  0.          0.          0.        ]
 [-0.03643208  0.         -0.26135049  0.9642837  -0.02292536  0.          0.          0.        ]
 [ 0.11139095  0.          0.95780236  0.26426132  0.01930421  0.          0.          0.        ]
 [ 0.          0.90081016  0.          0.          0.         -0.43217989  0.04178986  0.00390016]
 [ 0.          0.41809786  0.          0.          0.          0.88938071  0.18265198  0.0288856 ]
 [ 0.         -0.03643208  0.          0.          0.         -0.0423097   0.43178191 -0.90024829]
 [ 0.         -0.11139095  0.          0.          0.         -0.14294187  0.88230168  0.43440008]]
dm(NO)
[[ 1.  0.  0. -0. -0.  0.  0.  0.]
 [ 0.  1.  0.  0.  0.  0.  0.  0.]
 [ 0.  0.  0.  0.  0.  0.  0.  0.]
 [ 0.  0.  0.  0.  0.  0.  0.  0.]
 [ 0.  0.  0.  0.  0.  0.  0.  0.]
 [ 0.  0.  0.  0.  0.  0.  0. -0.]
 [ 0.  0.  0.  0.  0.  0.  0.  0.]
 [ 0.  0.  0.  0.  0. -0. -0. -0.]]
D(g) (NO)
[[ 0.99951369  0.01950736  0.         -0.         -0.         -0.02418387  0.0013667   0.0022646 ]
 [-0.01950736  0.99951369  0.0047817   0.00230158  0.02374224  0.          0.          0.        ]
 [ 0.         -0.0047817   0.99951369 -0.         -0.         -0.0006437   0.02311737  0.02036422]
 [-0.         -0.00230158 -0.          0.99951369  0.         -0.00291898  0.02014978 -0.02350663]
 [-0.         -0.02374224 -0.          0.          0.99951369 -0.01945761 -0.00548626  0.00003804]
 [ 0.02418387  0.          0.0006437   0.00291898  0.01945761  0.99951369 -0.         -0.        ]
 [-0.0013667   0.         -0.02311737 -0.02014978  0.00548626  0.          0.99951369  0.        ]
 [-0.0022646   0.         -0.02036422  0.02350663 -0.00003804  0.          0.          0.99951369]]
...
N(g) (NO)
[[ 1.0001056  -0.01951891]
 [ 0.01951891  1.0001056 ]]
...
P(g) (NO)
[[ 1.         -0.          0.         -0.         -0.         -0.         -0.         -0.        ]
 [ 0.          1.          0.         -0.         -0.          0.          0.          0.        ]
 [-0.00009333 -0.00478221 -0.          0.          0.         -0.         -0.         -0.        ]
 [-0.00004492 -0.00230182 -0.          0.          0.         -0.         -0.         -0.        ]
 [-0.00046342 -0.02374475 -0.          0.          0.         -0.         -0.         -0.        ]
 [ 0.02418642 -0.00047204  0.         -0.         -0.         -0.         -0.         -0.        ]
 [-0.00136684  0.00002668 -0.          0.          0.          0.          0.          0.        ]
 [-0.00226484  0.0000442  -0.          0.          0.          0.          0.          0.        ]]
...
Pg_ortho
[[ 0.81164387 -0.37671263 -0.03282587  0.10036496  0.00947548  0.0043979  -0.00038322 -0.0011717 ]
 [-0.37625416  0.17463286  0.0152171  -0.04652624  0.01909345  0.00886194 -0.00077221 -0.00236103]
 [-0.03282587  0.01523565  0.0013276  -0.00405913 -0.00038322 -0.00017787  0.0000155   0.00004739]
 [ 0.10024282 -0.04652624 -0.00405419  0.01239567 -0.00508694 -0.00236103  0.00020573  0.00062903]
 [-0.00947548  0.0043979   0.00038322 -0.0011717   0.81164387  0.37671263 -0.03282587 -0.10036496]
 [ 0.01909345 -0.00886194 -0.00077221  0.00236103  0.37625416  0.17463286 -0.0152171  -0.04652624]
 [ 0.00038322 -0.00017787 -0.0000155   0.00004739 -0.03282587 -0.01523565  0.0013276   0.00405913]
 [-0.00508694  0.00236103  0.00020573 -0.00062903 -0.10024282 -0.04652624  0.00405419  0.01239567]]
G(g) (NO)
[[ 0.43291501 -0.00205328 -0.04954837  0.05555153 -0.08184894 -0.0015331  -0.00085607  0.00028661]
 [ 0.00205328  0.43291501 -0.00058983  0.00046214  0.00161367 -0.0866492   0.04878255 -0.04850198]
 [-0.04954216  0.00064979  0.78615841 -0.01095662 -0.11650937  0.00039786 -0.00078196  0.00047457]
 [ 0.05555478 -0.00216613 -0.01095221  0.92522691 -0.17168404 -0.00131602 -0.00243384  0.0009771 ]
 [-0.08167568  0.01594124 -0.11652703 -0.17167569  1.08529284  0.00224174  0.0040464  -0.00257243]
 [-0.01586559 -0.08647651  0.00304838 -0.00318982 -0.00261532  1.04684238  0.11499248  0.19827088]
 [-0.00088745  0.04879801  0.00071462 -0.00072443  0.00028509  0.11497376  0.81903899 -0.00831651]
 [-0.0025948  -0.04849994  0.00224343 -0.00163919 -0.0015739   0.1982752  -0.00831084  0.93079679]]
...
C(NO)
[[-1.01856301  0.         -0.34207613 -0.07204716  0.07598375  0.          0.          0.        ]
 [ 0.         -1.01856301  0.          0.          0.         -0.34207613 -0.07204716  0.07598375]
 [-0.03122812  0.          0.251355    0.6955818  -0.45723833  0.          0.          0.        ]
 [ 0.02005978  0.          0.23265044 -0.62373784 -0.69982677  0.          0.          0.        ]
 [-0.02244824  0.          0.76114974 -0.25790689  0.53208978  0.          0.          0.        ]
 [ 0.         -0.02591164  0.          0.          0.          0.78978901 -0.17712754  0.46087268]
 [ 0.          0.03147674  0.          0.          0.         -0.10981571 -0.82560641  0.37963025]
 [ 0.         -0.01480929  0.          0.          0.         -0.24663397  0.47581382  0.79083574]]
detC 1.037470595700148
detNg [1.00059221 1.01563195 1.08776149 1.27852525 1.64152463 2.11854649 2.4586198  2.55145799]
xg [0.92852006 0.9147703  0.85411181 0.72667312 0.56597989 0.43854121 0.37788272 0.36413295]
ciS 1.2926530144996182
[[-0.95110372  0.          0.01630684 -0.07341461  0.14105218  0.          0.          0.        ]
 [ 0.         -0.95110372  0.          0.          0.          0.14096352 -0.01255223  0.07431731]
 [ 0.01630684  0.          0.19526122 -0.01384697 -0.26383808  0.          0.          0.        ]
 [-0.07341461  0.         -0.01384697  0.23154105 -0.07061341  0.          0.          0.        ]
 [ 0.14105218  0.         -0.26383808 -0.07061341 -0.66272334  0.          0.          0.        ]
 [ 0.          0.14096352  0.          0.          0.         -0.7166927   0.13521305  0.08549155]
 [ 0.         -0.01255223  0.          0.          0.          0.13521305  0.24798901 -0.00005673]
 [ 0.          0.07431731  0.          0.          0.          0.08549155 -0.00005673  0.23278261]]
ciH -1.9791723371583634
S2 = 0.000000
X(g)
[[ 2.         -0.         -0.00009333 -0.00004492 -0.00046342 -0.02418642  0.00136684  0.00226484]
 [ 0.          2.          0.00478221  0.00230182  0.02374475 -0.00047204  0.00002668  0.0000442 ]
 [-0.00009333 -0.00478221  0.          0.          0.          0.          0.          0.        ]
 [-0.00004492 -0.00230182  0.          0.          0.          0.          0.          0.        ]
 [-0.00046342 -0.02374475  0.          0.          0.          0.          0.          0.        ]
 [ 0.02418642 -0.00047204  0.          0.          0.          0.          0.          0.        ]
 [-0.00136684  0.00002668  0.          0.          0.          0.          0.          0.        ]
 [-0.00226484  0.0000442   0.          0.          0.          0.          0.          0.        ]]
X(g) int
[[ 2.         -0.         -0.06894549 -0.03318556 -0.34232988 -0.43778533  0.02474049  0.04099466]
 [-0.          2.          0.08656018  0.04166405  0.42979075 -0.34869759  0.01970589  0.03265239]
 [-0.06894549 -0.08656018  0.          0.          0.          0.          0.          0.        ]
 [-0.03318556 -0.04166405  0.          0.          0.          0.          0.          0.        ]
 [-0.34232988 -0.42979075  0.          0.          0.          0.          0.          0.        ]
 [ 0.43778533 -0.34869759  0.          0.          0.          0.          0.          0.        ]
 [-0.02474049  0.01970589  0.          0.          0.          0.          0.          0.        ]
 [-0.04099466  0.03265239  0.          0.          0.          0.          0.          0.        ]]
Hsp + Hph =  -1.531093274806228
Feff (mod,ortho)
[[-0.36698122  0.32802467  0.10155568  0.04121307  0.          0.          0.          0.        ]
 [ 0.32802467  0.30184809  0.08284275  0.46418625  0.          0.          0.          0.        ]
 [ 0.10155568  0.08284275  1.16085222  0.036863    0.          0.          0.          0.        ]
 [ 0.04121307  0.46418625  0.036863    0.94684859  0.          0.          0.          0.        ]
 [ 0.          0.          0.          0.         -0.36698122 -0.32802467  0.10155568 -0.04121307]
 [ 0.          0.          0.          0.         -0.32802467  0.30184809 -0.08284275  0.46418625]
 [ 0.          0.          0.          0.          0.10155568 -0.08284275  1.16085222 -0.036863  ]
 [ 0.          0.          0.          0.         -0.04121307  0.46418625 -0.036863    0.94684859]]
E(SUHF) =     -1.09011227
e_a, e_b
[-0.51824537  0.17689383  1.10510237  1.27881685] [-0.51824537  0.17689383  1.10510237  1.27881685]
P_a, P_b
[[ 0.812334   -0.37670611 -0.03268267  0.09732331]
 [-0.37670611  0.17469106  0.01515603 -0.04513203]
 [-0.03268267  0.01515603  0.00131492 -0.00391561]
 [ 0.09732331 -0.04513203 -0.00391561  0.01166002]] 
 [[ 0.812334    0.37670611 -0.03268267 -0.09732331]
 [ 0.37670611  0.17469106 -0.01515603 -0.04513203]
 [-0.03268267 -0.01515603  0.00131492  0.00391561]
 [-0.09732331 -0.04513203  0.00391561  0.01166002]]
**** Start Cycle 5 ****
dm (ortho)
[array([[ 0.812334  , -0.37670611, -0.03268267,  0.09732331],
       [-0.37670611,  0.17469106,  0.01515603, -0.04513203],
       [-0.03268267,  0.01515603,  0.00131492, -0.00391561],
       [ 0.09732331, -0.04513203, -0.00391561,  0.01166002]]), array([[ 0.812334  ,  0.37670611, -0.03268267, -0.09732331],
       [ 0.37670611,  0.17469106, -0.01515603, -0.04513203],
       [-0.03268267, -0.01515603,  0.00131492,  0.00391561],
       [-0.09732331, -0.04513203,  0.00391561,  0.01166002]])]
Fock (ortho)
 (array([[-0.40601153,  0.28633066,  0.0937302 ,  0.00382762],
       [ 0.28633066,  0.35008156,  0.08963676,  0.47446064],
       [ 0.0937302 ,  0.08963676,  1.16208859,  0.03742518],
       [ 0.00382762,  0.47446064,  0.03742518,  0.93834237]]), array([[-0.40601153, -0.28633066,  0.0937302 , -0.00382762],
       [-0.28633066,  0.35008156, -0.08963676,  0.47446064],
       [ 0.0937302 , -0.08963676,  1.16208859, -0.03742518],
       [-0.00382762,  0.47446064, -0.03742518,  0.93834237]]))
E(UHF) =    -1.468905
NO eigenvalue
[-1. -0.  0.  0.] [-1. -0.  0.  0.]
NO vec
[[-0.90129573  0.          0.          0.          0.43320434  0.          0.          0.        ]
 [ 0.4179606   0.          0.15934431  0.20915987  0.86958063  0.          0.          0.        ]
 [ 0.03626187  0.         -0.9402067   0.33015849  0.07544401  0.          0.          0.        ]
 [-0.10798155  0.          0.30103279  0.92046049 -0.22465913  0.          0.          0.        ]
 [ 0.          0.90129573  0.          0.          0.         -0.02123225 -0.01321077  0.43248199]
 [ 0.          0.4179606   0.          0.          0.         -0.1690456  -0.12874635 -0.88326491]
 [ 0.         -0.03626187  0.          0.          0.          0.3095561  -0.94817739  0.06180394]
 [ 0.         -0.10798155  0.          0.          0.         -0.93549334 -0.2901887   0.17024308]]
dm(NO)
[[ 1.  0. -0. -0. -0.  0.  0.  0.]
 [ 0.  1.  0.  0.  0.  0.  0.  0.]
 [-0.  0. -0. -0.  0.  0.  0.  0.]
 [-0.  0. -0.  0.  0.  0.  0.  0.]
 [-0.  0. -0. -0. -0.  0.  0.  0.]
 [ 0. -0.  0.  0.  0.  0.  0.  0.]
 [ 0.  0.  0.  0.  0.  0. -0. -0.]
 [ 0.  0.  0.  0.  0. -0. -0. -0.]]
D(g) (NO)
[[ 0.99951369 -0.01956117 -0.          0.         -0.          0.00189355 -0.00140174 -0.0241703 ]
 [ 0.01956117  0.99951369 -0.0021263   0.00074666 -0.02418006  0.          0.          0.        ]
 [-0.          0.0021263   0.99951369  0.         -0.         -0.01869737  0.02443553 -0.00460274]
 [ 0.         -0.00074666  0.          0.99951369  0.         -0.02476695 -0.01893085 -0.00023813]
 [-0.          0.02418006 -0.         -0.          0.99951369  0.00241123 -0.00386731 -0.01915588]
 [-0.00189355  0.          0.01869737  0.02476695 -0.00241123  0.99951369  0.          0.        ]
 [ 0.00140174  0.         -0.02443553  0.01893085  0.00386731  0.          0.99951369 -0.        ]
 [ 0.0241703   0.          0.00460274  0.00023813  0.01915588  0.         -0.          0.99951369]]
...
N(g) (NO)
[[ 1.0001035   0.01957271]
 [-0.01957271  1.0001035 ]]
...
P(g) (NO)
[[ 1.          0.         -0.         -0.         -0.          0.          0.          0.        ]
 [-0.          1.          0.          0.          0.          0.          0.          0.        ]
 [-0.00004162  0.00212652  0.          0.          0.          0.          0.          0.        ]
 [ 0.00001461 -0.00074674 -0.         -0.         -0.         -0.         -0.         -0.        ]
 [-0.00047327  0.02418256  0.          0.          0.          0.          0.          0.        ]
 [-0.00189374 -0.00003706  0.          0.          0.         -0.         -0.         -0.        ]
 [ 0.00140189  0.00002744 -0.         -0.         -0.          0.          0.          0.        ]
 [ 0.0241728   0.00047308 -0.         -0.         -0.          0.          0.          0.        ]]
...
Pg_ortho
[[ 0.81251878 -0.3767918  -0.03269011  0.09734545  0.00944197  0.00437855 -0.00037988 -0.00113121]
 [-0.37633196  0.17451756  0.01514098 -0.04508721  0.0191177   0.00886551 -0.00076916 -0.00229043]
 [-0.03269011  0.01515948  0.00131522 -0.0039165  -0.00037988 -0.00017616  0.00001528  0.00004551]
 [ 0.09722665 -0.04508721 -0.00391172  0.01164843 -0.00493912 -0.00229043  0.00019872  0.00059174]
 [-0.00944197  0.00437855  0.00037988 -0.00113121  0.81251878  0.3767918  -0.03269011 -0.09734545]
 [ 0.0191177  -0.00886551 -0.00076916  0.00229043  0.37633196  0.17451756 -0.01514098 -0.04508721]
 [ 0.00037988 -0.00017616 -0.00001528  0.00004551 -0.03269011 -0.01515948  0.00131522  0.0039165 ]
 [-0.00493912  0.00229043  0.00019872 -0.00059174 -0.09722665 -0.04508721  0.00391172  0.01164843]]
G(g) (NO)
[[ 0.43354307  0.00204431  0.06338581 -0.0056238  -0.09025441 -0.00044735 -0.00083781 -0.00151114]
 [-0.00204431  0.43354307 -0.00089253 -0.00050403 -0.00146114  0.00008312 -0.06620415  0.08838694]
 [ 0.06340593  0.00028072  0.87755688 -0.04647704 -0.04768857 -0.00065754 -0.00098475 -0.0010201 ]
 [-0.00559836 -0.00362874 -0.04647077  0.89791569  0.2356066   0.00101819  0.00291962  0.00072887]
 [-0.09008335 -0.01571018 -0.04767291  0.23561734  1.02250915  0.00110243  0.00442244  0.00213831]
 [-0.00284892  0.00006575 -0.00271559 -0.00092831 -0.00047581  0.87360144 -0.05112739  0.22597194]
 [ 0.00082862 -0.06621855  0.00122063  0.00074002  0.00102605 -0.05113323  0.88264455 -0.05900714]
 [-0.01585097  0.0882143  -0.00460956 -0.00114529 -0.00194112  0.22598278 -0.05899138  1.04173572]]
...
C(NO)
[[ 1.01845831  0.          0.3433917   0.07380978 -0.07781889  0.          0.          0.        ]
 [ 0.         -1.01845831  0.          0.          0.         -0.3433917  -0.07380978  0.07781889]
 [-0.03224466  0.         -0.14534698  0.92715485  0.26926601  0.          0.          0.        ]
 [-0.01320283  0.          0.19605497  0.26168754 -0.85603985  0.          0.          0.        ]
 [ 0.02967738  0.         -0.79761483  0.10509674 -0.41994437  0.          0.          0.        ]
 [ 0.         -0.01520389  0.          0.          0.          0.23233791  0.27241072 -0.82958418]
 [ 0.         -0.03287783  0.          0.          0.         -0.12465705  0.91837552  0.29817438]
 [ 0.          0.02797623  0.          0.          0.         -0.79134849  0.14669907 -0.4522652 ]]
detC -1.0372573295358873
detNg [1.0005901  1.01557556 1.08742256 1.2772618  1.6377931  2.11016377 2.44594899 2.53747639]
xg [0.92890387 0.9151973  0.85472939 0.72769108 0.56750271 0.4404644  0.37999649 0.36628992]
ciS 1.2951937901074466
[[-0.95120421  0.         -0.0518731   0.05662278  0.14105598  0.          0.          0.        ]
 [ 0.         -0.95120421  0.          0.          0.         -0.04872461  0.05721773 -0.14193587]
 [-0.0518731   0.          0.24113236  0.01531312 -0.02382412  0.          0.          0.        ]
 [ 0.05662278  0.          0.01531312  0.25688503  0.08827354  0.          0.          0.        ]
 [ 0.14105598  0.         -0.02382412  0.08827354 -0.73383797  0.          0.          0.        ]
 [ 0.         -0.04872461  0.          0.          0.          0.24643532  0.01209466  0.13637838]
 [ 0.          0.05721773  0.          0.          0.          0.01209466  0.24120391  0.00484816]
 [ 0.         -0.14193587  0.          0.          0.          0.13637838  0.00484816 -0.72345982]]
ciH -1.983137599602204
S2 = 0.000000
X(g)
[[ 2.          0.         -0.00004162  0.00001461 -0.00047327  0.00189374 -0.00140189 -0.0241728 ]
 [-0.          2.         -0.00212652  0.00074674 -0.02418256 -0.00003706  0.00002744  0.00047308]
 [-0.00004162  0.00212652  0.          0.          0.          0.          0.          0.        ]
 [ 0.00001461 -0.00074674  0.          0.          0.          0.          0.          0.        ]
 [-0.00047327  0.02418256  0.          0.          0.          0.          0.          0.        ]
 [-0.00189374 -0.00003706  0.          0.          0.          0.          0.          0.        ]
 [ 0.00140189  0.00002744  0.          0.          0.          0.          0.          0.        ]
 [ 0.0241728   0.00047308  0.          0.          0.          0.          0.          0.        ]]
X(g) int
[[ 2.          0.         -0.03069514  0.01077876 -0.34906189  0.0342245  -0.02533546 -0.43686097]
 [-0.          2.         -0.03843135  0.01349537 -0.43703732 -0.02733512  0.02023544  0.34892104]
 [-0.03069514  0.03843135  0.          0.          0.          0.          0.          0.        ]
 [ 0.01077876 -0.01349537  0.          0.          0.          0.          0.          0.        ]
 [-0.34906189  0.43703732  0.          0.          0.          0.          0.          0.        ]
 [-0.0342245  -0.02733512  0.          0.          0.          0.          0.          0.        ]
 [ 0.02533546  0.02023544  0.          0.          0.          0.          0.          0.        ]
 [ 0.43686097  0.34892104  0.          0.          0.          0.          0.          0.        ]]
Hsp + Hph =  -1.5311512568614825
Feff (mod,ortho)
[[-0.36621432  0.32919461  0.10164269  0.04467797  0.          0.          0.          0.        ]
 [ 0.32919461  0.30176838  0.08350042  0.46286346  0.          0.          0.          0.        ]
 [ 0.10164269  0.08350042  1.16138749  0.03692145  0.          0.          0.          0.        ]
 [ 0.04467797  0.46286346  0.03692145  0.94755945  0.          0.          0.          0.        ]
 [ 0.          0.          0.          0.         -0.36621432 -0.32919461  0.10164269 -0.04467797]
 [ 0.          0.          0.          0.         -0.32919461  0.30176838 -0.08350042  0.46286346]
 [ 0.          0.          0.          0.          0.10164269 -0.08350042  1.16138749 -0.03692145]
 [ 0.          0.          0.          0.         -0.04467797  0.46286346 -0.03692145  0.94755945]]
E(SUHF) =     -1.09017025
e_a, e_b
[-0.5177105   0.17740265  1.10504459  1.27976426] [-0.5177105   0.17740265  1.10504459  1.27976426]
P_a, P_b
[[ 0.81279244 -0.37690564 -0.03254948  0.09509763]
 [-0.37690564  0.17477754  0.01509375 -0.04409839]
 [-0.03254948  0.01509375  0.00130349 -0.00380833]
 [ 0.09509763 -0.04409839 -0.00380833  0.01112653]] 
 [[ 0.81279244  0.37690564 -0.03254948 -0.09509763]
 [ 0.37690564  0.17477754 -0.01509375 -0.04409839]
 [-0.03254948 -0.01509375  0.00130349  0.00380833]
 [-0.09509763 -0.04409839  0.00380833  0.01112653]]
**** Start Cycle 6 ****
dm (ortho)
[array([[ 0.81279244, -0.37690564, -0.03254948,  0.09509763],
       [-0.37690564,  0.17477754,  0.01509375, -0.04409839],
       [-0.03254948,  0.01509375,  0.00130349, -0.00380833],
       [ 0.09509763, -0.04409839, -0.00380833,  0.01112653]]), array([[ 0.81279244,  0.37690564, -0.03254948, -0.09509763],
       [ 0.37690564,  0.17477754, -0.01509375, -0.04409839],
       [-0.03254948, -0.01509375,  0.00130349,  0.00380833],
       [-0.09509763, -0.04409839,  0.00380833,  0.01112653]])]
Fock (ortho)
 (array([[-0.40570545,  0.28679362,  0.09380647,  0.0048502 ],
       [ 0.28679362,  0.35048574,  0.09017944,  0.47428793],
       [ 0.09380647,  0.09017944,  1.16248857,  0.0375695 ],
       [ 0.0048502 ,  0.47428793,  0.0375695 ,  0.93869687]]), array([[-0.40570545, -0.28679362,  0.09380647, -0.0048502 ],
       [-0.28679362,  0.35048574, -0.09017944,  0.47428793],
       [ 0.09380647, -0.09017944,  1.16248857, -0.0375695 ],
       [-0.0048502 ,  0.47428793, -0.0375695 ,  0.93869687]]))
E(UHF) =    -1.468507
NO eigenvalue
[-1. -0. -0.  0.] [-1. -0.  0.  0.]
NO vec
[[ 0.90155002  0.         -0.30362551  0.06894071  0.30044349  0.          0.          0.        ]
 [-0.41806404  0.         -0.51308144  0.37262137  0.65047921  0.          0.          0.        ]
 [-0.03610391  0.         -0.74152354  0.09592932 -0.66305121  0.          0.          0.        ]
 [ 0.10548237  0.          0.30773661  0.92043362 -0.21673392  0.          0.          0.        ]
 [ 0.          0.90155002  0.          0.          0.         -0.03581195  0.02848485  0.43024839]
 [ 0.          0.41806404  0.          0.          0.         -0.08755249  0.14315665 -0.89278396]
 [ 0.         -0.03610391  0.          0.          0.         -0.93858443 -0.34256004  0.0202086 ]
 [ 0.         -0.10548237  0.          0.          0.         -0.33183027  0.92808804  0.13196491]]
dm(NO)
[[ 1.  0.  0.  0. -0.  0.  0.  0.]
 [ 0.  1.  0.  0.  0. -0.  0.  0.]
 [-0.  0. -0.  0.  0.  0.  0.  0.]
 [ 0.  0.  0.  0. -0.  0.  0.  0.]
 [-0.  0.  0.  0.  0.  0.  0.  0.]
 [ 0.  0.  0.  0.  0.  0. -0.  0.]
 [ 0. -0.  0.  0.  0. -0. -0.  0.]
 [ 0.  0.  0.  0.  0.  0.  0.  0.]]
D(g) (NO)
[[ 0.99951369  0.01958904 -0.          0.          0.          0.00009981  0.00237294  0.02414584]
 [-0.01958904  0.99951369  0.01540212 -0.00366029 -0.01838585  0.         -0.          0.        ]
 [-0.         -0.01540212  0.99951369  0.          0.          0.02025852  0.01426705  0.0110096 ]
 [ 0.          0.00366029  0.          0.99951369 -0.         -0.01342619  0.02733798 -0.00560067]
 [ 0.          0.01838585  0.         -0.          0.99951369  0.01953747  0.00398101 -0.01538807]
 [-0.00009981 -0.         -0.02025852  0.01342619 -0.01953747  0.99951369 -0.          0.        ]
 [-0.00237294  0.         -0.01426705 -0.02733798 -0.00398101 -0.          0.99951369 -0.        ]
 [-0.02414584  0.         -0.0110096   0.00560067  0.01538807 -0.         -0.          0.99951369]]
...
N(g) (NO)
[[ 1.00010241 -0.01960058]
 [ 0.01960058  1.00010241]]
...
P(g) (NO)
[[ 1.          0.          0.          0.         -0.         -0.          0.          0.        ]
 [ 0.          1.          0.          0.         -0.         -0.          0.          0.        ]
 [-0.00030189 -0.0154037  -0.         -0.          0.          0.          0.         -0.        ]
 [ 0.00007174  0.00366067  0.          0.         -0.         -0.          0.          0.        ]
 [ 0.00036037  0.01838773  0.          0.         -0.         -0.          0.          0.        ]
 [-0.00009982  0.00000196 -0.         -0.          0.         -0.          0.          0.        ]
 [-0.00237318  0.00004651 -0.         -0.          0.         -0.          0.          0.        ]
 [-0.02414831  0.00047327 -0.         -0.          0.         -0.          0.          0.        ]]
...
Pg_ortho
[[ 0.81297715 -0.37699129 -0.03255688  0.09511925  0.00942462  0.00437036 -0.00037742 -0.00110269]
 [-0.37653056  0.17460361  0.01507873 -0.0440545   0.01913831  0.00887476 -0.00076642 -0.0022392 ]
 [-0.03255688  0.01509718  0.00130379 -0.00380919 -0.00037742 -0.00017502  0.00001511  0.00004416]
 [ 0.095003   -0.0440545  -0.00380454  0.01111546 -0.00482882 -0.0022392   0.00019338  0.00056498]
 [-0.00942462  0.00437036  0.00037742 -0.00110269  0.81297715  0.37699129 -0.03255688 -0.09511925]
 [ 0.01913831 -0.00887476 -0.00076642  0.0022392   0.37653056  0.17460361 -0.01507873 -0.0440545 ]
 [ 0.00037742 -0.00017502 -0.00001511  0.00004416 -0.03255688 -0.01509718  0.00130379  0.00380919]
 [-0.00482882  0.0022392   0.00019338 -0.00056498 -0.095003   -0.0440545   0.00380454  0.01111546]]
G(g) (NO)
[[ 0.433938   -0.00203799 -0.10850378  0.00378567  0.01914564  0.00077075 -0.00037742  0.00156832]
 [ 0.00203799  0.433938    0.00043412 -0.00092425 -0.00146746 -0.0705505  -0.00057567  0.08471277]
 [-0.10839607  0.01149963  1.02461892 -0.20647642 -0.02479454 -0.00393485  0.00110175 -0.00252373]
 [ 0.00372894 -0.00589775 -0.20646044  0.94418979  0.11721429  0.00323592 -0.00084082  0.00097706]
 [ 0.0190205  -0.00969195 -0.02478333  0.11721856  0.83024154  0.00156398  0.0000353   0.00068264]
 [-0.00155589 -0.07055679  0.00012986  0.00124107  0.00146636  0.8848569   0.0623036  -0.06089533]
 [-0.00258555 -0.00056186  0.00148798  0.00161808  0.00183667  0.06229748  0.86749852 -0.22173061]
 [ 0.01586987  0.08453884 -0.00185497 -0.00250031 -0.00406284 -0.06087918 -0.22174065  1.04669484]]
...
C(NO)
[[-1.01837791  0.         -0.34417575 -0.07519167  0.07926547  0.          0.          0.        ]
 [ 0.         -1.01837791  0.          0.          0.         -0.34417575 -0.07519167  0.07926547]
 [-0.04370577  0.          0.44381352  0.56453732  0.54481801  0.          0.          0.        ]
 [-0.01834179  0.          0.02789983  0.49476517 -0.81741241  0.          0.          0.        ]
 [ 0.00345216  0.         -0.70531183  0.61273237  0.12823698  0.          0.          0.        ]
 [ 0.         -0.03583759  0.          0.          0.         -0.07484398  0.91837974  0.29206349]
 [ 0.          0.01694851  0.          0.          0.         -0.25387389 -0.23497125  0.82930102]
 [ 0.          0.0262097   0.          0.          0.         -0.79067063  0.20075628 -0.45650102]]
detC 1.037093576463715
detNg [1.00058901 1.01554629 1.08724665 1.27660675 1.63586221 2.10583723 2.43942116 2.53027683]
xg [0.92919825 0.91551273 0.85513766 0.72829441 0.568352   0.44150875 0.38113368 0.36744816]
ciS 1.2966464061490481
[[-0.95120262  0.          0.13917204 -0.06605112 -0.04766771  0.          0.          0.        ]
 [ 0.         -0.95120262  0.          0.          0.          0.06167729  0.05022575 -0.1402751 ]
 [ 0.13917204  0.         -0.20931023  0.05631551  0.48493974  0.          0.          0.        ]
 [-0.06605112  0.          0.05631551  0.26350909 -0.05190557  0.          0.          0.        ]
 [-0.04766771  0.          0.48493974 -0.05190557 -0.29002102  0.          0.          0.        ]
 [ 0.          0.06167729  0.          0.          0.          0.2384968  -0.00378435  0.06034047]
 [ 0.          0.05022575  0.          0.          0.         -0.00378435  0.23863959 -0.15807324]
 [ 0.         -0.1402751   0.          0.          0.          0.06034047 -0.15807324 -0.71295856]]
ciH -1.9854043794146445
S2 = -0.000000
X(g)
[[ 2.          0.         -0.00030189  0.00007174  0.00036037  0.00009982  0.00237318  0.02414831]
 [-0.          2.          0.0154037  -0.00366067 -0.01838773  0.00000196  0.00004651  0.00047327]
 [-0.00030189 -0.0154037   0.          0.          0.          0.          0.          0.        ]
 [ 0.00007174  0.00366067  0.          0.          0.          0.          0.          0.        ]
 [ 0.00036037  0.01838773  0.          0.          0.          0.          0.          0.        ]
 [-0.00009982  0.00000196  0.          0.          0.          0.          0.          0.        ]
 [-0.00237318  0.00004651  0.          0.          0.          0.          0.          0.        ]
 [-0.02414831  0.00047327  0.          0.          0.          0.          0.          0.        ]]
X(g) int
[[ 2.         -0.         -0.22248177  0.05287246  0.26558136  0.00180246  0.0428546   0.43606763]
 [ 0.          2.          0.27815829 -0.0661039  -0.33204365  0.00144168  0.03427677  0.34878377]
 [-0.22248177 -0.27815829  0.          0.          0.          0.          0.          0.        ]
 [ 0.05287246  0.0661039   0.          0.          0.          0.          0.          0.        ]
 [ 0.26558136  0.33204365  0.          0.          0.          0.          0.          0.        ]
 [-0.00180246  0.00144168  0.          0.          0.          0.          0.          0.        ]
 [-0.0428546   0.03427677  0.          0.          0.          0.          0.          0.        ]
 [-0.43606763  0.34878377  0.          0.          0.          0.          0.          0.        ]]
Hsp + Hph =  -1.5311841146509333
Feff (mod,ortho)
[[-0.36558121  0.33011935  0.10171385  0.04729639  0.          0.          0.          0.        ]
 [ 0.33011935  0.30167594  0.08403249  0.46185103  0.          0.          0.          0.        ]
 [ 0.10171385  0.08403249  1.16179089  0.03698285  0.          0.          0.          0.        ]
 [ 0.04729639  0.46185103  0.03698285  0.9480801   0.          0.          0.          0.        ]
 [ 0.          0.          0.          0.         -0.36558121 -0.33011935  0.10171385 -0.04729639]
 [ 0.          0.          0.          0.         -0.33011935  0.30167594 -0.08403249  0.46185103]
 [ 0.          0.          0.          0.          0.10171385 -0.08403249  1.16179089 -0.03698285]
 [ 0.          0.          0.          0.         -0.04729639  0.46185103 -0.03698285  0.9480801 ]]
E(SUHF) =     -1.09020311
e_a, e_b
[-0.51730993  0.1778053   1.10496482  1.28050553] [-0.51730993  0.1778053   1.10496482  1.28050553]
P_a, P_b
[[ 0.81307838 -0.37709569 -0.03243892  0.09342635]
 [-0.37709569  0.17489231  0.01504477 -0.04332999]
 [-0.03243892  0.01504477  0.0012942  -0.00372738]
 [ 0.09342635 -0.04332999 -0.00372738  0.01073511]] 
 [[ 0.81307838  0.37709569 -0.03243892 -0.09342635]
 [ 0.37709569  0.17489231 -0.01504477 -0.04332999]
 [-0.03243892 -0.01504477  0.0012942   0.00372738]
 [-0.09342635 -0.04332999  0.00372738  0.01073511]]
**** Start Cycle 7 ****
dm (ortho)
[array([[ 0.81307838, -0.37709569, -0.03243892,  0.09342635],
       [-0.37709569,  0.17489231,  0.01504477, -0.04332999],
       [-0.03243892,  0.01504477,  0.0012942 , -0.00372738],
       [ 0.09342635, -0.04332999, -0.00372738,  0.01073511]]), array([[ 0.81307838,  0.37709569, -0.03243892, -0.09342635],
       [ 0.37709569,  0.17489231, -0.01504477, -0.04332999],
       [-0.03243892, -0.01504477,  0.0012942 ,  0.00372738],
       [-0.09342635, -0.04332999,  0.00372738,  0.01073511]])]
Fock (ortho)
 (array([[-0.40545192,  0.28717433,  0.09386348,  0.00562383],
       [ 0.28717433,  0.3507741 ,  0.09060119,  0.47415827],
       [ 0.09386348,  0.09060119,  1.16279081,  0.03768299],
       [ 0.00562383,  0.47415827,  0.03768299,  0.93896301]]), array([[-0.40545192, -0.28717433,  0.09386348, -0.00562383],
       [-0.28717433,  0.3507741 , -0.09060119,  0.47415827],
       [ 0.09386348, -0.09060119,  1.16279081, -0.03768299],
       [-0.00562383,  0.47415827, -0.03768299,  0.93896301]]))
E(UHF) =    -1.468175
NO eigenvalue
[-1. -0. -0.  0.] [-1. -0.  0.  0.]
NO vec
[[ 0.90170859  0.         -0.00074112  0.07071385 -0.42652153  0.          0.          0.        ]
 [-0.41820128  0.          0.2390283   0.06316969 -0.87406107  0.          0.          0.        ]
 [-0.03597495  0.         -0.00064778  0.99538392  0.08897322  0.          0.          0.        ]
 [ 0.10361036  0.          0.9710121  -0.0148321   0.21489625  0.          0.          0.        ]
 [ 0.          0.90170859  0.          0.          0.          0.37530748 -0.01341468 -0.21421008]
 [ 0.          0.41820128  0.          0.          0.         -0.87939503 -0.04710971  0.22260447]
 [ 0.         -0.03597495  0.          0.          0.          0.02487615 -0.99801315 -0.04535123]
 [ 0.         -0.10361036  0.          0.          0.         -0.29187303  0.03962922 -0.9500024 ]]
dm(NO)
[[ 1.  0.  0.  0. -0.  0.  0.  0.]
 [ 0.  1.  0.  0.  0. -0. -0.  0.]
 [ 0.  0.  0.  0. -0.  0.  0.  0.]
 [ 0.  0.  0.  0. -0.  0.  0.  0.]
 [ 0.  0.  0.  0.  0.  0.  0.  0.]
 [ 0. -0.  0.  0.  0.  0. -0. -0.]
 [ 0. -0.  0.  0.  0. -0.  0.  0.]
 [ 0.  0.  0.  0.  0.  0.  0.  0.]]
D(g) (NO)
[[ 0.99951369  0.0196063   0.          0.         -0.          0.02105011  0.00148478 -0.01194464]
 [-0.0196063   0.99951369  0.00004022 -0.00174342  0.02418564  0.         -0.         -0.        ]
 [ 0.         -0.00004022  0.99951369  0.          0.         -0.0154016   0.00086927 -0.0271003 ]
 [ 0.          0.00174342  0.          0.99951369 -0.          0.00000246 -0.03111831 -0.00100214]
 [-0.         -0.02418564  0.         -0.          0.99951369  0.01709025 -0.00104095 -0.00971019]
 [-0.02105011  0.          0.0154016  -0.00000246 -0.01709025  0.99951369  0.          0.        ]
 [-0.00148478  0.         -0.00086927  0.03111831  0.00104095  0.          0.99951369  0.        ]
 [ 0.01194464 -0.          0.0271003   0.00100214  0.00971019  0.         -0.          0.99951369]]
...
N(g) (NO)
[[ 1.00010173 -0.01961783]
 [ 0.01961783  1.00010173]]
...
P(g) (NO)
[[ 1.          0.          0.          0.         -0.         -0.         -0.         -0.        ]
 [-0.          1.         -0.         -0.          0.         -0.         -0.          0.        ]
 [-0.00000079 -0.00004023 -0.         -0.          0.          0.          0.         -0.        ]
 [ 0.0000342   0.00174359  0.          0.         -0.         -0.         -0.          0.        ]
 [-0.00047447 -0.0241881  -0.         -0.          0.          0.          0.         -0.        ]
 [-0.02105225  0.00041296 -0.         -0.          0.         -0.         -0.          0.        ]
 [-0.00148493  0.00002913 -0.         -0.          0.         -0.         -0.          0.        ]
 [ 0.01194586 -0.00023433  0.          0.         -0.          0.          0.         -0.        ]]
...
Pg_ortho
[[ 0.81326305 -0.37718133 -0.03244629  0.09344757  0.0094139   0.00436605 -0.00037558 -0.0010817 ]
 [-0.37671996  0.17471805  0.01502978 -0.04328681  0.01915446  0.0088836  -0.00076419 -0.00220093]
 [-0.03244629  0.01504819  0.00129449 -0.00372822 -0.00037558 -0.00017419  0.00001498  0.00004316]
 [ 0.09333326 -0.04328681 -0.00372366  0.01072441 -0.00474556 -0.00220093  0.00018933  0.00054529]
 [-0.0094139   0.00436605  0.00037558 -0.0010817   0.81326305  0.37718133 -0.03244629 -0.09344757]
 [ 0.01915446 -0.0088836  -0.00076419  0.00220093  0.37671996  0.17471805 -0.01502978 -0.04328681]
 [ 0.00037558 -0.00017419 -0.00001498  0.00004316 -0.03244629 -0.01504819  0.00129449  0.00372822]
 [-0.00474556  0.00220093  0.00018933 -0.00054529 -0.09333326 -0.04328681  0.00372366  0.01072441]]
G(g) (NO)
[[ 0.43421416 -0.00203331 -0.016436    0.07534207 -0.07857403  0.00168116  0.00060884 -0.00007518]
 [ 0.00203331  0.43421416 -0.00074781  0.00042423  0.00156954  0.06748724 -0.06377957 -0.05914463]
 [-0.0164666  -0.00328233  0.86259411  0.07529464 -0.19618995  0.00101792  0.00201085  0.00116261]
 [ 0.07532443 -0.00406531  0.07530341  0.95271813 -0.13668006  0.0023068   0.00205318  0.00100052]
 [-0.07840268  0.01531104 -0.19620411 -0.13666904  0.98457116 -0.00279652 -0.00350659 -0.00110106]
 [ 0.01526148  0.06732232 -0.0028584   0.00401299  0.0024955   1.15358305 -0.13893058  0.03445657]
 [-0.00208225 -0.06378402  0.00167623 -0.00148563 -0.00146646 -0.13894317  0.91983797  0.02473241]
 [-0.0049477  -0.05908639 -0.00000568 -0.00003261 -0.00079232  0.03444109  0.0247331   0.72646239]]
...
C(NO)
[[-1.01831464  0.         -0.34470871 -0.07625376  0.08037843  0.          0.          0.        ]
 [ 0.         -1.01831464  0.          0.          0.         -0.34470871 -0.07625376  0.08037843]
 [-0.02782909  0.          0.14390616  0.55237098 -0.71378423  0.          0.          0.        ]
 [ 0.03090103  0.          0.06887774 -0.75935406 -0.60033281  0.          0.          0.        ]
 [-0.02565297  0.          0.81816462 -0.23883629  0.33372047  0.          0.          0.        ]
 [ 0.          0.01159814  0.          0.          0.         -0.62866603  0.40094704 -0.70193364]
 [ 0.         -0.02647135  0.          0.          0.         -0.18069196  0.76939816  0.56945771]
 [ 0.         -0.03939744  0.          0.          0.          0.51669712  0.43132703 -0.40529476]]
detC 1.036964702308534
detNg [1.00058833 1.01552815 1.08713769 1.27620121 1.6346681  2.10316534 2.43539389 2.52583636]
xg [0.92942986 0.91575666 0.85543596 0.72870693 0.56890856 0.44217953 0.38185883 0.36818564]
ciS 1.2976154917399687
[[-0.95117456  0.         -0.03989838 -0.08966497  0.12862553  0.          0.          0.        ]
 [ 0.         -0.95117456  0.          0.          0.         -0.13998023  0.07282178  0.03575946]
 [-0.03989838  0.          0.26268231  0.00625334 -0.08560098  0.          0.          0.        ]
 [-0.08966497  0.          0.00625334  0.22409472  0.10721259  0.          0.          0.        ]
 [ 0.12862553  0.         -0.08560098  0.10721259 -0.72262727  0.          0.          0.        ]
 [ 0.         -0.13998023  0.          0.          0.         -0.41829218 -0.01821298  0.47160688]
 [ 0.          0.07282178  0.          0.          0.         -0.01821298  0.23536578  0.0154449 ]
 [ 0.          0.03575946  0.          0.          0.          0.47160688  0.0154449  -0.05292383]]
ciH -1.9869126899768348
S2 = 0.000000
X(g)
[[ 2.          0.         -0.00000079  0.0000342  -0.00047447  0.02105225  0.00148493 -0.01194586]
 [-0.          2.          0.00004023 -0.00174359  0.0241881   0.00041296  0.00002913 -0.00023433]
 [-0.00000079 -0.00004023  0.          0.          0.          0.          0.          0.        ]
 [ 0.0000342   0.00174359  0.          0.          0.          0.          0.          0.        ]
 [-0.00047447 -0.0241881   0.          0.          0.          0.          0.          0.        ]
 [-0.02105225  0.00041296  0.          0.          0.          0.          0.          0.        ]
 [-0.00148493  0.00002913  0.          0.          0.          0.          0.          0.        ]
 [ 0.01194586 -0.00023433  0.          0.          0.          0.          0.          0.        ]]
X(g) int
[[ 2.          0.         -0.00058126  0.02519306 -0.34949205  0.37997004  0.02680136 -0.21560962]
 [-0.          2.          0.00072609 -0.03146996  0.43656863  0.30418243  0.02145564 -0.17260481]
 [-0.00058126 -0.00072609  0.          0.          0.          0.          0.          0.        ]
 [ 0.02519306  0.03146996  0.          0.          0.          0.          0.          0.        ]
 [-0.34949205 -0.43656863  0.          0.          0.          0.          0.          0.        ]
 [-0.37997004  0.30418243  0.          0.          0.          0.          0.          0.        ]
 [-0.02680136  0.02145564  0.          0.          0.          0.          0.          0.        ]
 [ 0.21560962 -0.17260481  0.          0.          0.          0.          0.          0.        ]]
Hsp + Hph =  -1.531202966228917
Feff (mod,ortho)
[[-0.36508311  0.33082609  0.10176937  0.04928119  0.          0.          0.          0.        ]
 [ 0.33082609  0.30160052  0.08444602  0.46107762  0.          0.          0.          0.        ]
 [ 0.10176937  0.08444602  1.16209572  0.0370347   0.          0.          0.          0.        ]
 [ 0.04928119  0.46107762  0.0370347   0.94846287  0.          0.          0.          0.        ]
 [ 0.          0.          0.          0.         -0.36508311 -0.33082609  0.10176937 -0.04928119]
 [ 0.          0.          0.          0.         -0.33082609  0.30160052 -0.08444602  0.46107762]
 [ 0.          0.          0.          0.          0.10176937 -0.08444602  1.16209572 -0.0370347 ]
 [ 0.          0.          0.          0.         -0.04928119  0.46107762 -0.0370347   0.94846287]]
E(SUHF) =     -1.09022196
e_a, e_b
[-0.51700338  0.17811493  1.10489179  1.28107265] [-0.51700338  0.17811493  1.10489179  1.28107265]
P_a, P_b
[[ 0.81328032 -0.37724675 -0.03235258  0.09216096]
 [-0.37724675  0.174989    0.01500701 -0.04274962]
 [-0.03235258  0.01500701  0.001287   -0.0036662 ]
 [ 0.09216096 -0.04274962 -0.0036662   0.01044368]] 
 [[ 0.81328032  0.37724675 -0.03235258 -0.09216096]
 [ 0.37724675  0.174989   -0.01500701 -0.04274962]
 [-0.03235258 -0.01500701  0.001287    0.0036662 ]
 [-0.09216096 -0.04274962  0.0036662   0.01044368]]
**** Start Cycle 8 ****
dm (ortho)
[array([[ 0.81328032, -0.37724675, -0.03235258,  0.09216096],
       [-0.37724675,  0.174989  ,  0.01500701, -0.04274962],
       [-0.03235258,  0.01500701,  0.001287  , -0.0036662 ],
       [ 0.09216096, -0.04274962, -0.0036662 ,  0.01044368]]), array([[ 0.81328032,  0.37724675, -0.03235258, -0.09216096],
       [ 0.37724675,  0.174989  , -0.01500701, -0.04274962],
       [-0.03235258, -0.01500701,  0.001287  ,  0.0036662 ],
       [-0.09216096, -0.04274962,  0.0036662 ,  0.01044368]])]
Fock (ortho)
 (array([[-0.40525443,  0.28746858,  0.09390644,  0.00621067],
       [ 0.28746858,  0.35098912,  0.09092329,  0.47405973],
       [ 0.09390644,  0.09092329,  1.1630194 ,  0.03776997],
       [ 0.00621067,  0.47405973,  0.03776997,  0.93916331]]), array([[-0.40525443, -0.28746858,  0.09390644, -0.00621067],
       [-0.28746858,  0.35098912, -0.09092329,  0.47405973],
       [ 0.09390644, -0.09092329,  1.1630194 , -0.03776997],
       [-0.00621067,  0.47405973, -0.03776997,  0.93916331]]))
E(UHF) =    -1.467910
NO eigenvalue
[-1. -0.  0.  0.] [-1. -0.  0.  0.]
NO vec
[[ 0.90182056  0.          0.00743196  0.02786869 -0.43114705  0.          0.          0.        ]
 [-0.41831686  0.         -0.02725216 -0.19019166 -0.88774741  0.          0.          0.        ]
 [-0.03587474  0.         -0.874536    0.48000896 -0.05908628  0.          0.          0.        ]
 [ 0.10219435  0.         -0.48413725 -0.85594501  0.15008523  0.          0.          0.        ]
 [ 0.          0.90182056  0.          0.          0.         -0.40967183  0.02431865 -0.13526742]
 [ 0.          0.41831686  0.          0.          0.          0.7654278   0.07206283  0.48367162]
 [ 0.         -0.03587474  0.          0.          0.         -0.33803307 -0.66494909  0.66504839]
 [ 0.         -0.10219435  0.          0.          0.         -0.36334959  0.74300623  0.55269804]]
dm(NO)
[[ 1.  0.  0.  0. -0.  0.  0.  0.]
 [ 0.  1.  0.  0.  0.  0. -0.  0.]
 [-0.  0.  0.  0. -0.  0.  0.  0.]
 [ 0.  0.  0.  0. -0.  0.  0.  0.]
 [-0.  0.  0.  0. -0.  0.  0.  0.]
 [ 0.  0.  0.  0.  0. -0. -0.  0.]
 [ 0. -0.  0.  0.  0.  0. -0.  0.]
 [ 0.  0.  0.  0.  0.  0. -0. -0.]]
D(g) (NO)
[[ 0.99951369  0.01961844  0.         -0.         -0.         -0.022285    0.00285551 -0.00909586]
[...]
       [-0.00800166,  0.47375399, -0.03803133,  0.93976351]]))
E(UHF) =    -1.467059
NO eigenvalue
[-1. -0.  0.  0.] [-1. -0. -0.  0.]
NO vec
[[ 0.90217931  0.         -0.04735879 -0.00529907 -0.42872083  0.          0.          0.        ]
 [-0.418606    0.         -0.32927007  0.04650656 -0.84509607  0.          0.          0.        ]
 [-0.0355738   0.          0.09168766 -0.9924916  -0.07272069  0.          0.          0.        ]
 [ 0.09785705  0.         -0.93857964 -0.11300213  0.31100286  0.          0.          0.        ]
 [ 0.          0.90217931  0.          0.          0.          0.31103513  0.02089579  0.29814929]
 [ 0.          0.418606    0.          0.          0.         -0.58430987  0.18526916 -0.67009427]
 [ 0.         -0.0355738   0.          0.          0.          0.74314213  0.00753871 -0.66814478]
 [ 0.         -0.09785705  0.          0.          0.          0.0978719   0.9824367   0.12515278]]
dm(NO)
[[ 1.  0. -0.  0. -0.  0.  0.  0.]
 [ 0.  1.  0.  0.  0. -0. -0. -0.]
 [-0.  0. -0.  0.  0.  0.  0.  0.]
 [ 0.  0.  0.  0. -0.  0.  0.  0.]
 [-0.  0. -0.  0.  0.  0.  0.  0.]
 [ 0. -0.  0.  0.  0.  0. -0.  0.]
 [ 0. -0.  0.  0.  0. -0.  0. -0.]
 [ 0. -0.  0.  0.  0.  0. -0. -0.]]
D(g) (NO)
[[ 0.99951369  0.01965746 -0.          0.         -0.          0.01585187  0.00115899  0.01825793]
 [-0.01965746  0.99951369  0.0028681  -0.0019038   0.02396094 -0.         -0.         -0.        ]
 [-0.         -0.0028681   0.99951369  0.         -0.          0.0048004  -0.03066548  0.00086675]
 [ 0.          0.0019038   0.          0.99951369  0.         -0.02424322 -0.00342997  0.0192164 ]
 [-0.         -0.02396094 -0.         -0.          0.99951369  0.01050398  0.00434893  0.01640181]
 [-0.01585187 -0.         -0.0048004   0.02424322 -0.01050398  0.99951369 -0.         -0.        ]
 [-0.00115899 -0.          0.03066548  0.00342997 -0.00434893 -0.          0.99951369  0.        ]
 [-0.01825793  0.         -0.00086675 -0.0192164  -0.01640181 -0.         -0.          0.99951369]]
...
N(g) (NO)
[[ 1.00009972 -0.01966899]
 [ 0.01966899  1.00009972]]
...
P(g) (NO)
[[ 1.         -0.         -0.          0.         -0.          0.          0.          0.        ]
 [-0.          1.          0.         -0.          0.         -0.         -0.         -0.        ]
 [-0.00005641 -0.00286838  0.         -0.          0.          0.          0.          0.        ]
 [ 0.00003745  0.00190399 -0.          0.         -0.         -0.         -0.         -0.        ]
 [-0.00047129 -0.02396333  0.         -0.          0.          0.          0.          0.        ]
 [-0.01585345  0.00031179  0.         -0.          0.         -0.         -0.         -0.        ]
 [-0.00115911  0.0000228   0.         -0.          0.         -0.         -0.         -0.        ]
 [-0.01825975  0.00035912  0.         -0.          0.         -0.         -0.         -0.        ]]
...
Pg_ortho
[[ 0.81411203 -0.37774329 -0.03210122  0.08830462  0.00938206  0.00435322 -0.00036994 -0.00101765]
 [-0.37728003  0.17505576  0.01487651 -0.04092258  0.01920229  0.00890975 -0.00075716 -0.00208282]
 [-0.03210122  0.01489478  0.00126578 -0.00348194 -0.00036994 -0.00017165  0.00001459  0.00004013]
 [ 0.08819632 -0.04092258 -0.00347767  0.00956643 -0.0044889  -0.00208282  0.000177    0.0004869 ]
 [-0.00938206  0.00435322  0.00036994 -0.00101765  0.81411203  0.37774329 -0.03210122 -0.08830462]
 [ 0.01920229 -0.00890975 -0.00075716  0.00208282  0.37728003  0.17505576 -0.01487651 -0.04092258]
 [ 0.00036994 -0.00017165 -0.00001459  0.00004013 -0.03210122 -0.01489478  0.00126578  0.00348194]
 [-0.0044889   0.00208282  0.000177   -0.0004869  -0.08819632 -0.04092258  0.00347767  0.00956643]]
G(g) (NO)
[[ 0.43506124 -0.00201878  0.01312242 -0.06032858 -0.09057793  0.00063969 -0.00065055  0.00154578]
 [ 0.00201878  0.43506124  0.00094551 -0.00058256  0.00141013  0.10612804  0.02153159  0.0170096 ]
 [ 0.01317329  0.00482854  0.89514141  0.05447892  0.20660469  0.0012794   0.00153125 -0.00197052]
 [-0.06033402  0.00206938  0.05448655  0.92160418  0.1414788   0.00029308  0.00165934 -0.00219662]
 [-0.09040948  0.01537926  0.20662109  0.14147043  0.98567951  0.00105631  0.00224666 -0.00414491]
 [ 0.01262242  0.10600958  0.0035556  -0.0036835   0.00196317  1.11259665 -0.1661212   0.06562801]
 [-0.00250443  0.02155437 -0.00149673  0.00171151 -0.00001603 -0.16610588  0.83919453 -0.10964226]
 [ 0.00992578  0.01688137  0.00088432 -0.00161773  0.00048907  0.06561702 -0.10964872  0.85063391]]
...
C(NO)
[[-1.01809724  0.         -0.34634414 -0.07951573  0.08378893  0.          0.          0.        ]
 [ 0.         -1.01809724  0.          0.          0.         -0.34634414 -0.07951573  0.08378893]
 [ 0.03277074  0.         -0.04133879 -0.63535351  0.69582219  0.          0.          0.        ]
 [-0.02356228  0.         -0.20529614  0.72891925  0.6100515   0.          0.          0.        ]
 [-0.03465573  0.          0.80613951 -0.05718033  0.35265496  0.          0.          0.        ]
 [ 0.          0.03963407  0.          0.          0.         -0.42781339 -0.44032108 -0.71138307]
 [ 0.          0.03546533  0.          0.          0.         -0.1878462  -0.54625619  0.68580451]
 [ 0.          0.00121364  0.          0.          0.         -0.68949679  0.66782368  0.06559857]]
detC 1.036521987224729
detNg [1.00058632 1.01547428 1.08681411 1.27499797 1.63113096 2.09526771 2.42350798 2.51273635]
xg [0.93022584 0.91658772 0.85642176 0.73001783 0.57062938 0.44422546 0.3840595  0.37042138]
ciS 1.3006472185770983
[[-0.95104024  0.          0.05376751  0.07288629  0.13624097  0.          0.          0.        ]
 [ 0.         -0.95104024  0.          0.          0.         -0.15057811  0.03816189 -0.05133092]
 [ 0.05376751  0.          0.26934902  0.00050921 -0.02106387  0.          0.          0.        ]
 [ 0.07288629  0.          0.00050921  0.23336942  0.04811855  0.          0.          0.        ]
 [ 0.13624097  0.         -0.02106387  0.04811855 -0.738703    0.          0.          0.        ]
 [ 0.         -0.15057811  0.          0.          0.         -0.21219164 -0.09497291 -0.47759478]
 [ 0.          0.03816189  0.          0.          0.         -0.09497291  0.2489188  -0.10634895]
 [ 0.         -0.05133092  0.          0.          0.         -0.47759478 -0.10634895 -0.27271171]]
ciH -1.9915882308392847
S2 = 0.000000
X(g)
[[ 2.         -0.         -0.00005641  0.00003745 -0.00047129  0.01585345  0.00115911  0.01825975]
 [-0.          2.          0.00286838 -0.00190399  0.02396333  0.00031179  0.0000228   0.00035912]
 [-0.00005641 -0.00286838  0.          0.          0.          0.          0.          0.        ]
 [ 0.00003745  0.00190399  0.          0.          0.          0.          0.          0.        ]
 [-0.00047129 -0.02396333  0.          0.          0.          0.          0.          0.        ]
 [-0.01585345  0.00031179  0.          0.          0.          0.          0.          0.        ]
 [-0.00115911  0.0000228   0.          0.          0.          0.          0.          0.        ]
 [-0.01825975  0.00035912  0.          0.          0.          0.          0.          0.        ]]
X(g) int
[[ 2.         -0.         -0.04149183  0.02754163 -0.34663546  0.28571488  0.02088971  0.32908193]
 [ 0.          2.          0.05169469 -0.03431412  0.43187323  0.22932403  0.01676676  0.26413182]
 [-0.04149183 -0.05169469  0.          0.          0.          0.          0.          0.        ]
 [ 0.02754163  0.03431412  0.          0.          0.          0.          0.          0.        ]
 [-0.34663546 -0.43187323  0.          0.          0.          0.          0.          0.        ]
 [-0.28571488  0.22932403  0.          0.          0.          0.          0.          0.        ]
 [-0.02088971  0.01676676  0.          0.          0.          0.          0.          0.        ]
 [-0.32908193  0.26413182  0.          0.          0.          0.          0.          0.        ]]
Hsp + Hph =  -1.5312286086446043
Feff (mod,ortho)
[[-0.36352621  0.3329321   0.10193961  0.05538876  0.          0.          0.          0.        ]
 [ 0.3329321   0.30141134  0.0857156   0.4586752   0.          0.          0.          0.        ]
 [ 0.10193961  0.0857156   1.16302313  0.03719598  0.          0.          0.          0.        ]
 [ 0.05538876  0.4586752   0.03719598  0.9495594   0.          0.          0.          0.        ]
 [ 0.          0.          0.          0.         -0.36352621 -0.3329321   0.10193961 -0.05538876]
 [ 0.          0.          0.          0.         -0.3329321   0.30141134 -0.0857156   0.4586752 ]
 [ 0.          0.          0.          0.          0.10193961 -0.0857156   1.16302313 -0.03719598]
 [ 0.          0.          0.          0.         -0.05538876  0.4586752  -0.03719598  0.9495594 ]]
E(SUHF) =     -1.09024760
e_a, e_b
[-0.51601871  0.17905404  1.10464378  1.28278855] [-0.51601871  0.17905404  1.10464378  1.28278855]
P_a, P_b
[[ 0.81393423 -0.37766082 -0.03209163  0.08824813]
 [-0.37766082  0.17523246  0.01489033 -0.04094663]
 [-0.03209163  0.01489033  0.0012653  -0.00347943]
 [ 0.08824813 -0.04094663 -0.00347943  0.00956801]] 
 [[ 0.81393423  0.37766082 -0.03209163 -0.08824813]
 [ 0.37766082  0.17523246 -0.01489033 -0.04094663]
 [-0.03209163 -0.01489033  0.0012653   0.00347943]
 [-0.08824813 -0.04094663  0.00347943  0.00956801]]
**** Start Cycle 21 ****
dm (ortho)
[array([[ 0.81393423, -0.37766082, -0.03209163,  0.08824813],
       [-0.37766082,  0.17523246,  0.01489033, -0.04094663],
       [-0.03209163,  0.01489033,  0.0012653 , -0.00347943],
       [ 0.08824813, -0.04094663, -0.00347943,  0.00956801]]), array([[ 0.81393423,  0.37766082, -0.03209163, -0.08824813],
       [ 0.37766082,  0.17523246, -0.01489033, -0.04094663],
       [-0.03209163, -0.01489033,  0.0012653 ,  0.00347943],
       [-0.08824813, -0.04094663,  0.00347943,  0.00956801]])]
Fock (ortho)
 (array([[-0.404661  ,  0.28833598,  0.09403787,  0.00801842],
       [ 0.28833598,  0.35166657,  0.09190288,  0.47375108],
       [ 0.09403787,  0.09190288,  1.16371674,  0.03803371],
       [ 0.00801842,  0.47375108,  0.03803371,  0.93976903]]), array([[-0.404661  , -0.28833598,  0.09403787, -0.00801842],
       [-0.28833598,  0.35166657, -0.09190288,  0.47375108],
       [ 0.09403787, -0.09190288,  1.16371674, -0.03803371],
       [-0.00801842,  0.47375108, -0.03803371,  0.93976903]]))
E(UHF) =    -1.467051
NO eigenvalue
[-1. -0.  0.  0.] [-1. -0. -0.  0.]
NO vec
[[ 0.90218303  0.         -0.00484884  0.00366813  0.43131057  0.          0.          0.        ]
 [-0.41860776  0.          0.19265455  0.13865854  0.87659887  0.          0.          0.        ]
 [-0.03557109  0.         -0.79012389  0.60893152  0.06034354  0.          0.          0.        ]
 [ 0.09781621  0.          0.58186335  0.78100112 -0.20470534  0.          0.          0.        ]
 [ 0.          0.90218303  0.          0.          0.          0.42946312 -0.0287426  -0.02830311]
 [ 0.          0.41860776  0.          0.          0.         -0.8932665  -0.05582682 -0.15403205]
 [ 0.         -0.03557109  0.          0.          0.          0.01870462 -0.9874482   0.15274453]
 [ 0.         -0.09781621  0.          0.          0.          0.13147826 -0.1449251  -0.97577773]]
dm(NO)
[[ 1.  0.  0.  0.  0.  0.  0.  0.]
 [ 0.  1.  0.  0.  0. -0.  0. -0.]
 [ 0.  0.  0. -0. -0.  0.  0.  0.]
 [ 0.  0.  0. -0.  0.  0.  0.  0.]
 [ 0.  0. -0. -0. -0.  0.  0.  0.]
 [ 0. -0.  0.  0.  0.  0. -0.  0.]
 [ 0.  0.  0.  0.  0.  0. -0. -0.]
 [ 0.  0.  0.  0.  0. -0. -0. -0.]]
D(g) (NO)
[[ 0.99951369  0.01965787  0.          0.         -0.          0.02412265  0.00057337 -0.00193136]
 [-0.01965787  0.99951369 -0.00148002  0.00114449 -0.02413423 -0.          0.          0.        ]
 [ 0.          0.00148002  0.99951369  0.          0.         -0.00350658  0.02136873 -0.02238937]
 [-0.         -0.00114449  0.          0.99951369  0.         -0.00025599 -0.0225243  -0.02153308]
 [-0.          0.02413423 -0.          0.          0.99951369 -0.01944554 -0.00284559  0.00192501]
 [-0.02412265 -0.          0.00350658  0.00025599  0.01944554  0.99951369  0.          0.        ]
 [-0.00057337  0.         -0.02136873  0.0225243   0.00284559  0.          0.99951369 -0.        ]
 [ 0.00193136  0.          0.02238937  0.02153308 -0.00192501  0.         -0.          0.99951369]]
...
N(g) (NO)
[[ 1.0000997 -0.0196694]
 [ 0.0196694  1.0000997]]
...
P(g) (NO)
[[ 1.         -0.          0.          0.          0.          0.         -0.          0.        ]
 [-0.          1.         -0.         -0.         -0.         -0.          0.         -0.        ]
 [ 0.00002911  0.00148017  0.          0.          0.         -0.          0.         -0.        ]
 [-0.00002251 -0.0011446  -0.         -0.         -0.          0.         -0.          0.        ]
 [ 0.00047471  0.02413663  0.          0.          0.         -0.          0.         -0.        ]
 [-0.02412506  0.00047448 -0.         -0.         -0.         -0.          0.         -0.        ]
 [-0.00057342  0.00001128 -0.         -0.         -0.         -0.          0.         -0.        ]
 [ 0.00193155 -0.00003799  0.          0.          0.          0.         -0.          0.        ]]
...
Pg_ortho
[[ 0.81411874 -0.37774644 -0.03209891  0.08826813  0.00938181  0.00435311 -0.0003699  -0.00101719]
 [-0.37728316  0.17505723  0.01487544 -0.04090568  0.0192026   0.0089099  -0.00075712 -0.00208198]
 [-0.03209891  0.01489371  0.00126559 -0.00348022 -0.0003699  -0.00017163  0.00001458  0.00004011]
 [ 0.08815988 -0.04090568 -0.00347595  0.00955844 -0.00448708 -0.00208198  0.00017692  0.0004865 ]
 [-0.00938181  0.00435311  0.0003699  -0.00101719  0.81411874  0.37774644 -0.03209891 -0.08826813]
 [ 0.0192026  -0.0089099  -0.00075712  0.00208198  0.37728316  0.17505723 -0.01487544 -0.04090568]
 [ 0.0003699  -0.00017163 -0.00001458  0.00004011 -0.03209891 -0.01489371  0.00126559  0.00348022]
 [-0.00448708  0.00208198  0.00017692 -0.0004865  -0.08815988 -0.04090568  0.00347595  0.00955844]]
G(g) (NO)
[[ 0.43506755 -0.00201868 -0.05986478  0.02467538  0.08844614  0.00158354  0.00067762  0.0005052 ]
 [ 0.00201868  0.43506755 -0.00095881 -0.00017122 -0.00150777  0.08424926 -0.06892517 -0.01291389]
 [-0.05989035 -0.00059233  0.8497508  -0.03799802  0.02450183 -0.00082407 -0.00002278 -0.00031574]
 [ 0.02465577 -0.00368405 -0.03799134  0.92288568  0.24000122  0.0012459   0.00283091  0.00159874]
 [ 0.08827305 -0.01581807  0.02451974  0.24000686  1.02980595  0.00241923  0.00415566  0.00168896]
 [ 0.01593213  0.08407413 -0.00471225  0.00045263 -0.00203996  1.04853303 -0.10439119  0.20731943]
 [-0.00208533 -0.06892901  0.0020545   0.00027449  0.00128116 -0.10440465  0.90899105 -0.05594511]
 [ 0.0024399  -0.01293154 -0.0024999   0.00003765 -0.00034076  0.20730624 -0.05593862  0.84491835]]
...
C(NO)
[[-1.01809555  0.         -0.3463566  -0.07953842  0.08381258  0.          0.          0.        ]
 [ 0.         -1.01809555  0.          0.          0.         -0.3463566  -0.07953842  0.08381258]
 [-0.04220109  0.         -0.05853651  0.95895821 -0.00322902  0.          0.          0.        ]
 [-0.01032475  0.          0.23512751 -0.04536266 -0.8935433   0.          0.          0.        ]
 [ 0.03075747  0.         -0.79686649  0.12885929 -0.42692254  0.          0.          0.        ]
 [ 0.          0.02696912  0.          0.          0.         -0.79050849  0.20233229 -0.45610714]
 [ 0.         -0.03360461  0.          0.          0.         -0.12221063  0.85450131  0.44899469]
 [ 0.         -0.03125622  0.          0.          0.          0.23209603  0.40884288 -0.75568708]]
detC 1.0365185544117217
detNg [1.0005863  1.01547385 1.08681154 1.2749884  1.63110288 2.09520513 2.4234139  2.51263269]
xg [0.93023202 0.91659418 0.85642946 0.73002814 0.57064299 0.44424167 0.38407695 0.37043911]
ciS 1.3006711295937619
[[-0.95103932  0.          0.02691429 -0.07804485 -0.14125864  0.          0.          0.        ]
 [ 0.         -0.95103932  0.          0.          0.         -0.14128309  0.0685055  -0.04599418]
 [ 0.02691429  0.          0.25139281  0.01423458  0.02886638  0.          0.          0.        ]
 [-0.07804485  0.          0.01423458  0.24363854  0.09795002  0.          0.          0.        ]
 [-0.14125864  0.          0.02886638  0.09795002 -0.73101683  0.          0.          0.        ]
 [ 0.         -0.14128309  0.          0.          0.         -0.71252357  0.02960132  0.16611511]
 [ 0.          0.0685055   0.          0.          0.          0.02960132  0.23719587  0.00364251]
 [ 0.         -0.04599418  0.          0.          0.          0.16611511  0.00364251  0.23934222]]
ciH -1.991624855518313
S2 = -0.000000
X(g)
[[ 2.         -0.          0.00002911 -0.00002251  0.00047471  0.02412506  0.00057342 -0.00193155]
 [-0.          2.         -0.00148017  0.0011446  -0.02413663  0.00047448  0.00001128 -0.00003799]
 [ 0.00002911  0.00148017  0.          0.          0.          0.          0.          0.        ]
 [-0.00002251 -0.0011446   0.          0.          0.          0.          0.          0.        ]
 [ 0.00047471  0.02413663  0.          0.          0.          0.          0.          0.        ]
 [-0.02412506  0.00047448  0.          0.          0.          0.          0.          0.        ]
 [-0.00057342  0.00001128  0.          0.          0.          0.          0.          0.        ]
 [ 0.00193155 -0.00003799  0.          0.          0.          0.          0.          0.        ]]
X(g) int
[[ 2.         -0.          0.02141117 -0.0165571   0.34914541  0.43478277  0.01033427 -0.03481044]
 [ 0.          2.         -0.02667563  0.02062808 -0.4349914   0.34897796  0.00829479 -0.02794057]
 [ 0.02141117  0.02667563  0.          0.          0.          0.          0.          0.        ]
 [-0.0165571  -0.02062808  0.          0.          0.          0.          0.          0.        ]
 [ 0.34914541  0.4349914   0.          0.          0.          0.          0.          0.        ]
 [-0.43478277  0.34897796  0.          0.          0.          0.          0.          0.        ]
 [-0.01033427  0.00829479  0.          0.          0.          0.          0.          0.        ]
 [ 0.03481044 -0.02794057  0.          0.          0.          0.          0.          0.        ]]
Hsp + Hph =  -1.5312286174448702
Feff (mod,ortho)
[[-0.36351533  0.33294628  0.10194078  0.05543181  0.          0.          0.          0.        ]
 [ 0.33294628  0.30141045  0.08572436  0.45865818  0.          0.          0.          0.        ]
 [ 0.10194078  0.08572436  1.16302959  0.03719704  0.          0.          0.          0.        ]
 [ 0.05543181  0.45865818  0.03719704  0.94956664  0.          0.          0.          0.        ]
 [ 0.          0.          0.          0.         -0.36351533 -0.33294628  0.10194078 -0.05543181]
 [ 0.          0.          0.          0.         -0.33294628  0.30141045 -0.08572436  0.45865818]
 [ 0.          0.          0.          0.          0.10194078 -0.08572436  1.16302959 -0.03719704]
 [ 0.          0.          0.          0.         -0.05543181  0.45865818 -0.03719704  0.94956664]]
E(SUHF) =     -1.09024761
e_a, e_b
[-0.51601147  0.17906047  1.10464204  1.2828003 ] [-0.51601147  0.17906047  1.10464204  1.2828003 ]
P_a, P_b
[[ 0.81393934 -0.37766321 -0.03208987  0.08822036]
 [-0.37766321  0.17523357  0.01488952 -0.04093374]
 [-0.03208987  0.01488952  0.00126516 -0.00347812]
 [ 0.08822036 -0.04093374 -0.00347812  0.00956193]] 
 [[ 0.81393934  0.37766321 -0.03208987 -0.08822036]
 [ 0.37766321  0.17523357 -0.01488952 -0.04093374]
 [-0.03208987 -0.01488952  0.00126516  0.00347812]
 [-0.08822036 -0.04093374  0.00347812  0.00956193]]

***************
SCF converged at cycle 20
Final E(SUHF) =     -1.09024761, delta E = -8.80027e-09
***** Start DFT Correlation for SUHF+DFT **********
tot grids = 20048
E(SUHF) =     -1.09024761
E_c(TPSS) =     -0.02721395
E(SUHF+DFT) =     -1.11746156
