

#INFO: **** input file is /share/home/srwang/ExSCF/test/pytest/scan_h2/scan_dft.py ****
#import phf
from pyscf import gto, scf
#import scipy
#import numpy as np
import sys, os, contextlib

from pyphf import util, sudft

#xyz = 'h2.xyz' #sys.argv[1]
fch = '../../test_carlos/test_uhf.fchk' #sys.argv[2]
bas = '../h2.bas'

for r in [0.6, 0.8, 1.0, 1.2, 1.4, 1.6, 1.8, 2.0]:
    output = 'sudft_%.1f.out' % r
    os.system("echo '\n' > %s" % output)
    with open(output, 'a', encoding='utf-8') as f:
        with contextlib.redirect_stdout(f):
            xyz = '''H 0.0 0.0 0.0; H 0.0 0.0 %f'''%r
            mf = util.guess_from_fchk(xyz, bas, fch)
            #f.flush()
            mf2 = util.SUHF(mf)
            mf2.cut_no = False
            mf2.debug = False
            mf2.max_cycle = 50
            #mf2.output = 'sudft_%.1f.out'%r
            #mf2.kernel()
            
            mf3 = sudft.SUDFT(mf2)
            mf3.kernel()
                    #INFO: ******************** input file end ********************


System: uname_result(system='Linux', node='xcluster', release='3.10.0-693.el7.x86_64', version='#1 SMP Thu Jul 6 19:56:57 EDT 2017', machine='x86_64', processor='x86_64')  Threads 16
Python 3.7.4 (default, Aug 13 2019, 20:35:49) 
[GCC 7.3.0]
numpy 1.17.2  scipy 1.4.1
Date: Thu Nov 19 17:46:26 2020
PySCF version 1.7.3
PySCF path  /share/apps/Python/Anaconda3-2019/lib/python3.7/site-packages/pyscf

[CONFIG] conf_file None
[INPUT] verbose = 4
[INPUT] num. atoms = 2
[INPUT] num. electrons = 2
[INPUT] charge = 0
[INPUT] spin (= nelec alpha-beta = 2S) = 0
[INPUT] symmetry False subgroup None
[INPUT] Mole.unit = angstrom
[INPUT]  1 H      0.000000000000   0.000000000000   0.000000000000 AA    0.000000000000   0.000000000000   0.000000000000 Bohr
[INPUT]  2 H      0.000000000000   0.000000000000   2.000000000000 AA    0.000000000000   0.000000000000   3.779452249130 Bohr

nuclear repulsion = 0.26458860546
number of shells = 4
number of NR pGTOs = 6
number of NR cGTOs = 4
basis = ../h2.bas
ecp = {}
CPU time:       141.96


******** <class 'pyscf.scf.uhf.UHF'> ********
method = UHF
initial guess = minao
damping factor = 0
level_shift factor = 0
DIIS = <class 'pyscf.scf.diis.CDIIS'>
diis_start_cycle = 1
diis_space = 8
SCF conv_tol = 1e-09
SCF conv_tol_grad = None
SCF max_cycles = 1
direct_scf = True
direct_scf_tol = 1e-13
chkfile to save SCF result = /share/home/srwang/ExSCF/test/pytest/scan_h2/tmpwacws9hh
max_memory 4000 MB (current use 118 MB)
number electrons alpha = 1  beta = 1
Set gradient conv threshold to 3.16228e-05
init E= -0.644800894941738
  alpha nocc = 1  HOMO = -0.248574003043426  LUMO = -0.0900508471637461
  beta  nocc = 1  HOMO = -0.241945730776492  LUMO = -0.09160035062619
cycle= 1 E= -0.90763782954924  delta_E= -0.263  |g|= 0.0146  |ddm|= 0.599
SCF not converged.
SCF energy = -0.90763782954924 after 1 cycles  <S^2> = 6.593367e-07  2S+1 = 1.0000013


******** <class 'pyscf.scf.uhf.UHF'> ********
method = UHF
initial guess = minao
damping factor = 0
level_shift factor = 0
DIIS = <class 'pyscf.scf.diis.CDIIS'>
diis_start_cycle = 1
diis_space = 8
SCF conv_tol = 1e-09
SCF conv_tol_grad = None
SCF max_cycles = 0
direct_scf = True
direct_scf_tol = 1e-13
chkfile to save SCF result = /share/home/srwang/ExSCF/test/pytest/scan_h2/tmpwacws9hh
max_memory 4000 MB (current use 121 MB)
number electrons alpha = 1  beta = 1
Set gradient conv threshold to 3.16228e-05
init E= -0.99701150589175
  alpha nocc = 1  HOMO = -0.49432997422898  LUMO = 0.12017707328242
  beta  nocc = 1  HOMO = -0.49432997422898  LUMO = 0.120177073282419
SCF not converged.
SCF energy = -0.99701150589175 after 0 cycles  <S^2> = 0.91048114  2S+1 = 2.1545126

******** <class 'pyphf.util.SUHF'> ********
SVD: S^(-1/2)
[[-0.33060027  0.46012716 -0.85621857  0.83453548]
 [-0.39774552  0.36468655  0.7116764  -1.05293832]
 [-0.33060027 -0.46012716 -0.85621857 -0.83453548]
 [-0.39774552 -0.36468655  0.7116764   1.05293832]]
C (ortho)
[[-0.80171205 -0.5700936  -0.09238963 -0.15399753]
 [ 0.58103285 -0.7590264   0.10126793 -0.2757255 ]
 [ 0.08280282  0.16885235 -0.7917787  -0.58113601]
 [-0.11314732  0.26525666  0.59522722 -0.75002743]]
[[-0.80171205 -0.5700936  -0.09238963 -0.15399753]
 [-0.58103285  0.7590264  -0.10126793  0.2757255 ]
 [ 0.08280282  0.16885235 -0.7917787  -0.58113601]
 [ 0.11314732 -0.26525666 -0.59522722  0.75002743]]
grids:  [0.06237655 0.31939555 0.74529195 1.28265786 1.85893479 2.39630071 2.8221971  3.07921611] 
weights:  [0.15900941 0.34931531 0.49276925 0.56970235 0.56970235 0.49276925 0.34931531 0.15900941]
S = 0.0, Sz = 0.0
Wigner small d:  1
value : [1. 1. 1. 1. 1. 1. 1. 1.]
**** Start Cycle 1 ****
dm (ortho)
[[[ 0.64274221 -0.46582103 -0.06638402  0.09071157]
  [-0.46582103  0.33759917  0.04811116 -0.06574231]
  [-0.06638402  0.04811116  0.00685631 -0.00936892]
  [ 0.09071157 -0.06574231 -0.00936892  0.01280232]]

 [[ 0.64274221  0.46582103 -0.06638402 -0.09071157]
  [ 0.46582103  0.33759917 -0.04811116 -0.06574231]
  [-0.06638402 -0.04811116  0.00685631  0.00936892]
  [-0.09071157 -0.06574231  0.00936892  0.01280232]]]
Fock (ortho)
 (array([[-0.23888808,  0.32641269,  0.21636534,  0.02458361],
       [ 0.32641269,  0.01106862,  0.07806087,  0.33962982],
       [ 0.21636534,  0.07806087,  1.122016  ,  0.05065254],
       [ 0.02458361,  0.33962982,  0.05065254,  1.11261248]]), array([[-0.23888808, -0.32641269,  0.21636534, -0.02458361],
       [-0.32641269,  0.01106862, -0.07806087,  0.33962982],
       [ 0.21636534, -0.07806087,  1.122016  , -0.05065254],
       [-0.02458361,  0.33962982, -0.05065254,  1.11261248]]))
E(UHF) =    -1.261600
NO eigenvalue
[-1. -0. -0.  0.] [-1. -0. -0.  0.]
NO vec
[[ 0.80171205  0.         -0.10999531  0.03239952  0.58660813  0.          0.          0.        ]
 [-0.58103285  0.          0.03954722  0.18666057  0.79119826  0.          0.          0.        ]
 [-0.08280282  0.         -0.95089931  0.28701011 -0.08099007  0.          0.          0.        ]
 [ 0.11314732  0.          0.28657904  0.93900655 -0.15276397  0.          0.          0.        ]
 [ 0.          0.80171205  0.          0.          0.          0.59471628  0.03954238  0.0447967 ]
 [ 0.          0.58103285  0.          0.          0.         -0.78948661  0.18178669 -0.0778802 ]
 [ 0.         -0.08280282  0.          0.          0.          0.01153118  0.64144567  0.76259962]
 [ 0.         -0.11314732  0.          0.          0.          0.15129599  0.74426975 -0.64060108]]
dm(NO)
[[ 1.  0.  0.  0. -0.  0.  0.  0.]
 [ 0.  1.  0.  0.  0. -0.  0. -0.]
 [ 0.  0.  0. -0. -0.  0.  0.  0.]
 [ 0.  0. -0. -0.  0.  0.  0.  0.]
 [-0.  0. -0.  0.  0.  0.  0.  0.]
 [ 0. -0.  0.  0.  0.  0. -0. -0.]
 [ 0.  0.  0.  0.  0. -0. -0. -0.]
 [ 0. -0.  0.  0.  0. -0. -0. -0.]]
D(g) (NO)
[[ 0.99951369  0.00932993  0.          0.         -0.          0.02967622 -0.00133538 -0.00169832]
 [-0.00932993  0.99951369  0.0005892  -0.00013782 -0.0297486  -0.          0.         -0.        ]
 [ 0.         -0.0005892   0.99951369  0.         -0.         -0.00200336 -0.01228053 -0.02858708]
 [ 0.          0.00013782 -0.          0.99951369  0.          0.00053885  0.02863209 -0.01234046]
 [ 0.          0.0297486  -0.          0.          0.99951369 -0.0093494   0.00004294  0.00002361]
 [-0.02967622 -0.          0.00200336 -0.00053885  0.0093494   0.99951369 -0.          0.        ]
 [ 0.00133538  0.          0.01228053 -0.02863209 -0.00004294 -0.          0.99951369 -0.        ]
 [ 0.00169832 -0.          0.02858708  0.01234046 -0.00002361  0.         -0.          0.99951369]]
...
N(g) (NO)
[[ 1.00039938 -0.00933819]
 [ 0.00933819  1.00039938]]
...
P(g) (NO)
[[ 1.          0.          0.          0.         -0.         -0.          0.         -0.        ]
 [-0.          1.         -0.         -0.          0.         -0.          0.         -0.        ]
 [-0.0000055  -0.00058944 -0.         -0.          0.          0.         -0.          0.        ]
 [ 0.00000129  0.00013787  0.          0.         -0.         -0.          0.         -0.        ]
 [ 0.0002778   0.02976048  0.          0.         -0.         -0.          0.         -0.        ]
 [-0.02968807  0.00027712 -0.         -0.          0.         -0.          0.         -0.        ]
 [ 0.00133592 -0.00001247  0.          0.         -0.          0.         -0.          0.        ]
 [ 0.001699   -0.00001586  0.          0.         -0.          0.         -0.          0.        ]]
...
Pg_ortho
[[ 0.64287337 -0.46591609 -0.06639757  0.09073008  0.01405164  0.01018379 -0.00145129 -0.00198314]
 [-0.4656448   0.33747145  0.04809296 -0.06571744  0.01887941  0.01368267 -0.00194991 -0.00266449]
 [-0.06639757  0.04812098  0.00685771 -0.00937083 -0.00145129 -0.00105181  0.00014989  0.00020482]
 [ 0.09067726 -0.06571744 -0.00936537  0.01279747 -0.00367648 -0.00266449  0.00037972  0.00051887]
 [-0.01405164  0.01018379  0.00145129 -0.00198314  0.64287337  0.46591609 -0.06639757 -0.09073008]
 [ 0.01887941 -0.01368267 -0.00194991  0.00266449  0.4656448   0.33747145 -0.04809296 -0.06571744]
 [ 0.00145129 -0.00105181 -0.00014989  0.00020482 -0.06639757 -0.04812098  0.00685771  0.00937083]
 [-0.00367648  0.00266449  0.00037972 -0.00051887 -0.09067726 -0.06571744  0.00936537  0.01279747]]
G(g) (NO)
[[ 0.27295492 -0.00158115 -0.01171154 -0.00385045  0.05291091  0.00041671 -0.00058603 -0.00004568]
 [ 0.00158115  0.27295492 -0.00047714 -0.00029422 -0.00045269  0.05361191  0.00876865 -0.00065134]
 [-0.01171367  0.00320332  0.79457798 -0.07809457 -0.08383348 -0.00065583  0.0024748   0.00038695]
 [-0.00385657 -0.0046744  -0.07809466  0.83381674  0.17368428  0.00050728 -0.00397581 -0.00054276]
 [ 0.05284015 -0.01863761 -0.08383432  0.17368957  0.87848985  0.00146715 -0.00521348 -0.00100165]
 [ 0.01897104  0.05354147 -0.00504182 -0.00218953 -0.00192658  0.90260217 -0.03319795  0.19101342]
 [-0.00098232  0.00877796  0.00038277  0.00019578 -0.00015563 -0.03319578  0.73820834  0.00424552]
 [ 0.00431355 -0.00065022 -0.00384855 -0.00187523 -0.00096801  0.19100854  0.00424606  0.86607407]]
...
C(NO)
[[-1.          0.         -0.          0.          0.          0.          0.          0.        ]
 [ 0.         -1.          0.          0.          0.         -0.          0.          0.        ]
 [-0.          0.         -0.05185435  0.93764876  0.34369452  0.          0.          0.        ]
 [-0.          0.          0.13738901  0.34758312 -0.9275291   0.          0.          0.        ]
 [ 0.          0.         -0.98915893 -0.00087657 -0.14684632  0.          0.          0.        ]
 [ 0.          0.          0.          0.          0.         -0.97647032 -0.07418158 -0.20249147]
 [ 0.          0.          0.          0.          0.          0.02632514 -0.9729551   0.22948934]
 [ 0.          0.          0.          0.          0.          0.214039   -0.21875892 -0.95201462]]
detC 0.9999999998017288
detNg [ 1.00088613  1.0235662   1.13725387  1.48340618  2.40734918  4.7571993   8.88553389 11.0614322 ]
xg [0.99911465 0.97697638 0.87931114 0.6741242  0.41539466 0.21020772 0.11254248 0.09040421]
ciS 1.0895188605470811
[[-0.76727014  0.          0.0117071   0.00384772 -0.0529147   0.          0.          0.        ]
 [ 0.         -0.76727014  0.          0.          0.         -0.05361537 -0.00876323  0.00065174]
 [ 0.0117071   0.          0.32355875  0.0268763   0.0244107   0.          0.          0.        ]
 [ 0.00384772  0.          0.0268763   0.40395857 -0.01577637  0.          0.          0.        ]
 [-0.0529147   0.          0.0244107  -0.01577637 -0.73328004  0.          0.          0.        ]
 [ 0.         -0.05361537  0.          0.          0.         -0.72942696  0.0498776   0.04879459]
 [ 0.         -0.00876323  0.          0.          0.          0.0498776   0.36993431 -0.04964533]
 [ 0.          0.00065174  0.          0.          0.          0.04879459 -0.04964533  0.35372992]]
ciH -1.388133385024782
S2 = 0.000000
X(g)
[[ 2.          0.         -0.0000055   0.00000129  0.0002778   0.02968807 -0.00133592 -0.001699  ]
 [ 0.          2.          0.00058944 -0.00013787 -0.02976048  0.00027712 -0.00001247 -0.00001586]
 [-0.0000055  -0.00058944  0.          0.          0.          0.          0.          0.        ]
 [ 0.00000129  0.00013787  0.          0.          0.          0.          0.          0.        ]
 [ 0.0002778   0.02976048  0.          0.          0.          0.          0.          0.        ]
 [-0.02968807  0.00027712  0.          0.          0.          0.          0.          0.        ]
 [ 0.00133592 -0.00001247  0.          0.          0.          0.          0.          0.        ]
 [ 0.001699   -0.00001586  0.          0.          0.          0.          0.          0.        ]]
X(g) int
[[ 2.          0.         -0.00518878  0.00121371  0.26198002  0.68602947 -0.03087027 -0.03926035]
 [-0.          2.          0.01362066 -0.003186   -0.68770278  0.26134258 -0.01176001 -0.01495621]
 [-0.00518878 -0.01362066  0.          0.          0.          0.          0.          0.        ]
 [ 0.00121371  0.003186    0.          0.          0.          0.          0.          0.        ]
 [ 0.26198002  0.68770278  0.          0.          0.          0.          0.          0.        ]
 [-0.68602947  0.26134258  0.          0.          0.          0.          0.          0.        ]
 [ 0.03087027 -0.01176001  0.          0.          0.          0.          0.          0.        ]
 [ 0.03926035 -0.01495621  0.          0.          0.          0.          0.          0.        ]]
Hsp + Hph =  -1.2740792613060017
Feff (mod,ortho)
[[-0.23026003  0.32973615  0.22450695  0.03403138  0.          0.          0.          0.        ]
 [ 0.32973615  0.00171946  0.07117123  0.3341342   0.          0.          0.          0.        ]
 [ 0.22450695  0.07117123  1.12024219  0.05095156  0.          0.          0.          0.        ]
 [ 0.03403138  0.3341342   0.05095156  1.1151074   0.          0.          0.          0.        ]
 [ 0.          0.          0.          0.         -0.23026003 -0.32973615  0.22450695 -0.03403138]
 [ 0.          0.          0.          0.         -0.32973615  0.00171946 -0.07117123  0.3341342 ]
 [ 0.          0.          0.          0.          0.22450695 -0.07117123  1.12024219 -0.05095156]
 [ 0.          0.          0.          0.         -0.03403138  0.3341342  -0.05095156  1.1151074 ]]
E(SUHF) =     -1.00949066
e_a, e_b
[-0.49453689  0.12020916  1.09920198  1.28193477] [-0.49453689  0.12020916  1.09920198  1.28193477]
P_a, P_b
[[ 0.63348758 -0.46887119 -0.07012849  0.08615605]
 [-0.46887119  0.34703158  0.05190509 -0.06376777]
 [-0.07012849  0.05190509  0.00776338 -0.00953767]
 [ 0.08615605 -0.06376777 -0.00953767  0.01171746]] 
 [[ 0.63348758  0.46887119 -0.07012849 -0.08615605]
 [ 0.46887119  0.34703158 -0.05190509 -0.06376777]
 [-0.07012849 -0.05190509  0.00776338  0.00953767]
 [-0.08615605 -0.06376777  0.00953767  0.01171746]]
**** Start Cycle 2 ****
dm (ortho)
[array([[ 0.63348758, -0.46887119, -0.07012849,  0.08615605],
       [-0.46887119,  0.34703158,  0.05190509, -0.06376777],
       [-0.07012849,  0.05190509,  0.00776338, -0.00953767],
       [ 0.08615605, -0.06376777, -0.00953767,  0.01171746]]), array([[ 0.63348758,  0.46887119, -0.07012849, -0.08615605],
       [ 0.46887119,  0.34703158, -0.05190509, -0.06376777],
       [-0.07012849, -0.05190509,  0.00776338,  0.00953767],
       [-0.08615605, -0.06376777,  0.00953767,  0.01171746]])]
Fock (ortho)
 (array([[-0.23630848,  0.32845629,  0.21732726,  0.02619002],
       [ 0.32845629,  0.00872298,  0.07782622,  0.33901036],
       [ 0.21732726,  0.07782622,  1.12167963,  0.05091667],
       [ 0.02619002,  0.33901036,  0.05091667,  1.11270114]]), array([[-0.23630848, -0.32845629,  0.21732726, -0.02619002],
       [-0.32845629,  0.00872298, -0.07782622,  0.33901036],
       [ 0.21732726, -0.07782622,  1.12167963, -0.05091667],
       [-0.02619002,  0.33901036, -0.05091667,  1.11270114]]))
E(UHF) =    -1.261271
NO eigenvalue
[-1. -0. -0.  0.] [-1. -0. -0.  0.]
NO vec
[[ 0.79591933  0.         -0.40598343 -0.09335509  0.43928886  0.          0.          0.        ]
 [-0.58909387  0.         -0.64514658  0.05700863  0.48322286  0.          0.          0.        ]
 [-0.08811004  0.          0.64727299 -0.0032853   0.75714167  0.          0.          0.        ]
 [ 0.10824722  0.          0.00101086  0.99399399  0.01604578  0.          0.          0.        ]
 [ 0.          0.79591933  0.          0.          0.         -0.23082651  0.01795503  0.55938284]
 [ 0.          0.58909387  0.          0.          0.          0.08421664 -0.05769954 -0.80159013]
 [ 0.         -0.08811004  0.          0.          0.         -0.50718533 -0.85545998 -0.05646138]
 [ 0.         -0.10824722  0.          0.          0.         -0.82606883  0.51433122 -0.20336227]]
dm(NO)
[[ 1.  0.  0.  0.  0.  0.  0.  0.]
 [ 0.  1.  0.  0.  0. -0.  0.  0.]
 [ 0.  0. -0.  0.  0.  0.  0.  0.]
 [ 0.  0. -0.  0.  0.  0.  0.  0.]
 [-0.  0. -0.  0.  0.  0.  0.  0.]
 [ 0. -0.  0.  0.  0.  0.  0. -0.]
 [ 0.  0.  0.  0.  0. -0.  0.  0.]
 [ 0.  0.  0.  0.  0. -0. -0.  0.]]
D(g) (NO)
[[ 0.99951369  0.00880932  0.         -0.          0.         -0.00867088  0.00559211  0.02807727]
 [-0.00880932  0.99951369  0.02370931  0.00461597 -0.01764513 -0.          0.          0.        ]
 [ 0.         -0.02370931  0.99951369 -0.         -0.         -0.00903511 -0.01631696  0.00789844]
 [ 0.         -0.00461597 -0.          0.99951369  0.         -0.02473114  0.01587497 -0.00935104]
 [ 0.          0.01764513  0.          0.          0.99951369 -0.01428098 -0.02056364 -0.00585086]
 [ 0.00867088 -0.          0.00903511  0.02473114  0.01428098  0.99951369 -0.         -0.        ]
 [-0.00559211  0.          0.01631696 -0.01587497  0.02056364 -0.          0.99951369 -0.        ]
 [-0.02807727  0.         -0.00789844  0.00935104  0.00585086 -0.         -0.          0.99951369]]
...
N(g) (NO)
[[ 1.00040884 -0.00881721]
 [ 0.00881721  1.00040884]]
...
P(g) (NO)
[[ 1.          0.          0.          0.          0.         -0.          0.          0.        ]
 [ 0.          1.          0.          0.          0.         -0.          0.          0.        ]
 [-0.00020905 -0.023719   -0.         -0.         -0.          0.         -0.         -0.        ]
 [-0.0000407  -0.00461785 -0.         -0.         -0.          0.         -0.         -0.        ]
 [ 0.00015558  0.01765234  0.          0.          0.         -0.          0.          0.        ]
 [ 0.00867442 -0.00007645  0.          0.          0.          0.         -0.         -0.        ]
 [-0.0055944   0.00004931 -0.         -0.         -0.         -0.          0.          0.        ]
 [-0.02808875  0.00024756 -0.         -0.         -0.         -0.          0.          0.        ]]
...
Pg_ortho
[[ 0.63361255 -0.46896369 -0.07014232  0.08617305  0.01417938  0.01049477 -0.00156969 -0.00192843]
 [-0.46870586  0.34690921  0.05188678 -0.06374529  0.01875901  0.01388435 -0.00207666 -0.00255128]
 [-0.07014232  0.05191533  0.00776491 -0.00953955 -0.00156969 -0.00116179  0.00017377  0.00021348]
 [ 0.08612567 -0.06374529 -0.0095343   0.01171333 -0.00344701 -0.00255128  0.00038159  0.0004688 ]
 [-0.01417938  0.01049477  0.00156969 -0.00192843  0.63361255  0.46896369 -0.07014232 -0.08617305]
 [ 0.01875901 -0.01388435 -0.00207666  0.00255128  0.46870586  0.34690921 -0.05188678 -0.06374529]
 [ 0.00156969 -0.00116179 -0.00017377  0.00021348 -0.07014232 -0.05191533  0.00776491  0.00953955]
 [-0.00344701  0.00255128  0.00038159 -0.0004688  -0.08612567 -0.06374529  0.0095343   0.01171333]]
G(g) (NO)
[[ 0.27122539 -0.00145401 -0.03410726 -0.01765555  0.03191603  0.00034441  0.00019423  0.00047509]
 [ 0.00145401  0.27122539  0.00054894 -0.00028373  0.00001508 -0.02507125  0.00957595  0.04211164]
 [-0.03405193  0.01289729  0.7589903  -0.06484369 -0.08339813 -0.00203262 -0.00110159 -0.00134732]
 [-0.01765172 -0.0005175  -0.06483997  0.74233419  0.11175452  0.00199442  0.00061608  0.00067927]
 [ 0.0318772  -0.01483742 -0.08339544  0.11175775  1.00727394  0.00521099  0.0024001   0.00307399]
 [-0.00486105 -0.02505805 -0.0010194   0.00041993 -0.00019109  0.72050663  0.0487281  -0.01358799]
 [-0.00174202  0.00956496 -0.00235326  0.0022444  -0.00140227  0.04872726  0.81917482 -0.16572284]
 [ 0.0189761   0.04204615  0.00469885 -0.00362691  0.00230565 -0.01358511 -0.16572758  0.96891698]]
...
C(NO)
[[-0.99992464  0.          0.00722499  0.00100433  0.00987413  0.          0.          0.        ]
 [ 0.         -0.99992464  0.          0.          0.          0.00722499  0.00100433  0.00987413]
 [ 0.00411211  0.          0.83069354 -0.53971927 -0.13650801  0.          0.          0.        ]
 [-0.00477201  0.          0.27305887  0.6086517  -0.74495583  0.          0.          0.        ]
 [-0.01053689  0.         -0.48511327 -0.58158852 -0.65292333  0.          0.          0.        ]
 [ 0.          0.0006599   0.          0.          0.          0.3289962   0.90607473 -0.26606324]
 [ 0.          0.00649127  0.          0.          0.         -0.33490773  0.3753753   0.86422686]
 [ 0.         -0.01039883  0.          0.          0.         -0.88291909  0.19524587 -0.42687796]]
detC 0.9998492922049284
detNg [ 1.00089559  1.02382355  1.13892125  1.49109455  2.44403738  4.95580666  9.70153    12.39124842]
xg [0.99940642 0.97702527 0.87828854 0.67085047 0.4092824  0.20184433 0.1031076  0.08072645]
ciS 1.0801328740123
[[-0.76624201  0.          0.03287458  0.00847301 -0.0438527   0.          0.          0.        ]
 [ 0.         -0.76624201  0.          0.          0.          0.0237052   0.00321898 -0.0500329 ]
 [ 0.03287458  0.         -0.33192569 -0.13852187  0.49341877  0.          0.          0.        ]
 [ 0.00847301  0.         -0.13852187  0.38485676  0.10695529  0.          0.          0.        ]
 [-0.0438527   0.          0.49341877  0.10695529 -0.05972193  0.          0.          0.        ]
 [ 0.          0.0237052   0.          0.          0.          0.28528121  0.01716031  0.31814087]
 [ 0.          0.00321898  0.          0.          0.          0.01716031  0.30650516 -0.19156473]
 [ 0.         -0.0500329   0.          0.          0.          0.31814087 -0.19156473 -0.59857722]]
ciH -1.3766210658044513
S2 = 0.000000
X(g)
[[ 2.         -0.         -0.00020905 -0.0000407   0.00015558 -0.00867442  0.0055944   0.02808875]
 [ 0.          2.          0.023719    0.00461785 -0.01765234 -0.00007645  0.00004931  0.00024756]
 [-0.00020905 -0.023719    0.          0.          0.          0.          0.          0.        ]
 [-0.0000407  -0.00461785  0.          0.          0.          0.          0.          0.        ]
 [ 0.00015558  0.01765234  0.          0.          0.          0.          0.          0.        ]
 [ 0.00867442 -0.00007645  0.          0.          0.          0.          0.          0.        ]
 [-0.0055944   0.00004931  0.          0.          0.          0.          0.          0.        ]
 [-0.02808875  0.00024756  0.          0.          0.          0.          0.          0.        ]]
X(g) int
[[ 2.         -0.         -0.19891752 -0.03872727  0.14804    -0.20224871  0.13043626  0.65490391]
 [ 0.          2.          0.55302088  0.1076677  -0.41157364 -0.07274736  0.04691696  0.23556409]
 [-0.19891752 -0.55302088  0.          0.          0.          0.          0.          0.        ]
 [-0.03872727 -0.1076677   0.          0.          0.          0.          0.          0.        ]
 [ 0.14804     0.41157364  0.          0.          0.          0.          0.          0.        ]
 [ 0.20224871 -0.07274736  0.          0.          0.          0.          0.          0.        ]
 [-0.13043626  0.04691696  0.          0.          0.          0.          0.          0.        ]
 [-0.65490391  0.23556409  0.          0.          0.          0.          0.          0.        ]]
Hsp + Hph =  -1.2744923323098256
Feff (mod,ortho)
[[-0.23176778  0.33076727  0.22348559  0.03674416  0.          0.          0.          0.        ]
 [ 0.33076727  0.00281462  0.0726403   0.33197016  0.          0.          0.          0.        ]
 [ 0.22348559  0.0726403   1.1202605   0.05065421  0.          0.          0.          0.        ]
 [ 0.03674416  0.33197016  0.05065421  1.11548793  0.          0.          0.          0.        ]
 [ 0.          0.          0.          0.         -0.23176778 -0.33076727  0.22348559 -0.03674416]
 [ 0.          0.          0.          0.         -0.33076727  0.00281462 -0.0726403   0.33197016]
 [ 0.          0.          0.          0.          0.22348559 -0.0726403   1.1202605  -0.05065421]
 [ 0.          0.          0.          0.         -0.03674416  0.33197016 -0.05065421  1.11548793]]
E(SUHF) =     -1.00990373
e_a, e_b
[-0.49504253  0.12109476  1.09866399  1.28207905] [-0.49504253  0.12109476  1.09866399  1.28207905]
P_a, P_b
[[ 0.63599296 -0.46857926 -0.06956331  0.08426353]
 [-0.46857926  0.3452342   0.05125202 -0.06208267]
 [-0.06956331  0.05125202  0.00760866 -0.00921653]
 [ 0.08426353 -0.06208267 -0.00921653  0.01116418]] 
 [[ 0.63599296  0.46857926 -0.06956331 -0.08426353]
 [ 0.46857926  0.3452342  -0.05125202 -0.06208267]
 [-0.06956331 -0.05125202  0.00760866  0.00921653]
 [-0.08426353 -0.06208267  0.00921653  0.01116418]]
**** Start Cycle 3 ****
dm (ortho)
[array([[ 0.63599296, -0.46857926, -0.06956331,  0.08426353],
       [-0.46857926,  0.3452342 ,  0.05125202, -0.06208267],
       [-0.06956331,  0.05125202,  0.00760866, -0.00921653],
       [ 0.08426353, -0.06208267, -0.00921653,  0.01116418]]), array([[ 0.63599296,  0.46857926, -0.06956331, -0.08426353],
       [ 0.46857926,  0.3452342 , -0.05125202, -0.06208267],
       [-0.06956331, -0.05125202,  0.00760866,  0.00921653],
       [-0.08426353, -0.06208267,  0.00921653,  0.01116418]])]
Fock (ortho)
 (array([[-0.23646331,  0.32868402,  0.21724495,  0.02713629],
       [ 0.32868402,  0.00964763,  0.07857162,  0.33875284],
       [ 0.21724495,  0.07857162,  1.12226208,  0.0510834 ],
       [ 0.02713629,  0.33875284,  0.0510834 ,  1.11325497]]), array([[-0.23646331, -0.32868402,  0.21724495, -0.02713629],
       [-0.32868402,  0.00964763, -0.07857162,  0.33875284],
       [ 0.21724495, -0.07857162,  1.12226208, -0.0510834 ],
       [-0.02713629,  0.33875284, -0.0510834 ,  1.11325497]]))
E(UHF) =    -1.261249
NO eigenvalue
[-1. -0.  0.  0.] [-1. -0.  0.  0.]
NO vec
[[ 0.79749166  0.         -0.03926183 -0.04564382  0.60031841  0.          0.          0.        ]
 [-0.58756634  0.         -0.08618552  0.16504388  0.78746325  0.          0.          0.        ]
 [-0.08722764  0.         -0.67014297 -0.7369146   0.0160193   0.          0.          0.        ]
 [ 0.1056607   0.         -0.73616504  0.65393733 -0.13879054  0.          0.          0.        ]
 [ 0.          0.79749166  0.          0.          0.          0.1908876  -0.02587806  0.57175108]
 [ 0.          0.58756634  0.          0.          0.         -0.44975192 -0.04259864 -0.67132285]
 [ 0.         -0.08722764  0.          0.          0.         -0.28567195 -0.93824611  0.17457695]
 [ 0.         -0.1056607   0.          0.          0.         -0.82442505  0.34235934  0.43812011]]
dm(NO)
[[ 1.  0.  0. -0.  0.  0.  0.  0.]
 [ 0.  1.  0.  0.  0.  0. -0.  0.]
 [-0.  0.  0.  0.  0.  0.  0.  0.]
 [-0.  0.  0.  0. -0.  0.  0.  0.]
 [ 0.  0. -0. -0. -0.  0.  0.  0.]
 [ 0.  0.  0.  0.  0. -0.  0. -0.]
 [ 0. -0.  0.  0.  0. -0. -0.  0.]
 [ 0.  0.  0.  0.  0.  0. -0. -0.]]
D(g) (NO)
[[ 0.99951369  0.00895592  0.          0.          0.          0.0110482   0.00381704  0.02748731]
 [-0.00895592  0.99951369 -0.00169287 -0.0017387  -0.02977072  0.         -0.          0.        ]
 [ 0.          0.00169287  0.99951369  0.          0.          0.02587027  0.0118937  -0.01260145]
 [ 0.          0.0017387   0.          0.99951369 -0.         -0.01283339  0.02835924  0.00065361]
 [ 0.          0.02977072  0.         -0.          0.99951369 -0.0040452  -0.00348086 -0.00759061]
 [-0.0110482   0.         -0.02587027  0.01283339  0.0040452   0.99951369  0.         -0.        ]
 [-0.00381704 -0.         -0.0118937  -0.02835924  0.00348086  0.          0.99951369 -0.        ]
 [-0.02748731  0.          0.01260145 -0.00065361  0.00759061 -0.         -0.          0.99951369]]
...
N(g) (NO)
[[ 1.00040623 -0.00896392]
 [ 0.00896392  1.00040623]]
...
P(g) (NO)
[[ 1.         -0.          0.         -0.          0.         -0.          0.         -0.        ]
 [ 0.          1.          0.         -0.          0.          0.         -0.          0.        ]
 [ 0.00001517  0.00169356  0.         -0.          0.          0.         -0.          0.        ]
 [ 0.00001559  0.0017394   0.         -0.          0.          0.         -0.          0.        ]
 [ 0.00026686  0.02978281  0.         -0.          0.          0.         -0.          0.        ]
 [-0.01105269  0.00009904 -0.          0.         -0.          0.         -0.          0.        ]
 [-0.00381859  0.00003422 -0.          0.         -0.          0.         -0.          0.        ]
 [-0.02749847  0.00024639 -0.          0.         -0.          0.         -0.          0.        ]]
...
Pg_ortho
[[ 0.63611967 -0.46867262 -0.06957717  0.08428032  0.01414215  0.01041948 -0.00154683 -0.00187371]
 [-0.46841066  0.34510998  0.05123358 -0.06206033  0.01881601  0.01386303 -0.00205805 -0.00249296]
 [-0.06957717  0.05126223  0.00761018 -0.00921837 -0.00154683 -0.00113966  0.00016919  0.00020494]
 [ 0.08423321 -0.06206033 -0.00921322  0.01116017 -0.00338364 -0.00249296  0.00037009  0.0004483 ]
 [-0.01414215  0.01041948  0.00154683 -0.00187371  0.63611967  0.46867262 -0.06957717 -0.08428032]
 [ 0.01881601 -0.01386303 -0.00205805  0.00249296  0.46841066  0.34510998 -0.05123358 -0.06206033]
 [ 0.00154683 -0.00113966 -0.00016919  0.00020494 -0.06957717 -0.05126223  0.00761018  0.00921837]
 [-0.00338364  0.00249296  0.00037009 -0.0004483  -0.08423321 -0.06206033  0.00921322  0.01116017]]
G(g) (NO)
[[ 0.27182184 -0.00147423  0.00665746 -0.00810724  0.04959079  0.00054795  0.00026626  0.00017646]
 [ 0.00147423  0.27182184 -0.00000291 -0.00051502 -0.00037017  0.00766218  0.00449338  0.04990387]
 [ 0.00665722  0.00433552  0.85892279  0.02194982 -0.19480146 -0.00373492 -0.00215663  0.00083873]
 [-0.00811729 -0.0003985   0.02194939  0.74096526  0.00653757 -0.00021753 -0.00014819 -0.00019795]
 [ 0.04952273 -0.01918949 -0.19480703  0.00653891  0.91001963  0.00498918  0.00317539 -0.00042849]
 [ 0.00903835  0.00763029 -0.00013605 -0.00385909 -0.00059832  0.83691803 -0.08788428  0.13392098]
 [-0.00264861  0.00448495  0.00006058  0.00361585  0.00060564 -0.08788221  0.83373361 -0.14256077]
 [ 0.01727673  0.0498435  -0.00041326 -0.004866   -0.00141727  0.13392479 -0.14256454  0.83925603]]
...
C(NO)
[[-0.99993194  0.          0.00463208 -0.00122448  0.01063797  0.          0.          0.        ]
 [ 0.         -0.99993194  0.          0.          0.          0.00463208 -0.00122448  0.01063797]
 [ 0.00920544  0.         -0.22062789  0.08731901  0.97139795  0.          0.          0.        ]
 [-0.00252075  0.         -0.05021995  0.99364526 -0.1007011   0.          0.          0.        ]
 [-0.00671027  0.         -0.9740533  -0.07101407 -0.21478393  0.          0.          0.        ]
 [ 0.         -0.00865218  0.          0.          0.         -0.27974953  0.74481861 -0.60573144]
 [ 0.          0.00654558  0.          0.          0.         -0.26681873  0.54580643  0.79426712]
 [ 0.         -0.00429152  0.          0.          0.         -0.92223994 -0.38384773 -0.04599993]]
detC 0.9998638778020738
detNg [ 1.00089298  1.02375256  1.13846091  1.4889662   2.43380784  4.89939501  9.46188705 11.99358856]
xg [0.99937987 0.97706452 0.87861805 0.67178979 0.41099066 0.20416241 0.10571594 0.08340058]
ciS 1.082780457316459
[[-0.76652891  0.          0.00846501  0.00587069 -0.05418592  0.          0.          0.        ]
 [ 0.         -0.76652891  0.          0.          0.         -0.01807497  0.00749017 -0.05156964]
 [ 0.00846501  0.          0.36578196 -0.05053723 -0.05486834  0.          0.          0.        ]
 [ 0.00587069  0.         -0.05053723  0.35713098 -0.05072291  0.          0.          0.        ]
 [-0.05418592  0.         -0.05486834 -0.05072291 -0.72941689  0.          0.          0.        ]
 [ 0.         -0.01807497  0.          0.          0.          0.25289861 -0.07387236 -0.38039894]
 [ 0.          0.00749017  0.          0.          0.         -0.07387236  0.3115033  -0.10586835]
 [ 0.         -0.05156964  0.          0.          0.         -0.38039894 -0.10586835 -0.57090587]]
ciH -1.3800318859041822
S2 = -0.000000
X(g)
[[ 2.         -0.          0.00001517  0.00001559  0.00026686  0.01105269  0.00381859  0.02749847]
 [ 0.          2.         -0.00169356 -0.0017394  -0.02978281  0.00009904  0.00003422  0.00024639]
 [ 0.00001517  0.00169356  0.          0.          0.          0.          0.          0.        ]
 [ 0.00001559  0.0017394   0.          0.          0.          0.          0.          0.        ]
 [ 0.00026686  0.02978281  0.          0.          0.          0.          0.          0.        ]
 [-0.01105269  0.00009904  0.          0.          0.          0.          0.          0.        ]
 [-0.00381859  0.00003422  0.          0.          0.          0.          0.          0.        ]
 [-0.02749847  0.00024639  0.          0.          0.          0.          0.          0.        ]]
X(g) int
[[ 2.         -0.          0.0144036   0.01479349  0.2533002   0.25706224  0.08881241  0.63955659]
 [ 0.          2.         -0.0393887  -0.04045489 -0.6926855   0.09400214  0.03247679  0.2338721 ]
 [ 0.0144036   0.0393887   0.          0.          0.          0.          0.          0.        ]
 [ 0.01479349  0.04045489  0.          0.          0.          0.          0.          0.        ]
 [ 0.2533002   0.6926855   0.          0.          0.          0.          0.          0.        ]
 [-0.25706224  0.09400214  0.          0.          0.          0.          0.          0.        ]
 [-0.08881241  0.03247679  0.          0.          0.          0.          0.          0.        ]
 [-0.63955659  0.2338721   0.          0.          0.          0.          0.          0.        ]]
Hsp + Hph =  -1.2745260376461034
Feff (mod,ortho)
[[-0.23107431  0.33133158  0.22366631  0.03846287  0.          0.          0.          0.        ]
 [ 0.33133158  0.00282105  0.07311671  0.33128461  0.          0.          0.          0.        ]
 [ 0.22366631  0.07311671  1.12079291  0.0507734   0.          0.          0.          0.        ]
 [ 0.03846287  0.33128461  0.0507734   1.11616172  0.          0.          0.          0.        ]
 [ 0.          0.          0.          0.         -0.23107431 -0.33133158  0.22366631 -0.03846287]
 [ 0.          0.          0.          0.         -0.33133158  0.00282105 -0.07311671  0.33128461]
 [ 0.          0.          0.          0.          0.22366631 -0.07311671  1.12079291 -0.0507734 ]
 [ 0.          0.          0.          0.         -0.03846287  0.33128461 -0.0507734   1.11616172]]
E(SUHF) =     -1.00993743
e_a, e_b
[-0.49472237  0.12148397  1.09880122  1.28313855] [-0.49472237  0.12148397  1.09880122  1.28313855]
P_a, P_b
[[ 0.63587176 -0.46878467 -0.06944056  0.08341347]
 [-0.46878467  0.34560281  0.05119376 -0.06149503]
 [-0.06944056  0.05119376  0.00758328 -0.00910919]
 [ 0.08341347 -0.06149503 -0.00910919  0.01094215]] 
 [[ 0.63587176  0.46878467 -0.06944056 -0.08341347]
 [ 0.46878467  0.34560281 -0.05119376 -0.06149503]
 [-0.06944056 -0.05119376  0.00758328  0.00910919]
 [-0.08341347 -0.06149503  0.00910919  0.01094215]]
**** Start Cycle 4 ****
dm (ortho)
[array([[ 0.63587176, -0.46878467, -0.06944056,  0.08341347],
       [-0.46878467,  0.34560281,  0.05119376, -0.06149503],
       [-0.06944056,  0.05119376,  0.00758328, -0.00910919],
       [ 0.08341347, -0.06149503, -0.00910919,  0.01094215]]), array([[ 0.63587176,  0.46878467, -0.06944056, -0.08341347],
       [ 0.46878467,  0.34560281, -0.05119376, -0.06149503],
       [-0.06944056, -0.05119376,  0.00758328,  0.00910919],
       [-0.08341347, -0.06149503,  0.00910919,  0.01094215]])]
Fock (ortho)
 (array([[-0.23624042,  0.32898181,  0.21724107,  0.02755998],
       [ 0.32898181,  0.00973392,  0.07886435,  0.33864865],
       [ 0.21724107,  0.07886435,  1.12246259,  0.05117492],
       [ 0.02755998,  0.33864865,  0.05117492,  1.11346788]]), array([[-0.23624042, -0.32898181,  0.21724107, -0.02755998],
       [-0.32898181,  0.00973392, -0.07886435,  0.33864865],
       [ 0.21724107, -0.07886435,  1.12246259, -0.05117492],
       [-0.02755998,  0.33864865, -0.05117492,  1.11346788]]))
E(UHF) =    -1.261193
NO eigenvalue
[-1. -0. -0.  0.] [-1. -0.  0.  0.]
NO vec
[[ 0.79741568  0.          0.59395052 -0.08797031  0.06010196  0.          0.          0.        ]
 [-0.58787993  0.          0.80427553  0.08215271 -0.02808893  0.          0.          0.        ]
 [-0.08708201  0.          0.01772567 -0.92392035 -0.37212055  0.          0.          0.        ]
 [ 0.10460475  0.          0.00703196  0.36315745 -0.92581049  0.          0.          0.        ]
 [ 0.          0.79741568  0.          0.          0.         -0.40882989 -0.00784515  0.44376211]
 [ 0.          0.58787993  0.          0.          0.          0.65505131 -0.13427651 -0.45527441]
 [ 0.         -0.08708201  0.          0.          0.         -0.07889234 -0.9908579   0.06628232]
 [ 0.         -0.10460475  0.          0.          0.          0.63050924  0.01043533  0.76902994]]
dm(NO)
[[ 1.  0. -0.  0.  0.  0.  0.  0.]
 [ 0.  1.  0.  0.  0.  0. -0. -0.]
 [-0.  0.  0. -0.  0.  0.  0.  0.]
 [-0.  0. -0.  0. -0.  0.  0.  0.]
 [ 0.  0. -0.  0. -0.  0.  0.  0.]
 [ 0.  0.  0.  0.  0. -0. -0.  0.]
 [ 0. -0.  0.  0.  0. -0.  0.  0.]
 [ 0. -0.  0.  0.  0.  0.  0. -0.]]
D(g) (NO)
[[ 0.99951369  0.00894678 -0.          0.          0.         -0.01990345  0.00499119  0.02170919]
 [-0.00894678  0.99951369 -0.02944206 -0.00064287 -0.00500997  0.         -0.         -0.        ]
 [-0.          0.02944206  0.99951369 -0.         -0.          0.00895121 -0.00405835 -0.00299392]
 [ 0.          0.00064287 -0.          0.99951369 -0.          0.0122127   0.02834313  0.00441553]
 [ 0.          0.00500997 -0.         -0.          0.99951369 -0.01862716  0.01129948 -0.02174037]
 [ 0.01990345  0.         -0.00895121 -0.0122127   0.01862716  0.99951369  0.          0.        ]
 [-0.00499119 -0.          0.00405835 -0.02834313 -0.01129948  0.          0.99951369  0.        ]
 [-0.02170919 -0.          0.00299392 -0.00441553  0.02174037  0.          0.          0.99951369]]
...
N(g) (NO)
[[ 1.0004064  -0.00895477]
 [ 0.00895477  1.0004064 ]]
...
P(g) (NO)
[[ 1.          0.         -0.          0.          0.          0.         -0.         -0.        ]
 [-0.          1.          0.         -0.          0.          0.         -0.         -0.        ]
 [ 0.00026365  0.02945403 -0.          0.          0.          0.         -0.         -0.        ]
 [ 0.00000576  0.00064313 -0.          0.          0.          0.         -0.         -0.        ]
 [ 0.00004486  0.00501201 -0.          0.          0.          0.         -0.         -0.        ]
 [ 0.01991154 -0.00017823 -0.          0.          0.         -0.          0.          0.        ]
 [-0.00499322  0.00004469  0.         -0.          0.          0.         -0.         -0.        ]
 [-0.02171801  0.0001944   0.         -0.          0.          0.         -0.         -0.        ]]
...
Pg_ortho
[[ 0.63599838 -0.46887802 -0.06945438  0.08343007  0.01414527  0.01042834 -0.00154474 -0.00185557]
 [-0.46861621  0.34547862  0.05117537 -0.06147293  0.01881997  0.01387468 -0.00205524 -0.0024688 ]
 [-0.06945438  0.05120396  0.00758479 -0.00911101 -0.00154474 -0.00113883  0.00016869  0.00020264]
 [ 0.08338349 -0.06147293 -0.00910592  0.01093822 -0.00334874 -0.0024688   0.0003657   0.00043929]
 [-0.01414527  0.01042834  0.00154474 -0.00185557  0.63599838  0.46887802 -0.06945438 -0.08343007]
 [ 0.01881997 -0.01387468 -0.00205524  0.0024688   0.46861621  0.34547862 -0.05117537 -0.06147293]
 [ 0.00154474 -0.00113883 -0.00016869  0.00020264 -0.06945438 -0.05120396  0.00758479  0.00911101]
 [-0.00334874  0.0024688   0.0003657  -0.00043929 -0.08338349 -0.06147293  0.00910592  0.01093822]]
G(g) (NO)
[[ 0.27183991 -0.00146996  0.04736926 -0.0077832   0.01588978 -0.00047313  0.00041693  0.00001842]
 [ 0.00146996  0.27183991 -0.00041417 -0.00046098  0.00011825 -0.02573725  0.00281738  0.04343463]
 [ 0.04730102 -0.01951846  0.95133156 -0.07729622 -0.16528096 -0.00349343  0.00498879 -0.00171722]
 [-0.00778913  0.00216426 -0.0772955   0.77668166  0.05504086  0.00119805 -0.00159987  0.00053954]
 [ 0.01588379  0.0015792  -0.16527522  0.05504087  0.7825988   0.00163176 -0.00241128  0.00138924]
 [-0.01571855 -0.02568693  0.00183879  0.00598612 -0.00168713  1.00700352  0.11286401 -0.0853117 ]
 [-0.00091662  0.00280381  0.00072178  0.00234692 -0.00074057  0.11286154  0.79399143 -0.05148277]
 [ 0.0118421   0.04338977 -0.00111658 -0.00217545  0.00034041 -0.08531673 -0.05148419  0.70961707]]
...
C(NO)
[[-0.99992169  0.          0.00465792 -0.00199305  0.0114435   0.          0.          0.        ]
 [ 0.         -0.99992169  0.          0.          0.          0.00465792 -0.00199305  0.0114435 ]
 [-0.00819469  0.         -0.94421546  0.01672325 -0.32880138  0.          0.          0.        ]
 [ 0.00066677  0.         -0.07188095  0.96414864  0.25544095  0.          0.          0.        ]
 [ 0.00943529  0.         -0.32135432 -0.26482779  0.90912519  0.          0.          0.        ]
 [ 0.          0.01196544  0.          0.          0.          0.54970461 -0.34139503  0.76231955]
 [ 0.          0.00344351  0.          0.          0.         -0.26752367  0.79265151  0.54783466]
 [ 0.          0.001262    0.          0.          0.         -0.79134962 -0.50512281  0.34440548]]
detC 0.9998433775782628
detNg [ 1.00089315  1.02375702  1.13848983  1.48909977  2.43444814  4.90290203  9.47659685 12.01782409]
xg [0.99942069 0.97710033 0.87863176 0.67175708 0.41089942 0.20402474 0.10555618 0.08323581]
ciS 1.0826565003079391
[[-0.76650982  0.         -0.05414926  0.01071206 -0.0003762   0.          0.          0.        ]
 [ 0.         -0.76650982  0.          0.          0.          0.03990117  0.0051103  -0.03779965]
 [-0.05414926  0.         -0.7027794  -0.00548282 -0.18738127  0.          0.          0.        ]
 [ 0.01071206  0.         -0.00548282  0.32926496 -0.03465382  0.          0.          0.        ]
 [-0.0003762   0.         -0.18738127 -0.03465382  0.3669914   0.          0.          0.        ]
 [ 0.          0.03990117  0.          0.          0.         -0.09528362  0.10861853  0.55799998]
 [ 0.          0.0051103   0.          0.          0.          0.10861853  0.29013808 -0.12154519]
 [ 0.         -0.03779965  0.          0.          0.          0.55799998 -0.12154519 -0.20137749]]
ciH -1.3798803677230262
S2 = 0.000000
X(g)
[[ 2.          0.          0.00026365  0.00000576  0.00004486 -0.01991154  0.00499322  0.02171801]
 [-0.          2.         -0.02945403 -0.00064313 -0.00501201 -0.00017823  0.00004469  0.0001944 ]
 [ 0.00026365  0.02945403  0.          0.          0.          0.          0.          0.        ]
 [ 0.00000576  0.00064313  0.          0.          0.          0.          0.          0.        ]
 [ 0.00004486  0.00501201  0.          0.          0.          0.          0.          0.        ]
 [ 0.01991154 -0.00017823  0.          0.          0.          0.          0.          0.        ]
 [-0.00499322  0.00004469  0.          0.          0.          0.          0.          0.        ]
 [-0.02171801  0.0001944   0.          0.          0.          0.          0.          0.        ]]
X(g) int
[[ 2.          0.          0.2502871   0.00546503  0.04258981 -0.46317248  0.11614976  0.50519364]
 [-0.          2.         -0.68514511 -0.01496018 -0.1165869  -0.16919934  0.04243012  0.18454989]
 [ 0.2502871   0.68514511  0.          0.          0.          0.          0.          0.        ]
 [ 0.00546503  0.01496018  0.          0.          0.          0.          0.          0.        ]
 [ 0.04258981  0.1165869   0.          0.          0.          0.          0.          0.        ]
 [ 0.46317248 -0.16919934  0.          0.          0.          0.          0.          0.        ]
 [-0.11614976  0.04243012  0.          0.          0.          0.          0.          0.        ]
 [-0.50519364  0.18454989  0.          0.          0.          0.          0.          0.        ]]
Hsp + Hph =  -1.2745320120745114
Feff (mod,ortho)
[[-0.23096635  0.33162784  0.22364806  0.03917349  0.          0.          0.          0.        ]
 [ 0.33162784  0.00296595  0.07342734  0.33094396  0.          0.          0.          0.        ]
 [ 0.22364806  0.07342734  1.12100033  0.05082268  0.          0.          0.          0.        ]
 [ 0.03917349  0.33094396  0.05082268  1.11642404  0.          0.          0.          0.        ]
 [ 0.          0.          0.          0.         -0.23096635 -0.33162784  0.22364806 -0.03917349]
 [ 0.          0.          0.          0.         -0.33162784  0.00296595 -0.07342734  0.33094396]
 [ 0.          0.          0.          0.          0.22364806 -0.07342734  1.12100033 -0.05082268]
 [ 0.          0.          0.          0.         -0.03917349  0.33094396 -0.05082268  1.11642404]]
E(SUHF) =     -1.00994341
e_a, e_b
[-0.4946835   0.12173214  1.09880533  1.28357   ] [-0.4946835   0.12173214  1.09880533  1.28357   ]
P_a, P_b
[[ 0.6360273  -0.46882242 -0.06934615  0.08302543]
 [-0.46882242  0.34557395  0.05111578 -0.06119892]
 [-0.06934615  0.05111578  0.00756082 -0.00905228]
 [ 0.08302543 -0.06119892 -0.00905228  0.01083793]] 
 [[ 0.6360273   0.46882242 -0.06934615 -0.08302543]
 [ 0.46882242  0.34557395 -0.05111578 -0.06119892]
 [-0.06934615 -0.05111578  0.00756082  0.00905228]
 [-0.08302543 -0.06119892  0.00905228  0.01083793]]
**** Start Cycle 5 ****
dm (ortho)
[array([[ 0.6360273 , -0.46882242, -0.06934615,  0.08302543],
       [-0.46882242,  0.34557395,  0.05111578, -0.06119892],
       [-0.06934615,  0.05111578,  0.00756082, -0.00905228],
       [ 0.08302543, -0.06119892, -0.00905228,  0.01083793]]), array([[ 0.6360273 ,  0.46882242, -0.06934615, -0.08302543],
       [ 0.46882242,  0.34557395, -0.05111578, -0.06119892],
       [-0.06934615, -0.05111578,  0.00756082,  0.00905228],
       [-0.08302543, -0.06119892,  0.00905228,  0.01083793]])]
Fock (ortho)
 (array([[-0.23618545,  0.32908835,  0.21723017,  0.02775662],
       [ 0.32908835,  0.00983155,  0.07901208,  0.3385999 ],
       [ 0.21723017,  0.07901208,  1.12256859,  0.0512157 ],
       [ 0.02775662,  0.3385999 ,  0.0512157 ,  1.11357422]]), array([[-0.23618545, -0.32908835,  0.21723017, -0.02775662],
       [-0.32908835,  0.00983155, -0.07901208,  0.3385999 ],
       [ 0.21723017, -0.07901208,  1.12256859, -0.0512157 ],
       [-0.02775662,  0.3385999 , -0.0512157 ,  1.11357422]]))
E(UHF) =    -1.261172
NO eigenvalue
[-1. -0. -0.  0.] [-1. -0.  0.  0.]
NO vec
[[ 0.7975132   0.         -0.09179942 -0.04766409 -0.59436832  0.          0.          0.        ]
 [-0.58785538  0.         -0.27089197  0.10335064 -0.7552233   0.          0.          0.        ]
 [-0.08695299  0.         -0.14466141 -0.98553451 -0.01529643  0.          0.          0.        ]
 [ 0.1041054   0.         -0.94723993  0.12557272  0.27591679  0.          0.          0.        ]
 [ 0.          0.7975132   0.          0.          0.          0.11623063 -0.03438646 -0.59099976]
 [ 0.          0.58785538  0.          0.          0.          0.06677135  0.0035018   0.8061981 ]
 [ 0.         -0.08695299  0.          0.          0.          0.47843609 -0.87337156  0.0275718 ]
 [ 0.         -0.1041054   0.          0.          0.          0.86783117  0.48582654  0.00192433]]
dm(NO)
[[ 1.  0. -0. -0. -0.  0.  0.  0.]
 [ 0.  1.  0.  0.  0. -0.  0.  0.]
 [-0.  0.  0.  0.  0.  0.  0.  0.]
 [-0.  0. -0.  0. -0.  0.  0.  0.]
 [-0.  0.  0.  0.  0.  0.  0.  0.]
 [ 0. -0.  0.  0.  0.  0.  0.  0.]
 [ 0. -0.  0.  0.  0. -0. -0. -0.]
 [ 0.  0.  0.  0.  0.  0. -0. -0.]]
D(g) (NO)
[[ 0.99951369  0.00895508 -0.         -0.         -0.          0.00318655  0.00302593 -0.0295447 ]
 [-0.00895508  0.99951369  0.00378143 -0.00297378  0.02947977  0.         -0.         -0.        ]
 [ 0.         -0.00378143  0.99951369 -0.          0.         -0.02868898 -0.0103417  -0.0052996 ]
 [-0.          0.00297378 -0.          0.99951369  0.         -0.01126271  0.02880535  0.00263683]
 [-0.         -0.02947977  0.          0.          0.99951369  0.00351185  0.00515149 -0.00802902]
 [-0.00318655  0.          0.02868898  0.01126271 -0.00351185  0.99951369  0.          0.        ]
 [-0.00302593 -0.          0.0103417  -0.02880535 -0.00515149  0.          0.99951369  0.        ]
 [ 0.0295447  -0.          0.0052996  -0.00263683  0.00802902  0.          0.          0.99951369]]
...
N(g) (NO)
[[ 1.00040625 -0.00896308]
 [ 0.00896308  1.00040625]]
...
P(g) (NO)
[[ 1.         -0.         -0.         -0.         -0.          0.         -0.         -0.        ]
 [-0.          1.          0.          0.          0.         -0.          0.          0.        ]
 [-0.00003389 -0.00378297  0.          0.          0.          0.         -0.         -0.        ]
 [ 0.00002665  0.00297499 -0.         -0.         -0.         -0.          0.          0.        ]
 [-0.00026423 -0.02949175  0.          0.          0.          0.         -0.         -0.        ]
 [-0.00318785  0.00002856  0.          0.          0.         -0.          0.          0.        ]
 [-0.00302716  0.00002712  0.          0.          0.         -0.          0.          0.        ]
 [ 0.0295567  -0.00026481 -0.         -0.         -0.          0.         -0.         -0.        ]]
...
Pg_ortho
[[ 0.63615402 -0.46891583 -0.06935997  0.08304197  0.01414345  0.01042528 -0.00154206 -0.00184625]
 [-0.46865376  0.34544962  0.05109739 -0.0611769   0.01882538  0.01387638 -0.00205253 -0.00245742]
 [-0.06935997  0.05112597  0.00756233 -0.00905408 -0.00154206 -0.00113667  0.00016813  0.0002013 ]
 [ 0.08299556 -0.0611769  -0.00904902  0.01083404 -0.00333385 -0.00245742  0.00036349  0.00043519]
 [-0.01414345  0.01042528  0.00154206 -0.00184625  0.63615402  0.46891583 -0.06935997 -0.08304197]
 [ 0.01882538 -0.01387638 -0.00205253  0.00245742  0.46865376  0.34544962 -0.05109739 -0.0611769 ]
 [ 0.00154206 -0.00113667 -0.00016813  0.0002013  -0.06935997 -0.05112597  0.00756233  0.00905408]
 [-0.00333385  0.00245742  0.00036349 -0.00043519 -0.08299556 -0.0611769   0.00904902  0.01083404]]
G(g) (NO)
[[ 0.27189064 -0.00147033  0.00326101 -0.00180548 -0.05045234 -0.00042341  0.00018372 -0.00043059]
 [ 0.00147033  0.27189064  0.00032985 -0.00043377  0.00031856  0.01694098  0.00540431 -0.04736169]
 [ 0.00327605  0.00649749  0.84983443  0.07353212  0.17562808  0.00389287 -0.00149856  0.00111479]
 [-0.00181532  0.00174207  0.07353132  0.79463205  0.09253441  0.00222241 -0.00090124  0.00085435]
 [-0.05038589  0.01852614  0.17563348  0.09253638  0.86645966  0.00454942 -0.00216609  0.00207026]
 [ 0.00101049  0.01694061 -0.00025606  0.0002643   0.00031238  0.72355088 -0.0092093   0.04151938]
 [-0.00342486  0.00539882 -0.00224807  0.00336762 -0.00026544 -0.00920909  0.84943179  0.18114248]
 [-0.01938348 -0.04729307 -0.00315548  0.00521523 -0.00097234  0.04152247  0.18114739  0.93794347]]
...
C(NO)
[[-0.99991842  0.          0.00447302 -0.00239896  0.01172126  0.          0.          0.        ]
 [ 0.         -0.99991842  0.          0.          0.          0.00447302 -0.00239896  0.01172126]
 [ 0.01139886  0.         -0.01773969 -0.46823452  0.88335259  0.          0.          0.        ]
 [ 0.00244973  0.         -0.18437369  0.86993931  0.45739036  0.          0.          0.        ]
 [ 0.00521686  0.          0.98268593  0.15477815  0.10170972  0.          0.          0.        ]
 [ 0.          0.00582879  0.          0.          0.         -0.16499405 -0.91287254  0.37337208]
 [ 0.          0.00818572  0.          0.          0.         -0.2540781   0.40516216  0.87819186]
 [ 0.          0.0078848   0.          0.          0.          0.95299594 -0.05001593  0.29872221]]
detC 0.9998368489174227
detNg [ 1.000893    1.02375297  1.13846357  1.48897851  2.43386681  4.89971785  9.46324015 11.99581695]
xg [0.99943389 0.97711695 0.87866349 0.67182057 0.41100293 0.20416    0.10570654 0.0833896 ]
ciS 1.0828234916194233
[[-0.7665247   0.          0.01303288  0.00798849  0.05304364  0.          0.          0.        ]
 [ 0.         -0.7665247   0.          0.          0.         -0.00890743  0.00891928  0.05374387]
 [ 0.01303288  0.          0.39251567 -0.0019206  -0.14078529  0.          0.          0.        ]
 [ 0.00798849  0.         -0.0019206   0.30967541  0.09430968  0.          0.          0.        ]
 [ 0.05304364  0.         -0.14078529  0.09430968 -0.70869924  0.          0.          0.        ]
 [ 0.         -0.00890743  0.          0.          0.          0.37404509  0.02824357  0.13260489]
 [ 0.          0.00891928  0.          0.          0.          0.02824357  0.32854154  0.10542963]
 [ 0.          0.05374387  0.          0.          0.          0.13260489  0.10542963 -0.7090948 ]]
ciH -1.3800945281443053
S2 = -0.000000
X(g)
[[ 2.         -0.         -0.00003389  0.00002665 -0.00026423  0.00318785  0.00302716 -0.0295567 ]
 [ 0.          2.          0.00378297 -0.00297499  0.02949175  0.00002856  0.00002712 -0.00026481]
 [-0.00003389 -0.00378297  0.          0.          0.          0.          0.          0.        ]
 [ 0.00002665  0.00297499  0.          0.          0.          0.          0.          0.        ]
 [-0.00026423 -0.02949175  0.          0.          0.          0.          0.          0.        ]
 [-0.00318785  0.00002856  0.          0.          0.          0.          0.          0.        ]
 [-0.00302716  0.00002712  0.          0.          0.          0.          0.          0.        ]
 [ 0.0295567  -0.00026481  0.          0.          0.          0.          0.          0.        ]]
X(g) int
[[ 2.          0.         -0.03217126  0.02530002 -0.25080475  0.07414365  0.07040643 -0.68743649]
 [-0.          2.          0.08798517 -0.06919302  0.6859258   0.02711019  0.0257437  -0.25135713]
 [-0.03217126 -0.08798517  0.          0.          0.          0.          0.          0.        ]
 [ 0.02530002  0.06919302  0.          0.          0.          0.          0.          0.        ]
 [-0.25080475 -0.6859258   0.          0.          0.          0.          0.          0.        ]
 [-0.07414365  0.02711019  0.          0.          0.          0.          0.          0.        ]
 [-0.07040643  0.0257437   0.          0.          0.          0.          0.          0.        ]
 [ 0.68743649 -0.25135713  0.          0.          0.          0.          0.          0.        ]]
Hsp + Hph =  -1.2745332354032113
Feff (mod,ortho)
[[-0.23087991  0.33175904  0.2236578   0.03951338  0.          0.          0.          0.        ]
 [ 0.33175904  0.0030117   0.07355663  0.33079299  0.          0.          0.          0.        ]
 [ 0.2236578   0.07355663  1.12110391  0.05084841  0.          0.          0.          0.        ]
 [ 0.03951338  0.33079299  0.05084841  1.11655321  0.          0.          0.          0.        ]
 [ 0.          0.          0.          0.         -0.23087991 -0.33175904  0.2236578  -0.03951338]
 [ 0.          0.          0.          0.         -0.33175904  0.0030117  -0.07355663  0.33079299]
 [ 0.          0.          0.          0.          0.2236578  -0.07355663  1.12110391 -0.05084841]
 [ 0.          0.          0.          0.         -0.03951338  0.33079299 -0.05084841  1.11655321]]
E(SUHF) =     -1.00994463
e_a, e_b
[-0.49464731  0.12183683  1.09881681  1.28378259] [-0.49464731  0.12183683  1.09881681  1.28378259]
P_a, P_b
[[ 0.63606354 -0.46884894 -0.0693091   0.08284703]
 [-0.46884894  0.34559335  0.05108845 -0.06106739]
 [-0.0693091   0.05108845  0.00755231 -0.00902748]
 [ 0.08284703 -0.06106739 -0.00902748  0.01079079]] 
 [[ 0.63606354  0.46884894 -0.0693091  -0.08284703]
 [ 0.46884894  0.34559335 -0.05108845 -0.06106739]
 [-0.0693091  -0.05108845  0.00755231  0.00902748]
 [-0.08284703 -0.06106739  0.00902748  0.01079079]]
**** Start Cycle 6 ****
dm (ortho)
[array([[ 0.63606354, -0.46884894, -0.0693091 ,  0.08284703],
       [-0.46884894,  0.34559335,  0.05108845, -0.06106739],
       [-0.0693091 ,  0.05108845,  0.00755231, -0.00902748],
       [ 0.08284703, -0.06106739, -0.00902748,  0.01079079]]), array([[ 0.63606354,  0.46884894, -0.0693091 , -0.08284703],
       [ 0.46884894,  0.34559335, -0.05108845, -0.06106739],
       [-0.0693091 , -0.05108845,  0.00755231,  0.00902748],
       [-0.08284703, -0.06106739,  0.00902748,  0.01079079]])]
Fock (ortho)
 (array([[-0.23615233,  0.32914213,  0.21722668,  0.02784648],
       [ 0.32914213,  0.00986679,  0.07907765,  0.33857766],
       [ 0.21722668,  0.07907765,  1.12261487,  0.05123463],
       [ 0.02784648,  0.33857766,  0.05123463,  1.11362148]]), array([[-0.23615233, -0.32914213,  0.21722668, -0.02784648],
       [-0.32914213,  0.00986679, -0.07907765,  0.33857766],
       [ 0.21722668, -0.07907765,  1.12261487, -0.05123463],
       [-0.02784648,  0.33857766, -0.05123463,  1.11362148]]))
E(UHF) =    -1.261161
NO eigenvalue
[-1. -0. -0.  0.] [-1. -0.  0.  0.]
NO vec
[[ 0.79753592  0.          0.60038203  0.02607601 -0.05289538  0.          0.          0.        ]
 [-0.58787189  0.          0.75686361 -0.02353189 -0.28462322  0.          0.          0.        ]
 [-0.08690405  0.          0.11146858  0.90507276  0.40108072  0.          0.          0.        ]
 [ 0.10387874  0.         -0.23296707  0.42380373 -0.8690949   0.          0.          0.        ]
 [ 0.          0.79753592  0.          0.          0.          0.04092357  0.0001274  -0.6018818 ]
 [ 0.          0.58787189  0.          0.          0.          0.17032405  0.02039996  0.7905569 ]
 [ 0.         -0.08690405  0.          0.          0.          0.69911226 -0.70646804 -0.06776901]
 [ 0.         -0.10387874  0.          0.          0.          0.69322221  0.70745087 -0.09036287]]
dm(NO)
[[ 1.  0. -0.  0.  0.  0.  0.  0.]
 [ 0.  1.  0.  0.  0.  0.  0.  0.]
 [-0.  0.  0. -0. -0.  0.  0.  0.]
 [ 0.  0. -0.  0.  0.  0.  0.  0.]
 [ 0.  0.  0.  0. -0.  0.  0.  0.]
 [ 0.  0.  0.  0.  0.  0.  0.  0.]
 [ 0.  0.  0.  0.  0.  0. -0.  0.]
 [ 0.  0.  0.  0.  0. -0.  0.  0.]]
D(g) (NO)
[[ 0.99951369  0.00895681 -0.          0.          0.         -0.0017536   0.00383532 -0.02956998]
 [-0.00895681  0.99951369 -0.02925854  0.00360839  0.0048048   0.          0.          0.        ]
 [-0.          0.02925854  0.99951369  0.         -0.          0.00218011 -0.00711119  0.00781084]
 [ 0.         -0.00360839  0.          0.99951369  0.          0.02880072 -0.01060421 -0.00417637]
 [ 0.         -0.0048048  -0.          0.          0.99951369 -0.01162256 -0.02818981 -0.00442244]
 [ 0.0017536  -0.         -0.00218011 -0.02880072  0.01162256  0.99951369  0.         -0.        ]
 [-0.00383532  0.          0.00711119  0.01060421  0.02818981  0.          0.99951369  0.        ]
 [ 0.02956998  0.         -0.00781084  0.00417637  0.00442244 -0.          0.          0.99951369]]
...
N(g) (NO)
[[ 1.00040622 -0.00896481]
 [ 0.00896481  1.00040622]]
...
P(g) (NO)
[[ 1.          0.         -0.          0.          0.          0.          0.          0.        ]
 [-0.          1.          0.         -0.         -0.          0.          0.          0.        ]
 [ 0.0002623   0.02927042 -0.          0.          0.          0.          0.          0.        ]
 [-0.00003235 -0.00360986  0.         -0.         -0.         -0.         -0.         -0.        ]
 [-0.00004307 -0.00480676  0.         -0.         -0.         -0.         -0.         -0.        ]
 [ 0.00175431 -0.00001572 -0.          0.          0.         -0.         -0.         -0.        ]
 [-0.00383688  0.00003438  0.         -0.         -0.          0.          0.          0.        ]
 [ 0.02958199 -0.00026509 -0.          0.          0.         -0.         -0.         -0.        ]]
...
Pg_ortho
[[ 0.63619028 -0.46894236 -0.06932291  0.08286354  0.01414315  0.01042506 -0.00154112 -0.00184214]
 [-0.46868023  0.34546899  0.05107006 -0.06104542  0.01882725  0.01387776 -0.00205152 -0.00245224]
 [-0.06932291  0.05109863  0.00755382 -0.00902928 -0.00154112 -0.00113597  0.00016793  0.00020073]
 [ 0.08281722 -0.06104542 -0.00902424  0.01078691 -0.00332683 -0.00245224  0.00036251  0.00043332]
 [-0.01414315  0.01042506  0.00154112 -0.00184214  0.63619028  0.46894236 -0.06932291 -0.08286354]
 [ 0.01882725 -0.01387776 -0.00205152  0.00245224  0.46868023  0.34546899 -0.05107006 -0.06104542]
 [ 0.00154112 -0.00113597 -0.00016793  0.00020073 -0.06932291 -0.05109863  0.00755382  0.00902928]
 [-0.00332683  0.00245224  0.00036251 -0.00043332 -0.08281722 -0.06104542  0.00902424  0.01078691]]
G(g) (NO)
[[ 0.27190694 -0.00147011  0.05014561 -0.00554909  0.00370587 -0.00051088  0.00006021 -0.00036553]
 [ 0.00147011  0.27190694 -0.0002965   0.00022492  0.00050963  0.0083083   0.01000443 -0.04888754]
 [ 0.05007956 -0.0189428   0.90252641  0.16898241 -0.1051566  -0.00563471  0.00086277 -0.00145589]
 [-0.00554175 -0.00295378  0.16897786  0.84038197 -0.04615475 -0.00379559  0.0003169  -0.00058852]
 [ 0.0037239   0.0045916  -0.10515317 -0.04615593  0.76816331  0.00230194 -0.00017418  0.00018528]
 [-0.00069139  0.00831865 -0.00023855  0.00003049 -0.00005407  0.73896201 -0.01615336  0.01652955]
 [-0.00298228  0.00999895 -0.00000547 -0.00162272 -0.00363986 -0.0161539   0.83425953  0.18929835]
 [-0.01947473 -0.04881969  0.00071445 -0.00286321 -0.00549361  0.01653115  0.18930392  0.93785016]]
...
C(NO)
[[-0.99991653  0.          0.00442074 -0.00257639  0.01186387  0.          0.          0.        ]
 [ 0.         -0.99991653  0.          0.          0.          0.00442074 -0.00257639  0.01186387]
 [-0.00598138  0.         -0.95972775 -0.20574986 -0.19119066  0.          0.          0.        ]
 [-0.00758793  0.          0.26823598 -0.46915    -0.84136209  0.          0.          0.        ]
 [ 0.0085778   0.          0.08338207 -0.85881234  0.5053862   0.          0.          0.        ]
 [ 0.          0.00455192  0.          0.          0.          0.04011512 -0.98719621  0.15431691]
 [ 0.          0.00959343  0.          0.          0.         -0.29153336  0.1361947   0.94676674]
 [ 0.          0.00736059  0.          0.          0.          0.95570892  0.08299408  0.28227339]]
detC 0.9998330676376797
detNg [ 1.00089297  1.02375213  1.1384581   1.48895323  2.43374564  4.89905446  9.46045993 11.99123848]
xg [0.99944148 0.97712515 0.87867437 0.67183705 0.4110265  0.20418919 0.10573841 0.08342207]
ciS 1.0828635528048802
[[-0.76652726  0.         -0.05415318 -0.00808768  0.00708412  0.          0.          0.        ]
 [ 0.         -0.76652726  0.          0.          0.         -0.0035152   0.00615301  0.0547535 ]
 [-0.05415318  0.         -0.695928    0.11391959  0.16509988  0.          0.          0.        ]
 [-0.00808768  0.          0.11391959  0.31872188 -0.05414708  0.          0.          0.        ]
 [ 0.00708412  0.          0.16509988 -0.05414708  0.37070052  0.          0.          0.        ]
 [ 0.         -0.0035152   0.          0.          0.          0.36250109  0.05424098 -0.04633041]
 [ 0.          0.00615301  0.          0.          0.          0.05424098  0.34660514  0.13385388]
 [ 0.          0.0547535   0.          0.          0.         -0.04633041  0.13385388 -0.71561184]]
ciH -1.3801458653390721
S2 = -0.000000
X(g)
[[ 2.          0.          0.0002623  -0.00003235 -0.00004307 -0.00175431  0.00383688 -0.02958199]
 [-0.          2.         -0.02927042  0.00360986  0.00480676 -0.00001572  0.00003438 -0.00026509]
 [ 0.0002623   0.02927042  0.          0.          0.          0.          0.          0.        ]
 [-0.00003235 -0.00360986  0.          0.          0.          0.          0.          0.        ]
 [-0.00004307 -0.00480676  0.          0.          0.          0.          0.          0.        ]
 [ 0.00175431 -0.00001572  0.          0.          0.          0.          0.          0.        ]
 [-0.00383688  0.00003438  0.          0.          0.          0.          0.          0.        ]
 [ 0.02958199 -0.00026509  0.          0.          0.          0.          0.          0.        ]]
X(g) int
[[ 2.          0.          0.2489633  -0.03070411 -0.04088447 -0.04080096  0.08923636 -0.68800452]
 [-0.          2.         -0.68075813  0.08395645  0.11179333 -0.01492152  0.03263505 -0.25161341]
 [ 0.2489633   0.68075813  0.          0.          0.          0.          0.          0.        ]
 [-0.03070411 -0.08395645  0.          0.          0.          0.          0.          0.        ]
 [-0.04088447 -0.11179333  0.          0.          0.          0.          0.          0.        ]
 [ 0.04080096 -0.01492152  0.          0.          0.          0.          0.          0.        ]
 [-0.08923636  0.03263505  0.          0.          0.          0.          0.          0.        ]
 [ 0.68800452 -0.25161341  0.          0.          0.          0.          0.          0.        ]]
Hsp + Hph =  -1.274533492021371
Feff (mod,ortho)
[[-0.23084662  0.3318197   0.2236593   0.0396671   0.          0.          0.          0.        ]
 [ 0.3318197   0.00303669  0.07361818  0.33072271  0.          0.          0.          0.        ]
 [ 0.2236593   0.07361818  1.12115     0.05085974  0.          0.          0.          0.        ]
 [ 0.0396671   0.33072271  0.05085974  1.11661073  0.          0.          0.          0.        ]
 [ 0.          0.          0.          0.         -0.23084662 -0.3318197   0.2236593  -0.0396671 ]
 [ 0.          0.          0.          0.         -0.3318197   0.00303669 -0.07361818  0.33072271]
 [ 0.          0.          0.          0.          0.2236593  -0.07361818  1.12115    -0.05085974]
 [ 0.          0.          0.          0.         -0.0396671   0.33072271 -0.05085974  1.11661073]]
E(SUHF) =     -1.00994489
e_a, e_b
[-0.4946335   0.12188633  1.09882037  1.28387761] [-0.4946335   0.12188633  1.09882037  1.28387761]
P_a, P_b
[[ 0.6360867  -0.46885933 -0.06929118  0.08276514]
 [-0.46885933  0.34559609  0.05107451 -0.06100616]
 [-0.06929118  0.05107451  0.00754813 -0.0090159 ]
 [ 0.08276514 -0.06100616 -0.0090159   0.01076908]] 
 [[ 0.6360867   0.46885933 -0.06929118 -0.08276514]
 [ 0.46885933  0.34559609 -0.05107451 -0.06100616]
 [-0.06929118 -0.05107451  0.00754813  0.0090159 ]
 [-0.08276514 -0.06100616  0.0090159   0.01076908]]
**** Start Cycle 7 ****
dm (ortho)
[array([[ 0.6360867 , -0.46885933, -0.06929118,  0.08276514],
       [-0.46885933,  0.34559609,  0.05107451, -0.06100616],
       [-0.06929118,  0.05107451,  0.00754813, -0.0090159 ],
       [ 0.08276514, -0.06100616, -0.0090159 ,  0.01076908]]), array([[ 0.6360867 ,  0.46885933, -0.06929118, -0.08276514],
       [ 0.46885933,  0.34559609, -0.05107451, -0.06100616],
       [-0.06929118, -0.05107451,  0.00754813,  0.0090159 ],
       [-0.08276514, -0.06100616,  0.0090159 ,  0.01076908]])]
Fock (ortho)
 (array([[-0.23613863,  0.32916581,  0.21722485,  0.02788777],
       [ 0.32916581,  0.00988473,  0.07910805,  0.33856741],
       [ 0.21722485,  0.07910805,  1.12263647,  0.05124326],
       [ 0.02788777,  0.33856741,  0.05124326,  1.11364339]]), array([[-0.23613863, -0.32916581,  0.21722485, -0.02788777],
       [-0.32916581,  0.00988473, -0.07910805,  0.33856741],
       [ 0.21722485, -0.07910805,  1.12263647, -0.05124326],
       [-0.02788777,  0.33856741, -0.05124326,  1.11364339]]))
E(UHF) =    -1.261156
NO eigenvalue
[-1. -0.  0.  0.] [-1. -0. -0.  0.]
NO vec
[[ 0.79755043  0.          0.60161148  0.0422981  -0.01370418  0.          0.          0.        ]
 [-0.58787421  0.          0.79026133 -0.11293636  0.13090578  0.          0.          0.        ]
 [-0.08688     0.          0.04968911  0.98244158  0.15745287  0.          0.          0.        ]
 [ 0.10377417  0.         -0.10526946 -0.14235448  0.97871572  0.          0.          0.        ]
 [ 0.          0.79755043  0.          0.          0.          0.60251055 -0.01435248 -0.02623637]
 [ 0.          0.58787421  0.          0.          0.         -0.78482268 -0.18995665 -0.04872101]
 [ 0.         -0.08688     0.          0.          0.          0.11512962 -0.86691843  0.47712627]
 [ 0.         -0.10377417  0.          0.          0.          0.08820184 -0.46061146 -0.8770909 ]]
dm(NO)
[[ 1.  0.  0. -0.  0.  0.  0.  0.]
 [ 0.  1.  0.  0.  0. -0. -0. -0.]
 [ 0.  0. -0.  0. -0.  0.  0.  0.]
 [ 0.  0.  0.  0.  0.  0.  0.  0.]
 [ 0.  0.  0.  0.  0.  0.  0.  0.]
 [ 0. -0.  0.  0.  0. -0. -0.  0.]
 [ 0.  0.  0.  0.  0.  0.  0. -0.]
 [ 0. -0.  0.  0.  0. -0. -0.  0.]]
D(g) (NO)
[[ 0.99951369  0.00895799 -0.          0.         -0.          0.02934528  0.00398341 -0.00389027]
 [-0.00895799  0.99951369 -0.02965515  0.00321933  0.00153479 -0.         -0.          0.        ]
 [-0.          0.02965515  0.99951369  0.          0.         -0.00814824 -0.00478158  0.00192564]
 [-0.         -0.00321933  0.          0.99951369 -0.          0.00669417 -0.02386391  0.01864754]
 [-0.         -0.00153479  0.         -0.          0.99951369 -0.00020402 -0.01908339 -0.02461341]
 [-0.02934528 -0.          0.00814824 -0.00669417  0.00020402  0.99951369  0.          0.        ]
 [-0.00398341 -0.          0.00478158  0.02386391  0.01908339  0.          0.99951369  0.        ]
 [ 0.00389027  0.         -0.00192564 -0.01864754  0.02461341  0.          0.          0.99951369]]
...
N(g) (NO)
[[ 1.0004062  -0.00896599]
 [ 0.00896599  1.0004062 ]]
...
P(g) (NO)
[[ 1.         -0.          0.         -0.          0.          0.          0.          0.        ]
 [-0.          1.         -0.          0.          0.         -0.         -0.         -0.        ]
 [ 0.00026589  0.02966719  0.         -0.          0.         -0.         -0.         -0.        ]
 [-0.00002886 -0.00322064 -0.          0.          0.          0.          0.          0.        ]
 [-0.00001376 -0.00153542 -0.          0.          0.          0.          0.          0.        ]
 [-0.0293572   0.00026311 -0.          0.          0.         -0.         -0.         -0.        ]
 [-0.00398503  0.00003572 -0.          0.          0.         -0.         -0.         -0.        ]
 [ 0.00389185 -0.00003488  0.         -0.          0.          0.          0.          0.        ]]
...
Pg_ortho
[[ 0.63621345 -0.46895277 -0.06930499  0.08278163  0.01414291  0.01042474 -0.00154064 -0.00184022]
 [-0.46869059  0.34547171  0.05105613 -0.0609842   0.01882823  0.01387828 -0.00205103 -0.00244986]
 [-0.06930499  0.05108469  0.00754964 -0.0090177  -0.00154064 -0.0011356   0.00016783  0.00020046]
 [ 0.08273535 -0.0609842  -0.00901266  0.0107652  -0.00332364 -0.00244986  0.00036206  0.00043246]
 [-0.01414291  0.01042474  0.00154064 -0.00184022  0.63621345  0.46895277 -0.06930499 -0.08278163]
 [ 0.01882823 -0.01387828 -0.00205103  0.00244986  0.46869059  0.34547171 -0.05105613 -0.0609842 ]
 [ 0.00154064 -0.0011356  -0.00016783  0.00020046 -0.06930499 -0.05108469  0.00754964  0.0090177 ]
 [-0.00332364  0.00244986  0.00036206 -0.00043246 -0.08273535 -0.0609842   0.00901266  0.0107652 ]]
G(g) (NO)
[[ 0.27191574 -0.00147008  0.04908812  0.00154177 -0.01213387  0.00034645  0.00052159  0.00007824]
 [ 0.00147008  0.27191574 -0.0003681   0.0004419  -0.00025969  0.04875257 -0.00311584 -0.01314266]
 [ 0.04902012 -0.01940276  0.92907688  0.09994189  0.16419071  0.00124145  0.00596309  0.00079667]
 [ 0.00155231 -0.00151019  0.0999399   0.79079077  0.05460216  0.0004229   0.00235553  0.00042899]
 [-0.01213677 -0.0031563   0.16418527  0.05460265  0.79127038  0.00018834  0.00326064  0.00072937]
 [ 0.01953546  0.04868531 -0.00153706  0.00544423 -0.0029221   0.94969847 -0.03083987  0.18454855]
 [ 0.00062111 -0.00313011  0.00030577 -0.00070337  0.00039024 -0.03083981  0.75256889 -0.0309999 ]
 [ 0.0025865  -0.01313872 -0.00040473  0.00308485 -0.00197065  0.18454278 -0.03100067  0.80887067]]
...
C(NO)
[[-0.9999157   0.          0.00439055 -0.00265925  0.01192674  0.          0.          0.        ]
 [ 0.         -0.9999157   0.          0.          0.          0.00439055 -0.00265925  0.01192674]
 [-0.00712603  0.         -0.96233736 -0.07755656 -0.26046303  0.          0.          0.        ]
 [-0.00207467  0.          0.1897349  -0.87795432 -0.43953678  0.          0.          0.        ]
 [-0.01065416  0.          0.19464887  0.47241309 -0.85954882  0.          0.          0.        ]
 [ 0.         -0.00751935  0.          0.          0.         -0.94314476 -0.11984568 -0.30993293]
 [ 0.         -0.00202264  0.          0.          0.         -0.16020081  0.98113857  0.10816065]
 [ 0.         -0.01039057  0.          0.          0.          0.29119474  0.15164781 -0.94451077]]
detC 0.9998314042069895
detNg [ 1.00089294  1.02375155  1.13845435  1.48893592  2.43366272  4.89860056  9.45855821 11.98810716]
xg [0.99944483 0.97712895 0.87868018 0.6718471  0.41104187 0.20420879 0.10576002 0.08344414]
ciS 1.0828889672450541
[[-0.76652914  0.         -0.05458821 -0.00728049 -0.00395527  0.          0.          0.        ]
 [ 0.         -0.76652914  0.          0.          0.         -0.05502164  0.00277162 -0.00366878]
 [-0.05458821  0.         -0.72148453  0.10087678  0.06126945  0.          0.          0.        ]
 [-0.00728049  0.          0.10087678  0.30861396 -0.02089393  0.          0.          0.        ]
 [-0.00395527  0.          0.06126945 -0.02089393  0.40636685  0.          0.          0.        ]
 [ 0.         -0.05502164  0.          0.          0.         -0.7009516  -0.12375326  0.13923996]
 [ 0.          0.00277162  0.          0.          0.         -0.12375326  0.32324317  0.05758587]
 [ 0.         -0.00366878  0.          0.          0.          0.13923996  0.05758587  0.37120471]]
ciH -1.3801783154274687
S2 = -0.000000
X(g)
[[ 2.         -0.          0.00026589 -0.00002886 -0.00001376  0.0293572   0.00398503 -0.00389185]
 [ 0.          2.         -0.02966719  0.00322064  0.00153542  0.00026311  0.00003572 -0.00003488]
 [ 0.00026589  0.02966719  0.          0.          0.          0.          0.          0.        ]
 [-0.00002886 -0.00322064  0.          0.          0.          0.          0.          0.        ]
 [-0.00001376 -0.00153542  0.          0.          0.          0.          0.          0.        ]
 [-0.0293572   0.00026311  0.          0.          0.          0.          0.          0.        ]
 [-0.00398503  0.00003572  0.          0.          0.          0.          0.          0.        ]
 [ 0.00389185 -0.00003488  0.          0.          0.          0.          0.          0.        ]]
X(g) int
[[ 2.         -0.          0.25236634 -0.02739665 -0.01306114  0.68276272  0.09268008 -0.09051296]
 [ 0.          2.         -0.68997214  0.07490271  0.0357093   0.2497294   0.03389895 -0.0331063 ]
 [ 0.25236634  0.68997214  0.          0.          0.          0.          0.          0.        ]
 [-0.02739665 -0.07490271  0.          0.          0.          0.          0.          0.        ]
 [-0.01306114 -0.0357093   0.          0.          0.          0.          0.          0.        ]
 [-0.68276272  0.2497294   0.          0.          0.          0.          0.          0.        ]
 [-0.09268008  0.03389895  0.          0.          0.          0.          0.          0.        ]
 [ 0.09051296 -0.0331063   0.          0.          0.          0.          0.          0.        ]]
Hsp + Hph =  -1.2745335460742013
Feff (mod,ortho)
[[-0.23083026  0.33184733  0.22366053  0.03973809  0.          0.          0.          0.        ]
 [ 0.33184733  0.00304751  0.07364597  0.33069056  0.          0.          0.          0.        ]
 [ 0.22366053  0.07364597  1.12117136  0.05086499  0.          0.          0.          0.        ]
 [ 0.03973809  0.33069056  0.05086499  1.11663735  0.          0.          0.          0.        ]
 [ 0.          0.          0.          0.         -0.23083026 -0.33184733  0.22366053 -0.03973809]
 [ 0.          0.          0.          0.         -0.33184733  0.00304751 -0.07364597  0.33069056]
 [ 0.          0.          0.          0.          0.22366053 -0.07364597  1.12117136 -0.05086499]
 [ 0.          0.          0.          0.         -0.03973809  0.33069056 -0.05086499  1.11663735]]
E(SUHF) =     -1.00994494
e_a, e_b
[-0.49462658  0.12190871  1.09882228  1.28392155] [-0.49462658  0.12190871  1.09882228  1.28392155]
P_a, P_b
[[ 0.63609632 -0.46886436 -0.06928317  0.08272751]
 [-0.46886436  0.34559828  0.05106838 -0.06097816]
 [-0.06928317  0.05106838  0.00754628 -0.00901062]
 [ 0.08272751 -0.06097816 -0.00901062  0.01075913]] 
 [[ 0.63609632  0.46886436 -0.06928317 -0.08272751]
 [ 0.46886436  0.34559828 -0.05106838 -0.06097816]
 [-0.06928317 -0.05106838  0.00754628  0.00901062]
 [-0.08272751 -0.06097816  0.00901062  0.01075913]]
**** Start Cycle 8 ****
dm (ortho)
[array([[ 0.63609632, -0.46886436, -0.06928317,  0.08272751],
       [-0.46886436,  0.34559828,  0.05106838, -0.06097816],
       [-0.06928317,  0.05106838,  0.00754628, -0.00901062],
       [ 0.08272751, -0.06097816, -0.00901062,  0.01075913]]), array([[ 0.63609632,  0.46886436, -0.06928317, -0.08272751],
       [ 0.46886436,  0.34559828, -0.05106838, -0.06097816],
       [-0.06928317, -0.05106838,  0.00754628,  0.00901062],
       [-0.08272751, -0.06097816,  0.00901062,  0.01075913]])]
Fock (ortho)
 (array([[-0.23613211,  0.32917682,  0.21722406,  0.02790672],
       [ 0.32917682,  0.00989269,  0.07912193,  0.3385627 ],
       [ 0.21722406,  0.07912193,  1.12264632,  0.05124723],
       [ 0.02790672,  0.3385627 ,  0.05124723,  1.11365339]]), array([[-0.23613211, -0.32917682,  0.21722406, -0.02790672],
       [-0.32917682,  0.00989269, -0.07912193,  0.3385627 ],
       [ 0.21722406, -0.07912193,  1.12264632, -0.05124723],
       [-0.02790672,  0.3385627 , -0.05124723,  1.11365339]]))
E(UHF) =    -1.261153
NO eigenvalue
[-1. -0.  0.  0.] [-1. -0. -0.  0.]
NO vec
[[ 0.79755647  0.          0.11743999  0.03379072  0.59073659  0.          0.          0.        ]
 [-0.58787607  0.         -0.06467481  0.00345982  0.80635409  0.          0.          0.        ]
 [-0.0868693   0.          0.48210881  0.87133122 -0.02840283  0.          0.          0.        ]
 [ 0.10372621  0.         -0.86579219  0.48951825  0.00407956  0.          0.          0.        ]
 [ 0.          0.79755647  0.          0.          0.          0.59664041 -0.08899176  0.00208925]
 [ 0.          0.58787607  0.          0.          0.         -0.79907965 -0.08661119  0.09149832]
 [ 0.         -0.0868693   0.          0.          0.         -0.01619173 -0.89724729 -0.43259548]
 [ 0.         -0.10372621  0.          0.          0.          0.07231711 -0.4237054   0.89693079]]
dm(NO)
[[ 1.  0.  0. -0. -0.  0.  0.  0.]
 [ 0.  1.  0.  0.  0. -0.  0. -0.]
 [ 0.  0.  0.  0.  0.  0.  0.  0.]
 [ 0.  0.  0. -0.  0.  0.  0.  0.]
 [-0.  0.  0. -0. -0.  0.  0.  0.]
 [ 0. -0.  0.  0.  0. -0.  0.  0.]
 [ 0.  0.  0.  0.  0.  0. -0.  0.]
 [ 0. -0.  0.  0.  0. -0.  0.  0.]]
D(g) (NO)
[[ 0.99951369  0.00895848  0.          0.          0.          0.02976507  0.00043453  0.00244761]
 [-0.00895848  0.99951369 -0.00322962  0.00303986 -0.02953756 -0.          0.         -0.        ]
 [ 0.          0.00322962  0.99951369 -0.          0.          0.0016007  -0.0022009  -0.0308959 ]
 [-0.         -0.00303986 -0.          0.99951369  0.          0.00120643 -0.0309499   0.00194949]
 [ 0.          0.02953756  0.          0.          0.99951369 -0.00907834 -0.00307635  0.00283643]
 [-0.02976507 -0.         -0.0016007  -0.00120643  0.00907834  0.99951369 -0.          0.        ]
 [-0.00043453  0.          0.0022009   0.0309499   0.00307635 -0.          0.99951369  0.        ]
 [-0.00244761 -0.          0.0308959  -0.00194949 -0.00283643 -0.          0.          0.99951369]]
...
N(g) (NO)
[[ 1.00040619 -0.00896648]
 [ 0.00896648  1.00040619]]
...
P(g) (NO)
[[ 1.          0.          0.         -0.         -0.         -0.         -0.         -0.        ]
 [-0.          1.         -0.          0.          0.         -0.          0.         -0.        ]
 [ 0.00002896  0.00323093  0.         -0.         -0.         -0.          0.         -0.        ]
 [-0.00002726 -0.00304109 -0.          0.          0.          0.         -0.          0.        ]
 [ 0.00026485  0.02954956  0.         -0.         -0.         -0.          0.         -0.        ]
 [-0.02977716  0.00026689 -0.          0.          0.         -0.          0.         -0.        ]
 [-0.0004347   0.0000039  -0.          0.          0.         -0.          0.         -0.        ]
 [-0.0024486   0.00002195 -0.          0.          0.         -0.          0.         -0.        ]]
...
Pg_ortho
[[ 0.63622308 -0.4689578  -0.06929698  0.082744    0.01414282  0.01042462 -0.00154043 -0.00183934]
 [-0.46869561  0.34547389  0.05105    -0.06095621  0.01882865  0.01387854 -0.0020508  -0.00244876]
 [-0.06929698  0.05107856  0.00754778 -0.00901242 -0.00154043 -0.00113544  0.00016778  0.00020034]
 [ 0.08269773 -0.06095621 -0.00900738  0.01075525 -0.00332217 -0.00244876  0.00036185  0.00043207]
 [-0.01414282  0.01042462  0.00154043 -0.00183934  0.63622308  0.4689578  -0.06929698 -0.082744  ]
 [ 0.01882865 -0.01387854 -0.0020508   0.00244876  0.46869561  0.34547389 -0.05105    -0.06095621]
 [ 0.00154043 -0.00113544 -0.00016778  0.00020034 -0.06929698 -0.05107856  0.00754778  0.00901242]
 [-0.00332217  0.00244876  0.00036185 -0.00043207 -0.08269773 -0.06095621  0.00900738  0.01075525]]
G(g) (NO)
[[ 0.27191958 -0.00147005  0.01703207 -0.00554229  0.04731247  0.00040432  0.00046906 -0.00012121]
 [ 0.00147005  0.27191958  0.0004225   0.0001825  -0.00043171  0.04856278 -0.00858609  0.01127889]
 [ 0.01703161 -0.001065    0.7234401   0.01016055 -0.04027375  0.00024626 -0.00033271  0.0002068 ]
 [-0.00553679 -0.00342308  0.01016033  0.84934319  0.18137531  0.00091517  0.00381739 -0.00103587]
 [ 0.04724381 -0.01938795 -0.04027682  0.18138026  0.93838521  0.00190244  0.00575277 -0.00120033]
 [ 0.01931603  0.04849416  0.00509855  0.00234549 -0.0022079   0.92163927 -0.06070228 -0.18188684]
 [-0.0019815  -0.00859194 -0.00153514 -0.0006775   0.00074094 -0.06070193  0.76896893  0.05906909]
 [-0.00342182  0.01127852 -0.00354101 -0.00129027  0.00095499 -0.18188103  0.05906915  0.8205603 ]]
...
C(NO)
[[-0.9999153   0.          0.00437761 -0.00269702  0.01195607  0.          0.          0.        ]
 [ 0.         -0.9999153   0.          0.          0.          0.00437761 -0.00269702  0.01195607]
 [ 0.0061508   0.         -0.16611384 -0.91446629  0.36894412  0.          0.          0.        ]
 [-0.00831915  0.          0.25508433 -0.40129846 -0.87967171  0.          0.          0.        ]
 [-0.00789585  0.         -0.95253295  0.05199689 -0.29985823  0.          0.          0.        ]
 [ 0.         -0.00720052  0.          0.          0.         -0.96858004 -0.00442709 -0.24855837]
 [ 0.         -0.00056603  0.          0.          0.         -0.05411819  0.97961514  0.19345564]
 [ 0.          0.01082669  0.          0.          0.         -0.24270305 -0.20081661  0.94902619]]
detC 0.9998306147630794
detNg [ 1.00089294  1.02375131  1.13845282  1.48892884  2.43362878  4.8984148   9.45778007 11.98682602]
xg [0.99944642 0.97713072 0.87868275 0.67185135 0.41104825 0.20421685 0.10576889 0.08345319]
ciS 1.0828996043944659
[[-0.76652988  0.         -0.00863929 -0.00899598 -0.05378801  0.          0.          0.        ]
 [ 0.         -0.76652988  0.          0.          0.         -0.05401788  0.009844    0.00582059]
 [-0.00863929  0.          0.3731953  -0.02814535 -0.13464231  0.          0.          0.        ]
 [-0.00899598  0.         -0.02814535  0.32871175  0.10638583  0.          0.          0.        ]
 [-0.05378801  0.         -0.13464231  0.10638583 -0.70841004  0.          0.          0.        ]
 [ 0.         -0.05401788  0.          0.          0.         -0.72706228 -0.00037893 -0.09276396]
 [ 0.          0.009844    0.          0.          0.         -0.00037893  0.33405594 -0.03768207]
 [ 0.          0.00582059  0.          0.          0.         -0.09276396 -0.03768207  0.38650336]]
ciH -1.3801918851719412
S2 = 0.000000
X(g)
[[ 2.          0.          0.00002896 -0.00002726  0.00026485  0.02977716  0.0004347   0.0024486 ]
 [-0.          2.         -0.00323093  0.00304109 -0.02954956  0.00026689  0.0000039   0.00002195]
 [ 0.00002896  0.00323093  0.          0.          0.          0.          0.          0.        ]
 [-0.00002726 -0.00304109  0.          0.          0.          0.          0.          0.        ]
 [ 0.00026485  0.02954956  0.          0.          0.          0.          0.          0.        ]
 [-0.02977716  0.00026689  0.          0.          0.          0.          0.          0.        ]
 [-0.0004347   0.0000039   0.          0.          0.          0.          0.          0.        ]
 [-0.0024486   0.00002195  0.          0.          0.          0.          0.          0.        ]]
X(g) int
[[ 2.          0.          0.02748543 -0.0258705   0.25137721  0.69252388  0.01010981  0.0569468 ]
 [-0.          2.         -0.07514139  0.07072639 -0.68723069  0.25331337  0.00369799  0.02083016]
 [ 0.02748543  0.07514139  0.          0.          0.          0.          0.          0.        ]
 [-0.0258705  -0.07072639  0.          0.          0.          0.          0.          0.        ]
 [ 0.25137721  0.68723069  0.          0.          0.          0.          0.          0.        ]
 [-0.69252388  0.25331337  0.          0.          0.          0.          0.          0.        ]
 [-0.01010981  0.00369799  0.          0.          0.          0.          0.          0.        ]
 [-0.0569468   0.02083016  0.          0.          0.          0.          0.          0.        ]]
Hsp + Hph =  -1.2745335574701908
Feff (mod,ortho)
[[-0.23082295  0.33186002  0.22366101  0.03977063  0.          0.          0.          0.        ]
 [ 0.33186002  0.0030526   0.07365878  0.33067577  0.          0.          0.          0.        ]
 [ 0.22366101  0.07365878  1.12118112  0.05086738  0.          0.          0.          0.        ]
 [ 0.03977063  0.33067577  0.05086738  1.11664951  0.          0.          0.          0.        ]
 [ 0.          0.          0.          0.         -0.23082295 -0.33186002  0.22366101 -0.03977063]
 [ 0.          0.          0.          0.         -0.33186002  0.0030526  -0.07365878  0.33067577]
 [ 0.          0.          0.          0.          0.22366101 -0.07365878  1.12118112 -0.05086738]
 [ 0.          0.          0.          0.         -0.03977063  0.33067577 -0.05086738  1.11664951]]
E(SUHF) =     -1.00994495
e_a, e_b
[-0.49462348  0.12191902  1.09882311  1.28394163] [-0.49462348  0.12191902  1.09882311  1.28394163]
P_a, P_b
[[ 0.63610094 -0.46886662 -0.06927947  0.08271023]
 [-0.46886662  0.34559909  0.05106553 -0.06096527]
 [-0.06927947  0.05106553  0.00754541 -0.00900819]
 [ 0.08271023 -0.06096527 -0.00900819  0.01075455]] 
 [[ 0.63610094  0.46886662 -0.06927947 -0.08271023]
 [ 0.46886662  0.34559909 -0.05106553 -0.06096527]
 [-0.06927947 -0.05106553  0.00754541  0.00900819]
 [-0.08271023 -0.06096527  0.00900819  0.01075455]]
**** Start Cycle 9 ****
dm (ortho)
[array([[ 0.63610094, -0.46886662, -0.06927947,  0.08271023],
       [-0.46886662,  0.34559909,  0.05106553, -0.06096527],
       [-0.06927947,  0.05106553,  0.00754541, -0.00900819],
       [ 0.08271023, -0.06096527, -0.00900819,  0.01075455]]), array([[ 0.63610094,  0.46886662, -0.06927947, -0.08271023],
       [ 0.46886662,  0.34559909, -0.05106553, -0.06096527],
       [-0.06927947, -0.05106553,  0.00754541,  0.00900819],
       [-0.08271023, -0.06096527,  0.00900819,  0.01075455]])]
Fock (ortho)
 (array([[-0.23612917,  0.32918184,  0.21722369,  0.02791542],
       [ 0.32918184,  0.0098964 ,  0.07912832,  0.33856053],
       [ 0.21722369,  0.07912832,  1.12265085,  0.05124904],
       [ 0.02791542,  0.33856053,  0.05124904,  1.11365799]]), array([[-0.23612917, -0.32918184,  0.21722369, -0.02791542],
       [-0.32918184,  0.0098964 , -0.07912832,  0.33856053],
       [ 0.21722369, -0.07912832,  1.12265085, -0.05124904],
       [-0.02791542,  0.33856053, -0.05124904,  1.11365799]]))
E(UHF) =    -1.261152
NO eigenvalue
[-1. -0. -0.  0.] [-1. -0. -0.  0.]
NO vec
[[ 0.79755937  0.         -0.0886019   0.00639909  0.5966639   0.          0.          0.        ]
 [-0.58787676  0.         -0.32563744 -0.05976013  0.73809884  0.          0.          0.        ]
 [-0.08686435  0.          0.34442652  0.92144349  0.15737488  0.          0.          0.        ]
 [ 0.10370417  0.         -0.87605955  0.38383548 -0.27282859  0.          0.          0.        ]
 [ 0.          0.79755937  0.          0.          0.         -0.60305351 -0.01100089 -0.01022283]
 [ 0.          0.58787676  0.          0.          0.          0.78057428  0.026596   -0.2107068 ]
 [ 0.         -0.08686435  0.          0.          0.         -0.09017562 -0.7327307  -0.66890108]
 [ 0.         -0.10370417  0.          0.          0.         -0.13747223  0.67990981 -0.71278993]]
dm(NO)
[[ 1.  0. -0. -0.  0.  0.  0.  0.]
 [ 0.  1.  0.  0.  0. -0. -0. -0.]
 [-0.  0.  0. -0. -0.  0.  0.  0.]
 [-0.  0. -0.  0.  0.  0.  0.  0.]
 [ 0.  0. -0.  0.  0.  0.  0.  0.]
 [ 0. -0.  0.  0.  0.  0. -0. -0.]
 [ 0. -0.  0.  0.  0. -0.  0.  0.]
 [ 0.  0.  0.  0.  0.  0. -0. -0.]]
D(g) (NO)
[[ 0.99951369  0.00895871 -0.          0.          0.         -0.02950793  0.00342232  0.00311522]
 [-0.00895871  0.99951369  0.00627304  0.00467355 -0.02882605  0.          0.         -0.        ]
 [-0.         -0.00627304  0.99951369  0.          0.         -0.00347311 -0.02668346  0.01445588]
 [-0.         -0.00467355  0.          0.99951369  0.         -0.00581145 -0.01296773 -0.02736085]
 [ 0.          0.02882605  0.          0.          0.99951369  0.00747261 -0.00897283 -0.00225831]
 [ 0.02950793  0.          0.00347311  0.00581145 -0.00747261  0.99951369  0.          0.        ]
 [-0.00342232  0.          0.02668346  0.01296773  0.00897283 -0.          0.99951369 -0.        ]
 [-0.00311522 -0.         -0.01445588  0.02736085  0.00225831 -0.         -0.          0.99951369]]
...
N(g) (NO)
[[ 1.00040618 -0.00896671]
 [ 0.00896671  1.00040618]]
...
P(g) (NO)
[[ 1.         -0.         -0.         -0.          0.          0.          0.          0.        ]
 [ 0.          1.         -0.         -0.          0.         -0.         -0.         -0.        ]
 [-0.00005625 -0.00627559  0.          0.         -0.          0.          0.          0.        ]
 [-0.00004191 -0.00467545  0.          0.         -0.          0.          0.          0.        ]
 [ 0.00025847  0.02883776 -0.         -0.          0.         -0.         -0.         -0.        ]
 [ 0.02951991 -0.00026459 -0.         -0.          0.          0.          0.          0.        ]
 [-0.00342371  0.00003069  0.          0.         -0.         -0.         -0.         -0.        ]
 [-0.00311649  0.00002793  0.          0.         -0.         -0.         -0.         -0.        ]]
...
Pg_ortho
[[ 0.63622771 -0.46896005 -0.06929328  0.08272671  0.01414277  0.01042456 -0.00154033 -0.00183894]
 [-0.46869785  0.34547469  0.05104715 -0.06094333  0.01882886  0.01387865 -0.0020507  -0.00244826]
 [-0.06929328  0.05107571  0.00754692 -0.00900999 -0.00154033 -0.00113537  0.00016776  0.00020028]
 [ 0.08268046 -0.06094333 -0.00900495  0.01075068 -0.0033215  -0.00244826  0.00036175  0.00043188]
 [-0.01414277  0.01042456  0.00154033 -0.00183894  0.63622771  0.46896005 -0.06929328 -0.08272671]
 [ 0.01882886 -0.01387865 -0.0020507   0.00244826  0.46869785  0.34547469 -0.05104715 -0.06094333]
 [ 0.00154033 -0.00113537 -0.00016776  0.00020028 -0.06929328 -0.05107571  0.00754692  0.00900999]
 [-0.0033215   0.00244826  0.00036175 -0.00043188 -0.08268046 -0.06094333  0.00900495  0.01075068]]
G(g) (NO)
[[ 0.27192139 -0.00147004  0.00113377 -0.00677439  0.05012106 -0.00034067  0.00007346  0.00052605]
 [ 0.00147004  0.27192139  0.00051256  0.00025987 -0.00026063 -0.04940993  0.0089365  -0.00617215]
 [ 0.00115515  0.00582384  0.78685395 -0.05564067 -0.12244434  0.00016254 -0.00033965 -0.00282443]
 [-0.00676426 -0.00217806 -0.05563915  0.82625247  0.15817829 -0.00036575  0.00040407  0.00352058]
 [ 0.05005637 -0.01871092 -0.12244797  0.15818258  0.89807606 -0.00119092  0.00104197  0.00561603]
 [-0.0193621  -0.04934258 -0.00529018 -0.00313414  0.00033621  0.92900471  0.19052461 -0.03340042]
 [-0.00326782  0.00893173 -0.00362192 -0.00186241 -0.00024489  0.19051913  0.84137941  0.0025708 ]
 [ 0.00178608 -0.00618575  0.00044123  0.0001916   0.00023321 -0.03339861  0.00257001  0.74079836]]
...
C(NO)
[[-0.99991512  0.          0.00437147 -0.0027144   0.01196947  0.          0.          0.        ]
 [ 0.         -0.99991512  0.          0.          0.          0.00437147 -0.0027144   0.01196947]
 [ 0.00947044  0.          0.12345539 -0.81895481  0.56034106  0.          0.          0.        ]
 [-0.00698466  0.          0.29911424 -0.507753   -0.80787918  0.          0.          0.        ]
 [-0.00559206  0.         -0.94618726 -0.26738091 -0.18222473  0.          0.          0.        ]
 [ 0.          0.00691455  0.          0.          0.          0.95751249  0.1298951   0.25738934]
 [ 0.          0.0096242   0.          0.          0.         -0.2776153   0.17378278  0.94479451]
 [ 0.         -0.00541384  0.          0.          0.         -0.0779773   0.97617593 -0.20241244]]
detC 0.9998302538818095
detNg [ 1.00089293  1.0237512   1.13845208  1.48892541  2.43361234  4.89832484  9.45740322 11.9862056 ]
xg [0.99944714 0.97713153 0.87868396 0.67185338 0.41105133 0.20422075 0.10577318 0.08345757]
ciS 1.0829047100286522
[[-0.76653025  0.          0.01079863 -0.00621202 -0.05379222  0.          0.          0.        ]
 [ 0.         -0.76653025  0.          0.          0.          0.05473687  0.00725042  0.00033144]
 [ 0.01079863  0.          0.35479477 -0.0640777   0.21713438  0.          0.          0.        ]
 [-0.00621202  0.         -0.0640777   0.3054938   0.14718129  0.          0.          0.        ]
 [-0.05379222  0.          0.21713438  0.14718129 -0.66679118  0.          0.          0.        ]
 [ 0.          0.05473687  0.          0.          0.         -0.71257506  0.11577999  0.09698367]
 [ 0.          0.00725042  0.          0.          0.          0.11577999  0.34666132 -0.05878862]
 [ 0.          0.00033144  0.          0.          0.          0.09698367 -0.05878862  0.35941111]]
ciH -1.3801983950766035
S2 = -0.000000
X(g)
[[ 2.         -0.         -0.00005625 -0.00004191  0.00025847 -0.02951991  0.00342371  0.00311649]
 [ 0.          2.          0.00627559  0.00467545 -0.02883776 -0.00026459  0.00003069  0.00002793]
 [-0.00005625 -0.00627559  0.          0.          0.          0.          0.          0.        ]
 [-0.00004191 -0.00467545  0.          0.          0.          0.          0.          0.        ]
 [ 0.00025847  0.02883776  0.          0.          0.          0.          0.          0.        ]
 [ 0.02951991 -0.00026459  0.          0.          0.          0.          0.          0.        ]
 [-0.00342371  0.00003069  0.          0.          0.          0.          0.          0.        ]
 [-0.00311649  0.00002793  0.          0.          0.          0.          0.          0.        ]]
X(g) int
[[ 2.         -0.         -0.05338746 -0.03977477  0.24532742 -0.68653842  0.0796244   0.07247956]
 [ 0.          2.          0.14595014  0.10873591 -0.67067384 -0.25113057  0.029126    0.02651248]
 [-0.05338746 -0.14595014  0.          0.          0.          0.          0.          0.        ]
 [-0.03977477 -0.10873591  0.          0.          0.          0.          0.          0.        ]
 [ 0.24532742  0.67067384  0.          0.          0.          0.          0.          0.        ]
 [ 0.68653842 -0.25113057  0.          0.          0.          0.          0.          0.        ]
 [-0.0796244   0.029126    0.          0.          0.          0.          0.          0.        ]
 [-0.07247956  0.02651248  0.          0.          0.          0.          0.          0.        ]]
Hsp + Hph =  -1.2745335598735046
Feff (mod,ortho)
[[-0.23081955  0.33186584  0.22366125  0.03978558  0.          0.          0.          0.        ]
 [ 0.33186584  0.00305492  0.07366466  0.33066897  0.          0.          0.          0.        ]
 [ 0.22366125  0.07366466  1.1211856   0.05086848  0.          0.          0.          0.        ]
 [ 0.03978558  0.33066897  0.05086848  1.1166551   0.          0.          0.          0.        ]
 [ 0.          0.          0.          0.         -0.23081955 -0.33186584  0.22366125 -0.03978558]
 [ 0.          0.          0.          0.         -0.33186584  0.00305492 -0.07366466  0.33066897]
 [ 0.          0.          0.          0.          0.22366125 -0.07366466  1.1211856  -0.05086848]
 [ 0.          0.          0.          0.         -0.03978558  0.33066897 -0.05086848  1.1166551 ]]
E(SUHF) =     -1.00994495
e_a, e_b
[-0.49462203  0.12192374  1.0988235   1.28395086] [-0.49462203  0.12192374  1.0988235   1.28395086]
P_a, P_b
[[ 0.63610304 -0.46886766 -0.06927778  0.08270229]
 [-0.46886766  0.34559949  0.05106423 -0.06095936]
 [-0.06927778  0.05106423  0.00754502 -0.00900708]
 [ 0.08270229 -0.06095936 -0.00900708  0.01075246]] 
 [[ 0.63610304  0.46886766 -0.06927778 -0.08270229]
 [ 0.46886766  0.34559949 -0.05106423 -0.06095936]
 [-0.06927778 -0.05106423  0.00754502  0.00900708]
 [-0.08270229 -0.06095936  0.00900708  0.01075246]]

***************
SCF converged at cycle 8
Final E(SUHF) =     -1.00994495, delta E = -2.40331e-09
***** Start DFT Correlation for SUHF+DFT **********
tot grids = 20048
E(SUHF) =     -1.00994495
E_c(TPSS) =     -0.00624037
E(SUHF+DFT) =     -1.01618532
