

#INFO: **** input file is /share/home/srwang/ExSCF/test/pytest/scan_h2/scan_dft.py ****
#import phf
from pyscf import gto, scf
#import scipy
import numpy as np
import sys, os, contextlib

from pyphf import util, sudft

#xyz = 'h2.xyz' #sys.argv[1]
fch = 'test_uhf.fchk' #sys.argv[2]
#bas = '../h2.bas'
bas = 'cc-pvtz'

for r in np.arange(0.5, 2.6, 0.1):
    output = 'sudft_%.1f.out' % r
    os.system("echo '\n' > %s" % output)
    with open(output, 'a', encoding='utf-8') as f:
        with contextlib.redirect_stdout(f):
            xyz = '''H 0.0 0.0 0.0; H 0.0 0.0 %f'''%r
            mf = util.guess_from_fchk(xyz, bas, fch)
            #mf = util.guess(xyz, bas)
            #f.flush()
            mf2 = util.SUHF(mf)
            mf2.cut_no = False
            mf2.debug = False
            mf2.max_cycle = 50
            #mf2.output = 'sudft_%.1f.out'%r
            #mf2.kernel()
            
            mf3 = sudft.SUDFT(mf2)
            mf3.kernel()
                    #INFO: ******************** input file end ********************


System: uname_result(system='Linux', node='xc02n18', release='3.10.0-693.el7.x86_64', version='#1 SMP Thu Jul 6 19:56:57 EDT 2017', machine='x86_64', processor='x86_64')  Threads 24
Python 3.7.4 (default, Aug 13 2019, 20:35:49) 
[GCC 7.3.0]
numpy 1.17.2  scipy 1.4.1
Date: Fri Nov 20 22:48:32 2020
PySCF version 1.7.3
PySCF path  /share/apps/Python/Anaconda3-2019/lib/python3.7/site-packages/pyscf

[CONFIG] conf_file None
[INPUT] verbose = 4
[INPUT] num. atoms = 2
[INPUT] num. electrons = 2
[INPUT] charge = 0
[INPUT] spin (= nelec alpha-beta = 2S) = 0
[INPUT] symmetry False subgroup None
[INPUT] Mole.unit = angstrom
[INPUT]  1 H      0.000000000000   0.000000000000   0.000000000000 AA    0.000000000000   0.000000000000   0.000000000000 Bohr
[INPUT]  2 H      0.000000000000   0.000000000000   0.800000000000 AA    0.000000000000   0.000000000000   1.511780899652 Bohr

nuclear repulsion = 0.66147151365
number of shells = 12
number of NR pGTOs = 32
number of NR cGTOs = 28
basis = cc-pvtz
ecp = {}
CPU time:       831.49


******** <class 'pyscf.scf.uhf.UHF'> ********
method = UHF
initial guess = minao
damping factor = 0
level_shift factor = 0
DIIS = <class 'pyscf.scf.diis.CDIIS'>
diis_start_cycle = 1
diis_space = 8
SCF conv_tol = 1e-09
SCF conv_tol_grad = None
SCF max_cycles = 1
direct_scf = True
direct_scf_tol = 1e-13
chkfile to save SCF result = /share/home/srwang/ExSCF/test/pytest/scan_h2/tmpu31dhm_n
max_memory 4000 MB (current use 145 MB)
number electrons alpha = 1  beta = 1
Set gradient conv threshold to 3.16228e-05
init E= -0.802721635191722
  alpha nocc = 1  HOMO = -0.523947320965198  LUMO = 0.125076878515374
  beta  nocc = 1  HOMO = -0.526116956459053  LUMO = 0.125241527721246
cycle= 1 E= -1.12937688501243  delta_E= -0.327  |g|= 0.0313  |ddm|= 0.328
SCF not converged.
SCF energy = -1.12937688501243 after 1 cycles  <S^2> = 5.3908113e-06  2S+1 = 1.0000108


******** <class 'pyscf.scf.uhf.UHF'> ********
method = UHF
initial guess = minao
damping factor = 0
level_shift factor = 0
DIIS = <class 'pyscf.scf.diis.CDIIS'>
diis_start_cycle = 1
diis_space = 8
SCF conv_tol = 1e-09
SCF conv_tol_grad = None
SCF max_cycles = 1
direct_scf = True
direct_scf_tol = 1e-13
chkfile to save SCF result = /share/home/srwang/ExSCF/test/pytest/scan_h2/tmpu31dhm_n
max_memory 4000 MB (current use 146 MB)
number electrons alpha = 1  beta = 1
Set gradient conv threshold to 3.16228e-05
init E= -1.22127247007631
  alpha nocc = 1  HOMO = -0.541299377692539  LUMO = 0.225393706315369
  beta  nocc = 1  HOMO = -0.541299377692539  LUMO = 0.22539370631537
cycle= 1 E= -1.11229990924483  delta_E= 0.109  |g|= 0.0849  |ddm|= 0.149
SCF not converged.
SCF energy = -1.11229990924483 after 1 cycles  <S^2> = 0.12296701  2S+1 = 1.2214205

******** <class 'pyphf.util.SUHF'> ********
SVD: S^(-1/2)
[[ -0.15360926   0.           0.          -0.24306679   0.06831308  -0.          -0.           0.          -0.          -0.           0.          -0.11666606
    0.2598579    0.           0.          -0.40665351  -0.          -0.           0.72268618  -0.           0.          -0.25210772  -0.          -0.
    1.3235948   -1.2141892    0.17907586  -0.39963724]
 [ -0.21136706  -0.           0.          -0.17015041  -0.08521969  -0.           0.           0.          -0.          -0.           0.           0.04939438
   -0.01156612   0.           0.          -0.14806292   0.           0.          -0.30430254  -0.           0.          -0.84404484   0.           0.
   -1.28748673   0.09165801  -0.28651011 -13.19985569]
 [ -0.19246069  -0.           0.          -0.06121896  -0.22500816   0.          -0.          -0.           0.          -0.          -0.           0.04064482
   -0.14507916  -0.          -0.           0.43693208   0.          -0.          -0.33582074  -0.          -0.           0.64083762  -0.           0.
    0.60882865  -0.29390979   3.19855732   0.69141426]
 [  0.          -0.25681074   0.01177716   0.           0.          -0.39889284   0.16214037  -0.          -0.           0.07444045  -0.00612211   0.
    0.           0.          -0.           0.          -0.78509045   0.31481013   0.          -0.69470009   0.66980366  -0.           0.02034023   0.01718177
    0.           0.           0.           0.        ]
 [  0.           0.01177716   0.25681074   0.           0.          -0.16214037  -0.39889284  -0.          -0.           0.00612211   0.07444045   0.
    0.           0.          -0.           0.          -0.31481013  -0.78509045  -0.          -0.66980366  -0.69470009  -0.          -0.01718177   0.02034023
    0.           0.          -0.           0.        ]
 [ -0.07201318   0.           0.           0.1610462    0.38786375   0.          -0.           0.          -0.          -0.          -0.          -0.24452702
   -0.09979651   0.           0.           0.43791915   0.           0.          -0.54106408  -0.           0.          -0.60950659  -0.           0.
    0.21638001  -1.508318    -0.58827572  -0.71979529]
 [ -0.          -0.3063335    0.01404824  -0.           0.          -0.23338641   0.09486597  -0.           0.           0.2723284   -0.02239675   0.
   -0.           0.          -0.           0.           0.56206228  -0.225379    -0.           0.41498903  -0.40011679   0.           1.22383184   1.0337937
    0.           0.          -0.          -0.        ]
 [ -0.           0.01404824   0.3063335    0.           0.          -0.09486597  -0.23338641  -0.          -0.           0.02239675   0.2723284    0.
    0.          -0.           0.           0.           0.225379     0.56206228   0.           0.40011679   0.41498903  -0.          -1.0337937    1.22383184
    0.           0.          -0.           0.        ]
 [ -0.09298625   0.           0.           0.30849241   0.22556658  -0.          -0.           0.          -0.          -0.          -0.          -0.15804524
   -0.2072546    0.           0.          -0.32247949  -0.          -0.           0.56590392  -0.          -0.           1.2683378   -0.           0.
   -0.47707541   0.17232843   0.98585847  -6.60993025]
 [  0.          -0.          -0.           0.           0.           0.           0.          -0.62045269  -0.00000036   0.           0.           0.
    0.           0.00000061  -0.84444945   0.           0.           0.           0.           0.          -0.           0.          -0.          -0.
    0.          -0.           0.          -0.        ]
 [ -0.           0.00819132   0.17861853   0.           0.           0.1331102    0.3274737   -0.           0.          -0.0472129   -0.57407491  -0.
    0.           0.          -0.          -0.           0.06609328   0.16482698   0.          -0.53072374  -0.5504506   -0.          -0.75770081   0.89698589
    0.           0.          -0.           0.        ]
 [ -0.03085365   0.          -0.           0.12652164   0.06217903   0.           0.           0.          -0.          -0.           0.           0.55856821
    0.54802741   0.           0.           0.26315619  -0.          -0.           0.12554742  -0.           0.           0.64004874  -0.           0.
   -0.63462437  -0.85186546  -0.14859384  -1.15188304]
 [ -0.          -0.17861853   0.00819132  -0.           0.           0.3274737   -0.1331102    0.          -0.          -0.57407491   0.0472129   -0.
   -0.          -0.          -0.          -0.           0.16482698  -0.06609328  -0.          -0.5504506    0.53072374  -0.           0.89698589   0.75770081
    0.           0.          -0.          -0.        ]
 [  0.          -0.          -0.           0.           0.          -0.           0.          -0.00000036   0.62045269  -0.           0.           0.
    0.          -0.84444945  -0.00000061  -0.          -0.          -0.          -0.          -0.           0.          -0.          -0.           0.
   -0.          -0.          -0.          -0.        ]
 [ -0.15360926   0.          -0.           0.24306679   0.06831308  -0.           0.          -0.           0.          -0.           0.           0.11666606
    0.2598579   -0.          -0.          -0.40665351   0.           0.          -0.72268618   0.          -0.          -0.25210772  -0.          -0.
    1.3235948    1.2141892   -0.17907586   0.39963724]
 [ -0.21136706  -0.          -0.           0.17015041  -0.08521969  -0.          -0.          -0.           0.           0.           0.          -0.04939438
   -0.01156612  -0.          -0.          -0.14806292  -0.          -0.           0.30430254   0.          -0.          -0.84404484   0.           0.
   -1.28748673  -0.09165801   0.28651011  13.19985569]
 [ -0.19246069  -0.           0.           0.06121896  -0.22500816   0.          -0.           0.          -0.          -0.          -0.          -0.04064482
   -0.14507916   0.           0.           0.43693208  -0.          -0.           0.33582074   0.           0.           0.64083762  -0.          -0.
    0.60882865   0.29390979  -3.19855732  -0.69141426]
 [ -0.          -0.25681074   0.01177716  -0.           0.           0.39889284  -0.16214037   0.           0.           0.07444045  -0.00612211  -0.
   -0.          -0.           0.          -0.          -0.78509045   0.31481013  -0.           0.69470009  -0.66980366   0.          -0.02034023  -0.01718177
    0.          -0.           0.          -0.        ]
 [  0.           0.01177716   0.25681074  -0.          -0.           0.16214037   0.39889284  -0.           0.           0.00612211   0.07444045  -0.
   -0.           0.           0.          -0.          -0.31481013  -0.78509045  -0.           0.66980366   0.69470009  -0.           0.01718177  -0.02034023
    0.          -0.           0.          -0.        ]
 [  0.07201318  -0.           0.           0.1610462   -0.38786375  -0.          -0.           0.          -0.           0.          -0.          -0.24452702
    0.09979651   0.           0.          -0.43791915  -0.           0.          -0.54106408  -0.           0.           0.60950659  -0.           0.
   -0.21638001  -1.508318    -0.58827572  -0.71979529]
 [ -0.          -0.3063335    0.01404824  -0.           0.           0.23338641  -0.09486597   0.           0.           0.2723284   -0.02239675  -0.
   -0.           0.          -0.          -0.           0.56206228  -0.225379     0.          -0.41498903   0.40011679   0.          -1.22383184  -1.0337937
   -0.          -0.           0.           0.        ]
 [  0.           0.01404824   0.3063335   -0.          -0.           0.09486597   0.23338641  -0.          -0.           0.02239675   0.2723284   -0.
   -0.          -0.          -0.          -0.           0.225379     0.56206228   0.          -0.40011679  -0.41498903   0.           1.0337937   -1.22383184
   -0.          -0.           0.          -0.        ]
 [  0.09298625  -0.           0.           0.30849241  -0.22556658   0.          -0.           0.          -0.          -0.          -0.          -0.15804524
    0.2072546    0.           0.           0.32247949  -0.          -0.           0.56590392   0.          -0.          -1.2683378    0.          -0.
    0.47707541   0.17232843   0.98585847  -6.60993025]
 [ -0.          -0.          -0.           0.           0.           0.           0.          -0.62045269  -0.00000036   0.           0.          -0.
   -0.          -0.00000061   0.84444945   0.           0.          -0.           0.          -0.          -0.           0.           0.           0.
    0.           0.           0.           0.        ]
 [  0.          -0.00819132  -0.17861853  -0.          -0.           0.1331102    0.3274737    0.          -0.           0.0472129    0.57407491  -0.
   -0.          -0.           0.          -0.          -0.06609328  -0.16482698  -0.          -0.53072374  -0.5504506   -0.          -0.75770081   0.89698589
    0.           0.          -0.           0.        ]
 [ -0.03085365   0.          -0.          -0.12652164   0.06217903  -0.          -0.          -0.           0.           0.          -0.          -0.55856821
    0.54802741  -0.          -0.           0.26315619   0.          -0.          -0.12554742   0.          -0.           0.64004874   0.           0.
   -0.63462437   0.85186546   0.14859384   1.15188304]
 [  0.           0.17861853  -0.00819132   0.          -0.           0.3274737   -0.1331102    0.           0.           0.57407491  -0.0472129   -0.
   -0.           0.          -0.          -0.          -0.16482698   0.06609328  -0.          -0.5504506    0.53072374  -0.           0.89698589   0.75770081
    0.           0.           0.          -0.        ]
 [  0.          -0.          -0.           0.           0.          -0.           0.          -0.00000036   0.62045269  -0.           0.           0.
    0.           0.84444945   0.00000061   0.          -0.           0.           0.           0.          -0.           0.           0.           0.
    0.           0.           0.           0.        ]]
C (ortho)
[[-0.96901072 -0.13887427  0.01795418  0.11231705  0.          0.         -0.12619299 -0.         -0.          0.00738134 -0.00994845  0.04273375 -0.
   0.         -0.          0.          0.09389026  0.         -0.          0.         -0.          0.          0.         -0.00151301 -0.          0.
   0.04545111  0.00263114]
 [-0.         -0.         -0.         -0.         -0.84365379  0.0296251   0.         -0.01819006 -0.04219497 -0.         -0.          0.          0.
  -0.         -0.16117007 -0.50818071 -0.         -0.0077021  -0.0062398  -0.         -0.         -0.02072106  0.02199926  0.         -0.00112235  0.00480271
  -0.         -0.        ]
 [ 0.         -0.          0.          0.          0.0296251   0.84365379  0.          0.04219497 -0.01819006 -0.         -0.         -0.         -0.
  -0.          0.50818071 -0.16117007  0.         -0.0062398   0.0077021  -0.          0.          0.02199926  0.02072106  0.         -0.00480271 -0.00112235
   0.         -0.        ]
 [-0.1724464   0.60438313  0.02548595 -0.74124498  0.          0.         -0.0349849   0.          0.         -0.02413845  0.20777271 -0.08488197  0.
  -0.         -0.         -0.          0.00897112  0.          0.         -0.          0.         -0.          0.          0.01163831  0.          0.
   0.00285051  0.0498448 ]
 [-0.15593509 -0.04538447 -0.4772212  -0.04516418  0.         -0.          0.61240596  0.          0.         -0.01433738 -0.07433455 -0.24727043  0.
  -0.          0.          0.         -0.52709812 -0.          0.         -0.         -0.         -0.         -0.          0.01212068  0.          0.
  -0.15470018 -0.00426888]
 [-0.         -0.          0.          0.         -0.03966695 -0.01662163 -0.          0.53272007  0.47853778 -0.          0.          0.          0.
  -0.         -0.00897904 -0.00985305 -0.          0.30267531  0.61399888 -0.         -0.          0.10502101 -0.04236201  0.         -0.0123101  -0.06000838
  -0.         -0.        ]
 [ 0.         -0.         -0.          0.          0.01662163 -0.03966695 -0.          0.47853778 -0.53272007  0.          0.         -0.         -0.
   0.         -0.00985305  0.00897904  0.         -0.61399888  0.30267531 -0.          0.          0.04236201  0.10502101 -0.         -0.06000838  0.0123101
  -0.          0.        ]
 [-0.          0.         -0.         -0.          0.         -0.          0.          0.          0.         -0.          0.         -0.         -0.99506285
   0.09776025 -0.         -0.          0.          0.          0.         -0.01711082 -0.00029001  0.          0.         -0.          0.         -0.
  -0.          0.        ]
 [-0.         -0.          0.          0.          0.         -0.         -0.          0.          0.          0.          0.         -0.          0.09776025
   0.99506285  0.         -0.         -0.          0.          0.         -0.00029001  0.01711082 -0.         -0.          0.         -0.         -0.
   0.          0.        ]
 [ 0.          0.          0.          0.          0.39021314  0.03630957 -0.          0.0100765   0.01700598  0.          0.         -0.          0.
  -0.         -0.27648061 -0.59498168  0.         -0.07836241 -0.0821152   0.         -0.          0.49045153 -0.40266881 -0.         -0.00034276  0.00335911
   0.          0.        ]
 [ 0.         -0.          0.          0.         -0.03630957  0.39021314  0.          0.01700598 -0.0100765  -0.         -0.          0.         -0.
   0.         -0.59498168  0.27648061 -0.          0.0821152  -0.07836241 -0.          0.          0.40266881  0.49045153  0.          0.00335911  0.00034276
   0.         -0.        ]
 [ 0.01406092 -0.17977399  0.01959062  0.00584652 -0.         -0.         -0.01363081 -0.         -0.         -0.50310533  0.42886941 -0.1522283   0.
  -0.          0.         -0.          0.01757346 -0.         -0.         -0.         -0.         -0.         -0.          0.69332257 -0.         -0.
   0.00520129 -0.16009484]
 [ 0.03064229 -0.02880024 -0.30086021 -0.00773241  0.          0.         -0.47323472 -0.          0.          0.00827799 -0.22940076 -0.65593944  0.
  -0.         -0.         -0.          0.17711474  0.         -0.         -0.         -0.         -0.          0.         -0.00671937  0.         -0.
  -0.41150528 -0.00163617]
 [-0.         -0.         -0.          0.          0.         -0.          0.         -0.          0.         -0.         -0.          0.         -0.00167324
  -0.01703128 -0.         -0.         -0.          0.          0.         -0.01694429  0.99970997 -0.         -0.          0.          0.          0.
   0.          0.        ]
 [-0.         -0.         -0.          0.         -0.         -0.         -0.          0.         -0.          0.          0.         -0.         -0.01703128
   0.00167324 -0.         -0.          0.         -0.          0.          0.99970997  0.01694429  0.          0.         -0.         -0.          0.
  -0.          0.        ]
 [-0.04770694  0.04095542  0.66341354  0.06560373 -0.         -0.         -0.14381131 -0.         -0.          0.0052293  -0.03720547 -0.09397457 -0.
   0.         -0.          0.         -0.5923765  -0.         -0.         -0.         -0.         -0.         -0.          0.01337989  0.          0.
  -0.41183666 -0.00156296]
 [-0.         -0.          0.          0.          0.33409654  0.13814597  0.          0.01775922  0.01610509 -0.         -0.          0.         -0.
  -0.         -0.3576473  -0.3962014  -0.          0.05025923  0.10075239 -0.         -0.         -0.69952766  0.28601328 -0.          0.00072686  0.00363021
  -0.         -0.        ]
 [ 0.         -0.          0.          0.         -0.13814597  0.33409654  0.          0.01610509 -0.01775922 -0.          0.         -0.         -0.
   0.         -0.3962014   0.3576473   0.         -0.10075239  0.05025923  0.         -0.         -0.28601328 -0.69952766 -0.          0.00363021 -0.00072686
  -0.          0.        ]
 [-0.03050605  0.45584459 -0.05771451  0.17207247 -0.         -0.         -0.00061998  0.          0.         -0.03476008 -0.64976254  0.22708518 -0.
   0.          0.          0.          0.00562351 -0.         -0.          0.          0.         -0.         -0.          0.52463819 -0.          0.
  -0.0007394  -0.08994507]
 [-0.          0.          0.          0.          0.0143638   0.01414945  0.         -0.39181403 -0.14337526  0.         -0.          0.          0.
  -0.         -0.01202158 -0.00581744  0.          0.02718164  0.35267856 -0.         -0.          0.0544502  -0.00012675  0.         -0.4599891  -0.6968964
  -0.         -0.        ]
 [ 0.         -0.         -0.          0.         -0.01414945  0.0143638  -0.         -0.14337526  0.39181403  0.          0.         -0.         -0.
  -0.         -0.00581744  0.01202158  0.         -0.35267856  0.02718164 -0.          0.          0.00012675  0.0544502  -0.         -0.6968964   0.4599891
  -0.          0.        ]
 [-0.04141795  0.02839373  0.35825762  0.02425337 -0.         -0.          0.59026766  0.         -0.         -0.01415036 -0.063615   -0.16623437  0.
  -0.         -0.         -0.          0.57343994  0.         -0.         -0.         -0.         -0.          0.         -0.00919699  0.         -0.
  -0.39915572  0.00121506]
 [ 0.          0.         -0.          0.          0.02213798 -0.0182971  -0.          0.13699055 -0.53971567 -0.          0.          0.          0.
  -0.          0.00321484 -0.00884892 -0.          0.61674107  0.01560809  0.         -0.          0.00970516 -0.09683111  0.         -0.42320038  0.34618622
  -0.         -0.        ]
 [-0.         -0.          0.         -0.          0.0182971   0.02213798  0.         -0.53971567 -0.13699055 -0.         -0.          0.         -0.
   0.         -0.00884892 -0.00321484  0.         -0.01560809  0.61674107 -0.         -0.          0.09683111  0.00970516  0.          0.34618622  0.42320038
  -0.          0.        ]
 [-0.00472515  0.0216286   0.31551161  0.03360848  0.          0.          0.11926012 -0.         -0.         -0.0019393  -0.21768118 -0.59986739  0.
  -0.         -0.          0.         -0.04078251  0.          0.         -0.         -0.          0.          0.         -0.00435502 -0.          0.
   0.68970365 -0.00259757]
 [-0.01395624  0.14929984 -0.01774685  0.10648449  0.          0.          0.0052954  -0.          0.          0.31131228  0.17246628 -0.05642509 -0.
   0.         -0.          0.          0.00397882 -0.          0.          0.          0.          0.          0.         -0.06515391  0.          0.
  -0.00014165 -0.91199135]
 [ 0.02535148 -0.58888401  0.09293338 -0.61434723  0.          0.         -0.0017224   0.          0.          0.20604163 -0.36165238  0.12179961 -0.
   0.         -0.          0.          0.00435169 -0.         -0.          0.          0.         -0.         -0.          0.20516354 -0.         -0.
  -0.00043227 -0.19057514]
 [-0.00680002 -0.0201651   0.0095512  -0.10684087  0.         -0.         -0.01792928  0.          0.         -0.77792397 -0.28126073  0.10248715 -0.
   0.          0.          0.         -0.01097106 -0.         -0.          0.          0.          0.         -0.         -0.4439697   0.          0.
  -0.00191404 -0.30936941]]
[[-0.96901072 -0.13887427  0.01795418  0.11231705  0.          0.          0.12619299  0.          0.          0.00738134 -0.00994845  0.04273375  0.
   0.          0.          0.         -0.09389026  0.          0.         -0.         -0.          0.          0.         -0.00151301  0.          0.
   0.04545111  0.00263114]
 [-0.         -0.         -0.          0.          0.59069524 -0.6030825  -0.          0.004688   -0.04570905  0.          0.          0.         -0.
   0.         -0.52986843 -0.0588462   0.         -0.00940462 -0.00313219 -0.         -0.         -0.02893916 -0.00870945  0.         -0.00477843 -0.0012216
  -0.          0.        ]
 [ 0.         -0.          0.          0.          0.6030825   0.59069524 -0.          0.04570905  0.004688    0.          0.          0.         -0.
  -0.         -0.0588462   0.52986843  0.         -0.00313219  0.00940462 -0.          0.         -0.00870945  0.02893916 -0.         -0.0012216   0.00477843
   0.          0.        ]
 [ 0.1724464  -0.60438313 -0.02548595  0.74124498 -0.          0.         -0.0349849   0.         -0.          0.02413845 -0.20777271  0.08488197  0.
  -0.         -0.         -0.          0.00897112 -0.         -0.          0.          0.         -0.          0.         -0.01163831 -0.         -0.
  -0.00285051 -0.0498448 ]
 [-0.15593509 -0.04538447 -0.4772212  -0.04516418 -0.          0.         -0.61240596 -0.         -0.         -0.01433738 -0.07433455 -0.24727043 -0.
  -0.          0.         -0.          0.52709812  0.         -0.          0.          0.          0.         -0.          0.01212068 -0.         -0.
  -0.15470018 -0.00426888]
 [-0.          0.          0.         -0.         -0.0144692   0.0405017   0.         -0.23184133 -0.67752394  0.         -0.         -0.          0.
  -0.          0.01141657  0.00688242 -0.         -0.49928847 -0.46831398  0.          0.         -0.08481939 -0.07503082 -0.         -0.047548   -0.03862295
  -0.          0.        ]
 [-0.          0.         -0.          0.          0.0405017   0.0144692   0.         -0.67752394  0.23184133  0.         -0.         -0.          0.
   0.         -0.00688242  0.01141657 -0.          0.46831398 -0.49928847  0.         -0.          0.07503082 -0.08481939  0.          0.03862295 -0.047548
  -0.          0.        ]
 [ 0.         -0.         -0.          0.         -0.         -0.          0.         -0.         -0.         -0.          0.          0.         -0.99745727
   0.0691818   0.         -0.          0.         -0.         -0.         -0.01711306  0.00008575  0.          0.         -0.         -0.         -0.
   0.         -0.        ]
 [ 0.         -0.         -0.          0.         -0.          0.         -0.          0.         -0.          0.          0.          0.          0.0691818
   0.99745727  0.          0.          0.         -0.         -0.          0.00008575  0.01711306  0.         -0.          0.         -0.         -0.
  -0.         -0.        ]
 [ 0.         -0.          0.         -0.         -0.23627789  0.31266186  0.          0.00050756  0.01976061 -0.         -0.         -0.          0.
   0.         -0.6375131  -0.1549896   0.         -0.10223669 -0.04930753  0.          0.          0.57936631  0.25888135  0.         -0.00313797 -0.0012467
   0.         -0.        ]
 [ 0.         -0.         -0.          0.          0.31266186  0.23627789 -0.          0.01976061 -0.00050756  0.          0.          0.         -0.
   0.          0.1549896  -0.6375131   0.          0.04930753 -0.10223669  0.          0.         -0.25888135  0.57936631 -0.          0.0012467  -0.00313797
  -0.          0.        ]
 [-0.01406092  0.17977399 -0.01959062 -0.00584652 -0.         -0.         -0.01363081  0.          0.          0.50310533 -0.42886941  0.1522283  -0.
   0.         -0.         -0.          0.01757346  0.          0.          0.          0.          0.         -0.         -0.69332257  0.          0.
  -0.00520129  0.16009484]
 [ 0.03064229 -0.02880024 -0.30086021 -0.00773241  0.          0.          0.47323472  0.          0.          0.00827799 -0.22940076 -0.65593944  0.
   0.         -0.          0.         -0.17711474 -0.          0.         -0.          0.         -0.          0.         -0.00671937 -0.          0.
  -0.41150528 -0.00163617]
 [ 0.         -0.         -0.          0.         -0.         -0.         -0.         -0.         -0.          0.          0.          0.          0.0011841
   0.01707226 -0.          0.          0.         -0.         -0.         -0.0050101  -0.999841    0.          0.          0.          0.          0.
  -0.         -0.        ]
 [ 0.         -0.         -0.          0.         -0.          0.         -0.          0.          0.          0.          0.          0.          0.01707226
  -0.0011841   0.         -0.          0.         -0.         -0.         -0.999841    0.0050101   0.          0.         -0.         -0.         -0.
  -0.         -0.        ]
 [-0.04770694  0.04095542  0.66341354  0.06560373  0.         -0.          0.14381131  0.          0.          0.0052293  -0.03720547 -0.09397457 -0.
   0.         -0.         -0.          0.5923765   0.          0.         -0.          0.          0.         -0.          0.01337989 -0.          0.
  -0.41183666 -0.00156296]
 [-0.          0.          0.         -0.         -0.12323402  0.33987966  0.          0.0076547   0.02271936 -0.         -0.         -0.         -0.
   0.         -0.45840635 -0.27340585 -0.          0.08248404  0.07663822 -0.         -0.         -0.5684096  -0.49804927  0.         -0.00288466 -0.00232067
   0.          0.        ]
 [ 0.          0.         -0.          0.          0.33987966  0.12323402 -0.          0.02271936 -0.0076547  -0.         -0.         -0.         -0.
   0.          0.27340585 -0.45840635 -0.         -0.07663822  0.08248404  0.         -0.          0.49804927 -0.5684096   0.          0.00232067 -0.00288466
  -0.         -0.        ]
 [ 0.03050605 -0.45584459  0.05771451 -0.17207247 -0.         -0.         -0.00061998  0.         -0.          0.03476008  0.64976254 -0.22708518  0.
  -0.         -0.         -0.          0.00562351  0.         -0.          0.         -0.          0.         -0.         -0.52463819  0.          0.
   0.0007394   0.08994507]
 [ 0.         -0.          0.         -0.         -0.00076518 -0.02014795 -0.          0.27220563  0.31619424 -0.         -0.         -0.          0.
  -0.          0.00805268  0.01065436 -0.         -0.14948681 -0.32058494  0.          0.         -0.02444013 -0.04865717  0.         -0.40583262 -0.72976328
   0.          0.        ]
 [ 0.          0.         -0.         -0.         -0.02014795  0.00076518  0.          0.31619424 -0.27220563 -0.         -0.          0.          0.
   0.         -0.01065436  0.00805268 -0.          0.32058494 -0.14948681  0.         -0.          0.04865717 -0.02444013  0.          0.72976328 -0.40583262
  -0.         -0.        ]
 [-0.04141795  0.02839373  0.35825762  0.02425337 -0.         -0.         -0.59026766 -0.         -0.         -0.01415036 -0.063615   -0.16623437 -0.
   0.          0.         -0.         -0.57343994 -0.          0.          0.          0.         -0.          0.         -0.00919699 -0.         -0.
  -0.39915572  0.00121506]
 [ 0.         -0.         -0.         -0.          0.02843889 -0.00401293  0.         -0.38272197  0.40445433  0.          0.          0.         -0.
  -0.          0.00805092 -0.00488071  0.         -0.5828256   0.20230542 -0.          0.         -0.0909658   0.03457856 -0.          0.50246028 -0.21558553
  -0.          0.        ]
 [-0.          0.          0.          0.         -0.00401293 -0.02843889 -0.          0.40445433  0.38272197 -0.          0.          0.         -0.
   0.          0.00488071  0.00805092 -0.         -0.20230542 -0.5828256   0.          0.         -0.03457856 -0.0909658   0.          0.21558553  0.50246028
  -0.         -0.        ]
 [-0.00472515  0.0216286   0.31551161  0.03360848 -0.          0.         -0.11926012  0.          0.         -0.0019393  -0.21768118 -0.59986739 -0.
   0.          0.          0.          0.04078251 -0.         -0.         -0.          0.          0.          0.         -0.00435502  0.          0.
   0.68970365 -0.00259757]
 [ 0.01395624 -0.14929984  0.01774685 -0.10648449  0.          0.          0.0052954   0.          0.         -0.31131228 -0.17246628  0.05642509 -0.
   0.          0.          0.          0.00397882  0.         -0.         -0.          0.          0.          0.          0.06515391  0.          0.
   0.00014165  0.91199135]
 [-0.02535148  0.58888401 -0.09293338  0.61434723 -0.          0.         -0.0017224  -0.         -0.         -0.20604163  0.36165238 -0.12179961  0.
  -0.          0.         -0.          0.00435169 -0.         -0.         -0.         -0.          0.         -0.         -0.20516354  0.         -0.
   0.00043227  0.19057514]
 [ 0.00680002  0.0201651  -0.0095512   0.10684087 -0.         -0.         -0.01792928  0.         -0.          0.77792397  0.28126073 -0.10248715 -0.
   0.          0.          0.         -0.01097106  0.         -0.         -0.          0.          0.         -0.          0.4439697   0.          0.
   0.00191404  0.30936941]]
grids:  [0.06237655 0.31939555 0.74529195 1.28265786 1.85893479 2.39630071 2.8221971  3.07921611] 
weights:  [0.15900941 0.34931531 0.49276925 0.56970235 0.56970235 0.49276925 0.34931531 0.15900941]
S = 0.0, Sz = 0.0
Wigner small d:  1
value : [1. 1. 1. 1. 1. 1. 1. 1.]
**** Start Cycle 1 ****
dm (ortho)
[[[ 0.93898177  0.         -0.         ...  0.01352375 -0.02456585  0.00658929]
  [ 0.          0.         -0.         ...  0.         -0.          0.        ]
  [-0.         -0.          0.         ... -0.          0.         -0.        ]
  ...
  [ 0.01352375  0.         -0.         ...  0.00019478 -0.00035381  0.0000949 ]
  [-0.02456585 -0.          0.         ... -0.00035381  0.0006427  -0.00017239]
  [ 0.00658929  0.         -0.         ...  0.0000949  -0.00017239  0.00004624]]

 [[ 0.93898177  0.         -0.         ... -0.01352375  0.02456585 -0.00658929]
  [ 0.          0.         -0.         ... -0.          0.         -0.        ]
  [-0.         -0.          0.         ...  0.         -0.          0.        ]
  ...
  [-0.01352375 -0.          0.         ...  0.00019478 -0.00035381  0.0000949 ]
  [ 0.02456585  0.         -0.         ... -0.00035381  0.0006427  -0.00017239]
  [-0.00658929 -0.          0.         ...  0.0000949  -0.00017239  0.00004624]]]
Fock (ortho)
 (array([[-0.49887651, -0.        , -0.        , -0.12058963, -0.39590708, -0.        ,  0.        , -0.        , -0.        ,  0.        ,  0.        ,
        -0.0107539 , -0.00902097, -0.        , -0.        , -0.33253532, -0.        ,  0.        ,  0.01168013, -0.        ,  0.        , -0.02697717,
        -0.        , -0.        ,  0.09389566, -0.01589455,  0.00365378, -0.00451434],
       [-0.        ,  1.43072141, -0.        ,  0.        , -0.        , -0.01921655,  0.00885743,  0.        ,  0.        ,  0.86632406, -0.11139714,
         0.        ,  0.        ,  0.        , -0.        ,  0.        ,  0.75618648, -0.34422824,  0.        , -0.00447959,  0.00473379, -0.        ,
         0.00418549,  0.00321893, -0.        , -0.        , -0.        , -0.        ],
       [-0.        , -0.        ,  1.43072141, -0.        ,  0.        ,  0.00885743,  0.01921655,  0.        ,  0.        , -0.11139714, -0.86632406,
         0.        ,  0.        ,  0.        , -0.        , -0.        , -0.34422824, -0.75618648, -0.        ,  0.00473379,  0.00447959, -0.        ,
         0.00321893, -0.00418549,  0.        , -0.        , -0.        ,  0.        ],
       [-0.12058963,  0.        , -0.        ,  0.50901761, -0.01931762,  0.        ,  0.        , -0.        , -0.        , -0.        ,  0.        ,
         0.22220734,  0.03200427,  0.        ,  0.        , -0.03372522,  0.        ,  0.        , -0.39795395, -0.        ,  0.        , -0.0119116 ,
        -0.        ,  0.        ,  0.00874207, -0.2575286 , -0.03156174, -0.20830531],
       [-0.39590708, -0.        ,  0.        , -0.01931762,  1.75606712,  0.        , -0.        , -0.        ,  0.        , -0.        , -0.        ,
         0.01563422,  0.183128  , -0.        ,  0.        ,  1.35247836, -0.        ,  0.        , -0.00319005,  0.        , -0.        , -0.31188259,
         0.        ,  0.        , -0.08905049,  0.00905191,  0.0015586 ,  0.00061834],
       [-0.        , -0.01921655,  0.00885743,  0.        ,  0.        ,  2.46800251,  0.        , -0.        , -0.        ,  0.01261166,  0.00395686,
         0.        ,  0.        , -0.        ,  0.        , -0.        , -0.00990753, -0.00004677,  0.        ,  0.85822502, -0.34385899, -0.        ,
         0.4999107 ,  0.95255184,  0.        ,  0.        ,  0.        , -0.        ],
       [ 0.        ,  0.00885743,  0.01921655,  0.        , -0.        ,  0.        ,  2.46800251, -0.        ,  0.        , -0.00395686,  0.01261166,
         0.        , -0.        , -0.        ,  0.        ,  0.        ,  0.00004677, -0.00990753,  0.        ,  0.34385899,  0.85822502, -0.        ,
        -0.95255184,  0.4999107 , -0.        ,  0.        ,  0.        ,  0.        ],
       [-0.        ,  0.        ,  0.        , -0.        , -0.        , -0.        , -0.        ,  3.14863489, -0.        ,  0.        ,  0.        ,
        -0.        ,  0.        ,  0.        , -0.01024374, -0.        ,  0.        ,  0.        , -0.        ,  0.        , -0.        , -0.        ,
         0.        ,  0.        , -0.        ,  0.        , -0.        ,  0.        ],
       [-0.        ,  0.        ,  0.        , -0.        ,  0.        , -0.        ,  0.        , -0.        ,  3.14863489, -0.        ,  0.        ,
         0.        , -0.        ,  0.01024374,  0.        , -0.        , -0.        ,  0.        ,  0.        ,  0.        , -0.        , -0.        ,
         0.        ,  0.        , -0.        , -0.        , -0.        , -0.        ],
       [ 0.        ,  0.86632406, -0.11139714, -0.        , -0.        ,  0.01261166, -0.00395686,  0.        , -0.        ,  3.22441089,  0.        ,
        -0.        ,  0.        , -0.        ,  0.        ,  0.        , -0.68870069,  0.21251114, -0.        , -0.0038371 ,  0.0031354 ,  0.        ,
         0.00108291,  0.00107876, -0.        , -0.        ,  0.        , -0.        ],
       [ 0.        , -0.11139714, -0.86632406,  0.        , -0.        ,  0.00395686,  0.01261166,  0.        ,  0.        ,  0.        ,  3.22441089,
        -0.        , -0.        , -0.        ,  0.        ,  0.        , -0.21251114, -0.68870069, -0.        , -0.0031354 , -0.0038371 ,  0.        ,
        -0.00107876,  0.00108291, -0.        ,  0.        , -0.        , -0.        ],
       [-0.0107539 ,  0.        ,  0.        ,  0.22220734,  0.01563422,  0.        ,  0.        , -0.        ,  0.        , -0.        , -0.        ,
         3.17769317, -0.00481961,  0.        , -0.        , -0.00495404, -0.        , -0.        ,  0.99666662, -0.        , -0.        , -0.00207182,
         0.        , -0.        ,  0.00848957,  0.72709705,  0.28895606, -0.77144255],
       [-0.00902097,  0.        ,  0.        ,  0.03200427,  0.183128  ,  0.        , -0.        ,  0.        , -0.        ,  0.        , -0.        ,
        -0.00481961,  2.47893522, -0.        ,  0.        ,  0.74608398,  0.        , -0.        , -0.01484472, -0.        , -0.        ,  1.24592307,
        -0.        ,  0.        , -0.62008589,  0.01013978, -0.00078676,  0.00033789],
       [-0.        ,  0.        ,  0.        ,  0.        , -0.        , -0.        , -0.        ,  0.        ,  0.01024374, -0.        , -0.        ,
         0.        , -0.        ,  4.00220968, -0.        , -0.        , -0.        ,  0.        ,  0.        ,  0.        , -0.        , -0.        ,
         0.        ,  0.        ,  0.        , -0.        ,  0.        ,  0.        ],
       [-0.        , -0.        , -0.        ,  0.        ,  0.        ,  0.        ,  0.        , -0.01024374,  0.        ,  0.        ,  0.        ,
        -0.        ,  0.        , -0.        ,  4.00220968,  0.        ,  0.        , -0.        , -0.        ,  0.        ,  0.        ,  0.        ,
         0.        ,  0.        ,  0.        ,  0.        ,  0.        ,  0.        ],
       [-0.33253532,  0.        , -0.        , -0.03372522,  1.35247836, -0.        ,  0.        , -0.        , -0.        ,  0.        ,  0.        ,
        -0.00495404,  0.74608398, -0.        ,  0.        ,  2.39400396, -0.        , -0.        ,  0.01616989, -0.        ,  0.        , -0.29595378,
         0.        ,  0.        , -1.27946481, -0.00126059,  0.00178353, -0.00028639],
       [-0.        ,  0.75618648, -0.34422824,  0.        , -0.        , -0.00990753,  0.00004677,  0.        , -0.        , -0.68870069, -0.21251114,
        -0.        ,  0.        , -0.        ,  0.        , -0.        ,  3.40550596, -0.        ,  0.        , -0.0063878 ,  0.00259442,  0.        ,
        -0.00174844, -0.00329368, -0.        , -0.        , -0.        , -0.        ],
       [ 0.        , -0.34422824, -0.75618648,  0.        ,  0.        , -0.00004677, -0.00990753,  0.        ,  0.        ,  0.21251114, -0.68870069,
        -0.        , -0.        ,  0.        , -0.        , -0.        , -0.        ,  3.40550596,  0.        , -0.00259442, -0.0063878 ,  0.        ,
         0.00329368, -0.00174844,  0.        ,  0.        ,  0.        , -0.        ],
       [ 0.01168013,  0.        , -0.        , -0.39795395, -0.00319005,  0.        ,  0.        , -0.        ,  0.        , -0.        , -0.        ,
         0.99666662, -0.01484472,  0.        , -0.        ,  0.01616989,  0.        ,  0.        ,  2.43852848, -0.        ,  0.        , -0.00455704,
         0.        ,  0.        , -0.01008887,  0.11014798,  1.08984319, -0.34317257],
       [-0.        , -0.00447959,  0.00473379, -0.        ,  0.        ,  0.85822502,  0.34385899,  0.        ,  0.        , -0.0038371 , -0.0031354 ,
        -0.        , -0.        ,  0.        ,  0.        , -0.        , -0.0063878 , -0.00259442, -0.        ,  4.52077447,  0.        ,  0.        ,
        -0.13974058, -1.36226713, -0.        , -0.        ,  0.        , -0.        ],
       [ 0.        ,  0.00473379,  0.00447959,  0.        , -0.        , -0.34385899,  0.85822502, -0.        , -0.        ,  0.0031354 , -0.0038371 ,
        -0.        , -0.        , -0.        ,  0.        ,  0.        ,  0.00259442, -0.0063878 ,  0.        ,  0.        ,  4.52077447,  0.        ,
         1.36226713, -0.13974058,  0.        , -0.        ,  0.        , -0.        ],
       [-0.02697717, -0.        , -0.        , -0.0119116 , -0.31188259, -0.        , -0.        , -0.        , -0.        ,  0.        ,  0.        ,
        -0.00207182,  1.24592307, -0.        ,  0.        , -0.29595378,  0.        ,  0.        , -0.00455704,  0.        ,  0.        ,  2.57234362,
         0.        ,  0.        , -1.22210208, -0.00146493, -0.00133853,  0.00122515],
       [-0.        ,  0.00418549,  0.00321893, -0.        ,  0.        ,  0.4999107 , -0.95255184,  0.        ,  0.        ,  0.00108291, -0.00107876,
         0.        , -0.        ,  0.        ,  0.        ,  0.        , -0.00174844,  0.00329368,  0.        , -0.13974058,  1.36226713,  0.        ,
         3.51611428,  0.        ,  0.        ,  0.        ,  0.        , -0.        ],
       [-0.        ,  0.00321893, -0.00418549,  0.        ,  0.        ,  0.95255184,  0.4999107 ,  0.        ,  0.        ,  0.00107876,  0.00108291,
        -0.        ,  0.        ,  0.        ,  0.        ,  0.        , -0.00329368, -0.00174844,  0.        , -1.36226713, -0.13974058,  0.        ,
         0.        ,  3.51611428, -0.        , -0.        , -0.        ,  0.        ],
       [ 0.09389566, -0.        ,  0.        ,  0.00874207, -0.08905049,  0.        , -0.        , -0.        , -0.        , -0.        , -0.        ,
         0.00848957, -0.62008589,  0.        ,  0.        , -1.27946481, -0.        ,  0.        , -0.01008887, -0.        ,  0.        , -1.22210208,
         0.        , -0.        ,  3.67991855,  0.00815065, -0.0023759 ,  0.00021221],
       [-0.01589455, -0.        , -0.        , -0.2575286 ,  0.00905191,  0.        ,  0.        ,  0.        , -0.        , -0.        ,  0.        ,
         0.72709705,  0.01013978, -0.        ,  0.        , -0.00126059, -0.        ,  0.        ,  0.11014798, -0.        , -0.        , -0.00146493,
         0.        , -0.        ,  0.00815065,  5.79945217,  0.97971179,  1.51222305],
       [ 0.00365378, -0.        , -0.        , -0.03156174,  0.0015586 ,  0.        ,  0.        , -0.        , -0.        ,  0.        , -0.        ,
         0.28895606, -0.00078676,  0.        ,  0.        ,  0.00178353, -0.        ,  0.        ,  1.08984319,  0.        ,  0.        , -0.00133853,
         0.        , -0.        , -0.0023759 ,  0.97971179,  1.14077688,  0.05841329],
       [-0.00451434, -0.        ,  0.        , -0.20830531,  0.00061834, -0.        ,  0.        ,  0.        , -0.        , -0.        , -0.        ,
        -0.77144255,  0.00033789,  0.        ,  0.        , -0.00028639, -0.        , -0.        , -0.34317257, -0.        , -0.        ,  0.00122515,
        -0.        ,  0.        ,  0.00021221,  1.51222305,  0.05841329,  2.65360632]]), array([[-0.49887651, -0.        ,  0.        ,  0.12058963, -0.39590708, -0.        ,  0.        ,  0.        ,  0.        ,  0.        ,  0.        ,
         0.0107539 , -0.00902097,  0.        ,  0.        , -0.33253532, -0.        ,  0.        , -0.01168013, -0.        ,  0.        , -0.02697717,
        -0.        , -0.        ,  0.09389566,  0.01589455, -0.00365378,  0.00451434],
       [-0.        ,  1.43072141, -0.        ,  0.        , -0.        ,  0.01921655, -0.00885743,  0.        ,  0.        ,  0.86632406, -0.11139714,
         0.        ,  0.        ,  0.        , -0.        ,  0.        ,  0.75618648, -0.34422824,  0.        ,  0.00447959, -0.00473379, -0.        ,
        -0.00418549, -0.00321893, -0.        , -0.        , -0.        , -0.        ],
       [ 0.        , -0.        ,  1.43072141, -0.        ,  0.        , -0.00885743, -0.01921655,  0.        ,  0.        , -0.11139714, -0.86632406,
         0.        ,  0.        ,  0.        , -0.        , -0.        , -0.34422824, -0.75618648, -0.        , -0.00473379, -0.00447959, -0.        ,
        -0.00321893,  0.00418549,  0.        , -0.        , -0.        ,  0.        ],
       [ 0.12058963,  0.        , -0.        ,  0.50901761,  0.01931762,  0.        ,  0.        ,  0.        , -0.        , -0.        ,  0.        ,
         0.22220734, -0.03200427, -0.        ,  0.        ,  0.03372522,  0.        ,  0.        , -0.39795395, -0.        ,  0.        ,  0.0119116 ,
        -0.        ,  0.        , -0.00874207, -0.2575286 , -0.03156174, -0.20830531],
       [-0.39590708, -0.        ,  0.        ,  0.01931762,  1.75606712,  0.        , -0.        , -0.        , -0.        , -0.        , -0.        ,
        -0.01563422,  0.183128  ,  0.        ,  0.        ,  1.35247836, -0.        ,  0.        ,  0.00319005,  0.        , -0.        , -0.31188259,
         0.        ,  0.        , -0.08905049, -0.00905191, -0.0015586 , -0.00061834],
       [-0.        ,  0.01921655, -0.00885743,  0.        ,  0.        ,  2.46800251,  0.        , -0.        , -0.        , -0.01261166, -0.00395686,
         0.        ,  0.        , -0.        ,  0.        , -0.        ,  0.00990753,  0.00004677,  0.        ,  0.85822502, -0.34385899, -0.        ,
         0.4999107 ,  0.95255184,  0.        ,  0.        ,  0.        , -0.        ],
       [ 0.        , -0.00885743, -0.01921655,  0.        , -0.        ,  0.        ,  2.46800251, -0.        ,  0.        ,  0.00395686, -0.01261166,
         0.        , -0.        , -0.        ,  0.        ,  0.        , -0.00004677,  0.00990753,  0.        ,  0.34385899,  0.85822502, -0.        ,
        -0.95255184,  0.4999107 , -0.        ,  0.        ,  0.        ,  0.        ],
       [ 0.        ,  0.        ,  0.        ,  0.        , -0.        , -0.        , -0.        ,  3.14863489, -0.        ,  0.        ,  0.        ,
        -0.        ,  0.        , -0.        ,  0.01024374,  0.        ,  0.        ,  0.        , -0.        ,  0.        , -0.        , -0.        ,
         0.        ,  0.        , -0.        ,  0.        , -0.        ,  0.        ],
       [ 0.        ,  0.        ,  0.        , -0.        , -0.        , -0.        ,  0.        , -0.        ,  3.14863489, -0.        ,  0.        ,
        -0.        , -0.        , -0.01024374, -0.        ,  0.        , -0.        ,  0.        ,  0.        ,  0.        , -0.        ,  0.        ,
         0.        ,  0.        ,  0.        , -0.        , -0.        , -0.        ],
       [ 0.        ,  0.86632406, -0.11139714, -0.        , -0.        , -0.01261166,  0.00395686,  0.        , -0.        ,  3.22441089,  0.        ,
        -0.        ,  0.        , -0.        ,  0.        ,  0.        , -0.68870069,  0.21251114, -0.        ,  0.0038371 , -0.0031354 ,  0.        ,
        -0.00108291, -0.00107876, -0.        , -0.        ,  0.        , -0.        ],
       [ 0.        , -0.11139714, -0.86632406,  0.        , -0.        , -0.00395686, -0.01261166,  0.        ,  0.        ,  0.        ,  3.22441089,
        -0.        , -0.        , -0.        ,  0.        ,  0.        , -0.21251114, -0.68870069, -0.        ,  0.0031354 ,  0.0038371 ,  0.        ,
         0.00107876, -0.00108291, -0.        ,  0.        , -0.        , -0.        ],
       [ 0.0107539 ,  0.        ,  0.        ,  0.22220734, -0.01563422,  0.        ,  0.        , -0.        , -0.        , -0.        , -0.        ,
         3.17769317,  0.00481961, -0.        , -0.        ,  0.00495404, -0.        , -0.        ,  0.99666662, -0.        , -0.        ,  0.00207182,
         0.        , -0.        , -0.00848957,  0.72709705,  0.28895606, -0.77144255],
       [-0.00902097,  0.        ,  0.        , -0.03200427,  0.183128  ,  0.        , -0.        ,  0.        , -0.        ,  0.        , -0.        ,
         0.00481961,  2.47893522, -0.        ,  0.        ,  0.74608398, -0.        , -0.        ,  0.01484472, -0.        , -0.        ,  1.24592307,
        -0.        ,  0.        , -0.62008589, -0.01013978,  0.00078676, -0.00033789],
       [ 0.        ,  0.        ,  0.        , -0.        ,  0.        , -0.        , -0.        , -0.        , -0.01024374, -0.        , -0.        ,
        -0.        , -0.        ,  4.00220968, -0.        ,  0.        , -0.        ,  0.        ,  0.        ,  0.        , -0.        ,  0.        ,
         0.        ,  0.        ,  0.        , -0.        ,  0.        ,  0.        ],
       [ 0.        , -0.        , -0.        ,  0.        ,  0.        ,  0.        ,  0.        ,  0.01024374, -0.        ,  0.        ,  0.        ,
        -0.        ,  0.        , -0.        ,  4.00220968,  0.        ,  0.        , -0.        , -0.        ,  0.        ,  0.        ,  0.        ,
         0.        ,  0.        ,  0.        ,  0.        ,  0.        ,  0.        ],
       [-0.33253532,  0.        , -0.        ,  0.03372522,  1.35247836, -0.        ,  0.        ,  0.        ,  0.        ,  0.        ,  0.        ,
         0.00495404,  0.74608398,  0.        ,  0.        ,  2.39400396, -0.        , -0.        , -0.01616989, -0.        ,  0.        , -0.29595378,
         0.        ,  0.        , -1.27946481,  0.00126059, -0.00178353,  0.00028639],
       [-0.        ,  0.75618648, -0.34422824,  0.        , -0.        ,  0.00990753, -0.00004677,  0.        , -0.        , -0.68870069, -0.21251114,
        -0.        , -0.        , -0.        ,  0.        , -0.        ,  3.40550596, -0.        ,  0.        ,  0.0063878 , -0.00259442,  0.        ,
         0.00174844,  0.00329368, -0.        , -0.        , -0.        , -0.        ],
       [ 0.        , -0.34422824, -0.75618648,  0.        ,  0.        ,  0.00004677,  0.00990753,  0.        ,  0.        ,  0.21251114, -0.68870069,
        -0.        , -0.        ,  0.        , -0.        , -0.        , -0.        ,  3.40550596,  0.        ,  0.00259442,  0.0063878 ,  0.        ,
        -0.00329368,  0.00174844,  0.        ,  0.        ,  0.        , -0.        ],
       [-0.01168013,  0.        , -0.        , -0.39795395,  0.00319005,  0.        ,  0.        , -0.        ,  0.        , -0.        , -0.        ,
         0.99666662,  0.01484472,  0.        , -0.        , -0.01616989,  0.        ,  0.        ,  2.43852848, -0.        ,  0.        ,  0.00455704,
         0.        ,  0.        ,  0.01008887,  0.11014798,  1.08984319, -0.34317257],
       [-0.        ,  0.00447959, -0.00473379, -0.        ,  0.        ,  0.85822502,  0.34385899,  0.        ,  0.        ,  0.0038371 ,  0.0031354 ,
        -0.        , -0.        ,  0.        ,  0.        , -0.        ,  0.0063878 ,  0.00259442, -0.        ,  4.52077447,  0.        ,  0.        ,
        -0.13974058, -1.36226713, -0.        , -0.        ,  0.        , -0.        ],
       [ 0.        , -0.00473379, -0.00447959,  0.        , -0.        , -0.34385899,  0.85822502, -0.        , -0.        , -0.0031354 ,  0.0038371 ,
        -0.        , -0.        , -0.        ,  0.        ,  0.        , -0.00259442,  0.0063878 ,  0.        ,  0.        ,  4.52077447,  0.        ,
         1.36226713, -0.13974058,  0.        , -0.        ,  0.        , -0.        ],
       [-0.02697717, -0.        , -0.        ,  0.0119116 , -0.31188259, -0.        , -0.        , -0.        ,  0.        ,  0.        ,  0.        ,
         0.00207182,  1.24592307,  0.        ,  0.        , -0.29595378,  0.        ,  0.        ,  0.00455704,  0.        ,  0.        ,  2.57234362,
         0.        ,  0.        , -1.22210208,  0.00146493,  0.00133853, -0.00122515],
       [-0.        , -0.00418549, -0.00321893, -0.        ,  0.        ,  0.4999107 , -0.95255184,  0.        ,  0.        , -0.00108291,  0.00107876,
         0.        , -0.        ,  0.        ,  0.        ,  0.        ,  0.00174844, -0.00329368,  0.        , -0.13974058,  1.36226713,  0.        ,
         3.51611428,  0.        ,  0.        ,  0.        ,  0.        , -0.        ],
       [-0.        , -0.00321893,  0.00418549,  0.        ,  0.        ,  0.95255184,  0.4999107 ,  0.        ,  0.        , -0.00107876, -0.00108291,
        -0.        ,  0.        ,  0.        ,  0.        ,  0.        ,  0.00329368,  0.00174844,  0.        , -1.36226713, -0.13974058,  0.        ,
         0.        ,  3.51611428, -0.        , -0.        , -0.        ,  0.        ],
       [ 0.09389566, -0.        ,  0.        , -0.00874207, -0.08905049,  0.        , -0.        , -0.        ,  0.        , -0.        , -0.        ,
        -0.00848957, -0.62008589,  0.        ,  0.        , -1.27946481, -0.        ,  0.        ,  0.01008887, -0.        ,  0.        , -1.22210208,
         0.        , -0.        ,  3.67991855, -0.00815065,  0.0023759 , -0.00021221],
       [ 0.01589455, -0.        , -0.        , -0.2575286 , -0.00905191,  0.        ,  0.        ,  0.        , -0.        , -0.        ,  0.        ,
         0.72709705, -0.01013978, -0.        ,  0.        ,  0.00126059, -0.        ,  0.        ,  0.11014798, -0.        , -0.        ,  0.00146493,
         0.        , -0.        , -0.00815065,  5.79945217,  0.97971179,  1.51222305],
       [-0.00365378, -0.        , -0.        , -0.03156174, -0.0015586 ,  0.        ,  0.        , -0.        , -0.        ,  0.        , -0.        ,
         0.28895606,  0.00078676,  0.        ,  0.        , -0.00178353, -0.        ,  0.        ,  1.08984319,  0.        ,  0.        ,  0.00133853,
         0.        , -0.        ,  0.0023759 ,  0.97971179,  1.14077688,  0.05841329],
       [ 0.00451434, -0.        ,  0.        , -0.20830531, -0.00061834, -0.        ,  0.        ,  0.        , -0.        , -0.        , -0.        ,
        -0.77144255, -0.00033789,  0.        ,  0.        ,  0.00028639, -0.        , -0.        , -0.34317257, -0.        , -0.        , -0.00122515,
        -0.        ,  0.        , -0.00021221,  1.51222305,  0.05841329,  2.65360632]]))
E(UHF) =    -1.773771
NO eigenvalue
[-1. -0. -0. -0. -0. -0. -0. -0. -0. -0. -0. -0. -0. -0. -0.  0.  0.  0.  0.  0.  0.  0.  0.  0.  0.  0.  0.  0.] [-1. -0. -0. -0. -0. -0. -0. -0. -0. -0. -0. -0. -0. -0. -0.  0.  0.  0.  0.  0.  0.  0.  0.  0.  0.  0.  0.  0.]
NO vec
[[ 0.96901072  0.          0.14013918 ...  0.          0.          0.        ]
 [ 0.          0.         -0.71073298 ...  0.          0.          0.        ]
 [-0.          0.          0.         ...  0.          0.          0.        ]
 ...
 [ 0.         -0.01395624  0.         ... -0.47341415  0.05423162 -0.00029409]
 [ 0.          0.02535148  0.         ...  0.58170115 -0.00814985 -0.02893836]
 [ 0.         -0.00680002  0.         ... -0.11288416 -0.00595772  0.022751  ]]
dm(NO)
[[ 1.  0.  0. ...  0.  0.  0.]
 [ 0.  1.  0. ...  0. -0.  0.]
 [-0.  0.  0. ...  0.  0.  0.]
 ...
 [ 0. -0.  0. ... -0. -0.  0.]
 [ 0. -0.  0. ...  0. -0.  0.]
 [ 0.  0.  0. ... -0.  0. -0.]]
D(g) (NO)
[[ 0.99951369  0.0292031  -0.         ...  0.00061048  0.00618292  0.00315798]
 [-0.0292031   0.99951369 -0.0014603  ... -0.         -0.          0.        ]
 [-0.          0.0014603   0.99951369 ...  0.00384771 -0.02296718 -0.00852888]
 ...
 [-0.00061048 -0.         -0.00384771 ...  0.99951369 -0.         -0.        ]
 [-0.00618292  0.          0.02296718 ... -0.          0.99951369  0.        ]
 [-0.00315798  0.          0.00852888 ... -0.          0.          0.99951369]]
...
N(g) (NO)
[[ 0.99963321 -0.02920659]
 [ 0.02920659  0.99963321]]
...
P(g) (NO)
[[ 1.          0.          0.         ...  0.          0.          0.        ]
 [ 0.          1.         -0.         ...  0.         -0.          0.        ]
 [ 0.00004265  0.00145976  0.         ...  0.         -0.          0.        ]
 ...
 [-0.00061025  0.00001783 -0.         ...  0.         -0.          0.        ]
 [-0.00618065  0.00018058 -0.         ...  0.         -0.          0.        ]
 [-0.00315683  0.00009223 -0.         ...  0.         -0.          0.        ]]
...
Pg_ortho
[[ 0.93903607  0.         -0.         ... -0.00002677  0.00004863 -0.00001304]
 [ 0.          0.         -0.         ... -0.          0.         -0.        ]
 [-0.         -0.          0.         ...  0.         -0.          0.        ]
 ...
 [-0.00081635 -0.          0.         ...  0.00019443 -0.00035319  0.00009474]
 [ 0.0014829   0.         -0.         ... -0.00035319  0.00064156 -0.00017209]
 [-0.00039776 -0.          0.         ...  0.00009474 -0.00017209  0.00004616]]
G(g) (NO)
[[ 0.59471036 -0.00061885  0.07909997 ...  0.00029241  0.00083456  0.00036783]
 [ 0.00061885  0.59471036 -0.00013162 ...  0.05291707 -0.04232236  0.07487197]
 [ 0.07908029 -0.00062686  1.1603242  ... -0.00019517 -0.00006622 -0.00012199]
 ...
 [ 0.00143486  0.05289315  0.00003583 ...  0.86538176  0.04956003  0.02419015]
 [ 0.00385193 -0.04239694 -0.0001344  ...  0.04955144  1.15996808 -0.06409003]
 [ 0.0017374   0.0748308   0.00006507 ...  0.02419427 -0.06407058  1.18954321]]
...
C(NO)
[[-1.          0.         -0.         ...  0.          0.          0.        ]
 [ 0.         -1.          0.         ... -0.         -0.          0.        ]
 [ 0.          0.         -0.14593847 ...  0.          0.          0.        ]
 ...
 [ 0.          0.          0.         ...  0.0000554   0.14135794 -0.36705161]
 [ 0.          0.          0.         ... -0.00028275 -0.29712588  0.02037507]
 [ 0.         -0.          0.         ... -0.00097713  0.08798622 -0.00674229]]
detC 0.9999999999999984
detNg [1.00011959 1.0031192  1.01656999 1.04603809 1.08572345 1.11940355 1.13617966 1.14005254]
xg [0.99988043 0.9968905  0.9837001  0.95598813 0.92104485 0.89333288 0.88014249 0.87715256]
ciS 1.877032987809913
[[-1.18423185  0.         -0.09730985 ...  0.          0.          0.        ]
 [ 0.         -1.18423185  0.         ... -0.07315457  0.02771239 -0.09904265]
 [-0.09730985  0.          0.38070037 ...  0.          0.          0.        ]
 ...
 [ 0.         -0.07315457  0.         ...  1.11312643 -0.16226261 -0.17814191]
 [ 0.          0.02771239  0.         ... -0.16226261  0.46217298 -0.36720115]
 [ 0.         -0.09904265  0.         ... -0.17814191 -0.36720115  0.39297908]]
ciH -3.3740510565228345
S2 = -0.000000
X(g)
[[ 2.         -0.          0.00004265 ...  0.00061025  0.00618065  0.00315683]
 [ 0.          2.         -0.00145976 ...  0.00001783  0.00018058  0.00009223]
 [ 0.00004265  0.00145976  0.         ...  0.          0.          0.        ]
 ...
 [-0.00061025  0.00001783  0.         ...  0.          0.          0.        ]
 [-0.00618065  0.00018058  0.         ...  0.          0.          0.        ]
 [-0.00315683  0.00009223  0.         ...  0.          0.          0.        ]]
X(g) int
[[ 2.         -0.          0.02336454 ...  0.00819157  0.08296421  0.04237474]
 [-0.          2.         -0.01959472 ...  0.00976754  0.09892564  0.05052719]
 [ 0.02336454  0.01959472  0.         ...  0.          0.          0.        ]
 ...
 [-0.00819157  0.00976754  0.         ...  0.          0.          0.        ]
 [-0.08296421  0.09892564  0.         ...  0.          0.          0.        ]
 [-0.04237474  0.05052719  0.         ...  0.          0.          0.        ]]
Hsp + Hph =  -1.797544890492103
Feff (mod,ortho)
[[-0.4772274  -0.         -0.         ...  0.          0.          0.        ]
 [-0.          1.43072141 -0.         ...  0.          0.          0.        ]
 [-0.         -0.          1.43072141 ...  0.          0.          0.        ]
 ...
 [ 0.          0.          0.         ...  5.79911413  0.98004457  1.5121077 ]
 [ 0.          0.          0.         ...  0.98004457  1.14068327  0.05848579]
 [ 0.          0.          0.         ...  1.5121077   0.05848579  2.65357416]]
E(SUHF) =     -1.13607338
e_a, e_b
[-0.59085288  0.15337353  0.3061068   0.61013393  0.67198699  0.67198699  1.06996571  1.10004422  1.10004422  1.50725344  2.33332935  2.41857295  3.14851197
  3.14851197  3.34518626  3.34518626  3.62463211  3.91814679  3.91814679  4.0023326   4.0023326   4.04438667  4.04438667  4.45202207  5.48577861  5.48577861
  5.54538849  6.67154109] [-0.59085288  0.15337353  0.3061068   0.61013393  0.67198699  0.67198699  1.06996571  1.10004422  1.10004422  1.50725344  2.33332935  2.41857295  3.14851197
  3.14851197  3.34518626  3.34518626  3.62463211  3.91814679  3.91814679  4.0023326   4.0023326   4.04438667  4.04438667  4.45202207  5.48577861  5.48577861
  5.54538849  6.67154109]
P_a, P_b
[[ 0.93429123  0.         -0.          0.18553713  0.13093421  0.         -0.         -0.          0.         -0.         -0.         -0.01399983 -0.03879405
   0.         -0.          0.06416658 -0.         -0.          0.03025982  0.         -0.          0.04598565 -0.          0.          0.00874089  0.01469481
  -0.02506324  0.00735959]
 [ 0.          0.         -0.          0.          0.          0.         -0.         -0.          0.         -0.         -0.         -0.         -0.
   0.         -0.          0.         -0.         -0.          0.          0.         -0.          0.         -0.          0.          0.          0.
  -0.          0.        ]
 [-0.         -0.          0.         -0.         -0.         -0.          0.          0.         -0.          0.          0.          0.          0.
  -0.          0.         -0.          0.          0.         -0.         -0.          0.         -0.          0.         -0.         -0.         -0.
   0.         -0.        ]
 [ 0.18553713  0.         -0.          0.03684507  0.0260017   0.         -0.         -0.          0.         -0.         -0.         -0.00278017 -0.00770395
   0.         -0.          0.01274258 -0.         -0.          0.00600918  0.         -0.          0.0091321  -0.          0.          0.00173582  0.00291818
  -0.00497721  0.00146151]
 [ 0.13093421  0.         -0.          0.0260017   0.01834949  0.         -0.         -0.          0.         -0.         -0.         -0.00196198 -0.00543671
   0.         -0.          0.00899248 -0.         -0.          0.0042407   0.         -0.          0.00644456 -0.          0.          0.00122497  0.00205937
  -0.00351243  0.00103139]
 [ 0.          0.         -0.          0.          0.          0.         -0.         -0.          0.         -0.         -0.         -0.         -0.
   0.         -0.          0.         -0.         -0.          0.          0.         -0.          0.         -0.          0.          0.          0.
  -0.          0.        ]
 [-0.         -0.          0.         -0.         -0.         -0.          0.          0.         -0.          0.          0.          0.          0.
  -0.          0.         -0.          0.          0.         -0.         -0.          0.         -0.          0.         -0.         -0.         -0.
   0.         -0.        ]
 [-0.         -0.          0.         -0.         -0.         -0.          0.          0.         -0.          0.          0.          0.          0.
  -0.          0.         -0.          0.          0.         -0.         -0.          0.         -0.          0.         -0.         -0.         -0.
   0.         -0.        ]
 [ 0.          0.         -0.          0.          0.          0.         -0.         -0.          0.         -0.         -0.         -0.         -0.
   0.         -0.          0.         -0.         -0.          0.          0.         -0.          0.         -0.          0.          0.          0.
  -0.          0.        ]
 [-0.         -0.          0.         -0.         -0.         -0.          0.          0.         -0.          0.          0.          0.          0.
  -0.          0.         -0.          0.          0.         -0.         -0.          0.         -0.          0.         -0.         -0.         -0.
   0.         -0.        ]
 [-0.         -0.          0.         -0.         -0.         -0.          0.          0.         -0.          0.          0.          0.          0.
  -0.          0.         -0.          0.          0.         -0.         -0.          0.         -0.          0.         -0.         -0.         -0.
   0.         -0.        ]
 [-0.01399983 -0.          0.         -0.00278017 -0.00196198 -0.          0.          0.         -0.          0.          0.          0.00020978  0.00058131
  -0.          0.         -0.0009615   0.          0.         -0.00045343 -0.          0.         -0.00068907  0.         -0.         -0.00013098 -0.00022019
   0.00037556 -0.00011028]
 [-0.03879405 -0.          0.         -0.00770395 -0.00543671 -0.          0.          0.         -0.          0.          0.          0.00058131  0.00161082
  -0.          0.         -0.00266435  0.          0.         -0.00125646 -0.          0.         -0.00190944  0.         -0.         -0.00036294 -0.00061016
   0.00104069 -0.00030559]
 [ 0.          0.         -0.          0.          0.          0.         -0.         -0.          0.         -0.         -0.         -0.         -0.
   0.         -0.          0.         -0.         -0.          0.          0.         -0.          0.         -0.          0.          0.          0.
  -0.          0.        ]
 [-0.         -0.          0.         -0.         -0.         -0.          0.          0.         -0.          0.          0.          0.          0.
  -0.          0.         -0.          0.          0.         -0.         -0.          0.         -0.          0.         -0.         -0.         -0.
   0.         -0.        ]
 [ 0.06416658  0.         -0.          0.01274258  0.00899248  0.         -0.         -0.          0.         -0.         -0.         -0.0009615  -0.00266435
   0.         -0.          0.00440692 -0.         -0.          0.00207823  0.         -0.          0.00315827 -0.          0.          0.00060032  0.00100923
  -0.00172133  0.00050545]
 [-0.         -0.          0.         -0.         -0.         -0.          0.          0.         -0.          0.          0.          0.          0.
  -0.          0.         -0.          0.          0.         -0.         -0.          0.         -0.          0.         -0.         -0.         -0.
   0.         -0.        ]
 [-0.         -0.          0.         -0.         -0.         -0.          0.          0.         -0.          0.          0.          0.          0.
  -0.          0.         -0.          0.          0.         -0.         -0.          0.         -0.          0.         -0.         -0.         -0.
   0.         -0.        ]
 [ 0.03025982  0.         -0.          0.00600918  0.0042407   0.         -0.         -0.          0.         -0.         -0.         -0.00045343 -0.00125646
   0.         -0.          0.00207823 -0.         -0.          0.00098005  0.         -0.          0.00148938 -0.          0.          0.0002831   0.00047594
  -0.00081175  0.00023836]
 [ 0.          0.         -0.          0.          0.          0.         -0.         -0.          0.         -0.         -0.         -0.         -0.
   0.         -0.          0.         -0.         -0.          0.          0.         -0.          0.         -0.          0.          0.          0.
  -0.          0.        ]
 [-0.         -0.          0.         -0.         -0.         -0.          0.          0.         -0.          0.          0.          0.          0.
  -0.          0.         -0.          0.          0.         -0.         -0.          0.         -0.          0.         -0.         -0.         -0.
   0.         -0.        ]
 [ 0.04598565  0.         -0.          0.0091321   0.00644456  0.         -0.         -0.          0.         -0.         -0.         -0.00068907 -0.00190944
   0.         -0.          0.00315827 -0.         -0.          0.00148938  0.         -0.          0.00226341 -0.          0.          0.00043023  0.00072328
  -0.00123361  0.00036224]
 [-0.         -0.          0.         -0.         -0.         -0.          0.          0.         -0.          0.          0.          0.          0.
  -0.          0.         -0.          0.          0.         -0.         -0.          0.         -0.          0.         -0.         -0.         -0.
   0.         -0.        ]
 [ 0.          0.         -0.          0.          0.          0.         -0.         -0.          0.         -0.         -0.         -0.         -0.
   0.         -0.          0.         -0.         -0.          0.          0.         -0.          0.         -0.          0.          0.          0.
  -0.          0.        ]
 [ 0.00874089  0.         -0.          0.00173582  0.00122497  0.         -0.         -0.          0.         -0.         -0.         -0.00013098 -0.00036294
   0.         -0.          0.00060032 -0.         -0.          0.0002831   0.         -0.          0.00043023 -0.          0.          0.00008178  0.00013748
  -0.00023448  0.00006885]
 [ 0.01469481  0.         -0.          0.00291818  0.00205937  0.         -0.         -0.          0.         -0.         -0.         -0.00022019 -0.00061016
   0.         -0.          0.00100923 -0.         -0.          0.00047594  0.         -0.          0.00072328 -0.          0.          0.00013748  0.00023112
  -0.0003942   0.00011575]
 [-0.02506324 -0.          0.         -0.00497721 -0.00351243 -0.          0.          0.         -0.          0.          0.          0.00037556  0.00104069
  -0.          0.         -0.00172133  0.          0.         -0.00081175 -0.          0.         -0.00123361  0.         -0.         -0.00023448 -0.0003942
   0.00067235 -0.00019743]
 [ 0.00735959  0.         -0.          0.00146151  0.00103139  0.         -0.         -0.          0.         -0.         -0.         -0.00011028 -0.00030559
   0.         -0.          0.00050545 -0.         -0.          0.00023836  0.         -0.          0.00036224 -0.          0.          0.00006885  0.00011575
  -0.00019743  0.00005797]] 
 [[ 0.93429123  0.         -0.         -0.18553713  0.13093421  0.          0.          0.         -0.         -0.         -0.          0.01399983 -0.03879405
  -0.          0.          0.06416658 -0.         -0.         -0.03025982 -0.         -0.          0.04598565 -0.          0.          0.00874089 -0.01469481
   0.02506324 -0.00735959]
 [ 0.          0.         -0.         -0.          0.          0.          0.          0.         -0.         -0.         -0.          0.         -0.
  -0.          0.          0.         -0.         -0.         -0.         -0.         -0.          0.         -0.          0.          0.         -0.
   0.         -0.        ]
 [-0.         -0.          0.          0.         -0.         -0.         -0.         -0.          0.          0.          0.         -0.          0.
   0.         -0.         -0.          0.          0.          0.          0.          0.         -0.          0.         -0.         -0.          0.
  -0.          0.        ]
 [-0.18553713 -0.          0.          0.03684507 -0.0260017  -0.         -0.         -0.          0.          0.          0.         -0.00278017  0.00770395
   0.         -0.         -0.01274258  0.          0.          0.00600918  0.          0.         -0.0091321   0.         -0.         -0.00173582  0.00291818
  -0.00497721  0.00146151]
 [ 0.13093421  0.         -0.         -0.0260017   0.01834949  0.          0.          0.         -0.         -0.         -0.          0.00196198 -0.00543671
  -0.          0.          0.00899248 -0.         -0.         -0.0042407  -0.         -0.          0.00644456 -0.          0.          0.00122497 -0.00205937
   0.00351243 -0.00103139]
 [ 0.          0.         -0.         -0.          0.          0.          0.          0.         -0.         -0.         -0.          0.         -0.
  -0.          0.          0.         -0.         -0.         -0.         -0.         -0.          0.         -0.          0.          0.         -0.
   0.         -0.        ]
 [ 0.          0.         -0.         -0.          0.          0.          0.          0.         -0.         -0.         -0.          0.         -0.
  -0.          0.          0.         -0.         -0.         -0.         -0.         -0.          0.         -0.          0.          0.         -0.
   0.         -0.        ]
 [ 0.          0.         -0.         -0.          0.          0.          0.          0.         -0.         -0.         -0.          0.         -0.
  -0.          0.          0.         -0.         -0.         -0.         -0.         -0.          0.         -0.          0.          0.         -0.
   0.         -0.        ]
 [-0.         -0.          0.          0.         -0.         -0.         -0.         -0.          0.          0.          0.         -0.          0.
   0.         -0.         -0.          0.          0.          0.          0.          0.         -0.          0.         -0.         -0.          0.
  -0.          0.        ]
 [-0.         -0.          0.          0.         -0.         -0.         -0.         -0.          0.          0.          0.         -0.          0.
   0.         -0.         -0.          0.          0.          0.          0.          0.         -0.          0.         -0.         -0.          0.
  -0.          0.        ]
 [-0.         -0.          0.          0.         -0.         -0.         -0.         -0.          0.          0.          0.         -0.          0.
   0.         -0.         -0.          0.          0.          0.          0.          0.         -0.          0.         -0.         -0.          0.
  -0.          0.        ]
 [ 0.01399983  0.         -0.         -0.00278017  0.00196198  0.          0.          0.         -0.         -0.         -0.          0.00020978 -0.00058131
  -0.          0.          0.0009615  -0.         -0.         -0.00045343 -0.         -0.          0.00068907 -0.          0.          0.00013098 -0.00022019
   0.00037556 -0.00011028]
 [-0.03879405 -0.          0.          0.00770395 -0.00543671 -0.         -0.         -0.          0.          0.          0.         -0.00058131  0.00161082
   0.         -0.         -0.00266435  0.          0.          0.00125646  0.          0.         -0.00190944  0.         -0.         -0.00036294  0.00061016
  -0.00104069  0.00030559]
 [-0.         -0.          0.          0.         -0.         -0.         -0.         -0.          0.          0.          0.         -0.          0.
   0.         -0.         -0.          0.          0.          0.          0.          0.         -0.          0.         -0.         -0.          0.
  -0.          0.        ]
 [ 0.          0.         -0.         -0.          0.          0.          0.          0.         -0.         -0.         -0.          0.         -0.
  -0.          0.          0.         -0.         -0.         -0.         -0.         -0.          0.         -0.          0.          0.         -0.
   0.         -0.        ]
 [ 0.06416658  0.         -0.         -0.01274258  0.00899248  0.          0.          0.         -0.         -0.         -0.          0.0009615  -0.00266435
  -0.          0.          0.00440692 -0.         -0.         -0.00207823 -0.         -0.          0.00315827 -0.          0.          0.00060032 -0.00100923
   0.00172133 -0.00050545]
 [-0.         -0.          0.          0.         -0.         -0.         -0.         -0.          0.          0.          0.         -0.          0.
   0.         -0.         -0.          0.          0.          0.          0.          0.         -0.          0.         -0.         -0.          0.
  -0.          0.        ]
 [-0.         -0.          0.          0.         -0.         -0.         -0.         -0.          0.          0.          0.         -0.          0.
   0.         -0.         -0.          0.          0.          0.          0.          0.         -0.          0.         -0.         -0.          0.
  -0.          0.        ]
 [-0.03025982 -0.          0.          0.00600918 -0.0042407  -0.         -0.         -0.          0.          0.          0.         -0.00045343  0.00125646
   0.         -0.         -0.00207823  0.          0.          0.00098005  0.          0.         -0.00148938  0.         -0.         -0.0002831   0.00047594
  -0.00081175  0.00023836]
 [-0.         -0.          0.          0.         -0.         -0.         -0.         -0.          0.          0.          0.         -0.          0.
   0.         -0.         -0.          0.          0.          0.          0.          0.         -0.          0.         -0.         -0.          0.
  -0.          0.        ]
 [-0.         -0.          0.          0.         -0.         -0.         -0.         -0.          0.          0.          0.         -0.          0.
   0.         -0.         -0.          0.          0.          0.          0.          0.         -0.          0.         -0.         -0.          0.
  -0.          0.        ]
 [ 0.04598565  0.         -0.         -0.0091321   0.00644456  0.          0.          0.         -0.         -0.         -0.          0.00068907 -0.00190944
  -0.          0.          0.00315827 -0.         -0.         -0.00148938 -0.         -0.          0.00226341 -0.          0.          0.00043023 -0.00072328
   0.00123361 -0.00036224]
 [-0.         -0.          0.          0.         -0.         -0.         -0.         -0.          0.          0.          0.         -0.          0.
   0.         -0.         -0.          0.          0.          0.          0.          0.         -0.          0.         -0.         -0.          0.
  -0.          0.        ]
 [ 0.          0.         -0.         -0.          0.          0.          0.          0.         -0.         -0.         -0.          0.         -0.
  -0.          0.          0.         -0.         -0.         -0.         -0.         -0.          0.         -0.          0.          0.         -0.
   0.         -0.        ]
 [ 0.00874089  0.         -0.         -0.00173582  0.00122497  0.          0.          0.         -0.         -0.         -0.          0.00013098 -0.00036294
  -0.          0.          0.00060032 -0.         -0.         -0.0002831  -0.         -0.          0.00043023 -0.          0.          0.00008178 -0.00013748
   0.00023448 -0.00006885]
 [-0.01469481 -0.          0.          0.00291818 -0.00205937 -0.         -0.         -0.          0.          0.          0.         -0.00022019  0.00061016
[...]
 [-0.         -0.          1.45923394 ...  0.          0.          0.        ]
 ...
 [ 0.          0.          0.         ...  5.83229787  0.98328099  1.51745309]
 [ 0.          0.          0.         ...  0.98328099  1.14631015  0.05843797]
 [ 0.          0.          0.         ...  1.51745309  0.05843797  2.66249114]]
E(SUHF) =     -1.15044387
e_a, e_b
[-0.56858223  0.16565669  0.30944336  0.62388597  0.68916538  0.68916538  1.08472655  1.11265573  1.11265573  1.51635076  2.33232025  2.46530025  3.17182583
  3.17182583  3.37383025  3.37383025  3.65621148  3.94140401  3.94140401  4.02574078  4.02574078  4.07792062  4.07792062  4.4806289   5.51440373  5.51440373
  5.57620597  6.70963118] [-0.56858223  0.16565669  0.30944336  0.62388597  0.68916538  0.68916538  1.08472655  1.11265573  1.11265573  1.51635076  2.33232025  2.46530025  3.17182583
  3.17182583  3.37383025  3.37383025  3.65621148  3.94140401  3.94140401  4.02574078  4.02574078  4.07792062  4.07792062  4.4806289   5.51440373  5.51440373
  5.57620597  6.70963118]
P_a, P_b
[[ 0.86550894  0.         -0.          0.30471605  0.11850988  0.         -0.         -0.         -0.         -0.          0.          0.00654924 -0.04262557
  -0.         -0.          0.06812944 -0.          0.         -0.00443371  0.         -0.          0.0473287  -0.         -0.          0.01015123  0.02174168
  -0.00329318  0.01261127]
 [ 0.          0.         -0.          0.          0.          0.         -0.         -0.         -0.         -0.          0.          0.         -0.
  -0.         -0.          0.         -0.          0.         -0.          0.         -0.          0.         -0.         -0.          0.          0.
  -0.          0.        ]
 [-0.         -0.          0.         -0.         -0.         -0.          0.          0.          0.          0.         -0.         -0.          0.
   0.          0.         -0.          0.         -0.          0.         -0.          0.         -0.          0.          0.         -0.         -0.
   0.         -0.        ]
 [ 0.30471605  0.         -0.          0.10728009  0.04172327  0.         -0.         -0.         -0.         -0.          0.          0.00230576 -0.015007
  -0.         -0.          0.02398604 -0.          0.         -0.00156096  0.         -0.          0.01666281 -0.         -0.          0.0035739   0.0076545
  -0.00115941  0.00444   ]
 [ 0.11850988  0.         -0.          0.04172327  0.01622697  0.         -0.         -0.         -0.         -0.          0.          0.00089675 -0.00583651
  -0.         -0.          0.00932863 -0.          0.         -0.00060709  0.         -0.          0.00648049 -0.         -0.          0.00138996  0.00297698
  -0.00045092  0.0017268 ]
 [ 0.          0.         -0.          0.          0.          0.         -0.         -0.         -0.         -0.          0.          0.         -0.
  -0.         -0.          0.         -0.          0.         -0.          0.         -0.          0.         -0.         -0.          0.          0.
  -0.          0.        ]
 [-0.         -0.          0.         -0.         -0.         -0.          0.          0.          0.          0.         -0.         -0.          0.
   0.          0.         -0.          0.         -0.          0.         -0.          0.         -0.          0.          0.         -0.         -0.
   0.         -0.        ]
 [-0.         -0.          0.         -0.         -0.         -0.          0.          0.          0.          0.         -0.         -0.          0.
   0.          0.         -0.          0.         -0.          0.         -0.          0.         -0.          0.          0.         -0.         -0.
   0.         -0.        ]
 [-0.         -0.          0.         -0.         -0.         -0.          0.          0.          0.          0.         -0.         -0.          0.
   0.          0.         -0.          0.         -0.          0.         -0.          0.         -0.          0.          0.         -0.         -0.
   0.         -0.        ]
 [-0.         -0.          0.         -0.         -0.         -0.          0.          0.          0.          0.         -0.         -0.          0.
   0.          0.         -0.          0.         -0.          0.         -0.          0.         -0.          0.          0.         -0.         -0.
   0.         -0.        ]
 [ 0.          0.         -0.          0.          0.          0.         -0.         -0.         -0.         -0.          0.          0.         -0.
  -0.         -0.          0.         -0.          0.         -0.          0.         -0.          0.         -0.         -0.          0.          0.
  -0.          0.        ]
 [ 0.00654924  0.         -0.          0.00230576  0.00089675  0.         -0.         -0.         -0.         -0.          0.          0.00004956 -0.00032254
  -0.         -0.          0.00051553 -0.          0.         -0.00003355  0.         -0.          0.00035813 -0.         -0.          0.00007681  0.00016452
  -0.00002492  0.00009543]
 [-0.04262557 -0.          0.         -0.015007   -0.00583651 -0.          0.          0.          0.          0.         -0.         -0.00032254  0.00209927
   0.          0.         -0.00335532  0.         -0.          0.00021836 -0.          0.         -0.0023309   0.          0.         -0.00049994 -0.00107076
   0.00016219 -0.00062109]
 [-0.         -0.          0.         -0.         -0.         -0.          0.          0.          0.          0.         -0.         -0.          0.
   0.          0.         -0.          0.         -0.          0.         -0.          0.         -0.          0.          0.         -0.         -0.
   0.         -0.        ]
 [-0.         -0.          0.         -0.         -0.         -0.          0.          0.          0.          0.         -0.         -0.          0.
   0.          0.         -0.          0.         -0.          0.         -0.          0.         -0.          0.          0.         -0.         -0.
   0.         -0.        ]
 [ 0.06812944  0.         -0.          0.02398604  0.00932863  0.         -0.         -0.         -0.         -0.          0.          0.00051553 -0.00335532
  -0.         -0.          0.00536288 -0.          0.         -0.000349    0.         -0.          0.00372553 -0.         -0.          0.00079906  0.00171142
  -0.00025923  0.00099271]
 [-0.         -0.          0.         -0.         -0.         -0.          0.          0.          0.          0.         -0.         -0.          0.
   0.          0.         -0.          0.         -0.          0.         -0.          0.         -0.          0.          0.         -0.         -0.
   0.         -0.        ]
 [ 0.          0.         -0.          0.          0.          0.         -0.         -0.         -0.         -0.          0.          0.         -0.
  -0.         -0.          0.         -0.          0.         -0.          0.         -0.          0.         -0.         -0.          0.          0.
  -0.          0.        ]
 [-0.00443371 -0.          0.         -0.00156096 -0.00060709 -0.          0.          0.          0.          0.         -0.         -0.00003355  0.00021836
   0.          0.         -0.000349    0.         -0.          0.00002271 -0.          0.         -0.00024245  0.          0.         -0.000052   -0.00011138
   0.00001687 -0.0000646 ]
 [ 0.          0.         -0.          0.          0.          0.         -0.         -0.         -0.         -0.          0.          0.         -0.
  -0.         -0.          0.         -0.          0.         -0.          0.         -0.          0.         -0.         -0.          0.          0.
  -0.          0.        ]
 [-0.         -0.          0.         -0.         -0.         -0.          0.          0.          0.          0.         -0.         -0.          0.
   0.          0.         -0.          0.         -0.          0.         -0.          0.         -0.          0.          0.         -0.         -0.
   0.         -0.        ]
 [ 0.0473287   0.         -0.          0.01666281  0.00648049  0.         -0.         -0.         -0.         -0.          0.          0.00035813 -0.0023309
  -0.         -0.          0.00372553 -0.          0.         -0.00024245  0.         -0.          0.00258808 -0.         -0.          0.0005551   0.0011889
  -0.00018008  0.00068962]
 [-0.         -0.          0.         -0.         -0.         -0.          0.          0.          0.          0.         -0.         -0.          0.
   0.          0.         -0.          0.         -0.          0.         -0.          0.         -0.          0.          0.         -0.         -0.
   0.         -0.        ]
 [-0.         -0.          0.         -0.         -0.         -0.          0.          0.          0.          0.         -0.         -0.          0.
   0.          0.         -0.          0.         -0.          0.         -0.          0.         -0.          0.          0.         -0.         -0.
   0.         -0.        ]
 [ 0.01015123  0.         -0.          0.0035739   0.00138996  0.         -0.         -0.         -0.         -0.          0.          0.00007681 -0.00049994
  -0.         -0.          0.00079906 -0.          0.         -0.000052    0.         -0.          0.0005551  -0.         -0.          0.00011906  0.000255
  -0.00003862  0.00014791]
 [ 0.02174168  0.         -0.          0.0076545   0.00297698  0.         -0.         -0.         -0.         -0.          0.          0.00016452 -0.00107076
  -0.         -0.          0.00171142 -0.          0.         -0.00011138  0.         -0.          0.0011889  -0.         -0.          0.000255    0.00054615
  -0.00008272  0.0003168 ]
 [-0.00329318 -0.          0.         -0.00115941 -0.00045092 -0.          0.          0.          0.          0.         -0.         -0.00002492  0.00016219
   0.          0.         -0.00025923  0.         -0.          0.00001687 -0.          0.         -0.00018008  0.          0.         -0.00003862 -0.00008272
   0.00001253 -0.00004798]
 [ 0.01261127  0.         -0.          0.00444     0.0017268   0.         -0.         -0.         -0.         -0.          0.          0.00009543 -0.00062109
  -0.         -0.          0.00099271 -0.          0.         -0.0000646   0.         -0.          0.00068962 -0.         -0.          0.00014791  0.0003168
  -0.00004798  0.00018376]] 
 [[ 0.86550894 -0.         -0.         -0.30471605  0.11850988  0.         -0.          0.          0.          0.         -0.         -0.00654924 -0.04262557
   0.          0.          0.06812944  0.         -0.          0.00443371 -0.          0.          0.0473287  -0.          0.          0.01015123 -0.02174168
   0.00329318 -0.01261127]
 [-0.          0.          0.          0.         -0.         -0.          0.         -0.         -0.         -0.          0.          0.          0.
  -0.         -0.         -0.         -0.          0.         -0.          0.         -0.         -0.          0.         -0.         -0.          0.
  -0.          0.        ]
 [-0.          0.          0.          0.         -0.         -0.          0.         -0.         -0.         -0.          0.          0.          0.
  -0.         -0.         -0.         -0.          0.         -0.          0.         -0.         -0.          0.         -0.         -0.          0.
  -0.          0.        ]
 [-0.30471605  0.          0.          0.10728009 -0.04172327 -0.          0.         -0.         -0.         -0.          0.          0.00230576  0.015007
  -0.         -0.         -0.02398604 -0.          0.         -0.00156096  0.         -0.         -0.01666281  0.         -0.         -0.0035739   0.0076545
  -0.00115941  0.00444   ]
 [ 0.11850988 -0.         -0.         -0.04172327  0.01622697  0.         -0.          0.          0.          0.         -0.         -0.00089675 -0.00583651
   0.          0.          0.00932863  0.         -0.          0.00060709 -0.          0.          0.00648049 -0.          0.          0.00138996 -0.00297698
   0.00045092 -0.0017268 ]
 [ 0.         -0.         -0.         -0.          0.          0.         -0.          0.          0.          0.         -0.         -0.         -0.
   0.          0.          0.          0.         -0.          0.         -0.          0.          0.         -0.          0.          0.         -0.
   0.         -0.        ]
 [-0.          0.          0.          0.         -0.         -0.          0.         -0.         -0.         -0.          0.          0.          0.
  -0.         -0.         -0.         -0.          0.         -0.          0.         -0.         -0.          0.         -0.         -0.          0.
  -0.          0.        ]
 [ 0.         -0.         -0.         -0.          0.          0.         -0.          0.          0.          0.         -0.         -0.         -0.
   0.          0.          0.          0.         -0.          0.         -0.          0.          0.         -0.          0.          0.         -0.
   0.         -0.        ]
 [ 0.         -0.         -0.         -0.          0.          0.         -0.          0.          0.          0.         -0.         -0.         -0.
   0.          0.          0.          0.         -0.          0.         -0.          0.          0.         -0.          0.          0.         -0.
   0.         -0.        ]
 [ 0.         -0.         -0.         -0.          0.          0.         -0.          0.          0.          0.         -0.         -0.         -0.
   0.          0.          0.          0.         -0.          0.         -0.          0.          0.         -0.          0.          0.         -0.
   0.         -0.        ]
 [-0.          0.          0.          0.         -0.         -0.          0.         -0.         -0.         -0.          0.          0.          0.
  -0.         -0.         -0.         -0.          0.         -0.          0.         -0.         -0.          0.         -0.         -0.          0.
  -0.          0.        ]
 [-0.00654924  0.          0.          0.00230576 -0.00089675 -0.          0.         -0.         -0.         -0.          0.          0.00004956  0.00032254
  -0.         -0.         -0.00051553 -0.          0.         -0.00003355  0.         -0.         -0.00035813  0.         -0.         -0.00007681  0.00016452
  -0.00002492  0.00009543]
 [-0.04262557  0.          0.          0.015007   -0.00583651 -0.          0.         -0.         -0.         -0.          0.          0.00032254  0.00209927
  -0.         -0.         -0.00335532 -0.          0.         -0.00021836  0.         -0.         -0.0023309   0.         -0.         -0.00049994  0.00107076
  -0.00016219  0.00062109]
 [ 0.         -0.         -0.         -0.          0.          0.         -0.          0.          0.          0.         -0.         -0.         -0.
   0.          0.          0.          0.         -0.          0.         -0.          0.          0.         -0.          0.          0.         -0.
   0.         -0.        ]
 [ 0.         -0.         -0.         -0.          0.          0.         -0.          0.          0.          0.         -0.         -0.         -0.
   0.          0.          0.          0.         -0.          0.         -0.          0.          0.         -0.          0.          0.         -0.
   0.         -0.        ]
 [ 0.06812944 -0.         -0.         -0.02398604  0.00932863  0.         -0.          0.          0.          0.         -0.         -0.00051553 -0.00335532
   0.          0.          0.00536288  0.         -0.          0.000349   -0.          0.          0.00372553 -0.          0.          0.00079906 -0.00171142
   0.00025923 -0.00099271]
 [ 0.         -0.         -0.         -0.          0.          0.         -0.          0.          0.          0.         -0.         -0.         -0.
   0.          0.          0.          0.         -0.          0.         -0.          0.          0.         -0.          0.          0.         -0.
   0.         -0.        ]
 [-0.          0.          0.          0.         -0.         -0.          0.         -0.         -0.         -0.          0.          0.          0.
  -0.         -0.         -0.         -0.          0.         -0.          0.         -0.         -0.          0.         -0.         -0.          0.
  -0.          0.        ]
 [ 0.00443371 -0.         -0.         -0.00156096  0.00060709  0.         -0.          0.          0.          0.         -0.         -0.00003355 -0.00021836
   0.          0.          0.000349    0.         -0.          0.00002271 -0.          0.          0.00024245 -0.          0.          0.000052   -0.00011138
   0.00001687 -0.0000646 ]
 [-0.          0.          0.          0.         -0.         -0.          0.         -0.         -0.         -0.          0.          0.          0.
  -0.         -0.         -0.         -0.          0.         -0.          0.         -0.         -0.          0.         -0.         -0.          0.
  -0.          0.        ]
 [ 0.         -0.         -0.         -0.          0.          0.         -0.          0.          0.          0.         -0.         -0.         -0.
   0.          0.          0.          0.         -0.          0.         -0.          0.          0.         -0.          0.          0.         -0.
   0.         -0.        ]
 [ 0.0473287  -0.         -0.         -0.01666281  0.00648049  0.         -0.          0.          0.          0.         -0.         -0.00035813 -0.0023309
   0.          0.          0.00372553  0.         -0.          0.00024245 -0.          0.          0.00258808 -0.          0.          0.0005551  -0.0011889
   0.00018008 -0.00068962]
 [-0.          0.          0.          0.         -0.         -0.          0.         -0.         -0.         -0.          0.          0.          0.
  -0.         -0.         -0.         -0.          0.         -0.          0.         -0.         -0.          0.         -0.         -0.          0.
  -0.          0.        ]
 [ 0.         -0.         -0.         -0.          0.          0.         -0.          0.          0.          0.         -0.         -0.         -0.
   0.          0.          0.          0.         -0.          0.         -0.          0.          0.         -0.          0.          0.         -0.
   0.         -0.        ]
 [ 0.01015123 -0.         -0.         -0.0035739   0.00138996  0.         -0.          0.          0.          0.         -0.         -0.00007681 -0.00049994
   0.          0.          0.00079906  0.         -0.          0.000052   -0.          0.          0.0005551  -0.          0.          0.00011906 -0.000255
   0.00003862 -0.00014791]
 [-0.02174168  0.          0.          0.0076545  -0.00297698 -0.          0.         -0.         -0.         -0.          0.          0.00016452  0.00107076
  -0.         -0.         -0.00171142 -0.          0.         -0.00011138  0.         -0.         -0.0011889   0.         -0.         -0.000255    0.00054615
  -0.00008272  0.0003168 ]
 [ 0.00329318 -0.         -0.         -0.00115941  0.00045092  0.         -0.          0.          0.          0.         -0.         -0.00002492 -0.00016219
   0.          0.          0.00025923  0.         -0.          0.00001687 -0.          0.          0.00018008 -0.          0.          0.00003862 -0.00008272
   0.00001253 -0.00004798]
 [-0.01261127  0.          0.          0.00444    -0.0017268  -0.          0.         -0.         -0.         -0.          0.          0.00009543  0.00062109
  -0.         -0.         -0.00099271 -0.          0.         -0.0000646   0.         -0.         -0.00068962  0.         -0.         -0.00014791  0.0003168
  -0.00004798  0.00018376]]

***************
SCF converged at cycle 46
Final E(SUHF) =     -1.15044387, delta E = -8.66098e-09
***** Start DFT Correlation for SUHF+DFT **********
tot grids = 20048
E(SUHF) =     -1.15044387
E_c(TPSS) =     -0.03615365
E(SUHF+DFT) =     -1.18659752
