

#INFO: **** input file is /share/home/srwang/ExSCF/test/pytest/scan_h2/scan_dft.py ****
#import phf
from pyscf import lib
#import scipy
import numpy as np
import sys, os, contextlib

from pyphf import util, sudft

#xyz = 'h2.xyz' #sys.argv[1]
fch = 'test_uhf.fchk' #sys.argv[2]
#bas = '../h2.bas'
bas = 'cc-pvtz'

lib.num_threads(4)

for r in np.arange(0.5, 1.4, 0.1):
    output = 'sudft_%.1f_diis.out' % r
    os.system("echo '\n' > %s" % output)
    with open(output, 'a', encoding='utf-8') as f:
        with contextlib.redirect_stdout(f):
            xyz = '''H 0.0 0.0 0.0; H 0.0 0.0 %f'''%r
            mf = util.guess_from_fchk(xyz, bas, fch)
            #mf = util.guess(xyz, bas)
            #f.flush()
            mf2 = util.SUHF(mf)
            #mf2.cut_no = False
            mf2.debug = False
            #mf2.max_cycle = 50
            mf2.diis_on = True
            #mf2.output = 'sudft_%.1f.out'%r
            #mf2.kernel()
            
            mf3 = sudft.SUDFT(mf2)
            mf3.kernel()
                    #INFO: ******************** input file end ********************


System: uname_result(system='Linux', node='xcluster', release='3.10.0-693.el7.x86_64', version='#1 SMP Thu Jul 6 19:56:57 EDT 2017', machine='x86_64', processor='x86_64')  Threads 4
Python 3.7.4 (default, Aug 13 2019, 20:35:49) 
[GCC 7.3.0]
numpy 1.17.2  scipy 1.4.1
Date: Sat Nov 21 21:24:29 2020
PySCF version 1.7.3
PySCF path  /share/apps/Python/Anaconda3-2019/lib/python3.7/site-packages/pyscf

[CONFIG] conf_file None
[INPUT] verbose = 4
[INPUT] num. atoms = 2
[INPUT] num. electrons = 2
[INPUT] charge = 0
[INPUT] spin (= nelec alpha-beta = 2S) = 0
[INPUT] symmetry False subgroup None
[INPUT] Mole.unit = angstrom
[INPUT]  1 H      0.000000000000   0.000000000000   0.000000000000 AA    0.000000000000   0.000000000000   0.000000000000 Bohr
[INPUT]  2 H      0.000000000000   0.000000000000   0.500000000000 AA    0.000000000000   0.000000000000   0.944863062283 Bohr

nuclear repulsion = 1.05835442184
number of shells = 12
number of NR pGTOs = 32
number of NR cGTOs = 28
basis = cc-pvtz
ecp = {}
CPU time:         1.21


******** <class 'pyscf.scf.uhf.UHF'> ********
method = UHF
initial guess = minao
damping factor = 0
level_shift factor = 0
DIIS = <class 'pyscf.scf.diis.CDIIS'>
diis_start_cycle = 1
diis_space = 8
SCF conv_tol = 1e-09
SCF conv_tol_grad = None
SCF max_cycles = 1
direct_scf = True
direct_scf_tol = 1e-13
chkfile to save SCF result = /share/home/srwang/ExSCF/test/pytest/scan_h2/tmpjvxpm4pb
max_memory 4000 MB (current use 99 MB)
number electrons alpha = 1  beta = 1
Set gradient conv threshold to 3.16228e-05
init E= -0.77836742655416
  alpha nocc = 1  HOMO = -0.705289662305369  LUMO = 0.163386946040696
  beta  nocc = 1  HOMO = -0.697577488386257  LUMO = 0.164061129189922
cycle= 1 E= -1.06223413443537  delta_E= -0.284  |g|= 0.0333  |ddm|= 0.331
SCF not converged.
SCF energy = -1.06223413443537 after 1 cycles  <S^2> = 2.3214814e-06  2S+1 = 1.0000046


******** <class 'pyscf.scf.uhf.UHF'> ********
method = UHF
initial guess = minao
damping factor = 0
level_shift factor = 0
DIIS = <class 'pyscf.scf.diis.CDIIS'>
diis_start_cycle = 1
diis_space = 8
SCF conv_tol = 1e-09
SCF conv_tol_grad = None
SCF max_cycles = 1
direct_scf = True
direct_scf_tol = 1e-13
chkfile to save SCF result = /share/home/srwang/ExSCF/test/pytest/scan_h2/tmpjvxpm4pb
max_memory 4000 MB (current use 113 MB)
number electrons alpha = 1  beta = 1
Set gradient conv threshold to 3.16228e-05
init E= -1.18452871429633
  alpha nocc = 1  HOMO = -0.630087264703209  LUMO = 0.27942017747846
  beta  nocc = 1  HOMO = -0.63008726470321  LUMO = 0.279420177478468
cycle= 1 E= -1.04603968404656  delta_E= 0.138  |g|= 0.122  |ddm|= 0.253
SCF not converged.
SCF energy = -1.04603968404656 after 1 cycles  <S^2> = 0.039484129  2S+1 = 1.0760746

******** <class 'pyphf.util.SUHF'> ********
SVD: S^(-1/2)
[[-1.65351356e-01 -1.40210063e-17  3.22419892e-16  1.56295463e-01
   1.45002068e-01  6.43681864e-20  1.85248211e-17 -3.49356742e-17
   6.91962671e-18  3.14029670e-01  6.27719110e-16 -3.71089529e-17
   1.52159881e-01 -1.49824533e-01  2.76820181e-16  5.58693408e-16
   2.12909461e-17 -1.06439293e-19  4.53903305e-01 -4.86496442e-01
   3.16554783e-15 -7.74812380e-16  2.10828979e+00 -4.16421819e-14
   3.54588725e-15 -2.88462884e+00  2.45264135e+00 -2.40910588e-01]
 [-2.12299108e-01 -3.82115405e-17  1.41971292e-16  8.59668175e-02
  -5.76667323e-02  1.01683781e-17  1.09486124e-16  4.84438568e-17
  -6.57405921e-17 -3.61472497e-02 -3.21834000e-16  4.33043485e-16
  -9.87568127e-02 -3.77589001e-01  3.75697934e-16 -5.09232851e-16
   3.45603648e-18 -1.68060872e-17 -2.03853129e-01  1.30274423e+00
  -8.07595226e-15 -5.31641703e-15 -9.29581078e-01  8.86293635e-15
   9.14219808e-15 -1.85642591e-01 -1.31144366e-01 -3.71312488e+01]
 [-1.87172838e-01 -2.24973849e-17  4.32850039e-17  2.68576453e-02
  -2.17303535e-01 -1.03966230e-18 -5.44732103e-17  1.03389646e-16
   3.36121696e-17 -2.61195270e-01 -2.23191357e-16 -6.49932907e-17
  -5.69466821e-02  4.80269593e-01 -3.20520563e-16 -6.75526581e-17
  -2.08719598e-16  1.71913982e-18 -1.67175326e-01 -7.88766303e-01
   4.41393081e-15  3.30099185e-15  1.55252818e-01 -4.51124009e-14
  -3.76639214e-14 -2.70732658e+00 -3.81812070e+00  3.82125531e+00]
 [ 0.00000000e+00 -3.29318533e-02  2.64174051e-01 -4.56500989e-16
   0.00000000e+00  9.16797746e-17  1.76324782e-16  1.97706327e-02
   2.98427881e-01  3.63619075e-17 -1.61728477e-01 -1.07607412e-01
   6.31592657e-16  7.35059712e-16  7.98118574e-01  2.30262767e-02
  -1.48878429e-15  2.65250561e-15  5.57305386e-16  7.54186359e-15
   5.08712196e-01  1.22206039e+00 -5.47016547e-15 -2.29886964e+00
   8.62567464e-01  2.72412403e-14  7.93426084e-16 -2.82694059e-14]
 [ 0.00000000e+00 -2.64174051e-01 -3.29318533e-02  4.22686101e-17
   0.00000000e+00 -9.57917077e-18  1.18581797e-16 -2.98427881e-01
   1.97706327e-02  0.00000000e+00 -1.07607412e-01  1.61728477e-01
   4.59340114e-16  4.08366506e-16  2.30262767e-02 -7.98118574e-01
  -3.96756713e-16 -4.71439887e-16  7.43073848e-16  4.26279246e-15
   1.22206039e+00 -5.08712196e-01 -4.15455605e-15 -8.62567464e-01
  -2.29886964e+00  2.31550542e-14  2.47945651e-14 -7.33476479e-14]
 [-5.33368722e-02  3.46339503e-17 -3.28049267e-16 -2.19413511e-01
   3.93477583e-01 -2.42313301e-19  3.54353585e-17 -2.50819381e-17
  -4.30639783e-17 -1.54450759e-02 -1.49198357e-16 -5.15315368e-17
  -1.80319366e-02  6.35094708e-01 -4.52163976e-16 -6.50466367e-16
   3.13875544e-17  4.00435824e-19 -7.83438500e-01  4.92511649e-01
  -3.16075256e-15 -8.83381969e-16 -6.52181058e-01 -1.13254464e-14
   4.68855350e-15 -1.63483341e+00  2.01439066e+00  8.78988076e-01]
 [-4.66043571e-20 -3.51694359e-02  2.82123580e-01 -4.98731841e-16
   2.86034008e-17  1.06583420e-16  7.67776235e-17  8.93468604e-03
   1.34864648e-01 -4.23167557e-17  3.53690868e-01  2.35331213e-01
  -1.44354700e-15 -2.52176235e-16 -4.65841508e-01 -1.34398520e-02
   1.05381804e-15 -1.33561062e-15 -5.83039380e-16 -8.93763942e-15
  -6.33390955e-01 -1.52157153e+00 -1.29806997e-14 -2.32343702e+00
   8.71785482e-01  2.59629287e-14  6.92126325e-16  2.40047065e-14]
 [ 1.11097672e-21 -2.82123580e-01 -3.51694359e-02  4.55492350e-17
   3.64932408e-18  5.00414411e-17  4.39913875e-17 -1.34864648e-01
   8.93468604e-03 -1.52878666e-18  2.35331213e-01 -3.53690868e-01
  -1.05398192e-15 -9.93554993e-17 -1.34398520e-02  4.65841508e-01
   1.26138357e-16 -4.93091356e-17 -2.85130635e-16 -5.99175832e-15
  -1.52157153e+00  6.33390955e-01 -8.05008241e-16 -8.71785482e-01
  -2.32343702e+00  2.33626749e-14  2.55020812e-14 -8.61336663e-14]
 [-5.91336176e-02 -4.20034154e-17 -4.96907503e-16 -2.97539015e-01
   1.85861970e-01  3.01654645e-18  4.64959391e-17 -6.63610644e-17
  -2.74859035e-17 -2.39359871e-02  1.40961409e-15  1.15837800e-16
   3.28008512e-01 -4.05470641e-01  3.00828692e-16  5.29699621e-16
  -3.55519911e-17 -4.98549932e-18  5.42461781e-01 -1.24872158e+00
   7.46128632e-15  6.34094061e-15 -2.06985010e+00  5.27761642e-15
  -3.67586032e-15 -3.63172367e-01 -7.91038932e-01 -1.10105392e+01]
 [ 0.00000000e+00 -8.22982658e-17  9.03273649e-18  0.00000000e+00
   0.00000000e+00 -9.74863139e-10 -5.54894619e-01 -1.12445777e-16
   2.45975138e-16  0.00000000e+00  1.73835441e-16  3.54766207e-17
   1.09515217e-22  0.00000000e+00 -2.23413140e-15  2.09622205e-16
  -1.15295164e+00 -2.28312487e-08  1.81414514e-19  0.00000000e+00
  -2.10570115e-17  1.15813563e-16  0.00000000e+00 -6.95397350e-16
   6.74944487e-16  6.81031007e-16  0.00000000e+00  7.44937049e-15]
 [ 2.39895339e-22 -1.24184271e-01 -1.54807717e-02  1.99763470e-17
   2.17039066e-17 -4.28856617e-17 -9.94678723e-17  4.68589677e-01
  -3.10437294e-02 -1.00016598e-17 -3.05718256e-01  4.59479020e-01
   1.32616557e-15 -1.98828855e-16 -1.84503692e-02  6.39512091e-01
   1.50207823e-16  3.66452175e-16 -8.83495526e-16  1.40389890e-15
   3.40363202e-01 -1.41684416e-01 -2.82959459e-15 -8.00246444e-01
  -2.13277492e+00  2.13703171e-14  2.26116574e-14 -5.69310088e-14]
 [-1.49195599e-02  4.83279472e-17 -2.08882909e-16 -1.27762178e-01
  -2.03620463e-01  9.38486158e-20  2.66697995e-17  3.40348024e-17
  -5.06504069e-17  4.60916447e-01 -2.61233394e-15  1.06580797e-16
  -6.25194747e-01  3.44853038e-01 -4.48313685e-16  5.72706314e-16
   1.96194408e-18 -1.55064540e-19  4.65098011e-01 -6.17022745e-02
   2.00867187e-16  1.11887219e-15 -1.55067787e+00  2.16737895e-15
   5.91555675e-16 -5.69522475e-01  4.92300125e-01 -3.43415225e-01]
 [-6.33862754e-21 -1.54807717e-02  1.24184271e-01 -2.18317189e-16
  -2.47565666e-17 -2.31512767e-16 -1.46722972e-16 -3.10437294e-02
  -4.68589677e-01  4.08066224e-18 -4.59479020e-01 -3.05718256e-01
   1.94946163e-15 -6.77607147e-16 -6.39512091e-01 -1.84503692e-02
   9.95449457e-16 -1.87621030e-15 -1.78998344e-16  2.51244694e-15
   1.41684416e-01  3.40363202e-01 -7.41073667e-15 -2.13277492e+00
   8.00246444e-01  2.45551460e-14  2.54955189e-16 -2.33674357e-14]
 [ 0.00000000e+00 -3.21163964e-17 -5.01818694e-19  0.00000000e+00
   0.00000000e+00  5.54894619e-01 -9.74863302e-10  5.62228886e-18
  -4.49783109e-17  0.00000000e+00  1.13525186e-16  1.13525186e-16
   0.00000000e+00  2.59985022e-28  3.48634825e-15  4.96473644e-16
   2.28312488e-08 -1.15295164e+00 -4.22388580e-27 -2.44309837e-24
  -2.10570115e-16 -2.94798161e-16 -8.45246592e-21  0.00000000e+00
   0.00000000e+00 -8.31336678e-20  0.00000000e+00  0.00000000e+00]
 [-1.65351356e-01  1.13957692e-18 -3.03637266e-16 -1.56295463e-01
   1.45002068e-01 -6.46573698e-20 -6.42235703e-17 -2.38105078e-17
  -2.48637739e-17  3.14029670e-01 -5.59946142e-16  6.82222978e-17
  -1.52159881e-01 -1.49824533e-01 -1.35798792e-16 -4.66002472e-16
  -1.49002409e-17  1.06792118e-19 -4.53903305e-01 -4.86496442e-01
   2.66003778e-15  2.92520610e-16  2.10828979e+00  1.90030142e-14
  -1.62763503e-15  2.88462884e+00 -2.45264135e+00  2.40910588e-01]
 [-2.12299108e-01  3.46702608e-17 -9.67152183e-17 -8.59668175e-02
  -5.76667323e-02 -1.01682507e-17 -9.33660343e-17  5.42260732e-17
   6.63857339e-17 -3.61472497e-02  3.63361054e-16 -4.64182860e-16
   9.87568127e-02 -3.77589001e-01  6.33498998e-16 -8.73066964e-17
  -7.69154587e-18  1.68059310e-17  2.03853129e-01  1.30274423e+00
  -6.97835154e-15 -2.84628554e-15 -9.29581078e-01  2.13723940e-15
  -1.16959804e-14  1.85642591e-01  1.31144366e-01  3.71312488e+01]
 [-1.87172838e-01  4.60639459e-17 -8.08199155e-17 -2.68576453e-02
  -2.17303535e-01  1.03964110e-18  5.38918796e-17 -1.27667696e-16
   2.07676685e-17 -2.61195270e-01  1.35435957e-16  6.13149031e-17
   5.69466821e-02  4.80269593e-01 -7.39777209e-16  5.95075453e-16
   2.10158645e-16 -1.71911338e-18  1.67175326e-01 -7.88766303e-01
   4.51810561e-15  2.42814271e-15  1.55252818e-01  4.26082106e-14
   3.93979501e-14  2.70732658e+00  3.81812070e+00 -3.82125531e+00]
 [-3.16912483e-20 -3.29318533e-02  2.64174051e-01 -4.65906646e-16
  -1.42094938e-17 -8.00538642e-17 -2.04844751e-16 -1.97706327e-02
  -2.98427881e-01 -2.70551075e-18 -1.61728477e-01 -1.07607412e-01
   7.00620575e-16  6.28760679e-16  7.98118574e-01  2.30262767e-02
  -1.67494017e-15  2.44894845e-15 -8.53325738e-17 -7.97381136e-15
  -5.08712196e-01 -1.22206039e+00  5.60499673e-15  2.29886964e+00
  -8.62567464e-01 -2.57388367e-14 -2.15041469e-16  1.79702575e-14]
 [ 1.01016900e-21 -2.64174051e-01 -3.29318533e-02  4.26281789e-17
   1.76919505e-17 -3.65041221e-17 -8.08115971e-17  2.98427881e-01
  -1.97706327e-02 -9.20210092e-18 -1.07607412e-01  1.61728477e-01
   5.00814884e-16  1.47376821e-16  2.30262767e-02 -7.98118574e-01
  -1.50192374e-16 -5.14473772e-17  1.17124455e-15 -4.93473363e-15
  -1.22206039e+00  5.08712196e-01  4.15454486e-15  8.62567464e-01
   2.29886964e+00 -2.31327810e-14 -2.38128544e-14  8.04103071e-14]
 [ 5.33368722e-02  6.05683646e-19 -3.44656007e-16 -2.19413511e-01
  -3.93477583e-01 -2.42402717e-19  2.25806720e-17 -1.67382465e-17
   2.18256567e-17  1.54450759e-02 -1.05963025e-17 -5.73735675e-17
  -1.80319366e-02 -6.35094708e-01  1.04417681e-15 -8.10468368e-16
   3.38593230e-17  4.00545178e-19 -7.83438500e-01 -4.92511649e-01
   2.88327507e-15  1.98955001e-15  6.52181058e-01 -1.90974147e-14
   5.38507690e-15 -1.63483341e+00  2.01439066e+00  8.78988076e-01]
 [-3.37051424e-20 -3.51694359e-02  2.82123580e-01 -4.97678279e-16
  -2.18916762e-18 -4.47373408e-17 -1.04185707e-16 -8.93468604e-03
  -1.34864648e-01 -1.35773217e-17  3.53690868e-01  2.35331213e-01
  -1.50391097e-15 -3.07130632e-16 -4.65841508e-01 -1.34398520e-02
   1.05811354e-15 -1.69810914e-15  2.36517448e-16  8.88871617e-15
   6.33390955e-01  1.52157153e+00  1.30450298e-14  2.32343702e+00
  -8.71785482e-01 -2.74246611e-14  1.07256978e-15 -3.69713432e-15]
 [ 1.49823488e-21 -2.82123580e-01 -3.51694359e-02  4.56334861e-17
   2.39120828e-18 -4.12371472e-17  2.94501476e-17  1.34864648e-01
  -8.93468604e-03  1.58302474e-17  2.35331213e-01 -3.53690868e-01
  -1.05196924e-15 -4.49593788e-17 -1.34398520e-02  4.65841508e-01
   2.49816761e-16  1.68720736e-16 -7.27134213e-16  6.56879052e-15
   1.52157153e+00 -6.33390955e-01  6.69577257e-16  8.71785482e-01
   2.32343702e+00 -2.30825505e-14 -2.56428124e-14  7.03034732e-14]
 [ 5.91336176e-02  3.19066004e-17 -3.78424215e-16 -2.97539015e-01
  -1.85861970e-01  3.01626234e-18 -4.78821466e-18  9.12125513e-17
   5.47676335e-17  2.39359871e-02  1.32452645e-15  9.28683228e-17
   3.28008512e-01  4.05470641e-01 -5.60985029e-16  5.45831882e-16
  -3.16118921e-17 -4.98515399e-18  5.42461781e-01  1.24872158e+00
  -7.44735761e-15 -7.90291161e-15  2.06985010e+00 -1.53341201e-14
  -2.62182389e-15 -3.63172367e-01 -7.91038932e-01 -1.10105392e+01]
 [ 4.04114024e-36 -2.21749576e-17 -7.46209970e-19  2.31620292e-31
  -1.71475408e-26 -9.74863247e-10 -5.54894619e-01 -1.70070139e-16
   4.13157320e-16 -2.33417178e-25 -2.06428251e-16 -1.02225921e-16
   1.15385201e-22  1.99367483e-20  2.22484653e-15 -4.63006300e-16
   1.15295164e+00  2.28312490e-08 -1.94554246e-19 -5.73813354e-18
   3.68842927e-16 -2.70706171e-16 -1.31617614e-16 -5.83126678e-16
  -4.42448628e-16 -2.96634981e-16 -2.04042623e-16 -5.84076503e-15]
 [-4.17711727e-22  1.24184271e-01  1.54807717e-02 -2.00358880e-17
   4.07749920e-18  2.30974445e-17 -1.86590640e-16  4.68589677e-01
  -3.10437294e-02  2.31107380e-17  3.05718256e-01 -4.59479020e-01
  -1.28816398e-15  3.51429581e-16  1.84503692e-02 -6.39512091e-01
  -3.55579633e-16 -7.15039043e-16  6.79609823e-16  8.38147697e-16
   3.40363202e-01 -1.41684416e-01 -2.90700664e-15 -8.00246444e-01
  -2.13277492e+00  2.21106279e-14  2.35369974e-14 -8.53800516e-14]
 [-1.49195599e-02  2.15522105e-17  2.20409767e-16  1.27762178e-01
  -2.03620463e-01 -9.36358678e-20  8.49426961e-18  2.83318972e-17
   9.10892793e-17  4.60916447e-01  2.53847003e-15 -6.65431935e-17
   6.25194747e-01  3.44853038e-01 -2.92469380e-16 -2.40543514e-16
  -6.12015355e-18  1.54805290e-19 -4.65098011e-01 -6.17022745e-02
  -9.81256388e-17  2.27875618e-15 -1.55067787e+00  1.42605187e-14
  -6.65625416e-16  5.69522475e-01 -4.92300125e-01  3.43415225e-01]
 [ 2.78561210e-20  1.54807717e-02 -1.24184271e-01  2.20081448e-16
  -2.17757088e-17 -5.30406558e-17 -2.94771820e-16 -3.10437294e-02
  -4.68589677e-01  1.56667776e-17  4.59479020e-01  3.05718256e-01
  -1.82357265e-15  8.05573788e-16  6.39512091e-01  1.84503692e-02
  -9.43311915e-16  2.06183406e-15  1.32256554e-16  2.43724007e-15
   1.41684416e-01  3.40363202e-01 -7.28592763e-15 -2.13277492e+00
   8.00246444e-01  2.52849357e-14  5.18042235e-16  3.99451215e-15]
 [ 0.00000000e+00  1.19824730e-17  3.87848945e-19  0.00000000e+00
   0.00000000e+00  5.54894619e-01 -9.74863146e-10  1.77802588e-17
  -2.07663485e-16  0.00000000e+00 -1.22255194e-17 -1.09699906e-16
   0.00000000e+00 -2.45908790e-28 -3.55483934e-15 -5.88835047e-16
  -2.28312486e-08  1.15295164e+00  4.35029478e-27  2.58214600e-24
   2.08210548e-16 -5.59938077e-17  2.49690161e-21  8.06759847e-16
  -1.46404593e-16  3.11153200e-20  8.67808678e-20  1.01751672e-15]]
C (ortho)
[[-9.91541059e-01 -6.95816107e-02 -5.49297176e-02 -6.71264024e-02
   7.21381852e-17  3.90106050e-17 -3.20964415e-17  1.81121665e-17
  -4.05960278e-02 -2.14951473e-02  1.07191546e-03  1.48332087e-02
   2.12953754e-17 -2.36234237e-18 -4.27973928e-18  6.36510835e-17
   8.33892188e-17  4.70524984e-17  3.70285076e-02 -6.20291699e-17
  -1.02844508e-22 -1.63037936e-18  1.89071101e-16  6.42656312e-04
   2.78499787e-02  5.37515761e-18 -2.90097730e-17 -1.76188449e-03]
 [-2.65828409e-17  9.93837786e-16 -4.38272680e-16 -1.64078379e-16
  -6.49262284e-01 -5.55806888e-01 -2.57495179e-02  1.68974443e-02
  -1.44699207e-15 -3.37438337e-16 -2.29526275e-16 -2.87977902e-16
   8.17360289e-16  3.83812919e-15 -2.26933223e-01 -4.53914763e-01
   3.20328440e-02  3.15331306e-02  4.15669344e-16  2.43127288e-15
  -1.90728586e-16  2.01657789e-02  9.28244254e-02 -2.11136217e-16
  -9.68454080e-17  4.29942182e-04 -2.76959021e-03 -5.13219162e-18]
 [ 1.33014131e-16 -4.39704571e-17 -3.56300158e-16 -1.20675905e-15
  -5.55806888e-01  6.49262284e-01  1.68974443e-02  2.57495179e-02
  -4.03852514e-16 -5.86546702e-16 -4.42801967e-18  4.47153811e-16
   2.12042814e-15  1.00812180e-15  4.53914763e-01 -2.26933223e-01
   3.15331306e-02 -3.20328440e-02  5.30537395e-16 -2.93102535e-16
  -1.17196576e-15 -9.28244254e-02  2.01657789e-02 -1.02387484e-16
  -6.61659374e-18  2.76959021e-03  4.29942182e-04  3.99175860e-18]
 [ 9.46422555e-02 -4.48426800e-01 -1.98153962e-02 -7.58847075e-01
   7.47042793e-16 -1.04639543e-15 -1.49807765e-16  3.02028789e-17
   2.17990489e-02 -3.43387945e-01  1.79916226e-03  3.07045463e-01
  -1.52753424e-16 -2.88141927e-20 -6.71256227e-16  6.33180522e-17
  -1.31976722e-16  6.23378111e-17 -9.17358886e-03 -2.57178840e-16
   8.88768021e-20  1.72934992e-16  6.53185650e-16 -2.95175337e-02
  -2.35576482e-03 -1.86586969e-17 -2.67491812e-17  9.11562720e-03]
 [-2.80136906e-02 -2.15181486e-03 -4.69991074e-01  2.93507544e-02
  -9.28192608e-16 -4.48026681e-16  2.48789210e-16 -2.39659416e-16
   6.14698642e-01 -3.61875325e-04 -1.32299836e-01 -1.41619914e-02
  -6.04616282e-16  8.95095846e-18  2.41436924e-16 -8.17841802e-16
  -1.16829335e-15 -4.39926598e-16 -5.98090519e-01  6.69585241e-16
  -5.78670064e-18 -1.72296390e-17 -2.09406806e-15  5.41870307e-03
  -1.55417647e-01  1.79244485e-17  8.58511531e-17  1.70034110e-03]
 [-1.89682843e-18 -8.29194122e-19  6.33221023e-19 -6.85410175e-19
  -3.77550673e-17  1.87000266e-16 -1.27069457e-16 -2.16716156e-16
  -1.46715444e-18 -6.42268530e-19 -4.49885841e-19  1.89755951e-18
   1.69361602e-02  9.99813680e-01  1.41102948e-15  7.43723285e-15
   1.80687193e-16  2.84415735e-15 -6.06083719e-18 -2.35523676e-04
   9.25830410e-03  9.87786880e-16 -1.53840701e-15  3.30298340e-19
   1.36689745e-19 -4.16275591e-17  7.09084936e-19 -2.72464145e-20]
 [-4.02638102e-19  8.59874120e-17 -4.50826992e-17  1.06739912e-16
  -2.23112629e-17  3.18554931e-16 -4.46327994e-16 -1.38713178e-16
   2.44141550e-16  6.33747356e-17  8.86727411e-17  2.12067737e-16
  -9.99813680e-01  1.69361602e-02  3.08221249e-15 -2.90627132e-15
   1.46665927e-16  1.34504297e-15  1.20780223e-15 -9.25830410e-03
  -2.35523676e-04 -3.33868924e-16 -2.42226133e-16 -1.16215177e-17
  -6.09511127e-18 -1.52617939e-16 -1.24543691e-16 -1.07958755e-17]
 [-8.18146474e-19  1.64901481e-16 -2.68729685e-17 -2.07555542e-16
  -2.22738205e-02 -1.26890004e-02  4.28044484e-01 -4.15818028e-01
  -4.57448666e-16  4.31644541e-18 -1.21505798e-16 -1.66987752e-16
  -6.43628731e-16  1.85200658e-15 -1.62058156e-02 -5.77835821e-02
  -6.41954215e-01 -4.27378015e-01  1.59211713e-15 -1.45178018e-15
   6.72496159e-16  3.18109675e-04  1.33916468e-02 -1.45294315e-16
   3.01953346e-17 -7.13220446e-02  1.98975196e-01  5.15563964e-19]
 [ 9.63875686e-18  8.12326200e-17  3.77154490e-18  5.65530526e-17
  -1.26890004e-02  2.22738205e-02 -4.15818028e-01 -4.28044484e-01
  -3.06304995e-17  3.12294726e-18  1.63436645e-17  5.53091810e-17
   1.33454271e-15 -1.79102042e-15  5.77835821e-02 -1.62058156e-02
  -4.27378015e-01  6.41954215e-01  4.60092950e-16 -9.77551937e-16
  -4.26919632e-16 -1.33916468e-02  3.18109675e-04 -5.41140143e-17
  -1.00572784e-17 -1.98975196e-01 -7.13220446e-02 -2.21204784e-18]
 [ 5.08447679e-02 -9.45776945e-03 -5.66474904e-01  1.12314653e-02
   6.89857215e-16  1.59264274e-16 -1.37102164e-16  1.47168090e-16
  -1.73458834e-01 -6.00353242e-03 -6.62121717e-01 -1.71176938e-02
   5.23918601e-16 -6.44287950e-18 -2.47131312e-16  8.97048550e-16
   8.95833085e-16  3.37712469e-16  4.41240026e-01 -2.72294948e-16
   3.96367619e-18  1.18255782e-17  1.00710261e-15 -6.09297811e-03
  -1.12920712e-01 -8.65780783e-18  2.95846106e-17  1.49423810e-03]
 [-8.06584437e-17  1.25897325e-15 -7.71399523e-17  7.38841179e-16
   1.43525229e-03  4.60739870e-01  1.61734840e-02  4.63223562e-03
   5.80668598e-16  3.75885756e-16 -7.00686374e-17  3.19599858e-15
  -1.37857151e-15  1.83613002e-15 -6.41452558e-01 -1.62090303e-01
  -3.90480797e-03  5.87025318e-02 -7.96224041e-16  5.32316545e-15
   6.82505625e-15  5.17173172e-01  2.80651511e-01 -2.11119605e-15
   5.91997628e-17 -1.36470927e-03 -1.60171129e-03 -4.17600972e-16]
 [-5.85920960e-18  2.64425726e-16 -1.22771093e-16 -3.58738843e-16
  -4.60739870e-01  1.43525229e-03 -4.63223562e-03  1.61734840e-02
  -1.28973435e-15 -5.02601082e-16  1.22944423e-16  4.86135900e-16
  -2.59696285e-15 -5.12626794e-15 -1.62090303e-01  6.41452558e-01
  -5.87025318e-02 -3.90480797e-03  3.21199591e-16 -9.83759129e-15
   7.30357642e-15  2.80651511e-01 -5.17173172e-01  2.17105255e-16
   3.22372287e-17 -1.60171129e-03  1.36470927e-03  2.48534527e-17]
 [-2.04585447e-02  3.12357100e-01 -5.92604208e-03  1.52342380e-01
   3.12682209e-16 -1.94860782e-15  1.53508525e-17 -1.59754578e-17
  -1.70600486e-03  2.21492924e-03 -1.98522702e-02  7.97863426e-01
   2.31213515e-16 -4.55643034e-18  2.79988387e-15  3.67854050e-16
  -3.37569086e-17 -3.32345397e-16 -8.56801972e-03 -7.73363363e-17
  -7.86351079e-19 -2.09839697e-15 -1.12466692e-15 -4.80906071e-01
  -1.41537633e-03 -1.13967344e-17  1.47918740e-16 -1.02162279e-01]
 [-5.03602125e-02  5.25709650e-03  5.57256736e-01 -2.29391897e-02
   4.91269069e-17  1.08329539e-16 -8.92399726e-17  8.41326277e-17
  -1.31818477e-01 -1.31715234e-02 -5.75257050e-01 -1.26785196e-02
  -5.26664158e-16  6.00125923e-18  5.54515072e-16 -5.39702595e-16
  -6.43341571e-16 -2.82097008e-16 -3.18231335e-01  2.85567284e-16
  -2.15570606e-18  9.45980002e-16 -5.22367962e-16  1.35898266e-03
  -4.86280877e-01 -3.44585868e-17  1.67840320e-16  1.34032374e-03]
 [ 6.23735264e-17 -1.80448072e-16 -5.42789022e-16  3.85869147e-17
   1.24589682e-01 -2.00887011e-01 -7.67701377e-03 -8.51655238e-03
   1.56579329e-16  1.97360447e-17  7.32612977e-16 -1.45570729e-16
   1.77228495e-15 -3.40110878e-16  5.20308214e-01 -1.67095067e-01
   1.70423680e-02 -2.36374716e-02  1.03703033e-15 -6.49347469e-16
   1.08524066e-14  8.01309630e-01 -4.89886924e-02 -9.10929187e-17
   5.42746640e-16  1.58546821e-03  5.02402964e-04 -7.54695636e-17]
 [-3.03283856e-17 -2.73761762e-16  4.18063571e-16 -1.86096109e-17
   2.00887011e-01  1.24589682e-01  8.51655238e-03 -7.67701377e-03
  -7.32779939e-17 -7.70254655e-16 -6.32823312e-17  3.46959389e-16
   8.96039051e-16  2.61147862e-15 -1.67095067e-01 -5.20308214e-01
   2.36374716e-02  1.70423680e-02  2.80989098e-15 -1.51259731e-14
   4.35341954e-15 -4.89886924e-02 -8.01309630e-01  3.91428192e-16
  -1.43000852e-16  5.02402964e-04 -1.58546821e-03 -9.14781959e-18]
 [-1.01787418e-18 -1.95939180e-16  6.03899904e-17 -1.27691162e-16
  -2.17566926e-17  9.60750388e-16  2.23672494e-16 -1.80546237e-16
  -2.41838148e-16 -1.95700278e-16  1.44075819e-16  1.80787297e-16
  -9.25997094e-03  1.56857777e-04  3.83329054e-16  4.27132496e-16
  -2.20686643e-15  3.92985419e-16  8.30829310e-16  9.99633709e-01
   2.54298415e-02 -4.64457524e-16 -1.91941421e-14 -1.32733426e-17
   2.55202108e-19  5.05482851e-16  1.57070185e-17 -5.50797864e-18]
 [-3.68003045e-19  5.60384224e-18 -1.69937756e-18  2.82097629e-18
   4.00905869e-16 -9.53355929e-16 -9.09691971e-17  1.36695494e-16
   7.25280386e-18  4.41459601e-18 -3.00357037e-18 -3.55956546e-18
  -1.56857777e-04 -9.25997094e-03  1.31989703e-15  1.02587340e-16
   5.29446573e-16  5.62277699e-16 -3.05600093e-17 -2.54298415e-02
   9.99633709e-01 -1.43931244e-14  6.21313840e-15  1.07045440e-18
   1.54918361e-19 -6.82386635e-17  5.27464215e-17 -1.01431765e-19]
 [-1.48842873e-02  3.32959462e-01 -9.38370558e-03  1.30728585e-01
   5.15499767e-16 -4.68384857e-17  1.40428901e-17  5.79167634e-17
  -1.10421669e-02 -5.42871057e-01  4.86192688e-04  2.74622234e-01
   8.18005267e-17 -1.89293768e-18  2.75707513e-16  1.26594512e-16
  -2.64391938e-16  9.46316162e-17  2.48900405e-03 -8.66260921e-17
  -1.28232908e-18  2.59527673e-16  1.08633905e-15  7.07954302e-01
  -1.42080654e-03 -1.80952131e-16 -7.69615703e-17  1.68050226e-02]
 [ 2.69027011e-02 -1.13544620e-02 -3.77319276e-01 -7.29924135e-04
   1.75841580e-15  3.23054424e-16  4.35557065e-15  1.56786444e-15
  -7.15733548e-01  1.89431435e-02  2.78054982e-01  4.69159099e-03
  -7.04830257e-16  8.32402844e-18  8.98327587e-17 -8.83036762e-16
  -7.81939253e-16  2.25927811e-15 -4.26089288e-01  1.70677494e-16
  -2.85098971e-18 -1.24014576e-16 -8.90744411e-16  3.30563984e-03
  -2.91965738e-01 -2.66857599e-15 -2.83321297e-15 -1.14680395e-04]
 [-1.58911508e-16  2.49436033e-16  2.05065010e-15 -1.83388834e-16
  -1.33213438e-02 -1.97946578e-02  6.77128315e-01 -2.17127744e-01
   4.07663298e-15 -1.60282384e-16 -1.46322457e-15  6.36052992e-17
   5.75687782e-16 -1.24278183e-15  2.26238974e-02  2.50757336e-02
   1.93756629e-01  3.36198708e-01  1.74103962e-15  3.09205830e-17
  -1.33284917e-16 -2.12458229e-03 -4.03787009e-03  1.71845661e-16
   1.66020460e-15 -6.79400494e-02 -5.80891553e-01 -2.09292809e-17]
 [-1.11413350e-16 -2.56446348e-16  1.38873894e-15  5.39811565e-17
   1.97946578e-02 -1.33213438e-02  2.17127744e-01  6.77128315e-01
   3.27769394e-15  2.41279262e-16 -4.67054504e-16 -1.46715263e-16
   1.24775209e-16 -3.25867069e-16  2.50757336e-02 -2.26238974e-02
  -3.36198708e-01  1.93756629e-01  2.62963989e-15 -7.05012621e-16
  -6.89648559e-17 -4.03787009e-03  2.12458229e-03 -7.41334144e-16
   5.25546379e-16 -5.80891553e-01  6.79400494e-02  1.80664075e-17]
 [ 1.56851404e-02 -8.90306326e-04  3.15843661e-02 -6.21440289e-03
   2.97708949e-16  2.12086723e-16  1.44468796e-15  2.70952604e-15
  -2.44824584e-01 -2.64223379e-03 -3.67271892e-01 -8.52252529e-03
  -7.33043263e-16  9.29536394e-18  4.15862337e-16 -8.31759128e-16
  -2.43320277e-15  2.00860450e-15 -4.03986913e-01  2.72823383e-16
  -4.55032849e-18  3.20305753e-17 -9.98880458e-16  3.04696161e-03
   8.00371689e-01  9.86067142e-16  1.49634441e-15  3.28415657e-04]
 [-2.94171892e-16  7.80031024e-15 -7.54457390e-16 -5.34810353e-15
   2.72639874e-03 -1.19108813e-02  3.23397739e-01  1.79657751e-01
   1.02372184e-15 -3.49125337e-17  1.95001950e-15 -2.70854673e-15
  -6.49542982e-16 -4.91916206e-16  3.66598274e-02  7.10296386e-04
  -1.44676453e-01  4.76874712e-01  1.73800929e-15 -9.25711419e-16
  -3.08256397e-17 -6.56221238e-03 -1.80947507e-03 -2.50408384e-15
  -4.34726053e-15  6.29533544e-01  4.65772110e-01  7.70563787e-15]
 [-1.50364510e-16  6.05955035e-15  5.09969402e-16 -4.62731671e-15
  -1.19108813e-02 -2.72639874e-03  1.79657751e-01 -3.23397739e-01
  -4.29084005e-16 -1.48886601e-16 -8.14556892e-16 -2.17976388e-15
   3.04012891e-16 -1.09124836e-15 -7.10296386e-04  3.66598274e-02
   4.76874712e-01  1.44676453e-01 -6.83165381e-16  4.96950361e-16
  -3.11520734e-16  1.80947507e-03 -6.56221238e-03 -9.73151547e-16
   4.95434060e-16 -4.65772110e-01  6.29533544e-01 -7.86577475e-16]
 [-1.57313526e-02  5.24919021e-01 -1.78084004e-02 -3.40840839e-01
   1.37882176e-15 -1.48430683e-16 -4.95939741e-15 -6.19432706e-16
   9.26924713e-04 -3.32923447e-02  7.27970458e-03 -1.47909605e-01
   3.70418203e-16 -5.44168246e-18 -1.99017982e-17 -5.38891327e-16
  -3.51810578e-16 -7.61252521e-15 -6.74458810e-04 -3.24019390e-16
  -1.05244669e-17  6.02008591e-16  2.41711748e-16 -1.70338535e-01
   8.89834799e-04 -6.04216086e-15 -9.31029873e-15  7.45430736e-01]
 [-1.10645110e-02  5.50621794e-01 -2.10178957e-02 -4.24133752e-01
   9.26772260e-17  2.04506743e-15 -2.86473071e-15  2.83647525e-15
   2.75456105e-03 -3.65228254e-02  7.54792469e-03 -2.72037140e-01
  -1.95258254e-16  4.39013450e-18  3.08030838e-16 -3.79738357e-17
  -4.16055554e-15 -3.34842674e-15 -7.70150726e-04  2.98131677e-17
  -2.19735384e-18  2.52462927e-16  4.06051283e-16 -8.79725342e-02
  -1.29279483e-04  1.93023743e-15 -7.38617345e-15 -6.58194171e-01]
 [-1.81452051e-03 -8.16521374e-02  4.48428408e-03  2.85888286e-01
  -1.25280534e-14  4.61521834e-15  4.81327681e-15 -1.28363030e-14
  -1.45392870e-02 -7.64127610e-01  2.14241934e-02 -3.11238201e-01
   1.42334891e-15  8.88564180e-16 -1.08947404e-14  2.15358671e-14
   1.31297035e-14  6.03960087e-15 -5.51014327e-03 -5.84726532e-15
   3.04275197e-16  1.31468123e-14 -1.64944850e-14 -4.79390687e-01
   5.85354473e-04  2.39694094e-15  2.63338531e-14 -1.73398702e-02]]
[[-9.91541059e-01 -6.95816107e-02 -5.49297176e-02 -6.71264024e-02
  -3.08563382e-16  1.99496260e-16 -9.02031808e-17  1.12884843e-17
   4.05960278e-02 -2.14951473e-02  1.07191546e-03  1.48332087e-02
   2.99091104e-18 -1.27385764e-17 -2.92271291e-17 -7.96258969e-17
  -1.37054036e-16  4.27017093e-17 -3.70285076e-02 -6.65718755e-18
  -8.05768782e-19 -5.22616223e-18 -3.17059155e-17  6.42656312e-04
   2.78499787e-02 -4.18918539e-17  2.60745451e-18 -1.76188449e-03]
 [-2.71250275e-17 -6.41234248e-16 -6.81372891e-16 -3.16406118e-16
  -1.77328017e-01 -8.36072715e-01  5.48417851e-03 -3.03065188e-02
   3.96730826e-16 -5.79713473e-17 -2.54207886e-16  3.17564235e-16
  -5.11477165e-15 -1.28210178e-16 -4.52309744e-01  2.30115612e-01
   2.78421053e-02  3.52882216e-02  2.75000075e-16  1.98742796e-16
   2.19336518e-15 -5.72889050e-02 -7.57694790e-02  2.22696518e-16
  -2.30078365e-17  1.13527826e-03 -2.56254239e-03  7.36629541e-18]
 [-2.33571468e-16 -1.76806809e-17 -9.62941963e-16  1.34253072e-15
   8.36072715e-01 -1.77328017e-01  3.03065188e-02  5.48417851e-03
   2.40577933e-15  1.14694916e-15 -1.21993536e-16  5.92092584e-17
   9.99119726e-16 -2.08593653e-15  2.30115612e-01  4.52309744e-01
   3.52882216e-02 -2.78421053e-02 -1.00384468e-15 -2.51342387e-15
  -4.30464559e-15  7.57694790e-02 -5.72889050e-02  8.12560595e-17
  -3.11593872e-17  2.56254239e-03  1.13527826e-03 -8.16217915e-18]
 [-9.46422555e-02  4.48426800e-01  1.98153962e-02  7.58847075e-01
  -1.70383354e-15 -1.47123482e-16 -4.73540632e-16  2.64748080e-16
   2.17990489e-02  3.43387945e-01 -1.79916226e-03 -3.07045463e-01
   8.52152351e-18  3.95565871e-16 -3.01306282e-16 -1.93139737e-16
   2.59123600e-16 -1.09656974e-17 -9.17358886e-03  3.64785470e-16
   5.44062745e-19 -1.53808455e-16 -6.86463038e-16  2.95175337e-02
   2.35576482e-03 -9.72379410e-18  1.11930072e-17 -9.11562720e-03]
 [-2.80136906e-02 -2.15181486e-03 -4.69991074e-01  2.93507544e-02
   1.53199230e-15 -3.52796656e-16  8.57894614e-16 -5.78689675e-16
  -6.14698642e-01 -3.61875325e-04 -1.32299836e-01 -1.41619914e-02
  -1.25218885e-17 -5.36771224e-16  4.77749666e-16  2.85044387e-16
   8.21506280e-16 -6.77841163e-16  5.98090519e-01 -5.47709134e-16
   1.85528666e-18  3.83636511e-17  1.80483945e-15  5.41870307e-03
  -1.55417647e-01  1.49939085e-16  1.93558211e-17  1.70034110e-03]
 [ 3.19125764e-18  2.10319502e-19 -3.02834066e-19  6.89549205e-20
  -8.56311720e-16 -2.91491917e-16  1.62797280e-16  1.07757001e-17
   8.38894058e-19  2.42645093e-19  7.84456367e-19 -2.88796158e-19
   9.99690154e-01 -2.31046179e-02 -8.67708630e-15  3.10492085e-15
   3.63027384e-15  8.58362417e-16  4.47939200e-19 -1.36106459e-04
   9.26029920e-03  7.15470593e-16 -2.97964387e-15 -7.55567625e-20
  -3.99396322e-20  2.52786435e-17  6.25871675e-17  1.18382906e-20]
 [-2.57469595e-19  1.13319355e-16  9.94741157e-17  5.09829665e-17
   1.87047201e-17  9.82245052e-18  2.54923542e-16  1.79300679e-16
   2.70807501e-16  2.06367685e-16  2.14844435e-16 -3.83468819e-16
  -2.31046179e-02 -9.99690154e-01 -1.77004576e-15 -4.51913843e-15
  -4.04575535e-16 -2.30654608e-15 -5.75775715e-16 -9.26029920e-03
  -1.36106459e-04  2.33423077e-17  6.64244188e-16  1.19495394e-17
  -7.72877863e-18  3.49491668e-18  3.76089319e-16  1.07990140e-17]
 [-3.58504049e-17  2.41136319e-16  1.02557281e-16  2.21528582e-16
   4.82586576e-04  2.56300784e-02  2.15349456e-01 -5.56553075e-01
   7.49903682e-16 -5.79574630e-17 -1.59575526e-16  2.49893146e-16
  -1.99228710e-15 -1.26662918e-15  4.73803890e-02 -3.68329955e-02
   5.83527594e-01  5.04234795e-01 -5.34446089e-16 -8.20624455e-16
   3.57328488e-16  5.91345606e-03  1.20195023e-02  1.24798939e-16
   6.58741687e-17  1.20604691e-01 -1.73587071e-01  5.42751567e-19]
 [-5.29633084e-17 -2.04245907e-17 -6.40085443e-18  2.14373611e-16
  -2.56300784e-02  4.82586576e-04  5.56553075e-01  2.15349456e-01
   3.38903671e-16 -7.16001725e-17 -1.19873417e-16  2.70680753e-16
  -1.52952344e-15  1.69139612e-15 -3.68329955e-02 -4.73803890e-02
   5.04234795e-01 -5.83527594e-01 -1.60721063e-15  1.75073004e-16
   6.41138356e-16 -1.20195023e-02  5.91345606e-03  1.16412506e-16
   2.18722410e-16  1.73587071e-01  1.20604691e-01  1.78824729e-18]
 [ 5.08447679e-02 -9.45776945e-03 -5.66474904e-01  1.12314653e-02
  -1.11818297e-15  8.52701732e-16 -3.48643884e-16  1.47461348e-16
   1.73458834e-01 -6.00353242e-03 -6.62121717e-01 -1.71176938e-02
   5.19780203e-19 -3.74056638e-17 -4.76799420e-16 -7.14875993e-16
  -9.38443593e-16  5.35112496e-16 -4.41240026e-01 -2.62270602e-18
  -2.97463332e-18 -1.71140205e-17 -5.08494675e-16 -6.09297811e-03
  -1.12920712e-01  7.30973851e-17  5.10032385e-17  1.49423810e-03]
 [ 7.50253882e-17 -1.28899424e-15 -1.64135638e-16 -5.08247244e-16
   4.03870687e-01  2.21747053e-01  1.05873031e-02  1.30747162e-02
   1.08670392e-15  3.03075460e-16  4.14133438e-16 -3.87003568e-15
  -3.67622581e-15  1.96911518e-15 -6.12172149e-01 -2.50957985e-01
  -1.12084882e-02  5.77546929e-02  8.13414143e-16  1.50955856e-14
   2.92040359e-14 -5.87221603e-01 -3.74719808e-02  1.96019206e-15
   4.10285291e-19 -9.01308630e-04 -1.90146080e-03  4.19411873e-16]
 [-1.54295586e-17 -1.49666760e-16 -2.70292079e-16  1.49259571e-16
   2.21747053e-01 -4.03870687e-01  1.30747162e-02 -1.05873031e-02
   2.19988859e-15  9.42804577e-16  3.53393251e-16 -9.95639561e-16
   6.27983529e-15  2.13911509e-15  2.50957985e-01 -6.12172149e-01
  -5.77546929e-02 -1.12084882e-02 -3.89312739e-16  1.14870673e-14
   7.59592497e-15 -3.74719808e-02  5.87221603e-01 -2.95414275e-16
  -4.75213292e-17 -1.90146080e-03  9.01308630e-04 -2.53720572e-17]
 [ 2.04585447e-02 -3.12357100e-01  5.92604208e-03 -1.52342380e-01
  -2.06829104e-15 -7.53251021e-16 -4.58405607e-18 -1.90244081e-16
  -1.70600486e-03 -2.21492924e-03  1.98522702e-02 -7.97863426e-01
   5.94427683e-18  2.67120057e-16  2.95704978e-15  1.82832379e-15
   3.62208825e-16 -3.48861481e-16 -8.56801972e-03  1.75255271e-16
   9.99922987e-20  2.41375080e-15 -2.41985158e-16  4.80906071e-01
   1.41537633e-03  5.17311241e-17 -1.25947326e-16  1.02162279e-01]
 [-5.03602125e-02  5.25709650e-03  5.57256736e-01 -2.29391897e-02
   3.91292160e-16 -1.41527905e-16 -1.51459274e-16  2.15687663e-16
   1.31818477e-01 -1.31715234e-02 -5.75257050e-01 -1.26785196e-02
  -3.87381304e-18 -1.76748181e-16  4.86372112e-16  5.52212410e-16
   6.08061809e-16 -3.58924774e-16  3.18231335e-01 -9.54680334e-17
   1.20981184e-18 -9.11480884e-16  6.24758610e-16  1.35898266e-03
  -4.86280877e-01  4.11730373e-16  1.53301291e-16  1.34032374e-03]
 [ 5.83054754e-17  2.61016488e-16 -3.28139978e-16  1.03596963e-16
  -2.36013294e-01  1.32629208e-02 -1.08402691e-02 -3.73587626e-03
  -7.13354808e-16 -2.30374426e-16  6.19098757e-16  4.83329860e-16
   2.06002855e-15 -2.29570273e-15  3.19075380e-01  4.43657864e-01
   1.98620884e-02 -2.13229879e-02 -1.80021573e-15  2.61291635e-14
   4.15255066e-14 -7.06623924e-01  3.81024466e-01  2.70424537e-16
   5.89891775e-16  1.40030687e-03  8.97362173e-04  7.39957735e-17]
 [ 3.62111096e-19  5.13199664e-17  5.73337269e-16  1.22120837e-16
   1.32629208e-02  2.36013294e-01 -3.73587626e-03  1.08402691e-02
   3.49559378e-16  6.86066516e-16  4.14762191e-17 -5.69082348e-16
  -2.73195905e-15 -4.09030780e-16 -4.43657864e-01  3.19075380e-01
   2.13229879e-02  1.98620884e-02 -1.25670408e-15  3.04637752e-15
  -1.17363028e-14  3.81024466e-01  7.06623924e-01 -4.09743230e-16
  -1.06895779e-16  8.97362173e-04 -1.40030687e-03  1.11362498e-17]
 [ 7.54245086e-19  1.04642297e-16  1.18309967e-16  1.24641523e-16
   6.22664094e-16  1.31887697e-17  5.68103738e-17 -4.02051857e-17
   4.56332743e-16  2.71002026e-16  1.96202062e-16 -2.69459517e-16
   2.13987761e-04  9.25882689e-03 -2.32391611e-16  3.16489066e-16
  -9.48094182e-16 -1.00924986e-15 -3.45981452e-16 -9.99849122e-01
  -1.46956077e-02 -2.76790457e-14  1.88813876e-14  1.38712478e-17
  -9.45991438e-20 -1.07451224e-17 -1.08932411e-19  5.51113934e-18]
 [ 6.09555747e-19 -1.68565420e-18 -1.38457268e-18 -1.87776913e-18
  -6.57317940e-16 -5.77545581e-17 -4.88271667e-17  8.56558518e-18
  -5.73398931e-18 -3.16179763e-18 -2.27256026e-18  4.30018839e-18
   9.25882689e-03 -2.13987761e-04  9.19711116e-16  1.23635824e-15
   5.02993939e-16  4.06384670e-16  8.84518410e-18  1.46956077e-02
  -9.99849122e-01 -5.11015897e-14  1.08212283e-14  3.45743550e-19
  -3.80854210e-20  6.60933397e-17  1.73843477e-16  1.37378635e-20]
 [ 1.48842873e-02 -3.32959462e-01  9.38370558e-03 -1.30728585e-01
  -7.18416118e-16  1.58697337e-16 -4.75299793e-17  1.15967631e-16
  -1.10421669e-02  5.42871057e-01 -4.86192688e-04 -2.74622234e-01
   3.81670685e-18  1.86732516e-16  4.29349703e-16  4.46490988e-16
   5.72965728e-16 -1.45605013e-16  2.48900405e-03  1.62988968e-16
   2.66959427e-19 -6.66468265e-16 -1.05928380e-15 -7.07954302e-01
   1.42080654e-03  1.44448646e-16  8.09154580e-17 -1.68050226e-02]
 [ 2.69027011e-02 -1.13544620e-02 -3.77319276e-01 -7.29924135e-04
  -2.54549917e-15  1.52930285e-15 -4.02553930e-15 -2.99107132e-15
   7.15733548e-01  1.89431435e-02  2.78054982e-01  4.69159099e-03
  -5.54108737e-19  6.21004672e-17  1.61174739e-17  8.65611639e-16
   1.37237943e-15 -3.12152358e-15  4.26089288e-01  2.14127758e-16
   2.85435014e-18  1.92923529e-16  1.00594054e-16  3.30563984e-03
  -2.91965738e-01  2.06424937e-15  3.59500064e-15 -1.14680395e-04]
 [-1.44951505e-16  2.21402678e-17  2.13139290e-15  1.19352437e-16
   1.10059872e-02  2.11696698e-02 -6.49150590e-02 -7.08119515e-01
  -3.78285295e-15  2.52996787e-16 -1.37064990e-15 -8.81698740e-17
   5.24083919e-16  1.06861493e-15 -3.30987577e-02  6.71605454e-03
  -1.50233850e-01 -3.57772264e-01 -2.37435003e-15  4.60313340e-16
  -2.36462066e-16 -3.62407785e-03 -2.77205781e-03 -1.47306437e-16
   1.94406381e-15 -8.54348377e-02  5.78577337e-01  2.54559943e-17]
 [-1.13239531e-16  1.67426211e-16  1.32223108e-15 -2.08383021e-16
   2.11696698e-02 -1.10059872e-02 -7.08119515e-01  6.49150590e-02
  -4.16720272e-15 -6.28186173e-16 -5.18023071e-16  2.58589844e-16
  -1.16719777e-15  1.27079075e-16 -6.71605454e-03 -3.30987577e-02
   3.57772264e-01 -1.50233850e-01 -2.92116996e-15 -4.00691786e-17
   2.03772451e-16 -2.77205781e-03  3.62407785e-03  7.59805593e-16
   1.03584721e-15  5.78577337e-01  8.54348377e-02 -7.04138289e-18]
 [ 1.56851404e-02 -8.90306326e-04  3.15843661e-02 -6.21440289e-03
  -4.59717183e-16  1.36340590e-16 -3.38478351e-15 -1.99970626e-16
   2.44824584e-01 -2.64223379e-03 -3.67271892e-01 -8.52252529e-03
  -7.73590445e-18 -3.14620644e-16  2.90421520e-16  4.77908261e-16
   2.70959076e-15 -2.58082786e-15  4.03986913e-01 -3.52705787e-17
   2.45884526e-18 -7.33956530e-17  6.34792064e-16  3.04696161e-03
   8.00371689e-01 -1.06824157e-15 -2.15015473e-15  3.28415657e-04]
 [ 1.58276294e-16 -7.85403127e-15 -2.35584870e-16  5.33384709e-15
   1.17631922e-02  3.30600246e-03 -2.91803912e-01 -2.27405985e-01
  -1.28525830e-15  8.88899269e-17  1.73730941e-15  2.95352567e-15
   3.82486050e-16 -3.08815722e-16 -2.99019921e-02 -2.12207053e-02
   2.03123403e-01 -4.55062249e-01 -2.57877134e-15  4.81187010e-16
  -1.68556599e-16 -6.71532022e-03  1.11413904e-03  2.56758901e-15
  -5.05756581e-15 -4.86775341e-01 -6.13437779e-01 -7.72252470e-15]
 [ 1.24209803e-16 -5.95421362e-15  1.01323966e-15  4.61310455e-15
  -3.30600246e-03  1.17631922e-02  2.27405985e-01 -2.91803912e-01
   1.03559754e-15  3.75972073e-16 -8.58572726e-16  2.04071880e-15
   1.31691107e-15  4.83356337e-16 -2.12207053e-02  2.99019921e-02
  -4.55062249e-01 -2.03123403e-01  2.01793050e-16  1.15222318e-15
  -3.15122422e-16 -1.11413904e-03 -6.71532022e-03  9.59697214e-16
   6.16425871e-16  6.13437779e-01 -4.86775341e-01  7.94792001e-16]
 [ 1.57313526e-02 -5.24919021e-01  1.78084004e-02  3.40840839e-01
  -1.15366363e-15  5.02581402e-16  2.44044041e-15  4.16949394e-15
   9.26924713e-04  3.32923447e-02 -7.27970458e-03  1.47909605e-01
   4.84764739e-18  1.89113437e-16  6.21983792e-16  6.00949025e-16
  -5.38066373e-16  7.70718439e-15 -6.74458810e-04  3.40345063e-16
   5.68736525e-18 -5.28486689e-16  2.99287514e-17  1.70338535e-01
  -8.89834799e-04  3.45548027e-15  1.05665484e-14 -7.45430736e-01]
 [ 1.10645110e-02 -5.50621794e-01  2.10178957e-02  4.24133752e-01
   1.63816887e-15  3.22364897e-16 -1.38740171e-15  3.64440254e-15
   2.75456105e-03  3.65228254e-02 -7.54792469e-03  2.72037140e-01
  -8.32191826e-18 -3.89621063e-16  6.77318654e-16 -4.23287485e-16
   3.66229542e-15  3.93201245e-15 -7.70150726e-04 -3.06245479e-17
   6.09315458e-19 -4.20643610e-16 -1.46987988e-16  8.79725342e-02
   1.29279483e-04 -3.77837903e-15  6.62606727e-15  6.58194171e-01]
 [ 1.81452051e-03  8.16521374e-02 -4.48428408e-03 -2.85888286e-01
   8.96828724e-15 -7.79206267e-15  1.07037832e-14 -9.42557250e-15
  -1.45392870e-02  7.64127610e-01 -2.14241934e-02  3.11238201e-01
   9.54137756e-16  1.45685467e-15  2.40660497e-15 -2.18881917e-14
  -1.64158060e-14 -7.36922251e-15 -5.51014327e-03  5.88813943e-15
  -3.47043896e-16 -4.99768327e-15  2.00826962e-14  4.79390687e-01
  -5.85354473e-04  4.43206323e-15 -2.60246307e-14  1.73398702e-02]]
grids:  [0.06237655 0.31939555 0.74529195 1.28265786 1.85893479 2.39630071
 2.8221971  3.07921611] 
weights:  [0.15900941 0.34931531 0.49276925 0.56970235 0.56970235 0.49276925
 0.34931531 0.15900941]
S = 0.0, Sz = 0.0
Wigner small d:  1
value : [1. 1. 1. 1. 1. 1. 1. 1.]
**** Start Cycle 1 ****
dm (ortho)
[[[ 0.98315367  0.         -0.         ...  0.01559828  0.01097092  0.00179917]
  [ 0.          0.         -0.         ...  0.          0.          0.        ]
  [-0.         -0.          0.         ... -0.         -0.         -0.        ]
  ...
  [ 0.01559828  0.         -0.         ...  0.00024748  0.00017406  0.00002854]
  [ 0.01097092  0.         -0.         ...  0.00017406  0.00012242  0.00002008]
  [ 0.00179917  0.         -0.         ...  0.00002854  0.00002008  0.00000329]]

 [[ 0.98315367  0.          0.         ... -0.01559828 -0.01097092 -0.00179917]
  [ 0.          0.          0.         ... -0.         -0.         -0.        ]
  [ 0.          0.          0.         ... -0.         -0.         -0.        ]
  ...
  [-0.01559828 -0.         -0.         ...  0.00024748  0.00017406  0.00002854]
  [-0.01097092 -0.         -0.         ...  0.00017406  0.00012242  0.00002008]
  [-0.00179917 -0.         -0.         ...  0.00002854  0.00002008  0.00000329]]]
Fock (ortho)
 (array([[-0.67670944,  0.        ,  0.        ,  0.07347645, -0.11397295, -0.        ,  0.        ,  0.        ,  0.        ,  0.13653512,  0.        ,
        -0.        ,  0.00204817, -0.17859764,  0.        , -0.        ,  0.        , -0.        ,  0.00544106, -0.05856278,  0.        ,  0.        ,
         0.12361735, -0.        ,  0.        , -0.00862631,  0.00156751, -0.00075786],
       [ 0.        ,  1.45489137, -0.        ,  0.        , -0.        ,  0.        ,  0.        , -0.01310258,  0.00252223,  0.        ,  0.74572634,
        -0.8656425 , -0.        , -0.        , -0.07502275,  0.48695686,  0.        , -0.        , -0.        ,  0.        ,  0.00139259, -0.00038607,
        -0.        , -0.0017196 , -0.00327916,  0.        , -0.        , -0.        ],
       [ 0.        , -0.        ,  1.45489137, -0.        , -0.        , -0.        ,  0.        , -0.00252223, -0.01310258,  0.        , -0.8656425 ,
        -0.74572634,  0.        ,  0.        ,  0.48695686,  0.07502275, -0.        ,  0.        ,  0.        , -0.        , -0.00038607, -0.00139259,
         0.        ,  0.00327916, -0.0017196 ,  0.        ,  0.        , -0.        ],
       [ 0.07347645,  0.        , -0.        ,  0.88603376,  0.00425624, -0.        , -0.        ,  0.        ,  0.        , -0.02486965,  0.        ,
         0.        ,  0.66741269,  0.01157806, -0.        ,  0.        , -0.        , -0.        ,  0.33809097, -0.00104277,  0.        , -0.        ,
        -0.00669923,  0.        ,  0.        ,  0.1055586 , -0.08329855,  0.06775935],
       [-0.11397295, -0.        , -0.        ,  0.00425624,  2.01311544,  0.        , -0.        , -0.        , -0.        , -0.71854282, -0.        ,
         0.        , -0.00971649,  1.22434896, -0.        , -0.        , -0.        ,  0.        ,  0.00105581,  0.72707876, -0.        , -0.        ,
        -0.01553003,  0.        , -0.        ,  0.00410277, -0.00331557, -0.00009373],
       [-0.        ,  0.        , -0.        , -0.        ,  0.        ,  3.21826385, -0.        ,  0.        ,  0.        ,  0.        ,  0.        ,
         0.        , -0.        , -0.        ,  0.        , -0.        , -0.        ,  0.00562553,  0.        ,  0.        ,  0.        , -0.        ,
         0.        ,  0.        , -0.        , -0.        ,  0.        ,  0.        ],
       [ 0.        ,  0.        ,  0.        , -0.        , -0.        , -0.        ,  3.21826385,  0.        , -0.        ,  0.        , -0.        ,
         0.        ,  0.        ,  0.        , -0.        ,  0.        , -0.00562553, -0.        , -0.        ,  0.        , -0.        ,  0.        ,
         0.        ,  0.        , -0.        , -0.        ,  0.        , -0.        ],
       [ 0.        , -0.01310258, -0.00252223,  0.        , -0.        ,  0.        ,  0.        ,  2.86642886, -0.        ,  0.        ,  0.00190833,
        -0.00332568,  0.        , -0.        , -0.00029069, -0.00778763, -0.        ,  0.        ,  0.        , -0.        , -1.31015146,  0.6501074 ,
         0.        , -0.00153961, -0.00510701,  0.        ,  0.        , -0.        ],
       [ 0.        ,  0.00252223, -0.01310258,  0.        , -0.        ,  0.        , -0.        , -0.        ,  2.86642886,  0.        , -0.00332568,
        -0.00190833,  0.        , -0.        , -0.00778763,  0.00029069,  0.        , -0.        ,  0.        ,  0.        ,  0.6501074 ,  1.31015146,
         0.        ,  0.00510701, -0.00153961, -0.        , -0.        , -0.        ],
       [ 0.13653512,  0.        ,  0.        , -0.02486965, -0.71854282,  0.        ,  0.        ,  0.        ,  0.        ,  1.87507423, -0.        ,
        -0.        , -0.00356388,  0.62757665, -0.        ,  0.        , -0.        ,  0.        , -0.01176288, -0.6811762 ,  0.        ,  0.        ,
        -0.69377655,  0.        ,  0.        ,  0.00608124, -0.00297629,  0.00077983],
       [ 0.        ,  0.74572634, -0.8656425 ,  0.        , -0.        ,  0.        , -0.        ,  0.00190833, -0.00332568, -0.        ,  3.18216174,
         0.        , -0.        ,  0.        ,  0.60287289, -0.37650585, -0.        ,  0.        , -0.        ,  0.        ,  0.00332528,  0.00222282,
         0.        , -0.0020684 , -0.00048024, -0.        ,  0.        ,  0.        ],
       [-0.        , -0.8656425 , -0.74572634,  0.        ,  0.        ,  0.        ,  0.        , -0.00332568, -0.00190833, -0.        ,  0.        ,
         3.18216174, -0.        ,  0.        ,  0.37650585,  0.60287289,  0.        ,  0.        , -0.        ,  0.        , -0.00222282,  0.00332528,
         0.        , -0.00048024,  0.0020684 , -0.        , -0.        ,  0.        ],
       [ 0.00204817, -0.        ,  0.        ,  0.66741269, -0.00971649, -0.        ,  0.        ,  0.        ,  0.        , -0.00356388, -0.        ,
        -0.        ,  3.14377025,  0.00089518, -0.        ,  0.        , -0.        ,  0.        , -1.10344401,  0.0046771 , -0.        ,  0.        ,
        -0.00341411, -0.        , -0.        , -0.67391198,  0.24130869,  0.51333785],
       [-0.17859764, -0.        ,  0.        ,  0.01157806,  1.22434896, -0.        ,  0.        , -0.        , -0.        ,  0.62757665,  0.        ,
         0.        ,  0.00089518,  2.79910348,  0.        , -0.        , -0.        , -0.        ,  0.00274266,  1.14980659, -0.        , -0.        ,
        -1.62786685,  0.        , -0.        ,  0.00313808, -0.00218393, -0.00030607],
       [ 0.        , -0.07502275,  0.48695686, -0.        , -0.        ,  0.        , -0.        , -0.00029069, -0.00778763, -0.        ,  0.60287289,
         0.37650585, -0.        ,  0.        ,  3.87061867, -0.        ,  0.        , -0.        ,  0.        , -0.        , -0.00112309, -0.0024928 ,
         0.        , -0.00023225,  0.00007958,  0.        ,  0.        ,  0.        ],
       [-0.        ,  0.48695686,  0.07502275,  0.        , -0.        , -0.        ,  0.        , -0.00778763,  0.00029069,  0.        , -0.37650585,
         0.60287289,  0.        , -0.        , -0.        ,  3.87061867, -0.        ,  0.        , -0.        ,  0.        ,  0.0024928 , -0.00112309,
        -0.        ,  0.00007958,  0.00023225, -0.        , -0.        ,  0.        ],
       [ 0.        ,  0.        , -0.        , -0.        , -0.        , -0.        , -0.00562553, -0.        ,  0.        , -0.        , -0.        ,
         0.        , -0.        , -0.        ,  0.        , -0.        ,  4.30565401,  0.        , -0.        , -0.        ,  0.        , -0.        ,
        -0.        ,  0.        , -0.        , -0.        , -0.        , -0.        ],
       [-0.        , -0.        ,  0.        , -0.        ,  0.        ,  0.00562553, -0.        ,  0.        , -0.        ,  0.        ,  0.        ,
         0.        ,  0.        , -0.        , -0.        ,  0.        ,  0.        ,  4.30565401, -0.        ,  0.        ,  0.        ,  0.        ,
         0.        ,  0.        ,  0.        ,  0.        ,  0.        ,  0.        ],
       [ 0.00544106, -0.        ,  0.        ,  0.33809097,  0.00105581,  0.        , -0.        ,  0.        ,  0.        , -0.01176288, -0.        ,
        -0.        , -1.10344401,  0.00274266,  0.        , -0.        , -0.        , -0.        ,  3.2827574 ,  0.00459591,  0.        , -0.        ,
        -0.00146788, -0.        , -0.        , -0.5905914 , -0.60988927, -1.31715835],
       [-0.05856278,  0.        , -0.        , -0.00104277,  0.72707876,  0.        ,  0.        , -0.        ,  0.        , -0.6811762 ,  0.        ,
         0.        ,  0.0046771 ,  1.14980659, -0.        ,  0.        , -0.        ,  0.        ,  0.00459591,  2.04359511,  0.        ,  0.        ,
        -0.96238185, -0.        , -0.        , -0.00148305, -0.00002802, -0.00171706],
       [ 0.        ,  0.00139259, -0.00038607,  0.        , -0.        ,  0.        , -0.        , -1.31015146,  0.6501074 ,  0.        ,  0.00332528,
        -0.00222282, -0.        , -0.        , -0.00112309,  0.0024928 ,  0.        ,  0.        ,  0.        ,  0.        ,  3.46469876, -0.        ,
         0.        , -1.46299275, -1.55970199,  0.        ,  0.        , -0.        ],
       [ 0.        , -0.00038607, -0.00139259, -0.        , -0.        , -0.        ,  0.        ,  0.6501074 ,  1.31015146,  0.        ,  0.00222282,
         0.00332528,  0.        , -0.        , -0.0024928 , -0.00112309, -0.        ,  0.        , -0.        ,  0.        , -0.        ,  3.46469876,
         0.        , -1.55970199,  1.46299275,  0.        , -0.        , -0.        ],
       [ 0.12361735, -0.        ,  0.        , -0.00669923, -0.01553003,  0.        ,  0.        ,  0.        ,  0.        , -0.69377655,  0.        ,
         0.        , -0.00341411, -1.62786685,  0.        , -0.        , -0.        ,  0.        , -0.00146788, -0.96238185,  0.        ,  0.        ,
         5.27272811, -0.        ,  0.        ,  0.002422  , -0.00076756,  0.00018603],
       [-0.        , -0.0017196 ,  0.00327916,  0.        ,  0.        ,  0.        ,  0.        , -0.00153961,  0.00510701,  0.        , -0.0020684 ,
        -0.00048024, -0.        ,  0.        , -0.00023225,  0.00007958,  0.        ,  0.        , -0.        , -0.        , -1.46299275, -1.55970199,
        -0.        ,  5.26262475, -0.        , -0.        , -0.        ,  0.        ],
       [ 0.        , -0.00327916, -0.0017196 ,  0.        , -0.        , -0.        , -0.        , -0.00510701, -0.00153961,  0.        , -0.00048024,
         0.0020684 , -0.        , -0.        ,  0.00007958,  0.00023225, -0.        ,  0.        , -0.        , -0.        , -1.55970199,  1.46299275,
         0.        , -0.        ,  5.26262475, -0.        , -0.        ,  0.        ],
       [-0.00862631,  0.        ,  0.        ,  0.1055586 ,  0.00410277, -0.        , -0.        ,  0.        , -0.        ,  0.00608124, -0.        ,
        -0.        , -0.67391198,  0.00313808,  0.        , -0.        , -0.        ,  0.        , -0.5905914 , -0.00148305,  0.        ,  0.        ,
         0.002422  , -0.        , -0.        ,  5.76166781, -4.42704045,  0.38979584],
       [ 0.00156751, -0.        ,  0.        , -0.08329855, -0.00331557,  0.        ,  0.        ,  0.        , -0.        , -0.00297629,  0.        ,
        -0.        ,  0.24130869, -0.00218393,  0.        , -0.        , -0.        ,  0.        , -0.60988927, -0.00002802,  0.        , -0.        ,
        -0.00076756, -0.        , -0.        , -4.42704045,  4.66076095,  0.51510505],
       [-0.00075786, -0.        , -0.        ,  0.06775935, -0.00009373,  0.        , -0.        , -0.        , -0.        ,  0.00077983,  0.        ,
         0.        ,  0.51333785, -0.00030607,  0.        ,  0.        , -0.        ,  0.        , -1.31715835, -0.00171706, -0.        , -0.        ,
         0.00018603,  0.        ,  0.        ,  0.38979584,  0.51510505,  2.44973706]]), array([[-0.67670944, -0.        , -0.        , -0.07347645, -0.11397295,  0.        , -0.        , -0.        , -0.        ,  0.13653512,  0.        ,
         0.        , -0.00204817, -0.17859764,  0.        , -0.        , -0.        ,  0.        , -0.00544106, -0.05856278,  0.        ,  0.        ,
         0.12361735, -0.        ,  0.        ,  0.00862631, -0.00156751,  0.00075786],
       [-0.        ,  1.45489137, -0.        ,  0.        , -0.        ,  0.        ,  0.        ,  0.01310258, -0.00252223,  0.        ,  0.74572634,
        -0.8656425 , -0.        , -0.        , -0.07502275,  0.48695686,  0.        , -0.        , -0.        ,  0.        , -0.00139259,  0.00038607,
        -0.        ,  0.0017196 ,  0.00327916,  0.        , -0.        , -0.        ],
       [-0.        , -0.        ,  1.45489137, -0.        , -0.        , -0.        ,  0.        ,  0.00252223,  0.01310258,  0.        , -0.8656425 ,
        -0.74572634,  0.        ,  0.        ,  0.48695686,  0.07502275, -0.        ,  0.        ,  0.        , -0.        ,  0.00038607,  0.00139259,
         0.        , -0.00327916,  0.0017196 ,  0.        ,  0.        , -0.        ],
       [-0.07347645,  0.        , -0.        ,  0.88603376, -0.00425624,  0.        ,  0.        , -0.        ,  0.        ,  0.02486965,  0.        ,
         0.        ,  0.66741269, -0.01157806, -0.        ,  0.        , -0.        ,  0.        ,  0.33809097,  0.00104277,  0.        , -0.        ,
         0.00669923,  0.        ,  0.        ,  0.1055586 , -0.08329855,  0.06775935],
       [-0.11397295, -0.        , -0.        , -0.00425624,  2.01311544, -0.        , -0.        , -0.        , -0.        , -0.71854282, -0.        ,
         0.        ,  0.00971649,  1.22434896, -0.        , -0.        ,  0.        , -0.        , -0.00105581,  0.72707876, -0.        , -0.        ,
        -0.01553003,  0.        , -0.        , -0.00410277,  0.00331557,  0.00009373],
       [ 0.        ,  0.        , -0.        ,  0.        , -0.        ,  3.21826385, -0.        ,  0.        ,  0.        , -0.        ,  0.        ,
         0.        , -0.        ,  0.        ,  0.        , -0.        ,  0.        , -0.00562553,  0.        , -0.        ,  0.        , -0.        ,
        -0.        ,  0.        , -0.        , -0.        ,  0.        ,  0.        ],
       [-0.        ,  0.        ,  0.        ,  0.        , -0.        , -0.        ,  3.21826385,  0.        , -0.        ,  0.        , -0.        ,
         0.        ,  0.        ,  0.        , -0.        ,  0.        ,  0.00562553,  0.        , -0.        ,  0.        , -0.        ,  0.        ,
         0.        ,  0.        , -0.        , -0.        ,  0.        , -0.        ],
       [-0.        ,  0.01310258,  0.00252223, -0.        , -0.        ,  0.        ,  0.        ,  2.86642886, -0.        ,  0.        , -0.00190833,
         0.00332568,  0.        , -0.        ,  0.00029069,  0.00778763, -0.        ,  0.        ,  0.        , -0.        , -1.31015146,  0.6501074 ,
         0.        , -0.00153961, -0.00510701,  0.        ,  0.        , -0.        ],
       [-0.        , -0.00252223,  0.01310258,  0.        , -0.        ,  0.        , -0.        , -0.        ,  2.86642886,  0.        ,  0.00332568,
         0.00190833, -0.        , -0.        ,  0.00778763, -0.00029069,  0.        , -0.        ,  0.        ,  0.        ,  0.6501074 ,  1.31015146,
         0.        ,  0.00510701, -0.00153961, -0.        , -0.        , -0.        ],
       [ 0.13653512,  0.        ,  0.        ,  0.02486965, -0.71854282, -0.        ,  0.        ,  0.        ,  0.        ,  1.87507423,  0.        ,
        -0.        ,  0.00356388,  0.62757665, -0.        ,  0.        ,  0.        , -0.        ,  0.01176288, -0.6811762 ,  0.        ,  0.        ,
        -0.69377655,  0.        ,  0.        , -0.00608124,  0.00297629, -0.00077983],
       [ 0.        ,  0.74572634, -0.8656425 ,  0.        , -0.        ,  0.        , -0.        , -0.00190833,  0.00332568,  0.        ,  3.18216174,
         0.        , -0.        ,  0.        ,  0.60287289, -0.37650585, -0.        ,  0.        , -0.        , -0.        , -0.00332528, -0.00222282,
         0.        ,  0.0020684 ,  0.00048024, -0.        ,  0.        ,  0.        ],
       [ 0.        , -0.8656425 , -0.74572634,  0.        ,  0.        ,  0.        ,  0.        ,  0.00332568,  0.00190833, -0.        ,  0.        ,
         3.18216174, -0.        ,  0.        ,  0.37650585,  0.60287289,  0.        ,  0.        , -0.        ,  0.        ,  0.00222282, -0.00332528,
         0.        ,  0.00048024, -0.0020684 , -0.        , -0.        ,  0.        ],
       [-0.00204817, -0.        ,  0.        ,  0.66741269,  0.00971649, -0.        ,  0.        ,  0.        , -0.        ,  0.00356388, -0.        ,
        -0.        ,  3.14377025, -0.00089518, -0.        ,  0.        , -0.        ,  0.        , -1.10344401, -0.0046771 , -0.        ,  0.        ,
         0.00341411, -0.        , -0.        , -0.67391198,  0.24130869,  0.51333785],
       [-0.17859764, -0.        ,  0.        , -0.01157806,  1.22434896,  0.        ,  0.        , -0.        , -0.        ,  0.62757665,  0.        ,
         0.        , -0.00089518,  2.79910348,  0.        , -0.        , -0.        ,  0.        , -0.00274266,  1.14980659, -0.        , -0.        ,
        -1.62786685,  0.        , -0.        , -0.00313808,  0.00218393,  0.00030607],
       [ 0.        , -0.07502275,  0.48695686, -0.        , -0.        ,  0.        , -0.        ,  0.00029069,  0.00778763, -0.        ,  0.60287289,
         0.37650585, -0.        ,  0.        ,  3.87061867, -0.        ,  0.        , -0.        ,  0.        , -0.        ,  0.00112309,  0.0024928 ,
         0.        ,  0.00023225, -0.00007958,  0.        ,  0.        ,  0.        ],
       [-0.        ,  0.48695686,  0.07502275,  0.        , -0.        , -0.        ,  0.        ,  0.00778763, -0.00029069,  0.        , -0.37650585,
         0.60287289,  0.        , -0.        , -0.        ,  3.87061867, -0.        ,  0.        , -0.        ,  0.        , -0.0024928 ,  0.00112309,
        -0.        , -0.00007958, -0.00023225, -0.        , -0.        ,  0.        ],
       [-0.        ,  0.        , -0.        , -0.        ,  0.        ,  0.        ,  0.00562553, -0.        ,  0.        ,  0.        , -0.        ,
         0.        , -0.        , -0.        ,  0.        , -0.        ,  4.30565401,  0.        , -0.        , -0.        ,  0.        , -0.        ,
        -0.        ,  0.        , -0.        , -0.        , -0.        , -0.        ],
       [ 0.        , -0.        ,  0.        ,  0.        , -0.        , -0.00562553,  0.        ,  0.        , -0.        , -0.        ,  0.        ,
         0.        ,  0.        ,  0.        , -0.        ,  0.        ,  0.        ,  4.30565401, -0.        , -0.        ,  0.        ,  0.        ,
        -0.        ,  0.        ,  0.        ,  0.        ,  0.        ,  0.        ],
       [-0.00544106, -0.        ,  0.        ,  0.33809097, -0.00105581,  0.        , -0.        ,  0.        ,  0.        ,  0.01176288, -0.        ,
        -0.        , -1.10344401, -0.00274266,  0.        , -0.        , -0.        , -0.        ,  3.2827574 , -0.00459591,  0.        , -0.        ,
         0.00146788, -0.        , -0.        , -0.5905914 , -0.60988927, -1.31715835],
       [-0.05856278,  0.        , -0.        ,  0.00104277,  0.72707876, -0.        ,  0.        , -0.        ,  0.        , -0.6811762 , -0.        ,
         0.        , -0.0046771 ,  1.14980659, -0.        ,  0.        , -0.        , -0.        , -0.00459591,  2.04359511,  0.        ,  0.        ,
        -0.96238185, -0.        , -0.        ,  0.00148305,  0.00002802,  0.00171706],
       [ 0.        , -0.00139259,  0.00038607,  0.        , -0.        ,  0.        , -0.        , -1.31015146,  0.6501074 ,  0.        , -0.00332528,
         0.00222282, -0.        , -0.        ,  0.00112309, -0.0024928 ,  0.        ,  0.        ,  0.        ,  0.        ,  3.46469876, -0.        ,
         0.        , -1.46299275, -1.55970199,  0.        ,  0.        , -0.        ],
       [ 0.        ,  0.00038607,  0.00139259, -0.        , -0.        , -0.        ,  0.        ,  0.6501074 ,  1.31015146,  0.        , -0.00222282,
        -0.00332528,  0.        , -0.        ,  0.0024928 ,  0.00112309, -0.        ,  0.        , -0.        ,  0.        , -0.        ,  3.46469876,
         0.        , -1.55970199,  1.46299275,  0.        , -0.        , -0.        ],
       [ 0.12361735, -0.        ,  0.        ,  0.00669923, -0.01553003, -0.        ,  0.        ,  0.        ,  0.        , -0.69377655,  0.        ,
         0.        ,  0.00341411, -1.62786685,  0.        , -0.        , -0.        , -0.        ,  0.00146788, -0.96238185,  0.        ,  0.        ,
         5.27272811, -0.        ,  0.        , -0.002422  ,  0.00076756, -0.00018603],
       [-0.        ,  0.0017196 , -0.00327916,  0.        ,  0.        ,  0.        ,  0.        , -0.00153961,  0.00510701,  0.        ,  0.0020684 ,
         0.00048024, -0.        ,  0.        ,  0.00023225, -0.00007958,  0.        ,  0.        , -0.        , -0.        , -1.46299275, -1.55970199,
        -0.        ,  5.26262475, -0.        , -0.        , -0.        ,  0.        ],
       [ 0.        ,  0.00327916,  0.0017196 ,  0.        , -0.        , -0.        , -0.        , -0.00510701, -0.00153961,  0.        ,  0.00048024,
        -0.0020684 , -0.        , -0.        , -0.00007958, -0.00023225, -0.        ,  0.        , -0.        , -0.        , -1.55970199,  1.46299275,
         0.        , -0.        ,  5.26262475, -0.        , -0.        ,  0.        ],
       [ 0.00862631,  0.        ,  0.        ,  0.1055586 , -0.00410277, -0.        , -0.        ,  0.        , -0.        , -0.00608124, -0.        ,
        -0.        , -0.67391198, -0.00313808,  0.        , -0.        , -0.        ,  0.        , -0.5905914 ,  0.00148305,  0.        ,  0.        ,
        -0.002422  , -0.        , -0.        ,  5.76166781, -4.42704045,  0.38979584],
       [-0.00156751, -0.        ,  0.        , -0.08329855,  0.00331557,  0.        ,  0.        ,  0.        , -0.        ,  0.00297629,  0.        ,
        -0.        ,  0.24130869,  0.00218393,  0.        , -0.        , -0.        ,  0.        , -0.60988927,  0.00002802,  0.        , -0.        ,
         0.00076756, -0.        , -0.        , -4.42704045,  4.66076095,  0.51510505],
       [ 0.00075786, -0.        , -0.        ,  0.06775935,  0.00009373,  0.        , -0.        , -0.        , -0.        , -0.00077983,  0.        ,
         0.        ,  0.51333785,  0.00030607,  0.        ,  0.        , -0.        ,  0.        , -1.31715835,  0.00171706, -0.        , -0.        ,
        -0.00018603,  0.        ,  0.        ,  0.38979584,  0.51510505,  2.44973706]]))
E(UHF) =    -2.104394
NO eigenvalue
[-1. -0. -0. -0. -0. -0. -0. -0. -0. -0. -0. -0. -0. -0. -0. -0.  0.  0.  0.  0.  0.  0.  0.  0.  0.  0.  0.  0.] [-1. -0. -0. -0. -0. -0. -0. -0. -0. -0. -0. -0. -0. -0. -0.  0.  0.  0.  0.  0.  0.  0.  0.  0.  0.  0.  0.  0.]
NO vec
[[ 0.99154106  0.         -0.08879778 ...  0.          0.          0.        ]
 [ 0.          0.         -0.69530385 ...  0.          0.          0.        ]
 [-0.          0.         -0.         ...  0.          0.          0.        ]
 ...
 [ 0.         -0.01573135  0.         ... -0.1146753  -0.1846726   0.10416829]
 [ 0.         -0.01106451  0.         ...  0.05187985  0.02073758  0.03690678]
 [ 0.         -0.00181452  0.         ... -0.01145078 -0.01685042  0.01307746]]
dm(NO)
[[ 1.  0.  0. ...  0.  0.  0.]
 [ 0.  1.  0. ...  0.  0.  0.]
 [-0.  0.  0. ...  0.  0.  0.]
 ...
 [ 0. -0.  0. ... -0.  0. -0.]
 [ 0.  0.  0. ... -0. -0. -0.]
 [ 0.  0.  0. ...  0.  0.  0.]]
D(g) (NO)
[[ 0.99951369  0.0305614  -0.         ...  0.00038421  0.00353107  0.00380023]
 [-0.0305614   0.99951369  0.00393357 ... -0.         -0.          0.        ]
 [-0.         -0.00393357  0.99951369 ...  0.00698401  0.01576522  0.01916923]
 ...
 [-0.00038421  0.         -0.00698401 ...  0.99951369 -0.         -0.        ]
 [-0.00353107 -0.         -0.01576522 ... -0.          0.99951369 -0.        ]
 [-0.00380023  0.         -0.01916923 ... -0.         -0.          0.99951369]]
...
N(g) (NO)
[[ 0.99955206 -0.03056257]
 [ 0.03056257  0.99955206]]
...
P(g) (NO)
[[ 1.         -0.          0.         ... -0.          0.          0.        ]
 [-0.          1.         -0.         ...  0.          0.          0.        ]
 [-0.00012022 -0.00393181 -0.         ... -0.         -0.         -0.        ]
 ...
 [-0.00038403  0.00001174 -0.         ...  0.          0.          0.        ]
 [-0.00352949  0.00010792 -0.         ...  0.          0.          0.        ]
 [-0.00379853  0.00011614 -0.         ...  0.          0.          0.        ]]
...
Pg_ortho
[[ 0.98317236 -0.         -0.         ... -0.00000969 -0.00000682 -0.00000112]
 [-0.          0.          0.         ... -0.         -0.         -0.        ]
 [-0.          0.          0.         ... -0.         -0.         -0.        ]
 ...
 [-0.00096268  0.          0.         ...  0.00024701  0.00017373  0.00002849]
 [-0.00067709  0.          0.         ...  0.00017373  0.00012219  0.00002004]
 [-0.00011104  0.          0.         ...  0.00002849  0.00002004  0.00000329]]
G(g) (NO)
[[ 0.70505475 -0.00022682 -0.00207251 ...  0.00020128  0.00055554  0.00048113]
 [ 0.00022682  0.70505475  0.00053404 ...  0.13885741 -0.00599895 -0.00677518]
 [-0.00201417  0.0024265   1.18774641 ...  0.00035758  0.00009355 -0.00016598]
 ...
 [ 0.00088555  0.13884043  0.00016207 ...  1.36500814 -0.06012164  0.17383989]
 [ 0.00253995 -0.00605613  0.00040434 ... -0.06013367  1.19982671  0.04763865]
 [ 0.00218776 -0.00682931 -0.00002594 ...  0.17383456  0.04764376  1.12447478]]
...
C(NO)
[[-1.          0.          0.         ...  0.          0.          0.        ]
 [ 0.         -1.          0.         ... -0.          0.         -0.        ]
 [ 0.          0.          0.37532629 ...  0.          0.          0.        ]
 ...
 [ 0.          0.          0.         ... -0.00009541  0.00021536  0.08255072]
 [ 0.          0.          0.         ...  0.00007157 -0.00016155  0.16401572]
 [ 0.         -0.          0.         ... -0.00064737  0.00146125 -0.03563742]]
detC 0.9999999999999999
detNg [1.0000384  1.00099945 1.00526136 1.01433458 1.02601157 1.035465   1.04002611 1.0410656 ]
xg [0.99996161 0.99900155 0.99476618 0.985868   0.97464787 0.96574969 0.96151432 0.96055427]
ciS 1.960515871124778
[[-1.40472096  0.          0.0302863  ...  0.          0.          0.        ]
 [ 0.         -1.40472096  0.         ... -0.19625448 -0.0228457  -0.01460837]
 [ 0.0302863   0.         -0.04846987 ...  0.          0.          0.        ]
 ...
 [ 0.         -0.19625448  0.         ...  1.10465118 -0.23678713  0.32465822]
 [ 0.         -0.0228457   0.         ... -0.23678713  0.70207919 -0.55710029]
 [ 0.         -0.01460837  0.         ...  0.32465822 -0.55710029  0.22171546]]
ciH -4.15073275956208
S2 = -0.000000
X(g)
[[ 2.          0.         -0.00012022 ...  0.00038403  0.00352949  0.00379853]
 [-0.          2.          0.00393181 ...  0.00001174  0.00010792  0.00011614]
 [-0.00012022 -0.00393181  0.         ...  0.          0.          0.        ]
 ...
 [-0.00038403  0.00001174  0.         ...  0.          0.          0.        ]
 [-0.00352949  0.00010792  0.         ...  0.          0.          0.        ]
 [-0.00379853  0.00011614  0.         ...  0.          0.          0.        ]]
X(g) int
[[ 2.          0.         -0.06305914 ...  0.00493585  0.04536335  0.04882119]
 [-0.          2.          0.05053423 ...  0.0061592   0.05660666  0.06092153]
 [-0.06305914 -0.05053423  0.         ...  0.          0.          0.        ]
 ...
 [-0.00493585  0.0061592   0.         ...  0.          0.          0.        ]
 [-0.04536335  0.05660666  0.         ...  0.          0.          0.        ]
 [-0.04882119  0.06092153  0.         ...  0.          0.          0.        ]]
Hsp + Hph =  -2.1171635591915616
Feff (mod,ortho)
[[-0.66431756  0.          0.         ...  0.          0.          0.        ]
 [ 0.          1.45489137 -0.         ...  0.          0.          0.        ]
 [ 0.         -0.          1.45489137 ...  0.          0.          0.        ]
 ...
 [ 0.          0.          0.         ...  5.76123519 -4.42711167  0.38974958]
 [ 0.          0.          0.         ... -4.42711167  4.66087478  0.5150994 ]
 [ 0.          0.          0.         ...  0.38974958  0.5150994   2.44973214]]
E(SUHF) =     -1.05880914
e_a, e_b
[-0.70274898  0.18446108  0.27661537  0.68344861  0.70156928  0.70156928  1.12589662  1.12589662  1.12843032  1.57813291  2.19314653  2.86596572  3.21823475
  3.21823475  3.47087077  3.47087077  3.60902511  3.60902511  3.70943856  4.30568311  4.30568311  4.33474296  4.33474296  5.13221139  6.71986787  6.85931939
  6.85931939  9.7426648 ] [-0.70274898  0.18446108  0.27661537  0.68344861  0.70156928  0.70156928  1.12589662  1.12589662  1.12843032  1.57813291  2.19314653  2.86596572  3.21823475
  3.21823475  3.47087077  3.47087077  3.60902511  3.60902511  3.70943856  4.30568311  4.30568311  4.33474296  4.33474296  5.13221139  6.71986787  6.85931939
  6.85931939  9.7426648 ]
P_a, P_b
[[ 0.97464903  0.         -0.         -0.10191594 -0.0035169   0.          0.         -0.         -0.         -0.083529    0.         -0.          0.02117331
   0.06963334 -0.          0.          0.          0.          0.01501529 -0.03393917  0.          0.         -0.01643026  0.          0.          0.01616375
   0.0110816   0.00187524]
 [ 0.          0.         -0.         -0.         -0.          0.          0.         -0.         -0.         -0.          0.         -0.          0.
   0.         -0.          0.          0.          0.          0.         -0.          0.          0.         -0.          0.          0.          0.
   0.          0.        ]
 [-0.         -0.          0.          0.          0.         -0.         -0.          0.          0.          0.         -0.          0.         -0.
  -0.          0.         -0.         -0.         -0.         -0.          0.         -0.         -0.          0.         -0.         -0.         -0.
  -0.         -0.        ]
 [-0.10191594 -0.          0.          0.01065703  0.00036775 -0.         -0.          0.          0.          0.00873436 -0.          0.         -0.00221403
  -0.00728134  0.         -0.         -0.         -0.         -0.0015701   0.00354891 -0.         -0.          0.00171806 -0.         -0.         -0.00169019
  -0.00115877 -0.00019609]
 [-0.0035169  -0.          0.          0.00036775  0.00001269 -0.         -0.          0.          0.          0.0003014  -0.          0.         -0.0000764
  -0.00025126  0.         -0.         -0.         -0.         -0.00005418  0.00012247 -0.         -0.          0.00005929 -0.         -0.         -0.00005832
  -0.00003999 -0.00000677]
 [ 0.          0.         -0.         -0.         -0.          0.          0.         -0.         -0.         -0.          0.         -0.          0.
   0.         -0.          0.          0.          0.          0.         -0.          0.          0.         -0.          0.          0.          0.
   0.          0.        ]
 [ 0.          0.         -0.         -0.         -0.          0.          0.         -0.         -0.         -0.          0.         -0.          0.
   0.         -0.          0.          0.          0.          0.         -0.          0.          0.         -0.          0.          0.          0.
   0.          0.        ]
 [-0.         -0.          0.          0.          0.         -0.         -0.          0.          0.          0.         -0.          0.         -0.
  -0.          0.         -0.         -0.         -0.         -0.          0.         -0.         -0.          0.         -0.         -0.         -0.
  -0.         -0.        ]
 [-0.         -0.          0.          0.          0.         -0.         -0.          0.          0.          0.         -0.          0.         -0.
  -0.          0.         -0.         -0.         -0.         -0.          0.         -0.         -0.          0.         -0.         -0.         -0.
  -0.         -0.        ]
 [-0.083529   -0.          0.          0.00873436  0.0003014  -0.         -0.          0.          0.          0.00715857 -0.          0.         -0.00181459
  -0.00596769  0.         -0.         -0.         -0.         -0.00128683  0.00290864 -0.         -0.          0.0014081  -0.         -0.         -0.00138526
  -0.00094971 -0.00016071]
 [ 0.          0.         -0.         -0.         -0.          0.          0.         -0.         -0.         -0.          0.         -0.          0.
   0.         -0.          0.          0.          0.          0.         -0.          0.          0.         -0.          0.          0.          0.
   0.          0.        ]
 [-0.         -0.          0.          0.          0.         -0.         -0.          0.          0.          0.         -0.          0.         -0.
  -0.          0.         -0.         -0.         -0.         -0.          0.         -0.         -0.          0.         -0.         -0.         -0.
  -0.         -0.        ]
 [ 0.02117331  0.         -0.         -0.00221403 -0.0000764   0.          0.         -0.         -0.         -0.00181459  0.         -0.          0.00045997
   0.00151272 -0.          0.          0.          0.          0.00032619 -0.0007373   0.          0.         -0.00035693  0.          0.          0.00035114
   0.00024074  0.00004074]
 [ 0.06963334  0.         -0.         -0.00728134 -0.00025126  0.          0.         -0.         -0.         -0.00596769  0.         -0.          0.00151272
   0.00497492 -0.          0.          0.          0.          0.00107276 -0.00242477  0.          0.         -0.00117385  0.          0.          0.00115481
   0.00079172  0.00013398]
 [-0.         -0.          0.          0.          0.         -0.         -0.          0.          0.          0.         -0.          0.         -0.
  -0.          0.         -0.         -0.         -0.         -0.          0.         -0.         -0.          0.         -0.         -0.         -0.
  -0.         -0.        ]
 [ 0.          0.         -0.         -0.         -0.          0.          0.         -0.         -0.         -0.          0.         -0.          0.
   0.         -0.          0.          0.          0.          0.         -0.          0.          0.         -0.          0.          0.          0.
   0.          0.        ]
 [ 0.          0.         -0.         -0.         -0.          0.          0.         -0.         -0.         -0.          0.         -0.          0.
   0.         -0.          0.          0.          0.          0.         -0.          0.          0.         -0.          0.          0.          0.
   0.          0.        ]
 [ 0.          0.         -0.         -0.         -0.          0.          0.         -0.         -0.         -0.          0.         -0.          0.
   0.         -0.          0.          0.          0.          0.         -0.          0.          0.         -0.          0.          0.          0.
   0.          0.        ]
 [ 0.01501529  0.         -0.         -0.0015701  -0.00005418  0.          0.         -0.         -0.         -0.00128683  0.         -0.          0.00032619
   0.00107276 -0.          0.          0.          0.          0.00023132 -0.00052286  0.          0.         -0.00025312  0.          0.          0.00024902
   0.00017072  0.00002889]
 [-0.03393917 -0.          0.          0.00354891  0.00012247 -0.         -0.          0.          0.          0.00290864 -0.          0.         -0.0007373
  -0.00242477  0.         -0.         -0.         -0.         -0.00052286  0.00118183 -0.         -0.          0.00057213 -0.         -0.         -0.00056285
  -0.00038588 -0.0000653 ]
 [ 0.          0.         -0.         -0.         -0.          0.          0.         -0.         -0.         -0.          0.         -0.          0.
   0.         -0.          0.          0.          0.          0.         -0.          0.          0.         -0.          0.          0.          0.
   0.          0.        ]
 [ 0.          0.         -0.         -0.         -0.          0.          0.         -0.         -0.         -0.          0.         -0.          0.
   0.         -0.          0.          0.          0.          0.         -0.          0.          0.         -0.          0.          0.          0.
   0.          0.        ]
 [-0.01643026 -0.          0.          0.00171806  0.00005929 -0.         -0.          0.          0.          0.0014081  -0.          0.         -0.00035693
  -0.00117385  0.         -0.         -0.         -0.         -0.00025312  0.00057213 -0.         -0.          0.00027697 -0.         -0.         -0.00027248
[...]
  [ 0.         -0.          1.49762115 ...  0.          0.         -0.        ]
  ...
  [ 0.10543724  0.          0.         ...  5.80407664 -4.45677866  0.39346043]
  [-0.06681027 -0.          0.         ... -4.45677866  4.68829209  0.51693428]
  [ 0.00558631 -0.         -0.         ...  0.39346043  0.51693428  2.46023583]]]
e_a, e_b
[-0.64779702  0.19349164  0.28219897  0.6955765   0.72604566  0.72604566  1.13966845  1.13966845  1.14535939  1.58477587  2.22883565  2.89237123  3.2533943
  3.2533943   3.51390079  3.51390079  3.644021    3.644021    3.74669656  4.33713042  4.33713042  4.37016252  4.37016252  5.16984363  6.76733377  6.90574772
  6.90574772  9.8126221 ] [-0.64779702  0.19349164  0.28219897  0.6955765   0.72604566  0.72604566  1.13966845  1.13966845  1.14535939  1.58477587  2.22883565  2.89237123  3.2533943
  3.2533943   3.51390079  3.51390079  3.644021    3.644021    3.74669656  4.33713042  4.33713042  4.37016252  4.37016252  5.16984363  6.76733377  6.90574772
  6.90574772  9.8126221 ]
P_a, P_b
[[ 0.9146026   0.          0.         -0.25056735 -0.00777056 -0.          0.          0.          0.         -0.0882525  -0.          0.         -0.00209823
   0.07308602 -0.         -0.          0.          0.         -0.01776562 -0.0363467   0.          0.         -0.01585757  0.          0.          0.0138957
  -0.00664755 -0.00062139]
 [ 0.          0.          0.         -0.         -0.         -0.          0.          0.          0.         -0.         -0.          0.         -0.
   0.         -0.         -0.          0.          0.         -0.         -0.          0.          0.         -0.          0.          0.          0.
  -0.         -0.        ]
 [ 0.          0.          0.         -0.         -0.         -0.          0.          0.          0.         -0.         -0.          0.         -0.
   0.         -0.         -0.          0.          0.         -0.         -0.          0.          0.         -0.          0.          0.          0.
  -0.         -0.        ]
 [-0.25056735 -0.         -0.          0.0686462   0.00212885  0.         -0.         -0.         -0.          0.02417793  0.         -0.          0.00057484
  -0.02002287  0.          0.         -0.         -0.          0.00486712  0.00995765 -0.         -0.          0.00434439 -0.         -0.         -0.00380691
   0.00182118  0.00017024]
 [-0.00777056 -0.         -0.          0.00212885  0.00006602  0.         -0.         -0.         -0.          0.0007498   0.         -0.          0.00001783
  -0.00062095  0.          0.         -0.         -0.          0.00015094  0.00030881 -0.         -0.          0.00013473 -0.         -0.         -0.00011806
   0.00005648  0.00000528]
 [-0.         -0.         -0.          0.          0.          0.         -0.         -0.         -0.          0.          0.         -0.          0.
  -0.          0.          0.         -0.         -0.          0.          0.         -0.         -0.          0.         -0.         -0.         -0.
   0.          0.        ]
 [ 0.          0.          0.         -0.         -0.         -0.          0.          0.          0.         -0.         -0.          0.         -0.
   0.         -0.         -0.          0.          0.         -0.         -0.          0.          0.         -0.          0.          0.          0.
  -0.         -0.        ]
 [ 0.          0.          0.         -0.         -0.         -0.          0.          0.          0.         -0.         -0.          0.         -0.
   0.         -0.         -0.          0.          0.         -0.         -0.          0.          0.         -0.          0.          0.          0.
  -0.         -0.        ]
 [ 0.          0.          0.         -0.         -0.         -0.          0.          0.          0.         -0.         -0.          0.         -0.
   0.         -0.         -0.          0.          0.         -0.         -0.          0.          0.         -0.          0.          0.          0.
  -0.         -0.        ]
 [-0.0882525  -0.         -0.          0.02417793  0.0007498   0.         -0.         -0.         -0.          0.00851572  0.         -0.          0.00020246
  -0.00705227  0.          0.         -0.         -0.          0.00171425  0.00350719 -0.         -0.          0.00153014 -0.         -0.         -0.00134083
   0.00064144  0.00005996]
 [-0.         -0.         -0.          0.          0.          0.         -0.         -0.         -0.          0.          0.         -0.          0.
  -0.          0.          0.         -0.         -0.          0.          0.         -0.         -0.          0.         -0.         -0.         -0.
   0.          0.        ]
 [ 0.          0.          0.         -0.         -0.         -0.          0.          0.          0.         -0.         -0.          0.         -0.
   0.         -0.         -0.          0.          0.         -0.         -0.          0.          0.         -0.          0.          0.          0.
  -0.         -0.        ]
 [-0.00209823 -0.         -0.          0.00057484  0.00001783  0.         -0.         -0.         -0.          0.00020246  0.         -0.          0.00000481
  -0.00016767  0.          0.         -0.         -0.          0.00004076  0.00008338 -0.         -0.          0.00003638 -0.         -0.         -0.00003188
   0.00001525  0.00000143]
 [ 0.07308602  0.          0.         -0.02002287 -0.00062095 -0.          0.          0.          0.         -0.00705227 -0.          0.         -0.00016767
   0.00584031 -0.         -0.          0.          0.         -0.00141965 -0.00290447  0.          0.         -0.00126718  0.          0.          0.00111041
  -0.00053121 -0.00004966]
 [-0.         -0.         -0.          0.          0.          0.         -0.         -0.         -0.          0.          0.         -0.          0.
  -0.          0.          0.         -0.         -0.          0.          0.         -0.         -0.          0.         -0.         -0.         -0.
   0.          0.        ]
 [-0.         -0.         -0.          0.          0.          0.         -0.         -0.         -0.          0.          0.         -0.          0.
  -0.          0.          0.         -0.         -0.          0.          0.         -0.         -0.          0.         -0.         -0.         -0.
   0.          0.        ]
 [ 0.          0.          0.         -0.         -0.         -0.          0.          0.          0.         -0.         -0.          0.         -0.
   0.         -0.         -0.          0.          0.         -0.         -0.          0.          0.         -0.          0.          0.          0.
  -0.         -0.        ]
 [ 0.          0.          0.         -0.         -0.         -0.          0.          0.          0.         -0.         -0.          0.         -0.
   0.         -0.         -0.          0.          0.         -0.         -0.          0.          0.         -0.          0.          0.          0.
  -0.         -0.        ]
 [-0.01776562 -0.         -0.          0.00486712  0.00015094  0.         -0.         -0.         -0.          0.00171425  0.         -0.          0.00004076
  -0.00141965  0.          0.         -0.         -0.          0.00034509  0.00070601 -0.         -0.          0.00030802 -0.         -0.         -0.00026992
   0.00012912  0.00001207]
 [-0.0363467  -0.         -0.          0.00995765  0.00030881  0.         -0.         -0.         -0.          0.00350719  0.         -0.          0.00008338
  -0.00290447  0.          0.         -0.         -0.          0.00070601  0.00144443 -0.         -0.          0.00063019 -0.         -0.         -0.00055222
   0.00026418  0.00002469]
 [ 0.          0.          0.         -0.         -0.         -0.          0.          0.          0.         -0.         -0.          0.         -0.
   0.         -0.         -0.          0.          0.         -0.         -0.          0.          0.         -0.          0.          0.          0.
  -0.         -0.        ]
 [ 0.          0.          0.         -0.         -0.         -0.          0.          0.          0.         -0.         -0.          0.         -0.
   0.         -0.         -0.          0.          0.         -0.         -0.          0.          0.         -0.          0.          0.          0.
  -0.         -0.        ]
 [-0.01585757 -0.         -0.          0.00434439  0.00013473  0.         -0.         -0.         -0.          0.00153014  0.         -0.          0.00003638
  -0.00126718  0.          0.         -0.         -0.          0.00030802  0.00063019 -0.         -0.          0.00027494 -0.         -0.         -0.00024093
   0.00011526  0.00001077]
 [ 0.          0.          0.         -0.         -0.         -0.          0.          0.          0.         -0.         -0.          0.         -0.
   0.         -0.         -0.          0.          0.         -0.         -0.          0.          0.         -0.          0.          0.          0.
  -0.         -0.        ]
 [ 0.          0.          0.         -0.         -0.         -0.          0.          0.          0.         -0.         -0.          0.         -0.
   0.         -0.         -0.          0.          0.         -0.         -0.          0.          0.         -0.          0.          0.          0.
  -0.         -0.        ]
 [ 0.0138957   0.          0.         -0.00380691 -0.00011806 -0.          0.          0.          0.         -0.00134083 -0.          0.         -0.00003188
   0.00111041 -0.         -0.          0.          0.         -0.00026992 -0.00055222  0.          0.         -0.00024093  0.          0.          0.00021112
  -0.000101   -0.00000944]
 [-0.00664755 -0.         -0.          0.00182118  0.00005648  0.         -0.         -0.         -0.          0.00064144  0.         -0.          0.00001525
  -0.00053121  0.          0.         -0.         -0.          0.00012912  0.00026418 -0.         -0.          0.00011526 -0.         -0.         -0.000101
   0.00004832  0.00000452]
 [-0.00062139 -0.         -0.          0.00017024  0.00000528  0.         -0.         -0.         -0.          0.00005996  0.         -0.          0.00000143
  -0.00004966  0.          0.         -0.         -0.          0.00001207  0.00002469 -0.         -0.          0.00001077 -0.         -0.         -0.00000944
   0.00000452  0.00000042]] 
 [[ 0.9146026  -0.         -0.          0.25056735 -0.00777056  0.         -0.          0.          0.         -0.0882525  -0.         -0.          0.00209823
   0.07308602  0.          0.          0.          0.          0.01776562 -0.0363467   0.          0.         -0.01585757 -0.          0.         -0.0138957
   0.00664755  0.00062139]
 [-0.          0.          0.         -0.          0.         -0.          0.         -0.         -0.          0.          0.          0.         -0.
  -0.         -0.         -0.         -0.         -0.         -0.          0.         -0.         -0.          0.          0.         -0.          0.
  -0.         -0.        ]
 [-0.          0.          0.         -0.          0.         -0.          0.         -0.         -0.          0.          0.          0.         -0.
  -0.         -0.         -0.         -0.         -0.         -0.          0.         -0.         -0.          0.          0.         -0.          0.
  -0.         -0.        ]
 [ 0.25056735 -0.         -0.          0.0686462  -0.00212885  0.         -0.          0.          0.         -0.02417793 -0.         -0.          0.00057484
   0.02002287  0.          0.          0.          0.          0.00486712 -0.00995765  0.          0.         -0.00434439 -0.          0.         -0.00380691
   0.00182118  0.00017024]
 [-0.00777056  0.          0.         -0.00212885  0.00006602 -0.          0.         -0.         -0.          0.0007498   0.          0.         -0.00001783
  -0.00062095 -0.         -0.         -0.         -0.         -0.00015094  0.00030881 -0.         -0.          0.00013473  0.         -0.          0.00011806
  -0.00005648 -0.00000528]
 [ 0.         -0.         -0.          0.         -0.          0.         -0.          0.          0.         -0.         -0.         -0.          0.
   0.          0.          0.          0.          0.          0.         -0.          0.          0.         -0.         -0.          0.         -0.
   0.          0.        ]
 [-0.          0.          0.         -0.          0.         -0.          0.         -0.         -0.          0.          0.          0.         -0.
  -0.         -0.         -0.         -0.         -0.         -0.          0.         -0.         -0.          0.          0.         -0.          0.
  -0.         -0.        ]
 [ 0.         -0.         -0.          0.         -0.          0.         -0.          0.          0.         -0.         -0.         -0.          0.
   0.          0.          0.          0.          0.          0.         -0.          0.          0.         -0.         -0.          0.         -0.
   0.          0.        ]
 [ 0.         -0.         -0.          0.         -0.          0.         -0.          0.          0.         -0.         -0.         -0.          0.
   0.          0.          0.          0.          0.          0.         -0.          0.          0.         -0.         -0.          0.         -0.
   0.          0.        ]
 [-0.0882525   0.          0.         -0.02417793  0.0007498  -0.          0.         -0.         -0.          0.00851572  0.          0.         -0.00020246
  -0.00705227 -0.         -0.         -0.         -0.         -0.00171425  0.00350719 -0.         -0.          0.00153014  0.         -0.          0.00134083
  -0.00064144 -0.00005996]
 [-0.          0.          0.         -0.          0.         -0.          0.         -0.         -0.          0.          0.          0.         -0.
  -0.         -0.         -0.         -0.         -0.         -0.          0.         -0.         -0.          0.          0.         -0.          0.
  -0.         -0.        ]
 [-0.          0.          0.         -0.          0.         -0.          0.         -0.         -0.          0.          0.          0.         -0.
  -0.         -0.         -0.         -0.         -0.         -0.          0.         -0.         -0.          0.          0.         -0.          0.
  -0.         -0.        ]
 [ 0.00209823 -0.         -0.          0.00057484 -0.00001783  0.         -0.          0.          0.         -0.00020246 -0.         -0.          0.00000481
   0.00016767  0.          0.          0.          0.          0.00004076 -0.00008338  0.          0.         -0.00003638 -0.          0.         -0.00003188
   0.00001525  0.00000143]
 [ 0.07308602 -0.         -0.          0.02002287 -0.00062095  0.         -0.          0.          0.         -0.00705227 -0.         -0.          0.00016767
   0.00584031  0.          0.          0.          0.          0.00141965 -0.00290447  0.          0.         -0.00126718 -0.          0.         -0.00111041
   0.00053121  0.00004966]
 [ 0.         -0.         -0.          0.         -0.          0.         -0.          0.          0.         -0.         -0.         -0.          0.
   0.          0.          0.          0.          0.          0.         -0.          0.          0.         -0.         -0.          0.         -0.
   0.          0.        ]
 [ 0.         -0.         -0.          0.         -0.          0.         -0.          0.          0.         -0.         -0.         -0.          0.
   0.          0.          0.          0.          0.          0.         -0.          0.          0.         -0.         -0.          0.         -0.
   0.          0.        ]
 [ 0.         -0.         -0.          0.         -0.          0.         -0.          0.          0.         -0.         -0.         -0.          0.
   0.          0.          0.          0.          0.          0.         -0.          0.          0.         -0.         -0.          0.         -0.
   0.          0.        ]
 [ 0.         -0.         -0.          0.         -0.          0.         -0.          0.          0.         -0.         -0.         -0.          0.
   0.          0.          0.          0.          0.          0.         -0.          0.          0.         -0.         -0.          0.         -0.
   0.          0.        ]
 [ 0.01776562 -0.         -0.          0.00486712 -0.00015094  0.         -0.          0.          0.         -0.00171425 -0.         -0.          0.00004076
   0.00141965  0.          0.          0.          0.          0.00034509 -0.00070601  0.          0.         -0.00030802 -0.          0.         -0.00026992
   0.00012912  0.00001207]
 [-0.0363467   0.          0.         -0.00995765  0.00030881 -0.          0.         -0.         -0.          0.00350719  0.          0.         -0.00008338
  -0.00290447 -0.         -0.         -0.         -0.         -0.00070601  0.00144443 -0.         -0.          0.00063019  0.         -0.          0.00055222
  -0.00026418 -0.00002469]
 [ 0.         -0.         -0.          0.         -0.          0.         -0.          0.          0.         -0.         -0.         -0.          0.
   0.          0.          0.          0.          0.          0.         -0.          0.          0.         -0.         -0.          0.         -0.
   0.          0.        ]
 [ 0.         -0.         -0.          0.         -0.          0.         -0.          0.          0.         -0.         -0.         -0.          0.
   0.          0.          0.          0.          0.          0.         -0.          0.          0.         -0.         -0.          0.         -0.
   0.          0.        ]
 [-0.01585757  0.          0.         -0.00434439  0.00013473 -0.          0.         -0.         -0.          0.00153014  0.          0.         -0.00003638
  -0.00126718 -0.         -0.         -0.         -0.         -0.00030802  0.00063019 -0.         -0.          0.00027494  0.         -0.          0.00024093
  -0.00011526 -0.00001077]
 [-0.          0.          0.         -0.          0.         -0.          0.         -0.         -0.          0.          0.          0.         -0.
  -0.         -0.         -0.         -0.         -0.         -0.          0.         -0.         -0.          0.          0.         -0.          0.
  -0.         -0.        ]
 [ 0.         -0.         -0.          0.         -0.          0.         -0.          0.          0.         -0.         -0.         -0.          0.
   0.          0.          0.          0.          0.          0.         -0.          0.          0.         -0.         -0.          0.         -0.
   0.          0.        ]
 [-0.0138957   0.          0.         -0.00380691  0.00011806 -0.          0.         -0.         -0.          0.00134083  0.          0.         -0.00003188
  -0.00111041 -0.         -0.         -0.         -0.         -0.00026992  0.00055222 -0.         -0.          0.00024093  0.         -0.          0.00021112
  -0.000101   -0.00000944]
 [ 0.00664755 -0.         -0.          0.00182118 -0.00005648  0.         -0.          0.          0.         -0.00064144 -0.         -0.          0.00001525
   0.00053121  0.          0.          0.          0.          0.00012912 -0.00026418  0.          0.         -0.00011526 -0.          0.         -0.000101
   0.00004832  0.00000452]
 [ 0.00062139 -0.         -0.          0.00017024 -0.00000528  0.         -0.          0.          0.         -0.00005996 -0.         -0.          0.00000143
   0.00004966  0.          0.          0.          0.          0.00001207 -0.00002469  0.          0.         -0.00001077 -0.          0.         -0.00000944
   0.00000452  0.00000042]]

***************
SCF converged at cycle 47
Final E(SUHF) =     -1.07617196, delta E = -5.22472e-09
***** Start DFT Correlation for SUHF+DFT **********
tot grids = 20048
E(SUHF) =     -1.07617196
E_c(TPSS) =     -0.04026536
E(SUHF+DFT) =     -1.11643733
