

#INFO: **** input file is /share/home/srwang/ExSCF/test/pytest/scan_h2/scan_dft.py ****
#import phf
from pyscf import gto, scf
#import scipy
#import numpy as np
import sys, os, contextlib

from pyphf import util, sudft

#xyz = 'h2.xyz' #sys.argv[1]
fch = '../../test_carlos/test_uhf.fchk' #sys.argv[2]
bas = '../h2.bas'

for r in [0.6, 0.8, 1.0, 1.2, 1.4, 1.6, 1.8, 2.0]:
    output = 'sudft_%.1f.out' % r
    os.system("echo '\n' > %s" % output)
    with open(output, 'a', encoding='utf-8') as f:
        with contextlib.redirect_stdout(f):
            xyz = '''H 0.0 0.0 0.0; H 0.0 0.0 %f'''%r
            mf = util.guess_from_fchk(xyz, bas, fch)
            #f.flush()
            mf2 = util.SUHF(mf)
            mf2.cut_no = False
            mf2.debug = False
            mf2.max_cycle = 50
            #mf2.output = 'sudft_%.1f.out'%r
            #mf2.kernel()
            
            mf3 = sudft.SUDFT(mf2)
            mf3.kernel()
                    #INFO: ******************** input file end ********************


System: uname_result(system='Linux', node='xcluster', release='3.10.0-693.el7.x86_64', version='#1 SMP Thu Jul 6 19:56:57 EDT 2017', machine='x86_64', processor='x86_64')  Threads 16
Python 3.7.4 (default, Aug 13 2019, 20:35:49) 
[GCC 7.3.0]
numpy 1.17.2  scipy 1.4.1
Date: Thu Nov 19 17:46:21 2020
PySCF version 1.7.3
PySCF path  /share/apps/Python/Anaconda3-2019/lib/python3.7/site-packages/pyscf

[CONFIG] conf_file None
[INPUT] verbose = 4
[INPUT] num. atoms = 2
[INPUT] num. electrons = 2
[INPUT] charge = 0
[INPUT] spin (= nelec alpha-beta = 2S) = 0
[INPUT] symmetry False subgroup None
[INPUT] Mole.unit = angstrom
[INPUT]  1 H      0.000000000000   0.000000000000   0.000000000000 AA    0.000000000000   0.000000000000   0.000000000000 Bohr
[INPUT]  2 H      0.000000000000   0.000000000000   1.000000000000 AA    0.000000000000   0.000000000000   1.889726124565 Bohr

nuclear repulsion = 0.52917721092
number of shells = 4
number of NR pGTOs = 6
number of NR cGTOs = 4
basis = ../h2.bas
ecp = {}
CPU time:        65.56


******** <class 'pyscf.scf.uhf.UHF'> ********
method = UHF
initial guess = minao
damping factor = 0
level_shift factor = 0
DIIS = <class 'pyscf.scf.diis.CDIIS'>
diis_start_cycle = 1
diis_space = 8
SCF conv_tol = 1e-09
SCF conv_tol_grad = None
SCF max_cycles = 1
direct_scf = True
direct_scf_tol = 1e-13
chkfile to save SCF result = /share/home/srwang/ExSCF/test/pytest/scan_h2/tmp2kdw96el
max_memory 4000 MB (current use 118 MB)
number electrons alpha = 1  beta = 1
Set gradient conv threshold to 3.16228e-05
init E= -0.742066123858198
  alpha nocc = 1  HOMO = -0.450463253324903  LUMO = 0.118054631631034
  beta  nocc = 1  HOMO = -0.440444564642408  LUMO = 0.11978106826466
cycle= 1 E= -1.09124231936691  delta_E= -0.349  |g|= 0.0139  |ddm|= 0.443
SCF not converged.
SCF energy = -1.09124231936691 after 1 cycles  <S^2> = 1.9733593e-06  2S+1 = 1.0000039


******** <class 'pyscf.scf.uhf.UHF'> ********
method = UHF
initial guess = minao
damping factor = 0
level_shift factor = 0
DIIS = <class 'pyscf.scf.diis.CDIIS'>
diis_start_cycle = 1
diis_space = 8
SCF conv_tol = 1e-09
SCF conv_tol_grad = None
SCF max_cycles = 0
direct_scf = True
direct_scf_tol = 1e-13
chkfile to save SCF result = /share/home/srwang/ExSCF/test/pytest/scan_h2/tmp2kdw96el
max_memory 4000 MB (current use 121 MB)
number electrons alpha = 1  beta = 1
Set gradient conv threshold to 3.16228e-05
init E= -1.08665763809284
  alpha nocc = 1  HOMO = -0.535042577005491  LUMO = 0.243152735698151
  beta  nocc = 1  HOMO = -0.535042577005491  LUMO = 0.243152735698151
SCF not converged.
SCF energy = -1.08665763809284 after 0 cycles  <S^2> = 0.49447262  2S+1 = 1.7256565

******** <class 'pyphf.util.SUHF'> ********
SVD: S^(-1/2)
[[-0.27357158  0.68076201 -0.87678099  0.68045516]
 [-0.35203871  0.28875885  0.68135223 -1.60420371]
 [-0.27357158 -0.68076201 -0.87678099 -0.68045516]
 [-0.35203871 -0.28875885  0.68135223  1.60420371]]
C (ortho)
[[-0.93632606 -0.67483533 -0.0421894  -0.13089394]
 [ 0.39008952 -0.45287052  0.36496481 -0.57325495]
 [ 0.07071697  0.16049297 -0.79488249 -0.58473235]
 [-0.13613621  0.26513793  0.43335726 -0.53279498]]
[[-0.93632606 -0.67483533 -0.0421894  -0.13089394]
 [-0.39008952  0.45287052 -0.36496481  0.57325495]
 [ 0.07071697  0.16049297 -0.79488249 -0.58473235]
 [ 0.13613621 -0.26513793 -0.43335726  0.53279498]]
grids:  [0.06237655 0.31939555 0.74529195 1.28265786 1.85893479 2.39630071 2.8221971  3.07921611] 
weights:  [0.15900941 0.34931531 0.49276925 0.56970235 0.56970235 0.49276925 0.34931531 0.15900941]
S = 0.0, Sz = 0.0
Wigner small d:  1
value : [1. 1. 1. 1. 1. 1. 1. 1.]
**** Start Cycle 1 ****
dm (ortho)
[[[ 0.8767065  -0.36525098 -0.06621414  0.12746788]
  [-0.36525098  0.15216983  0.02758595 -0.05310531]
  [-0.06621414  0.02758595  0.00500089 -0.00962714]
  [ 0.12746788 -0.05310531 -0.00962714  0.01853307]]

 [[ 0.8767065   0.36525098 -0.06621414 -0.12746788]
  [ 0.36525098  0.15216983 -0.02758595 -0.05310531]
  [-0.06621414 -0.02758595  0.00500089  0.00962714]
  [-0.12746788 -0.05310531  0.00962714  0.01853307]]]
Fock (ortho)
 (array([[-0.44100898,  0.28009352,  0.06381722, -0.01492166],
       [ 0.28009352,  0.54044706,  0.07495262,  0.537605  ],
       [ 0.06381722,  0.07495262,  1.10049295,  0.03481905],
       [-0.01492166,  0.537605  ,  0.03481905,  0.93975535]]), array([[-0.44100898, -0.28009352,  0.06381722,  0.01492166],
       [-0.28009352,  0.54044706, -0.07495262,  0.537605  ],
       [ 0.06381722, -0.07495262,  1.10049295, -0.03481905],
       [ 0.01492166,  0.537605  , -0.03481905,  0.93975535]]))
E(UHF) =    -1.615835
NO eigenvalue
[-1.05241029 -0.         -0.          0.        ] [-1.05241029 -0.          0.          0.        ]
NO vec
[[ 0.9127137   0.         -0.05133459 -0.082411   -0.39689657  0.          0.          0.        ]
 [-0.3802522   0.          0.22956999 -0.04486656 -0.89481444  0.          0.          0.        ]
 [-0.06893362  0.         -0.08159194 -0.99257842  0.05812902  0.          0.          0.        ]
 [ 0.13270311  0.          0.96850665 -0.07735302  0.19596239  0.          0.          0.        ]
 [ 0.          0.9127137   0.          0.          0.         -0.38668704 -0.01026535 -0.13161099]
 [ 0.          0.3802522   0.          0.          0.          0.69374736 -0.08668388  0.60548226]
 [ 0.         -0.06893362  0.          0.          0.         -0.17018519 -0.97807476  0.09825949]
 [ 0.         -0.13270311  0.          0.          0.         -0.58328786  0.1890775   0.77872643]]
dm(NO)
[[ 1.05241029  0.          0.          0.         -0.          0.          0.          0.        ]
 [ 0.          1.05241029  0.          0.          0.          0.         -0.          0.        ]
 [ 0.          0.          0.          0.         -0.          0.          0.          0.        ]
 [ 0.          0.         -0.          0.         -0.          0.          0.          0.        ]
 [-0.          0.          0.          0.          0.          0.          0.          0.        ]
 [ 0.          0.          0.          0.          0.          0.          0.         -0.        ]
 [ 0.         -0.          0.          0.          0.         -0.         -0.         -0.        ]
 [ 0.          0.          0.          0.          0.         -0.         -0.         -0.        ]]
D(g) (NO)
[[ 0.99951369  0.02106727  0.         -0.         -0.         -0.02127962  0.00362055 -0.00791408]
 [-0.02106727  0.99951369  0.00257133  0.00042382  0.02284233  0.         -0.          0.        ]
 [-0.         -0.00257133  0.99951369 -0.          0.         -0.01159761  0.00759476  0.0278136 ]
 [-0.         -0.00042382 -0.          0.99951369  0.          0.00669761  0.02996475 -0.00542859]
 [-0.         -0.02284233  0.          0.          0.99951369 -0.01844474  0.0019283  -0.0103293 ]
 [ 0.02127962  0.          0.01159761 -0.00669761  0.01844474  0.99951369  0.          0.        ]
 [-0.00362055 -0.         -0.00759476 -0.02996475 -0.0019283   0.          0.99951369 -0.        ]
 [ 0.00791408  0.         -0.0278136   0.00542859  0.0103293   0.         -0.          0.99951369]]
...
N(g) (NO)
[[ 0.90291774 -0.01903126]
 [ 0.01903126  0.90291774]]
...
P(g) (NO)
[[ 1.         -0.          0.          0.         -0.         -0.          0.         -0.        ]
 [ 0.          1.          0.          0.         -0.          0.         -0.          0.        ]
 [-0.0000542  -0.00257144 -0.         -0.          0.         -0.          0.         -0.        ]
 [-0.00000893 -0.00042384 -0.         -0.          0.         -0.          0.         -0.        ]
 [-0.00048148 -0.02284329 -0.         -0.          0.         -0.          0.         -0.        ]
 [ 0.02128052 -0.00044854  0.          0.         -0.         -0.          0.         -0.        ]
 [-0.00362071  0.00007632 -0.         -0.          0.          0.         -0.          0.        ]
 [ 0.00791442 -0.00016682  0.          0.         -0.         -0.          0.         -0.        ]]
...
Pg_ortho
[[ 0.83322393 -0.3471354  -0.06293008  0.12114578  0.00842741  0.003511   -0.00063649 -0.0012253 ]
 [-0.34667916  0.14443249  0.02618329 -0.05040508  0.01813489  0.00755531 -0.00136966 -0.0026367 ]
 [-0.06293008  0.02621775  0.00475286 -0.00914966 -0.00063649 -0.00026517  0.00004807  0.00009254]
 [ 0.12098655 -0.05040508 -0.00913763  0.01759072 -0.00632884 -0.0026367   0.00047799  0.00092018]
 [-0.00842741  0.003511    0.00063649 -0.0012253   0.83322393  0.3471354  -0.06293008 -0.12114578]
 [ 0.01813489 -0.00755531 -0.00136966  0.0026367   0.34667916  0.14443249 -0.02618329 -0.05040508]
 [ 0.00063649 -0.00026517 -0.00004807  0.00009254 -0.06293008 -0.02621775  0.00475286  0.00914966]
 [-0.00632884  0.0026367   0.00047799 -0.00092018 -0.12098655 -0.05040508  0.00913763  0.01759072]]
G(g) (NO)
[[ 0.46221007 -0.00182725 -0.03571208 -0.0900141  -0.07426957 -0.00102194  0.00056906 -0.0012503 ]
 [ 0.00182725  0.46221007 -0.00062215 -0.00036725  0.00155225 -0.09776355 -0.07303683 -0.00133051]
 [-0.03572742 -0.00142065  0.85191049 -0.0421467  -0.18915685  0.0006161   0.00140666 -0.00110131]
 [-0.0899979   0.00289438 -0.04215867  0.9748668   0.14696864  0.00015655 -0.00162942  0.00224822]
 [-0.07408267  0.014386   -0.18917477  0.14694693  1.03648609  0.0003059  -0.00323523  0.00296147]
 [-0.01255684 -0.09760304  0.00181078  0.00237639 -0.00205799  0.89395771  0.12781453  0.20344668]
 [-0.000553   -0.07305094  0.00149369  0.00114416 -0.00104882  0.12782861  0.92902923  0.06654627]
 [-0.00770536 -0.00123321  0.00202469  0.00273406 -0.00112234  0.20342527  0.06652956  1.04027645]]
...
C(NO)
[[-1.0258705   0.         -0.41960517 -0.06498353  0.06811693  0.          0.          0.        ]
 [ 0.         -1.0258705   0.          0.          0.         -0.41960517 -0.06498353  0.06811693]
 [ 0.          0.          0.17436983  0.57051613 -0.59318878  0.          0.          0.        ]
 [-0.          0.         -0.10387848  0.74256387  0.6581131   0.          0.          0.        ]
 [ 0.          0.          0.73436126 -0.27111497  0.42651047  0.          0.          0.        ]
 [ 0.          0.          0.          0.          0.          0.70246601  0.15116998  0.23704905]
 [ 0.          0.          0.          0.          0.         -0.23943489  0.72758604  0.62430321]
 [ 0.          0.          0.          0.          0.          0.17232086 -0.63099863  0.72176881]]
detC 1.0524102894709715
detNg [0.81562264 0.82655284 0.87848922 1.0120974  1.25224771 1.5425116  1.73380168 1.78394929]
xg [1.106982   1.09234345 1.02776398 0.89208763 0.72100717 0.58533082 0.52075136 0.5061128 ]
ciS 1.613094801592076
[[-1.01087999  0.          0.00139431  0.18057163  0.15750484  0.          0.          0.        ]
 [ 0.         -1.01087999  0.          0.          0.          0.17273593  0.15091166  0.06930947]
 [ 0.00139431  0.          0.24575957 -0.02713247 -0.18653605  0.          0.          0.        ]
 [ 0.18057163  0.         -0.02713247  0.09004404 -0.08297619  0.          0.          0.        ]
 [ 0.15750484  0.         -0.18653605 -0.08297619 -0.68499414  0.          0.          0.        ]
 [ 0.          0.17273593  0.          0.          0.         -0.65398107  0.05531075 -0.25820248]
 [ 0.          0.15091166  0.          0.          0.          0.05531075  0.09592911  0.03594555]
 [ 0.          0.06930947  0.          0.          0.         -0.25820248  0.03594555  0.20886144]]
ciH -2.6429680025448423
S2 = 0.000000
X(g)
[[ 1.90039951 -0.         -0.0000515  -0.00000849 -0.0004575  -0.02022074  0.00344039 -0.00752028]
 [ 0.          1.90039951  0.00244338  0.00040273  0.02170569 -0.0004262   0.00007251 -0.00015851]
 [-0.0000515  -0.00244338  0.          0.          0.          0.          0.          0.        ]
 [-0.00000849 -0.00040273  0.          0.          0.          0.          0.          0.        ]
 [-0.0004575  -0.02170569  0.          0.          0.          0.          0.          0.        ]
 [ 0.02022074 -0.0004262   0.          0.          0.          0.          0.          0.        ]
 [-0.00344039  0.00007251  0.          0.          0.          0.          0.          0.        ]
 [ 0.00752028 -0.00015851  0.          0.          0.          0.          0.          0.        ]]
X(g) int
[[ 1.90039951 -0.         -0.03634536 -0.00599062 -0.32287314 -0.34966971  0.05949344 -0.13004536]
 [ 0.          1.90039951  0.04225242  0.00696425  0.37534837 -0.30078446  0.05117601 -0.11186449]
 [-0.03634536 -0.04225242  0.          0.          0.          0.          0.          0.        ]
 [-0.00599062 -0.00696425  0.          0.          0.          0.          0.          0.        ]
 [-0.32287314 -0.37534837  0.          0.          0.          0.          0.          0.        ]
 [ 0.34966971 -0.30078446  0.          0.          0.          0.          0.          0.        ]
 [-0.05949344  0.05117601  0.          0.          0.          0.          0.          0.        ]
 [ 0.13004536 -0.11186449  0.          0.          0.          0.          0.          0.        ]]
Hsp + Hph =  -1.6384455519516352
Feff (mod,ortho)
[[-0.43904168  0.36221769  0.06078798  0.01444615  0.          0.          0.          0.        ]
 [ 0.36221769  0.47167691  0.06995024  0.5374294   0.          0.          0.          0.        ]
 [ 0.06078798  0.06995024  1.1009393   0.03218219  0.          0.          0.          0.        ]
 [ 0.01444615  0.5374294   0.03218219  0.94825357  0.          0.          0.          0.        ]
 [ 0.          0.          0.          0.         -0.43904168 -0.36221769  0.06078798 -0.01444615]
 [ 0.          0.          0.          0.         -0.36221769  0.47167691 -0.06995024  0.5374294 ]
 [ 0.          0.          0.          0.          0.06078798 -0.06995024  1.1009393  -0.03218219]
 [ 0.          0.          0.          0.         -0.01444615  0.5374294  -0.03218219  0.94825357]]
E(SUHF) =     -1.10926834
e_a, e_b
[-0.5865769   0.23929882  1.08301734  1.34608884] [-0.5865769   0.23929882  1.08301734  1.34608884]
P_a, P_b
[[ 0.84330812 -0.34494361 -0.01823868  0.11322895]
 [-0.34494361  0.14109445  0.00746028 -0.04631475]
 [-0.01823868  0.00746028  0.00039446 -0.00244886]
 [ 0.11322895 -0.04631475 -0.00244886  0.01520298]] 
 [[ 0.84330812  0.34494361 -0.01823868 -0.11322895]
 [ 0.34494361  0.14109445 -0.00746028 -0.04631475]
 [-0.01823868 -0.00746028  0.00039446  0.00244886]
 [-0.11322895 -0.04631475  0.00244886  0.01520298]]
**** Start Cycle 2 ****
dm (ortho)
[array([[ 0.84330812, -0.34494361, -0.01823868,  0.11322895],
       [-0.34494361,  0.14109445,  0.00746028, -0.04631475],
       [-0.01823868,  0.00746028,  0.00039446, -0.00244886],
       [ 0.11322895, -0.04631475, -0.00244886,  0.01520298]]), array([[ 0.84330812,  0.34494361, -0.01823868, -0.11322895],
       [ 0.34494361,  0.14109445, -0.00746028, -0.04631475],
       [-0.01823868, -0.00746028,  0.00039446,  0.00244886],
       [-0.11322895, -0.04631475,  0.00244886,  0.01520298]])]
Fock (ortho)
 (array([[-0.46425772,  0.27063993,  0.04505328, -0.00770529],
       [ 0.27063993,  0.51233292,  0.08421857,  0.53354062],
       [ 0.04505328,  0.08421857,  1.06543156,  0.03341646],
       [-0.00770529,  0.53354062,  0.03341646,  0.91106618]]), array([[-0.46425772, -0.27063993,  0.04505328,  0.00770529],
       [-0.27063993,  0.51233292, -0.08421857,  0.53354062],
       [ 0.04505328, -0.08421857,  1.06543156, -0.03341646],
       [ 0.00770529,  0.53354062, -0.03341646,  0.91106618]]))
E(UHF) =    -1.570822
NO eigenvalue
[-1. -0.  0.  0.] [-1. -0.  0.  0.]
NO vec
[[ 0.91831809  0.          0.00123017  0.0461181   0.39314564  0.          0.          0.        ]
 [-0.37562541  0.         -0.03641183 -0.20939702  0.90207129  0.          0.          0.        ]
 [-0.01986096  0.          0.99850497  0.03214657  0.03949633  0.          0.          0.        ]
 [ 0.12330036  0.          0.04074906 -0.9762134  -0.17362007  0.          0.          0.        ]
 [ 0.          0.91831809  0.          0.          0.          0.0294873  -0.00175467  0.39473954]
 [ 0.          0.37562541  0.          0.          0.         -0.37946058  0.01084882 -0.84545699]
 [ 0.         -0.01986096  0.          0.          0.         -0.16914229 -0.9838851   0.05446588]
 [ 0.         -0.12330036  0.          0.          0.         -0.90913753  0.1784638   0.35555118]]
dm(NO)
[[ 1.  0.  0.  0. -0.  0.  0.  0.]
 [ 0.  1.  0.  0.  0.  0.  0.  0.]
 [-0.  0.  0.  0. -0.  0.  0.  0.]
 [ 0.  0. -0.  0.  0.  0.  0.  0.]
 [-0.  0.  0. -0. -0.  0.  0.  0.]
 [ 0.  0.  0.  0.  0.  0.  0.  0.]
 [ 0.  0.  0.  0.  0. -0.  0. -0.]
 [ 0.  0.  0.  0.  0. -0. -0. -0.]]
D(g) (NO)
[[ 0.99951369  0.0214355  -0.         -0.          0.          0.00189831  0.0011182   0.02254015]
 [-0.0214355   0.99951369  0.00116635 -0.00260147 -0.0224674   0.          0.          0.        ]
 [-0.         -0.00116635  0.99951369 -0.          0.         -0.00598976 -0.03042045  0.00312278]
 [-0.          0.00260147 -0.          0.99951369  0.          0.03002609 -0.00649234 -0.00468067]
 [ 0.          0.0224674   0.          0.          0.99951369 -0.00559875 -0.00189432 -0.02080083]
 [-0.00189831  0.          0.00598976 -0.03002609  0.00559875  0.99951369  0.         -0.        ]
 [-0.0011182   0.          0.03042045  0.00649234  0.00189432  0.          0.99951369  0.        ]
 [-0.02254015  0.         -0.00312278  0.00468067  0.02080083 -0.         -0.          0.99951369]]
...
N(g) (NO)
[[ 1.00002661 -0.0214465 ]
 [ 0.0214465   1.00002661]]
...
P(g) (NO)
[[ 1.          0.          0.          0.         -0.          0.          0.          0.        ]
 [-0.          1.         -0.         -0.         -0.          0.          0.          0.        ]
 [-0.00002501 -0.00116638 -0.         -0.          0.         -0.         -0.         -0.        ]
 [ 0.00005579  0.00260154  0.          0.         -0.          0.          0.          0.        ]
 [ 0.00048185  0.022468    0.          0.         -0.          0.          0.          0.        ]
 [-0.00189836  0.00004071 -0.         -0.          0.          0.          0.          0.        ]
 [-0.00111823  0.00002398 -0.         -0.          0.          0.          0.          0.        ]
 [-0.02254075  0.00048341 -0.         -0.          0.          0.          0.          0.        ]]
...
Pg_ortho
[[ 0.84348441 -0.34501572 -0.01824249  0.11325262  0.00822054  0.0033625  -0.00017779 -0.00110375]
 [-0.34455434  0.14093522  0.00745186 -0.04626248  0.01815097  0.00742441 -0.00039256 -0.00243709]
 [-0.01824249  0.00746184  0.00039454 -0.00244938 -0.00017779 -0.00007272  0.00000385  0.00002387]
 [ 0.11310117 -0.04626248 -0.0024461   0.01518582 -0.00595812 -0.00243709  0.00012886  0.00079998]
 [-0.00822054  0.0033625   0.00017779 -0.00110375  0.84348441  0.34501572 -0.01824249 -0.11325262]
 [ 0.01815097 -0.00742441 -0.00039256  0.00243709  0.34455434  0.14093522 -0.00745186 -0.04626248]
 [ 0.00017779 -0.00007272 -0.00000385  0.00002387 -0.01824249 -0.00746184  0.00039454  0.00244938]
 [-0.00595812  0.00243709  0.00012886 -0.00079998 -0.11310117 -0.04626248  0.0024461   0.01518582]]
G(g) (NO)
[[ 0.48410138 -0.00199317  0.09347135  0.02886415  0.09018702  0.00111976  0.00041331  0.00150837]
 [ 0.00199317  0.48410138  0.00055747  0.00074089 -0.00168528 -0.02456152 -0.08994666  0.09492134]
 [ 0.09347019 -0.00169852  0.9479731  -0.03189256  0.13088626  0.00184657  0.00108119  0.00081147]
 [ 0.0288791   0.00166151 -0.03188263  0.86129334 -0.20636708 -0.00134426 -0.00143715  0.0000969 ]
 [ 0.08999487 -0.01487077  0.13086244 -0.2063844   1.09128782  0.00313654  0.00310668  0.00151154]
 [ 0.00418212 -0.02461226  0.00204356  0.00130471 -0.00034786  0.93104185 -0.05176944  0.21464824]
 [-0.00219379 -0.08993983 -0.00161532 -0.00167041  0.00117077 -0.05178354  0.96118762 -0.15477125]
 [ 0.01429974  0.09473553  0.00315669  0.00206879 -0.0019695   0.21466865 -0.15475253  1.00832479]]
...
C(NO)
[[-1.02456285  0.         -0.42009976 -0.10661311  0.04104638  0.          0.          0.        ]
 [ 0.         -1.02456285  0.          0.          0.         -0.42009976 -0.10661311  0.04104638]
 [ 0.04970811  0.          0.18671683 -0.78937615 -0.58485681  0.          0.          0.        ]
 [ 0.01030614  0.         -0.18996428 -0.52697015  0.61532576  0.          0.          0.        ]
 [ 0.01020509  0.         -0.71352444  0.20600324 -0.4991681   0.          0.          0.        ]
 [ 0.         -0.0153139   0.          0.          0.          0.02215511  0.66567529 -0.60686831]
 [ 0.         -0.04787105  0.          0.          0.         -0.19912694  0.70084905  0.67684288]
 [ 0.          0.01245404  0.          0.          0.         -0.73479544  0.09453357 -0.3787435 ]]
detC 1.0497290328365128
detNg [1.00051318 1.01351872 1.07517558 1.23272864 1.51213343 1.84350421 2.0581881  2.11399171]
xg [0.90703234 0.89539323 0.84404614 0.73616997 0.600144   0.49226782 0.44092073 0.42928163]
ciS 1.3363139647638018
[[-1.02744047  0.         -0.10968308  0.01484906 -0.17375015  0.          0.          0.        ]
 [ 0.         -1.02744047  0.          0.          0.         -0.03134948  0.11384714 -0.16880766]
 [-0.10968308  0.          0.11156826 -0.00052917 -0.00541595  0.          0.          0.        ]
 [ 0.01484906  0.         -0.00052917  0.24002939 -0.2005795   0.          0.          0.        ]
 [-0.17375015  0.         -0.00541595 -0.2005795  -0.6842277   0.          0.          0.        ]
 [ 0.         -0.03134948  0.          0.          0.          0.27807746 -0.02386537  0.01313278]
 [ 0.          0.11384714  0.          0.          0.         -0.02386537  0.11501379 -0.00457939]
 [ 0.         -0.16880766  0.          0.          0.          0.01313278 -0.00457939 -0.72572129]]
ciH -2.203034471559782
S2 = 0.000000
X(g)
[[ 2.          0.         -0.00002501  0.00005579  0.00048185  0.00189836  0.00111823  0.02254075]
 [-0.          2.          0.00116638 -0.00260154 -0.022468    0.00004071  0.00002398  0.00048341]
 [-0.00002501 -0.00116638  0.          0.          0.          0.          0.          0.        ]
 [ 0.00005579  0.00260154  0.          0.          0.          0.          0.          0.        ]
 [ 0.00048185  0.022468    0.          0.          0.          0.          0.          0.        ]
 [-0.00189836  0.00004071  0.          0.          0.          0.          0.          0.        ]
 [-0.00111823  0.00002398  0.          0.          0.          0.          0.          0.        ]
 [-0.02254075  0.00048341  0.          0.          0.          0.          0.          0.        ]]
X(g) int
[[ 2.          0.         -0.01746056  0.03894461  0.33634255  0.03246937  0.0191261   0.38553409]
 [-0.          2.          0.01994965 -0.04449635 -0.38428985  0.02841821  0.01673977  0.33743155]
 [-0.01746056 -0.01994965  0.          0.          0.          0.          0.          0.        ]
 [ 0.03894461  0.04449635  0.          0.          0.          0.          0.          0.        ]
 [ 0.33634255  0.38428985  0.          0.          0.          0.          0.          0.        ]
 [-0.03246937  0.02841821  0.          0.          0.          0.          0.          0.        ]
 [-0.0191261   0.01673977  0.          0.          0.          0.          0.          0.        ]
 [-0.38553409  0.33743155  0.          0.          0.          0.          0.          0.        ]]
Hsp + Hph =  -1.648590473234466
Feff (mod,ortho)
[[-0.41138509  0.33563731  0.05140133  0.0310181   0.          0.          0.          0.        ]
 [ 0.33563731  0.45031418  0.07974852  0.52933217  0.          0.          0.          0.        ]
 [ 0.05140133  0.07974852  1.06513225  0.03358485  0.          0.          0.          0.        ]
 [ 0.0310181   0.52933217  0.03358485  0.9205116   0.          0.          0.          0.        ]
 [ 0.          0.          0.          0.         -0.41138509 -0.33563731  0.05140133 -0.0310181 ]
 [ 0.          0.          0.          0.         -0.33563731  0.45031418 -0.07974852  0.52933217]
 [ 0.          0.          0.          0.          0.05140133 -0.07974852  1.06513225 -0.03358485]
 [ 0.          0.          0.          0.         -0.0310181   0.52933217 -0.03358485  0.9205116 ]]
E(SUHF) =     -1.11941326
e_a, e_b
[-0.54353997  0.20748153  1.04435946  1.31627192] [-0.54353997  0.20748153  1.04435946  1.31627192]
P_a, P_b
[[ 0.84871247 -0.34207405 -0.01237318  0.10598049]
 [-0.34207405  0.13787314  0.00498702 -0.0427155 ]
 [-0.01237318  0.00498702  0.00018039 -0.00154506]
 [ 0.10598049 -0.0427155  -0.00154506  0.013234  ]] 
 [[ 0.84871247  0.34207405 -0.01237318 -0.10598049]
 [ 0.34207405  0.13787314 -0.00498702 -0.0427155 ]
 [-0.01237318 -0.00498702  0.00018039  0.00154506]
 [-0.10598049 -0.0427155   0.00154506  0.013234  ]]
**** Start Cycle 3 ****
dm (ortho)
[array([[ 0.84871247, -0.34207405, -0.01237318,  0.10598049],
       [-0.34207405,  0.13787314,  0.00498702, -0.0427155 ],
       [-0.01237318,  0.00498702,  0.00018039, -0.00154506],
       [ 0.10598049, -0.0427155 , -0.00154506,  0.013234  ]]), array([[ 0.84871247,  0.34207405, -0.01237318, -0.10598049],
       [ 0.34207405,  0.13787314, -0.00498702, -0.0427155 ],
       [-0.01237318, -0.00498702,  0.00018039,  0.00154506],
       [-0.10598049, -0.0427155 ,  0.00154506,  0.013234  ]])]
Fock (ortho)
 (array([[-0.46343415,  0.2698676 ,  0.04382494, -0.00441356],
       [ 0.2698676 ,  0.51761482,  0.08629867,  0.53377398],
       [ 0.04382494,  0.08629867,  1.06803717,  0.03352764],
       [-0.00441356,  0.53377398,  0.03352764,  0.91339813]]), array([[-0.46343415, -0.2698676 ,  0.04382494,  0.00441356],
       [-0.2698676 ,  0.51761482, -0.08629867,  0.53377398],
       [ 0.04382494, -0.08629867,  1.06803717, -0.03352764],
       [ 0.00441356,  0.53377398, -0.03352764,  0.91339813]]))
E(UHF) =    -1.571922
NO eigenvalue
[-1. -0. -0.  0.] [-1. -0.  0.  0.]
NO vec
[[ 0.92125592  0.         -0.2772099   0.01405031 -0.27247897  0.          0.          0.        ]
 [-0.37131273  0.         -0.41800406  0.03414135 -0.82839232  0.          0.          0.        ]
 [-0.01343077  0.         -0.08025714  0.992841    0.08743654  0.          0.          0.        ]
 [ 0.11503914  0.          0.86138613  0.11359445 -0.48153528  0.          0.          0.        ]
 [ 0.          0.92125592  0.          0.          0.          0.08198084  0.00327162  0.38020517]
 [ 0.          0.37131273  0.          0.          0.         -0.47523063  0.0203489  -0.79741372]
 [ 0.         -0.01343077  0.          0.          0.         -0.18977883 -0.97831431  0.08188231]
 [ 0.         -0.11503914  0.          0.          0.         -0.85523037  0.20609784  0.46137911]]
dm(NO)
[[ 1.  0. -0. -0.  0.  0.  0.  0.]
 [ 0.  1.  0.  0.  0. -0.  0.  0.]
 [-0.  0.  0.  0. -0.  0.  0.  0.]
 [-0.  0. -0.  0. -0.  0.  0.  0.]
 [ 0.  0.  0. -0. -0.  0.  0.  0.]
 [ 0. -0.  0.  0.  0.  0. -0. -0.]
 [ 0.  0.  0.  0.  0. -0. -0. -0.]
 [ 0.  0.  0.  0.  0.  0.  0. -0.]]
D(g) (NO)
[[ 0.99951369  0.0217592  -0.         -0.          0.          0.00486921  0.00100744  0.02177627]
 [-0.0217592   0.99951369  0.01585999  0.00002437  0.01572864 -0.          0.          0.        ]
 [-0.         -0.01585999  0.99951369 -0.         -0.         -0.01701138  0.00769083  0.01929553]
 [-0.         -0.00002437 -0.          0.99951369  0.         -0.00937501 -0.02953544  0.00348701]
 [ 0.         -0.01572864 -0.          0.          0.99951369  0.0239041  -0.0063156   0.0106635 ]
 [-0.00486921  0.          0.01701138  0.00937501 -0.0239041   0.99951369  0.         -0.        ]
 [-0.00100744  0.         -0.00769083  0.02953544  0.0063156   0.          0.99951369 -0.        ]
 [-0.02177627  0.         -0.01929553 -0.00348701 -0.0106635  -0.         -0.          0.99951369]]
...
N(g) (NO)
[[ 1.00001262 -0.02177007]
 [ 0.02177007  1.00001262]]
...
P(g) (NO)
[[ 1.          0.         -0.         -0.          0.         -0.          0.          0.        ]
 [ 0.          1.         -0.         -0.          0.         -0.          0.          0.        ]
 [-0.00034527 -0.01586019  0.          0.         -0.          0.         -0.         -0.        ]
 [-0.00000053 -0.00002437  0.          0.         -0.          0.         -0.         -0.        ]
 [-0.00034241 -0.01572884  0.          0.         -0.          0.         -0.         -0.        ]
 [-0.00486927  0.000106    0.          0.         -0.         -0.          0.          0.        ]
 [-0.00100745  0.00002193  0.          0.         -0.         -0.          0.          0.        ]
 [-0.02177655  0.00047407  0.          0.         -0.         -0.          0.          0.        ]]
...
Pg_ortho
[[ 0.84888659 -0.34214423 -0.01237572  0.10600223  0.00799838  0.00322375 -0.00011661 -0.00099877]
 [-0.34167979  0.13771423  0.00498127 -0.04266627  0.01811046  0.00729943 -0.00026403 -0.00226149]
 [-0.01237572  0.00498804  0.00018042 -0.00154538 -0.00011661 -0.000047    0.0000017   0.00001456]
 [ 0.10585834 -0.04266627 -0.00154328  0.01321875 -0.00561093 -0.00226149  0.0000818   0.00070065]
 [-0.00799838  0.00322375  0.00011661 -0.00099877  0.84888659  0.34214423 -0.01237572 -0.10600223]
 [ 0.01811046 -0.00729943 -0.00026403  0.00226149  0.34167979  0.13771423 -0.00498127 -0.04266627]
 [ 0.00011661 -0.000047   -0.0000017   0.00001456 -0.01237572 -0.00498804  0.00018042  0.00154538]
 [-0.00561093  0.00226149  0.0000818  -0.00070065 -0.10585834 -0.04266627  0.00154328  0.01321875]]
G(g) (NO)
[[ 0.48962542 -0.00197919 -0.08213968  0.09736864 -0.04310495  0.00133141  0.00037639  0.00141175]
 [ 0.00197919  0.48962542  0.00051775  0.00038628  0.00186818 -0.01437414 -0.09068804  0.09825822]
 [-0.0820297   0.00805834  0.75525127 -0.07137315  0.07202993 -0.0011448  -0.00086368 -0.00092293]
 [ 0.09735473 -0.0027148  -0.07137863  0.97136631 -0.14270739  0.00225264  0.00129609  0.00065528]
 [-0.0429449   0.01233877  0.07201143 -0.1426831   1.17945297 -0.00323393 -0.00310988 -0.00064268]
 [ 0.00594338 -0.01444992 -0.00084496  0.00220682  0.00159357  0.98217248 -0.07044606  0.21640149]
 [-0.00233165 -0.0906795   0.00057119 -0.00142635 -0.0021613  -0.07046247  0.96479161 -0.1539342 ]
 [ 0.01355699  0.09807909 -0.00029802  0.00259727  0.00294017  0.2164223  -0.15391805  0.95910647]]
...
C(NO)
[[-1.02405191  0.         -0.42519376 -0.11385438  0.03883117  0.          0.          0.        ]
 [ 0.         -1.02405191  0.          0.          0.         -0.42519376 -0.11385438  0.03883117]
 [-0.02644153  0.          0.59187818  0.29622147 -0.13610527  0.          0.          0.        ]
 [ 0.0549089   0.          0.16451894 -0.72809733 -0.66247961  0.          0.          0.        ]
 [ 0.00371964  0.          0.44539258 -0.5690169   0.71597845  0.          0.          0.        ]
 [ 0.         -0.02122672  0.          0.          0.         -0.07424567  0.69145589 -0.62785173]
 [ 0.         -0.05212724  0.          0.          0.         -0.20464931  0.68076626  0.6930968 ]
 [ 0.          0.0236676   0.          0.          0.         -0.72688861  0.00995852 -0.30894668]]
detC 1.048682311971574
detNg [1.00049918 1.01314535 1.07297673 1.22495723 1.49131341 1.8020673  2.00048136 2.05168681]
xg [0.90885663 0.89751219 0.84746508 0.74232005 0.6097379  0.50459287 0.45454575 0.44320132]
ciS 1.352057948060928
[[-1.03075204  0.          0.09588841 -0.11403201  0.13726249  0.          0.          0.        ]
 [ 0.         -1.03075204  0.          0.          0.         -0.05660998  0.10881095 -0.16122768]
 [ 0.09588841  0.         -0.33246379  0.03657628 -0.48816483  0.          0.          0.        ]
 [-0.11403201  0.          0.03657628  0.11274719  0.00992177  0.          0.          0.        ]
 [ 0.13726249  0.         -0.48816483  0.00992177 -0.10960188  0.          0.          0.        ]
 [ 0.         -0.05660998  0.          0.          0.          0.26465416 -0.02895461 -0.10688947]
 [ 0.          0.10881095  0.          0.          0.         -0.02895461  0.11754918 -0.00665599]
 [ 0.         -0.16122768  0.          0.          0.         -0.10688947 -0.00665599 -0.71152183]]
ciH -2.229586435835438
S2 = 0.000000
X(g)
[[ 2.         -0.         -0.00034527 -0.00000053 -0.00034241  0.00486927  0.00100745  0.02177655]
 [ 0.          2.          0.01586019  0.00002437  0.01572884  0.000106    0.00002193  0.00047407]
 [-0.00034527 -0.01586019  0.          0.          0.          0.          0.          0.        ]
 [-0.00000053 -0.00002437  0.          0.          0.          0.          0.          0.        ]
 [-0.00034241 -0.01572884  0.          0.          0.          0.          0.          0.        ]
 [-0.00486927  0.000106    0.          0.          0.          0.          0.          0.        ]
 [-0.00100745  0.00002193  0.          0.          0.          0.          0.          0.        ]
 [-0.02177655  0.00047407  0.          0.          0.          0.          0.          0.        ]]
X(g) int
[[ 2.          0.         -0.23868271 -0.00036669 -0.23670593  0.08247917  0.0170649   0.36886655]
 [ 0.          2.          0.26865119  0.00041273  0.26642622  0.07327848  0.01516128  0.32771888]
 [-0.23868271 -0.26865119  0.          0.          0.          0.          0.          0.        ]
 [-0.00036669 -0.00041273  0.          0.          0.          0.          0.          0.        ]
 [-0.23670593 -0.26642622  0.          0.          0.          0.          0.          0.        ]
 [-0.08247917  0.07327848  0.          0.          0.          0.          0.          0.        ]
 [-0.0170649   0.01516128  0.          0.          0.          0.          0.          0.        ]
 [-0.36886655  0.32771888  0.          0.          0.          0.          0.          0.        ]]
Hsp + Hph =  -1.6490317142346071
Feff (mod,ortho)
[[-0.40961039  0.33778074  0.05160456  0.03859969  0.          0.          0.          0.        ]
 [ 0.33778074  0.4541263   0.08185673  0.52762685  0.          0.          0.          0.        ]
 [ 0.05160456  0.08185673  1.0677989   0.03397     0.          0.          0.          0.        ]
 [ 0.03859969  0.52762685  0.03397     0.92330116  0.          0.          0.          0.        ]
 [ 0.          0.          0.          0.         -0.40961039 -0.33778074  0.05160456 -0.03859969]
 [ 0.          0.          0.          0.         -0.33778074  0.4541263  -0.08185673  0.52762685]
 [ 0.          0.          0.          0.          0.05160456 -0.08185673  1.0677989  -0.03397   ]
 [ 0.          0.          0.          0.         -0.03859969  0.52762685 -0.03397     0.92330116]]
E(SUHF) =     -1.11985450
e_a, e_b
[-0.54121309  0.20996256  1.04622308  1.32064342] [-0.54121309  0.20996256  1.04622308  1.32064342]
P_a, P_b
[[ 0.85105561 -0.34125502 -0.01206226  0.10079423]
 [-0.34125502  0.13683593  0.00483671 -0.04041632]
 [-0.01206226  0.00483671  0.00017096 -0.00142859]
 [ 0.10079423 -0.04041632 -0.00142859  0.0119375 ]] 
 [[ 0.85105561  0.34125502 -0.01206226 -0.10079423]
 [ 0.34125502  0.13683593 -0.00483671 -0.04041632]
 [-0.01206226 -0.00483671  0.00017096  0.00142859]
 [-0.10079423 -0.04041632  0.00142859  0.0119375 ]]
**** Start Cycle 4 ****
dm (ortho)
[array([[ 0.85105561, -0.34125502, -0.01206226,  0.10079423],
       [-0.34125502,  0.13683593,  0.00483671, -0.04041632],
       [-0.01206226,  0.00483671,  0.00017096, -0.00142859],
       [ 0.10079423, -0.04041632, -0.00142859,  0.0119375 ]]), array([[ 0.85105561,  0.34125502, -0.01206226, -0.10079423],
       [ 0.34125502,  0.13683593, -0.00483671, -0.04041632],
       [-0.01206226, -0.00483671,  0.00017096,  0.00142859],
       [-0.10079423, -0.04041632,  0.00142859,  0.0119375 ]])]
Fock (ortho)
 (array([[-0.46329157,  0.2698837 ,  0.04396884, -0.0021817 ],
       [ 0.2698837 ,  0.51907614,  0.08712629,  0.53344693],
       [ 0.04396884,  0.08712629,  1.06891283,  0.03372042],
       [-0.0021817 ,  0.53344693,  0.03372042,  0.91415841]]), array([[-0.46329157, -0.2698837 ,  0.04396884,  0.0021817 ],
       [-0.2698837 ,  0.51907614, -0.08712629,  0.53344693],
       [ 0.04396884, -0.08712629,  1.06891283, -0.03372042],
       [ 0.0021817 ,  0.53344693, -0.03372042,  0.91415841]]))
E(UHF) =    -1.571680
NO eigenvalue
[-1. -0.  0.  0.] [-1. -0.  0.  0.]
NO vec
[[ 0.92252675  0.         -0.0046356  -0.0886823  -0.37557736  0.          0.          0.        ]
 [-0.36991341  0.         -0.01195142  0.07430795 -0.92601272  0.          0.          0.        ]
 [-0.01307524  0.          0.99298892 -0.116257   -0.01692173  0.          0.          0.        ]
 [ 0.10925887  0.          0.1175103   0.98645734  0.03399617  0.          0.          0.        ]
 [ 0.         -0.92252675  0.          0.          0.         -0.         -0.38593314  0.        ]
 [ 0.         -0.36991341  0.          0.          0.         -0.09105474  0.8842335   0.27019293]
 [ 0.          0.01307524  0.          0.          0.         -0.97729399 -0.03125478 -0.20916174]
 [ 0.          0.10925887  0.          0.          0.         -0.19132561 -0.26117018  0.9398123 ]]
dm(NO)
[[ 1.  0.  0.  0. -0.  0.  0.  0.]
 [ 0.  1.  0.  0.  0.  0.  0. -0.]
 [ 0.  0.  0.  0.  0.  0.  0.  0.]
 [ 0.  0.  0.  0.  0.  0.  0.  0.]
 [ 0.  0.  0. -0. -0.  0.  0.  0.]
 [ 0.  0.  0.  0.  0.  0. -0.  0.]
 [ 0. -0.  0.  0.  0. -0. -0.  0.]
 [ 0. -0.  0.  0.  0. -0. -0.  0.]]
D(g) (NO)
[[ 0.99951369 -0.02190475  0.          0.         -0.          0.00079694 -0.02217906  0.00017056]
 [ 0.02190475  0.99951369 -0.00107645 -0.00500751 -0.02159493  0.         -0.         -0.        ]
 [ 0.          0.00107645  0.99951369  0.         -0.         -0.03092866 -0.00219856 -0.0031335 ]
 [ 0.          0.00500751  0.          0.99951369 -0.         -0.00255339 -0.00480436  0.03029383]
 [-0.          0.02159493 -0.         -0.          0.99951369  0.00294217 -0.02127362 -0.00669543]
 [-0.00079694  0.          0.03092866  0.00255339 -0.00294217  0.99951369 -0.         -0.        ]
 [ 0.02217906 -0.          0.00219856  0.00480436  0.02127362 -0.          0.99951369  0.        ]
 [-0.00017056 -0.          0.0031335  -0.03029383  0.00669543  0.          0.          0.99951369]]
...
N(g) (NO)
[[ 1.00000626  0.02191554]
 [-0.02191554  1.00000626]]
...
P(g) (NO)
[[ 1.          0.          0.          0.         -0.          0.          0.         -0.        ]
 [-0.          1.         -0.         -0.          0.          0.          0.         -0.        ]
 [-0.00002359  0.00107645 -0.         -0.          0.          0.          0.         -0.        ]
 [-0.00010974  0.00500754 -0.         -0.          0.          0.          0.         -0.        ]
 [-0.00047326  0.02159507 -0.         -0.          0.          0.          0.         -0.        ]
 [-0.00079695 -0.00001747 -0.         -0.          0.         -0.         -0.          0.        ]
 [ 0.0221792   0.00048607  0.          0.         -0.          0.          0.         -0.        ]
 [-0.00017056 -0.00000374 -0.         -0.          0.         -0.         -0.          0.        ]]
...
Pg_ortho
[[ 0.85122866 -0.34132441 -0.01206471  0.10081472  0.00789654  0.00316634 -0.00011192 -0.00093522]
 [-0.34085798  0.13667673  0.00483108 -0.0403693   0.01811665  0.00726439 -0.00025677 -0.00214563]
 [-0.01206471  0.00483769  0.000171   -0.00142888 -0.00011192 -0.00004488  0.00000159  0.00001326]
 [ 0.10067696 -0.0403693  -0.00142692  0.01192361 -0.00535099 -0.00214563  0.00007584  0.00063374]
 [-0.00789654  0.00316634  0.00011192 -0.00093522  0.85122866  0.34132441 -0.01206471 -0.10081472]
 [ 0.01811665 -0.00726439 -0.00025677  0.00214563  0.34085798  0.13667673 -0.00483108 -0.0403693 ]
 [ 0.00011192 -0.00004488 -0.00000159  0.00001326 -0.01206471 -0.00483769  0.000171    0.00142888]
 [-0.00535099  0.00214563  0.00007584 -0.00063374 -0.10067696 -0.0403693   0.00142692  0.01192361]]
G(g) (NO)
[[ 0.49125187  0.00195609  0.09338816 -0.04704766 -0.08428728  0.00072623 -0.00169771 -0.00074811]
 [-0.00195609  0.49125187 -0.00047403  0.00052477 -0.00186259  0.0980083   0.09171479  0.00468475]
 [ 0.0933838   0.00201017  0.95691671  0.0062953  -0.15143407  0.00180513 -0.00108989 -0.00127473]
 [-0.04703986 -0.00028761  0.00628789  0.80657037 -0.15754313  0.00115023  0.00026699 -0.00036408]
 [-0.08409162 -0.01482991 -0.1514107  -0.15756201  1.14419376 -0.00416164  0.00183628  0.00156854]
 [-0.00108793  0.09801373 -0.00074322  0.00103392 -0.00126702  0.92791919  0.0716026   0.05448819]
 [-0.01447392  0.09152264 -0.00314472  0.00205913 -0.00233326  0.07157674  1.05237027  0.25125079]
 [-0.00365674  0.00464718 -0.00208716  0.00167489 -0.00088771  0.05447538  0.25123964  0.92739139]]
...
C(NO)
[[-1.02388392  0.         -0.42816058 -0.11618482  0.04073447  0.          0.          0.        ]
 [ 0.          1.02388392  0.          0.          0.          0.42816058  0.11618482 -0.04073447]
 [ 0.05390207  0.          0.19906489 -0.74255184 -0.63578367  0.          0.          0.        ]
 [-0.03049161  0.          0.26908289  0.55076034 -0.48858972  0.          0.          0.        ]
 [-0.01538975  0.          0.67911459 -0.2939334   0.57178388  0.          0.          0.        ]
 [ 0.         -0.05963811  0.          0.          0.         -0.14735715  0.892978    0.41732051]
 [ 0.         -0.02133592  0.          0.          0.          0.72511455 -0.16840795  0.43653307]
 [ 0.          0.00775177  0.          0.          0.         -0.16038646 -0.33962639  0.77792034]]
detC -1.0483382736857025
detNg [1.00049282 1.01297574 1.07198028 1.22145729 1.4820387  1.78384305 1.97530887 2.02456613]
xg [0.90945903 0.89825175 0.84880967 0.74493577 0.61395646 0.51008256 0.46064048 0.4494332 ]
ciS 1.3588922324595143
[[-1.03144444  0.         -0.10597835  0.00402131  0.17362305  0.          0.          0.        ]
 [ 0.         -1.03144444  0.          0.          0.         -0.09118264 -0.1686153  -0.06817004]
 [-0.10597835  0.          0.1136762   0.00947598 -0.00912543  0.          0.          0.        ]
 [ 0.00402131  0.          0.00947598  0.16336891 -0.32078684  0.          0.          0.        ]
 [ 0.17362305  0.         -0.00912543 -0.32078684 -0.60567118  0.          0.          0.        ]
 [ 0.         -0.09118264  0.          0.          0.          0.12125469 -0.03915419 -0.03541085]
 [ 0.         -0.1686153   0.          0.          0.         -0.03915419 -0.70859085  0.10792413]
 [ 0.         -0.06817004  0.          0.          0.         -0.03541085  0.10792413  0.25871009]]
ciH -2.241063615951221
S2 = -0.000000
X(g)
[[ 2.          0.         -0.00002359 -0.00010974 -0.00047326  0.00079695 -0.0221792   0.00017056]
 [ 0.          2.         -0.00107645 -0.00500754 -0.02159507 -0.00001747  0.00048607 -0.00000374]
 [-0.00002359  0.00107645  0.          0.          0.          0.          0.          0.        ]
 [-0.00010974  0.00500754  0.          0.          0.          0.          0.          0.        ]
 [-0.00047326  0.02159507  0.          0.          0.          0.          0.          0.        ]
 [-0.00079695 -0.00001747  0.          0.          0.          0.          0.          0.        ]
 [ 0.0221792   0.00048607  0.          0.          0.          0.          0.          0.        ]
 [-0.00017056 -0.00000374  0.          0.          0.          0.          0.          0.        ]]
X(g) int
[[ 2.          0.         -0.01623682 -0.07553185 -0.32573199  0.01344023 -0.37404534  0.0028765 ]
 [-0.          2.         -0.01815405 -0.08445058 -0.36419412 -0.01202082  0.33454283 -0.00257271]
 [-0.01623682  0.01815405  0.          0.          0.          0.          0.          0.        ]
 [-0.07553185  0.08445058  0.          0.          0.          0.          0.          0.        ]
 [-0.32573199  0.36419412  0.          0.          0.          0.          0.          0.        ]
 [-0.01344023 -0.01202082  0.          0.          0.          0.          0.          0.        ]
 [ 0.37404534  0.33454283  0.          0.          0.          0.          0.          0.        ]
 [-0.0028765  -0.00257271  0.          0.          0.          0.          0.          0.        ]]
Hsp + Hph =  -1.6491842122719538
Feff (mod,ortho)
[[-0.40863618  0.33958905  0.05169963  0.04438316  0.          0.          0.          0.        ]
 [ 0.33958905  0.45438774  0.08272784  0.5256265   0.          0.          0.          0.        ]
 [ 0.05169963  0.08272784  1.06868271  0.03406778  0.          0.          0.          0.        ]
 [ 0.04438316  0.5256265   0.03406778  0.92442154  0.          0.          0.          0.        ]
 [ 0.          0.          0.          0.         -0.40863618 -0.33958905  0.05169963 -0.04438316]
 [ 0.          0.          0.          0.         -0.33958905  0.45438774 -0.08272784  0.5256265 ]
 [ 0.          0.          0.          0.          0.05169963 -0.08272784  1.06868271 -0.03406778]
 [ 0.          0.          0.          0.         -0.04438316  0.5256265  -0.03406778  0.92442154]]
E(SUHF) =     -1.12000700
e_a, e_b
[-0.54026115  0.21078608  1.04671814  1.32161275] [-0.54026115  0.21078608  1.04671814  1.32161275]
P_a, P_b
[[ 0.85223294 -0.34117862 -0.0118935   0.09688987]
 [-0.34117862  0.13658572  0.00476138 -0.0387884 ]
 [-0.0118935   0.00476138  0.00016598 -0.00135217]
 [ 0.09688987 -0.0387884  -0.00135217  0.01101535]] 
 [[ 0.85223294  0.34117862 -0.0118935  -0.09688987]
 [ 0.34117862  0.13658572 -0.00476138 -0.0387884 ]
 [-0.0118935  -0.00476138  0.00016598  0.00135217]
 [-0.09688987 -0.0387884   0.00135217  0.01101535]]
**** Start Cycle 5 ****
dm (ortho)
[array([[ 0.85223294, -0.34117862, -0.0118935 ,  0.09688987],
       [-0.34117862,  0.13658572,  0.00476138, -0.0387884 ],
       [-0.0118935 ,  0.00476138,  0.00016598, -0.00135217],
       [ 0.09688987, -0.0387884 , -0.00135217,  0.01101535]]), array([[ 0.85223294,  0.34117862, -0.0118935 , -0.09688987],
       [ 0.34117862,  0.13658572, -0.00476138, -0.0387884 ],
       [-0.0118935 , -0.00476138,  0.00016598,  0.00135217],
       [-0.09688987, -0.0387884 ,  0.00135217,  0.01101535]])]
Fock (ortho)
 (array([[-0.46296517,  0.2703348 ,  0.0441289 , -0.00043903],
       [ 0.2703348 ,  0.51992606,  0.08789831,  0.53318964],
       [ 0.0441289 ,  0.08789831,  1.06956203,  0.03392772],
       [-0.00043903,  0.53318964,  0.03392772,  0.91470838]]), array([[-0.46296517, -0.2703348 ,  0.0441289 ,  0.00043903],
       [-0.2703348 ,  0.51992606, -0.08789831,  0.53318964],
       [ 0.0441289 , -0.08789831,  1.06956203, -0.03392772],
       [ 0.00043903,  0.53318964, -0.03392772,  0.91470838]]))
E(UHF) =    -1.571138
NO eigenvalue
[-1. -0.  0.  0.] [-1. -0.  0.  0.]
NO vec
[[ 0.92316464  0.         -0.37539036  0.00260889  0.08271838  0.          0.          0.        ]
 [-0.36957505  0.         -0.92550846  0.03148735 -0.07653048  0.          0.          0.        ]
 [-0.0128834   0.         -0.03150974 -0.99889861  0.03229103  0.          0.          0.        ]
 [ 0.10495405  0.          0.03902954 -0.03468858 -0.99310525  0.          0.          0.        ]
 [ 0.          0.92316464  0.          0.          0.          0.3819145   0.00108883 -0.04367132]
 [ 0.          0.36957505  0.          0.          0.         -0.91300509 -0.01220064 -0.17229954]
 [ 0.         -0.0128834   0.          0.          0.          0.02421392 -0.99596766 -0.08541738]
 [ 0.         -0.10495405  0.          0.          0.          0.14133898  0.08887285 -0.98036195]]
dm(NO)
[[ 1.  0.  0. -0. -0.  0.  0.  0.]
 [ 0.  1.  0.  0.  0.  0. -0. -0.]
 [ 0.  0.  0. -0.  0.  0.  0.  0.]
 [-0.  0. -0. -0.  0.  0.  0.  0.]
 [-0.  0.  0. -0. -0.  0.  0.  0.]
 [ 0.  0.  0.  0.  0. -0. -0.  0.]
 [ 0. -0.  0.  0.  0. -0.  0. -0.]
 [ 0. -0.  0.  0.  0.  0.  0.  0.]]
D(g) (NO)
[[ 0.99951369  0.02197786 -0.         -0.         -0.          0.02196908  0.00086294 -0.00244572]
 [-0.02197786  0.99951369  0.02158759 -0.00095281 -0.00473652  0.         -0.          0.        ]
 [-0.         -0.02158759  0.99951369 -0.          0.          0.02202721  0.00142615  0.0043746 ]
 [-0.          0.00095281 -0.          0.99951369  0.         -0.00177251  0.03091525  0.00354838]
 [-0.          0.00473652  0.          0.          0.99951369 -0.00118866 -0.00372319  0.03057259]
 [-0.02196908  0.         -0.02202721  0.00177251  0.00118866  0.99951369 -0.          0.        ]
 [-0.00086294 -0.         -0.00142615 -0.03091525  0.00372319 -0.          0.99951369 -0.        ]
 [ 0.00244572  0.         -0.0043746  -0.00354838 -0.03057259  0.         -0.          0.99951369]]
...
N(g) (NO)
[[ 1.00000305 -0.02198863]
 [ 0.02198863  1.00000305]]
...
P(g) (NO)
[[ 1.          0.          0.         -0.         -0.          0.         -0.         -0.        ]
 [ 0.          1.          0.         -0.         -0.          0.         -0.         -0.        ]
 [-0.00047468 -0.02158766 -0.          0.          0.         -0.          0.          0.        ]
 [ 0.00002095  0.00095282  0.         -0.         -0.          0.         -0.         -0.        ]
 [ 0.00010415  0.00473654  0.         -0.         -0.          0.         -0.         -0.        ]
 [-0.02196914  0.00048307 -0.          0.          0.          0.         -0.         -0.        ]
 [-0.00086294  0.00001897 -0.          0.          0.          0.         -0.         -0.        ]
 [ 0.00244573 -0.00005378  0.         -0.         -0.         -0.          0.          0.        ]]
...
Pg_ortho
[[ 0.85240545 -0.34124768 -0.01189591  0.09690948  0.00784513  0.00314068 -0.00010948 -0.00089191]
 [-0.3407798   0.13642606  0.00475582 -0.03874306  0.01813748  0.00726107 -0.00025312 -0.00206204]
 [-0.01189591  0.00476235  0.00016602 -0.00135244 -0.00010948 -0.00004383  0.00000153  0.00001245]
 [ 0.09677661 -0.03874306 -0.00135058  0.01100248 -0.00515079 -0.00206204  0.00007188  0.00058559]
 [-0.00784513  0.00314068  0.00010948 -0.00089191  0.85240545  0.34124768 -0.01189591 -0.09690948]
 [ 0.01813748 -0.00726107 -0.00025312  0.00206204  0.3407798   0.13642606 -0.00475582 -0.03874306]
 [ 0.00010948 -0.00004383 -0.00000153  0.00001245 -0.01189591 -0.00476235  0.00016602  0.00135244]
 [-0.00515079  0.00206204  0.00007188 -0.00058559 -0.09677661 -0.03874306  0.00135058  0.01100248]]
G(g) (NO)
[[ 0.49217293 -0.00194079 -0.08573464 -0.09575744  0.03808174  0.00180983  0.00048296  0.00070318]
 [ 0.00194079  0.49217293  0.00186411 -0.00054091  0.00048552  0.08819077 -0.09488436 -0.03448882]
 [-0.08553794  0.01487456  1.1472238   0.13545197  0.17264141 -0.00217193 -0.00357131 -0.00246011]
 [-0.09575529  0.00183688  0.13547665  0.95148145  0.01774787 -0.00129468 -0.00122899 -0.00149158]
 [ 0.03807728  0.00007415  0.17262445  0.01774031  0.81042757  0.00005234 -0.00114125 -0.00085708]
 [ 0.014768    0.08799469  0.00232439 -0.00357144  0.00191667  1.10553269 -0.14580613  0.19516489]
 [-0.0020791  -0.09487928 -0.00145687  0.0014488  -0.00135481 -0.14582891  0.95775464 -0.02756615]
 [ 0.00148856 -0.03450434  0.00017676 -0.00148482  0.00092215  0.19514672 -0.02755591  0.84584549]]
...
C(NO)
[[-1.02374959  0.         -0.42985486 -0.11810626  0.04263842  0.          0.          0.        ]
 [ 0.         -1.02374959  0.          0.          0.         -0.42985486 -0.11810626  0.04263842]
 [-0.01708498  0.          0.67775329 -0.27998025  0.57731866  0.          0.          0.        ]
 [-0.05607659  0.         -0.18553372  0.79035618  0.58417847  0.          0.          0.        ]
 [ 0.030176    0.         -0.27929027 -0.48745772  0.54328402  0.          0.          0.        ]
 [ 0.          0.0195109   0.          0.          0.         -0.70479064  0.23660449 -0.51222895]
 [ 0.         -0.05459315  0.          0.          0.         -0.18966946  0.75757042  0.62258892]
 [ 0.         -0.03140038  0.          0.          0.          0.19766381  0.55746948 -0.56544087]]
detC 1.0480632176274407
detNg [1.00048961 1.01289013 1.07147791 1.21969786 1.47739984 1.77478145 1.96283913 2.01114424]
xg [0.90993938 0.89879925 0.84965344 0.74640198 0.61620752 0.51295605 0.46381024 0.45267011]
ciS 1.3626094924501135
[[-1.03163412  0.          0.17615663  0.10340031  0.01079839  0.          0.          0.        ]
 [ 0.         -1.03163412  0.          0.          0.         -0.17302014  0.10668151 -0.02285772]
 [ 0.17615663  0.         -0.60927818 -0.00742729  0.31545839  0.          0.          0.        ]
 [ 0.10340031  0.         -0.00742729  0.11281207  0.00007592  0.          0.          0.        ]
 [ 0.01079839  0.          0.31545839  0.00007592  0.16802971  0.          0.          0.        ]
 [ 0.         -0.17302014  0.          0.          0.         -0.66537102  0.0025292   0.22975045]
 [ 0.          0.10668151  0.          0.          0.          0.0025292   0.113124   -0.00801901]
 [ 0.         -0.02285772  0.          0.          0.          0.22975045 -0.00801901  0.22381063]]
ciH -2.2473200016024784
S2 = 0.000000
X(g)
[[ 2.          0.         -0.00047468  0.00002095  0.00010415  0.02196914  0.00086294 -0.00244573]
 [ 0.          2.          0.02158766 -0.00095282 -0.00473654  0.00048307  0.00001897 -0.00005378]
 [-0.00047468 -0.02158766  0.          0.          0.          0.          0.          0.        ]
 [ 0.00002095  0.00095282  0.          0.          0.          0.          0.          0.        ]
 [ 0.00010415  0.00473654  0.          0.          0.          0.          0.          0.        ]
 [-0.02196914  0.00048307  0.          0.          0.          0.          0.          0.        ]
 [-0.00086294  0.00001897  0.          0.          0.          0.          0.          0.        ]
 [ 0.00244573 -0.00005378  0.          0.          0.          0.          0.          0.        ]]
X(g) int
[[ 2.          0.         -0.32598786  0.01438814  0.07152484  0.36968717  0.01452123 -0.04115566]
 [-0.          2.          0.36326766 -0.01603356 -0.07970439  0.33174858  0.01303101 -0.03693212]
 [-0.32598786 -0.36326766  0.          0.          0.          0.          0.          0.        ]
 [ 0.01438814  0.01603356  0.          0.          0.          0.          0.          0.        ]
 [ 0.07152484  0.07970439  0.          0.          0.          0.          0.          0.        ]
 [-0.36968717  0.33174858  0.          0.          0.          0.          0.          0.        ]
 [-0.01452123  0.01303101  0.          0.          0.          0.          0.          0.        ]
 [ 0.04115566 -0.03693212  0.          0.          0.          0.          0.          0.        ]]
Hsp + Hph =  -1.6492766372569179
Feff (mod,ortho)
[[-0.40761433  0.34126015  0.0518116   0.04903156  0.          0.          0.          0.        ]
 [ 0.34126015  0.45426729  0.0835236   0.52396752  0.          0.          0.          0.        ]
 [ 0.0518116   0.0835236   1.06933681  0.03419858  0.          0.          0.          0.        ]
 [ 0.04903156  0.52396752  0.03419858  0.92524152  0.          0.          0.          0.        ]
 [ 0.          0.          0.          0.         -0.40761433 -0.34126015  0.0518116  -0.04903156]
 [ 0.          0.          0.          0.         -0.34126015  0.45426729 -0.0835236   0.52396752]
 [ 0.          0.          0.          0.          0.0518116  -0.0835236   1.06933681 -0.03419858]
 [ 0.          0.          0.          0.         -0.04903156  0.52396752 -0.03419858  0.92524152]]
E(SUHF) =     -1.12009943
e_a, e_b
[-0.53952039  0.21142932  1.04699873  1.32232365] [-0.53952039  0.21142932  1.04699873  1.32232365]
P_a, P_b
[[ 0.85288613 -0.34136277 -0.01173913  0.09383513]
 [-0.34136277  0.13662848  0.00469852 -0.03755697]
 [-0.01173913  0.00469852  0.00016158 -0.00129155]
 [ 0.09383513 -0.03755697 -0.00129155  0.01032381]] 
 [[ 0.85288613  0.34136277 -0.01173913 -0.09383513]
 [ 0.34136277  0.13662848 -0.00469852 -0.03755697]
 [-0.01173913 -0.00469852  0.00016158  0.00129155]
 [-0.09383513 -0.03755697  0.00129155  0.01032381]]
**** Start Cycle 6 ****
dm (ortho)
[array([[ 0.85288613, -0.34136277, -0.01173913,  0.09383513],
       [-0.34136277,  0.13662848,  0.00469852, -0.03755697],
       [-0.01173913,  0.00469852,  0.00016158, -0.00129155],
       [ 0.09383513, -0.03755697, -0.00129155,  0.01032381]]), array([[ 0.85288613,  0.34136277, -0.01173913, -0.09383513],
       [ 0.34136277,  0.13662848, -0.00469852, -0.03755697],
       [-0.01173913, -0.00469852,  0.00016158,  0.00129155],
       [-0.09383513, -0.03755697,  0.00129155,  0.01032381]])]
Fock (ortho)
 (array([[-0.46259526,  0.27089201,  0.04426525,  0.00095633],
       [ 0.27089201,  0.52050206,  0.0885835 ,  0.53298808],
       [ 0.04426525,  0.0885835 ,  1.07007799,  0.03411886],
       [ 0.00095633,  0.53298808,  0.03411886,  0.91513835]]), array([[-0.46259526, -0.27089201,  0.04426525, -0.00095633],
       [-0.27089201,  0.52050206, -0.0885835 ,  0.53298808],
       [ 0.04426525, -0.0885835 ,  1.07007799, -0.03411886],
       [-0.00095633,  0.53298808, -0.03411886,  0.91513835]]))
E(UHF) =    -1.570536
NO eigenvalue
[-1. -0. -0.  0.] [-1. -0. -0.  0.]
NO vec
[[ 0.92351834  0.         -0.08432089 -0.00326994 -0.3741566   0.          0.          0.        ]
 [-0.36963291  0.          0.06382891 -0.03092232 -0.92646705  0.          0.          0.        ]
 [-0.01271131  0.         -0.04024726  0.99862685 -0.03103216  0.          0.          0.        ]
 [ 0.10160614  0.          0.99357738  0.04216079  0.02650745  0.          0.          0.        ]
 [ 0.          0.92351834  0.          0.          0.         -0.38251439 -0.0000136   0.02822425]
 [ 0.          0.36963291  0.          0.          0.          0.90707924 -0.03323132  0.19868178]
 [ 0.         -0.01271131  0.          0.          0.         -0.03085072 -0.99943961 -0.00266827]
 [ 0.         -0.10160614  0.          0.          0.         -0.17302667  0.00401781  0.97965393]]
dm(NO)
[[ 1.  0. -0. -0. -0.  0.  0.  0.]
 [ 0.  1.  0.  0.  0.  0. -0. -0.]
 [-0.  0. -0.  0.  0.  0.  0.  0.]
 [-0.  0. -0.  0. -0.  0.  0.  0.]
 [-0.  0. -0.  0.  0.  0.  0.  0.]
 [ 0.  0.  0.  0.  0.  0. -0.  0.]
 [ 0. -0.  0.  0.  0. -0.  0. -0.]
 [ 0. -0.  0.  0.  0.  0. -0. -0.]]
D(g) (NO)
[[ 0.99951369  0.02201833 -0.         -0.         -0.         -0.02200705  0.00079153  0.00162773]
 [-0.02201833  0.99951369  0.00482469  0.00098001  0.02152553 -0.          0.         -0.        ]
 [-0.         -0.00482469  0.99951369 -0.         -0.         -0.00251093  0.00131271  0.03067715]
 [-0.         -0.00098001 -0.          0.99951369  0.         -0.00202384 -0.03108562  0.00101041]
 [-0.         -0.02152553 -0.          0.          0.99951369 -0.02185594  0.00193068 -0.00525691]
 [ 0.02200705 -0.          0.00251093  0.00202384  0.02185594  0.99951369  0.         -0.        ]
 [-0.00079153  0.         -0.00131271  0.03108562 -0.00193068  0.          0.99951369  0.        ]
 [-0.00162773 -0.         -0.03067715 -0.00101041  0.00525691 -0.          0.          0.99951369]]
...
N(g) (NO)
[[ 1.00000127 -0.02202907]
 [ 0.02202907  1.00000127]]
...
P(g) (NO)
[[ 1.          0.         -0.         -0.         -0.         -0.          0.         -0.        ]
 [-0.          1.          0.          0.          0.          0.         -0.         -0.        ]
 [-0.00010628 -0.00482469  0.          0.          0.         -0.          0.          0.        ]
 [-0.00002159 -0.00098001  0.          0.          0.         -0.          0.          0.        ]
 [-0.00047419 -0.02152555  0.          0.          0.         -0.          0.          0.        ]
 [ 0.02200708 -0.00048479 -0.         -0.         -0.         -0.          0.          0.        ]
 [-0.00079153  0.00001744  0.          0.          0.          0.         -0.         -0.        ]
 [-0.00162774  0.00003586  0.          0.          0.          0.         -0.         -0.        ]]
...
Pg_ortho
[[ 0.85305832 -0.34143169 -0.0117415   0.09385408  0.00781662  0.00312856 -0.00010759 -0.00085999]
 [-0.3409627   0.13646836  0.00469301 -0.03751296  0.01816105  0.00726886 -0.00024997 -0.00199809]
 [-0.0117415   0.00469947  0.00016161 -0.00129181 -0.00010759 -0.00004306  0.00000148  0.00001184]
 [ 0.09372516 -0.03751296 -0.00129003  0.01031171 -0.00499218 -0.00199809  0.00006871  0.00054924]
 [-0.00781662  0.00312856  0.00010759 -0.00085999  0.85305832  0.34143169 -0.0117415  -0.09385408]
 [ 0.01816105 -0.00726886 -0.00024997  0.00199809  0.3409627   0.13646836 -0.00469301 -0.03751296]
 [ 0.00010759 -0.00004306 -0.00000148  0.00001184 -0.0117415  -0.00469947  0.00016161  0.00129181]
 [-0.00499218  0.00199809  0.00006871 -0.00054924 -0.09372516 -0.03751296  0.00129003  0.01031171]]
G(g) (NO)
[[ 0.49277813 -0.00193003 -0.03951266  0.09538858 -0.0851094  -0.00179235  0.00055288 -0.00071155]
 [ 0.00193003  0.49277813 -0.00046004  0.00053587  0.00187769 -0.08945355 -0.09684459  0.02286983]
 [-0.03950718  0.00004033  0.80576365  0.01548282 -0.16787921  0.00011165  0.0011658  -0.00071645]
 [ 0.09538647 -0.00185973  0.01549028  0.95221613 -0.13763111 -0.0012581   0.00137776 -0.00142489]
 [-0.08491201  0.0149026  -0.16789635 -0.1376066   1.15243775  0.00208482 -0.00382087  0.00220759]
 [-0.0147345  -0.08925753  0.0018778  -0.00352993 -0.00235353  1.09435004  0.12654388  0.21591368]
 [-0.00186178 -0.09684225  0.00124531 -0.00128588 -0.00145391  0.12656766  0.95084653  0.04020476]
 [-0.00223068  0.02289363  0.00110696 -0.00172735 -0.00040284  0.21589749  0.04019367  0.86522097]]
...
C(NO)
[[-1.0236354   0.         -0.4309274  -0.11972993  0.04430841  0.          0.          0.        ]
 [ 0.         -1.0236354   0.          0.          0.         -0.4309274  -0.11972993  0.04430841]
 [-0.03425719  0.          0.28497213  0.48941856 -0.53139231  0.          0.          0.        ]
 [ 0.05587951  0.          0.18766149 -0.78666791 -0.5882381   0.          0.          0.        ]
 [-0.01687563  0.          0.67411139 -0.28618831  0.58409913  0.          0.          0.        ]
 [ 0.         -0.02142077  0.          0.          0.          0.70984828 -0.21540889  0.49590816]
 [ 0.         -0.05715444  0.          0.          0.         -0.17650861  0.80482473  0.5674971 ]
 [ 0.          0.0292469   0.          0.          0.         -0.18924125 -0.4961218   0.63371585]]
detC 1.0478294281669667
detNg [1.00048782 1.01284264 1.07119938 1.21872385 1.47483856 1.76979339 1.95598818 2.00377381]
xg [0.91034709 0.89924254 0.85025365 0.74733188 0.61755314 0.51463136 0.46564248 0.45453792]
ciS 1.364885012763354
[[-1.03163591  0.         -0.01175028 -0.10344044  0.17729146  0.          0.          0.        ]
 [ 0.         -1.03163591  0.          0.          0.          0.17301704  0.10293592  0.04170798]
 [-0.01175028  0.          0.15986891  0.00019903 -0.32462508  0.          0.          0.        ]
 [-0.10344044  0.          0.00019903  0.11282308  0.00500424  0.          0.          0.        ]
 [ 0.17729146  0.         -0.32462508  0.00500424 -0.6011266   0.          0.          0.        ]
 [ 0.          0.17301704  0.          0.          0.         -0.67920928 -0.01711817  0.19896008]
 [ 0.          0.10293592  0.          0.          0.         -0.01711817  0.11287264 -0.00413635]
 [ 0.          0.04170798  0.          0.          0.          0.19896008 -0.00413635  0.23790203]]
ciH -2.251154630958166
S2 = 0.000000
X(g)
[[ 2.          0.         -0.00010628 -0.00002159 -0.00047419 -0.02200708  0.00079153  0.00162774]
 [-0.          2.          0.00482469  0.00098001  0.02152555 -0.00048479  0.00001744  0.00003586]
 [-0.00010628 -0.00482469  0.          0.          0.          0.          0.          0.        ]
 [-0.00002159 -0.00098001  0.          0.          0.          0.          0.          0.        ]
 [-0.00047419 -0.02152555  0.          0.          0.          0.          0.          0.        ]
 [ 0.02200708 -0.00048479  0.          0.          0.          0.          0.          0.        ]
 [-0.00079153  0.00001744  0.          0.          0.          0.          0.          0.        ]
 [-0.00162774  0.00003586  0.          0.          0.          0.          0.          0.        ]]
X(g) int
[[ 2.          0.         -0.07290113 -0.01480794 -0.32525128 -0.36987379  0.01330331  0.02735743]
 [-0.          2.          0.08108877  0.01647104  0.36178079 -0.33252712  0.01196006  0.02459511]
 [-0.07290113 -0.08108877  0.          0.          0.          0.          0.          0.        ]
 [-0.01480794 -0.01647104  0.          0.          0.          0.          0.          0.        ]
 [-0.32525128 -0.36178079  0.          0.          0.          0.          0.          0.        ]
 [ 0.36987379 -0.33252712  0.          0.          0.          0.          0.          0.        ]
 [-0.01330331  0.01196006  0.          0.          0.          0.          0.          0.        ]
 [-0.02735743  0.02459511  0.          0.          0.          0.          0.          0.        ]]
Hsp + Hph =  -1.6493364715028014
Feff (mod,ortho)
[[-0.4066599   0.34270378  0.0519196   0.05280159  0.          0.          0.          0.        ]
 [ 0.34270378  0.45405698  0.08422333  0.52260122  0.          0.          0.          0.        ]
 [ 0.0519196   0.08422333  1.06985669  0.0343321   0.          0.          0.          0.        ]
 [ 0.05280159  0.52260122  0.0343321   0.92586938  0.          0.          0.          0.        ]
 [ 0.          0.          0.          0.         -0.4066599  -0.34270378  0.0519196  -0.05280159]
 [ 0.          0.          0.          0.         -0.34270378  0.45405698 -0.08422333  0.52260122]
 [ 0.          0.          0.          0.          0.0519196  -0.08422333  1.06985669 -0.0343321 ]
 [ 0.          0.          0.          0.         -0.05280159  0.52260122 -0.0343321   0.92586938]]
E(SUHF) =     -1.12015926
e_a, e_b
[-0.53891119  0.21195613  1.04718212  1.32289608] [-0.53891119  0.21195613  1.04718212  1.32289608]
P_a, P_b
[[ 0.85328974 -0.34161244 -0.01160418  0.09139281]
 [-0.34161244  0.13676369  0.0046457  -0.03658889]
 [-0.01160418  0.0046457   0.00015781 -0.00124288]
 [ 0.09139281 -0.03658889 -0.00124288  0.00978876]] 
 [[ 0.85328974  0.34161244 -0.01160418 -0.09139281]
 [ 0.34161244  0.13676369 -0.0046457  -0.03658889]
 [-0.01160418 -0.0046457   0.00015781  0.00124288]
 [-0.09139281 -0.03658889  0.00124288  0.00978876]]
**** Start Cycle 7 ****
dm (ortho)
[array([[ 0.85328974, -0.34161244, -0.01160418,  0.09139281],
       [-0.34161244,  0.13676369,  0.0046457 , -0.03658889],
       [-0.01160418,  0.0046457 ,  0.00015781, -0.00124288],
       [ 0.09139281, -0.03658889, -0.00124288,  0.00978876]]), array([[ 0.85328974,  0.34161244, -0.01160418, -0.09139281],
       [ 0.34161244,  0.13676369, -0.0046457 , -0.03658889],
       [-0.01160418, -0.0046457 ,  0.00015781,  0.00124288],
       [-0.09139281, -0.03658889,  0.00124288,  0.00978876]])]
Fock (ortho)
 (array([[-0.46224888,  0.27142362,  0.04437854,  0.00208554],
       [ 0.27142362,  0.52092498,  0.08916608,  0.53282598],
       [ 0.04437854,  0.08916608,  1.0704934 ,  0.03428408],
       [ 0.00208554,  0.53282598,  0.03428408,  0.91548034]]), array([[-0.46224888, -0.27142362,  0.04437854, -0.00208554],
       [-0.27142362,  0.52092498, -0.08916608,  0.53282598],
       [ 0.04437854, -0.08916608,  1.0704934 , -0.03428408],
       [-0.00208554,  0.53282598, -0.03428408,  0.91548034]]))
E(UHF) =    -1.569966
NO eigenvalue
[-1. -0.  0.  0.] [-1. -0.  0.  0.]
NO vec
[[ 0.92373683  0.          0.00114092 -0.00728378  0.38295679  0.          0.          0.        ]
 [-0.36981576  0.          0.25253043  0.05625192  0.89235666  0.          0.          0.        ]
 [-0.01256221  0.          0.16231328 -0.9865974   0.01105304  0.          0.          0.        ]
 [ 0.09893815  0.          0.95387708  0.15299754 -0.2385823   0.          0.          0.        ]
 [ 0.          0.92373683  0.          0.          0.         -0.00747792  0.09107337  0.37196772]
 [ 0.          0.36981576  0.          0.          0.          0.02821644  0.04067835 -0.92778522]
 [ 0.         -0.01256221  0.          0.          0.          0.99544661  0.08986209  0.02920687]
 [ 0.         -0.09893815  0.          0.          0.         -0.09074116  0.99094688  0.00125115]]
dm(NO)
[[ 1.  0. -0. -0.  0.  0.  0.  0.]
 [ 0.  1.  0.  0.  0.  0. -0.  0.]
 [-0.  0.  0.  0.  0.  0.  0.  0.]
 [-0.  0.  0.  0.  0.  0.  0.  0.]
 [ 0.  0.  0.  0. -0.  0.  0.  0.]
 [ 0.  0.  0.  0.  0.  0.  0.  0.]
 [ 0.  0.  0.  0.  0.  0. -0. -0.]
 [ 0.  0.  0.  0.  0. -0.  0.  0.]]
D(g) (NO)
[[ 0.99951369  0.02204326 -0.         -0.          0.         -0.0012107   0.00517635  0.02140624]
 [-0.02204326  0.99951369  0.00006144 -0.00035334 -0.02205355  0.          0.          0.        ]
 [-0.         -0.00006144  0.99951369  0.          0.          0.00256124  0.03025407 -0.00710776]
 [-0.          0.00035334  0.          0.99951369 -0.         -0.03100692  0.0020138  -0.00260452]
 [ 0.          0.02205355  0.         -0.          0.99951369  0.00171406 -0.00512192 -0.02137433]
 [ 0.0012107   0.         -0.00256124  0.03100692 -0.00171406  0.99951369 -0.         -0.        ]
 [-0.00517635  0.         -0.03025407 -0.0020138   0.00512192 -0.          0.99951369 -0.        ]
 [-0.02140624  0.          0.00710776  0.00260452  0.02137433 -0.         -0.          0.99951369]]
...
N(g) (NO)
[[ 1.00000017 -0.02205399]
 [ 0.02205399  1.00000017]]
...
P(g) (NO)
[[ 1.         -0.         -0.         -0.          0.         -0.          0.         -0.        ]
 [ 0.          1.         -0.         -0.          0.          0.         -0.          0.        ]
 [-0.00000135 -0.00006144  0.          0.         -0.         -0.          0.         -0.        ]
 [ 0.00000779  0.00035334 -0.         -0.          0.          0.         -0.          0.        ]
 [ 0.00048637  0.02205355 -0.         -0.          0.          0.         -0.          0.        ]
 [ 0.0012107  -0.0000267  -0.         -0.          0.         -0.          0.         -0.        ]
 [-0.00517635  0.00011416  0.          0.         -0.          0.         -0.          0.        ]
 [-0.02140625  0.00047209  0.          0.         -0.          0.         -0.          0.        ]]
...
Pg_ortho
[[ 0.85346174 -0.3416813  -0.01160652  0.09141123  0.00779903  0.00312232 -0.00010606 -0.00083533]
 [-0.34121143  0.13660315  0.00464025 -0.03654594  0.01818283  0.00727945 -0.00024727 -0.0019475 ]
 [-0.01160652  0.00464664  0.00015784 -0.00124313 -0.00010606 -0.00004246  0.00000144  0.00001136]
 [ 0.09128553 -0.03654594 -0.00124142  0.00977727 -0.00486452 -0.0019475   0.00006615  0.00052102]
 [-0.00779903  0.00312232  0.00010606 -0.00083533  0.85346174  0.3416813  -0.01160652 -0.09141123]
 [ 0.01818283 -0.00727945 -0.00024727  0.0019475   0.34121143  0.13660315 -0.00464025 -0.03654594]
 [ 0.00010606 -0.00004246 -0.00000144  0.00001136 -0.01160652 -0.00464664  0.00015784  0.00124313]
 [-0.00486452  0.0019475   0.00006615 -0.00052102 -0.09128553 -0.03654594  0.00124142  0.00977727]]
G(g) (NO)
[[ 0.49321258 -0.00192196 -0.00080812 -0.09987783  0.08870881 -0.00051283 -0.00043295  0.00189438]
 [ 0.00192196  0.49321258 -0.0007351  -0.00064141 -0.00175708  0.09323014  0.04598743  0.08389746]
 [-0.00084683 -0.00359159  0.91362394 -0.06045017  0.24595664 -0.00209269 -0.00150089  0.00083864]
 [-0.09987784  0.00161723 -0.0604633   0.93786464 -0.08847672  0.00097658  0.0010812  -0.00143223]
 [ 0.08851458 -0.01452472  0.24596879 -0.08845165  1.06001964 -0.00330495 -0.00187251  0.00234454]
 [ 0.00187193  0.09322834 -0.00129711 -0.00163957 -0.00119228  0.95367302 -0.00488294  0.1463599 ]
 [ 0.00044202  0.04597802  0.00040923  0.00109231 -0.00023945 -0.00487591  0.79647679 -0.15229584]
 [ 0.01492592  0.08369964 -0.00172053 -0.00415005 -0.00201044  0.14633617 -0.15231417  1.1613584 ]]
...
C(NO)
[[-1.02353755  0.         -0.43167549 -0.12108059  0.04571894  0.          0.          0.        ]
 [ 0.         -1.02353755  0.          0.          0.         -0.43167549 -0.12108059  0.04571894]
 [-0.02093771  0.          0.16382561  0.37646616 -0.7480444   0.          0.          0.        ]
 [-0.06183441  0.         -0.13833598  0.87136885  0.46408581  0.          0.          0.        ]
 [ 0.02278788  0.         -0.72403808  0.19734482 -0.44102222  0.          0.          0.        ]
 [ 0.          0.05403665  0.          0.          0.          0.20164587 -0.76192225 -0.61326224]
 [ 0.          0.04011596  0.          0.          0.         -0.29135287 -0.51955232  0.48682436]
 [ 0.          0.01587197  0.          0.          0.         -0.66682776  0.29915764 -0.59695738]]
detC 1.0476291203262909
detNg [1.00048672 1.01281333 1.07102754 1.21812346 1.47326214 1.76672866 1.95178352 1.99925161]
xg [0.91069625 0.89961247 0.85071529 0.74798617 0.61845036 0.51572124 0.46682406 0.45574029]
ciS 1.3664365340952038
[[-1.03156833  0.         -0.07257856  0.09582527 -0.1679516   0.          0.          0.        ]
 [ 0.         -1.03156833  0.          0.          0.         -0.10392021  0.00534145 -0.17840944]
 [-0.07257856  0.          0.25557221  0.02583071  0.12847582  0.          0.          0.        ]
 [ 0.09582527  0.          0.02583071  0.11652374  0.05356466  0.          0.          0.        ]
 [-0.1679516   0.          0.12847582  0.05356466 -0.70059814  0.          0.          0.        ]
 [ 0.         -0.10392021  0.          0.          0.          0.11292639 -0.00178457  0.01123962]
 [ 0.          0.00534145  0.          0.          0.         -0.00178457  0.1427168  -0.34293751]
 [ 0.         -0.17840944  0.          0.          0.          0.01123962 -0.34293751 -0.58414537]]
ciH -2.2537676381057885
S2 = -0.000000
X(g)
[[ 2.         -0.         -0.00000135  0.00000779  0.00048637 -0.0012107   0.00517635  0.02140625]
 [ 0.          2.          0.00006144 -0.00035334 -0.02205355 -0.0000267   0.00011416  0.00047209]
 [-0.00000135 -0.00006144  0.          0.          0.          0.          0.          0.        ]
 [ 0.00000779  0.00035334  0.          0.          0.          0.          0.          0.        ]
 [ 0.00048637  0.02205355  0.          0.          0.          0.          0.          0.        ]
 [ 0.0012107  -0.0000267   0.          0.          0.          0.          0.          0.        ]
 [-0.00517635  0.00011416  0.          0.          0.          0.          0.          0.        ]
 [-0.02140625  0.00047209  0.          0.          0.          0.          0.          0.        ]]
X(g) int
[[ 2.          0.         -0.00092867  0.005341    0.33335573 -0.02033293  0.08693365  0.35950489]
 [ 0.          2.          0.0010318  -0.00593414 -0.37037599 -0.01830059  0.07824435  0.32357122]
 [-0.00092867 -0.0010318   0.          0.          0.          0.          0.          0.        ]
 [ 0.005341    0.00593414  0.          0.          0.          0.          0.          0.        ]
 [ 0.33335573  0.37037599  0.          0.          0.          0.          0.          0.        ]
 [ 0.02033293 -0.01830059  0.          0.          0.          0.          0.          0.        ]
 [-0.08693365  0.07824435  0.          0.          0.          0.          0.          0.        ]
 [-0.35950489  0.32357122  0.          0.          0.          0.          0.          0.        ]]
Hsp + Hph =  -1.6493760096938106
Feff (mod,ortho)
[[-0.40582382  0.3439074   0.05201489  0.05587072  0.          0.          0.          0.        ]
 [ 0.3439074   0.45384387  0.08481595  0.52147619  0.          0.          0.          0.        ]
 [ 0.05201489  0.08481595  1.07027526  0.03445272  0.          0.          0.          0.        ]
 [ 0.05587072  0.52147619  0.03445272  0.92635452  0.          0.          0.          0.        ]
 [ 0.          0.          0.          0.         -0.40582382 -0.3439074   0.05201489 -0.05587072]
 [ 0.          0.          0.          0.         -0.3439074   0.45384387 -0.08481595  0.52147619]
 [ 0.          0.          0.          0.          0.05201489 -0.08481595  1.07027526 -0.03445272]
 [ 0.          0.          0.          0.         -0.05587072  0.52147619 -0.03445272  0.92635452]]
E(SUHF) =     -1.12019880
e_a, e_b
[-0.53840537  0.21238654  1.04731119  1.32335749] [-0.53840537  0.21238654  1.04731119  1.32335749]
P_a, P_b
[[ 0.85356739 -0.34185189 -0.01149039  0.08941675]
 [-0.34185189  0.13691094  0.00460188 -0.03581122]
 [-0.01149039  0.00460188  0.00015468 -0.00120369]
 [ 0.08941675 -0.03581122 -0.00120369  0.00936699]] 
 [[ 0.85356739  0.34185189 -0.01149039 -0.08941675]
 [ 0.34185189  0.13691094 -0.00460188 -0.03581122]
 [-0.01149039 -0.00460188  0.00015468  0.00120369]
 [-0.08941675 -0.03581122  0.00120369  0.00936699]]
**** Start Cycle 8 ****
dm (ortho)
[array([[ 0.85356739, -0.34185189, -0.01149039,  0.08941675],
       [-0.34185189,  0.13691094,  0.00460188, -0.03581122],
       [-0.01149039,  0.00460188,  0.00015468, -0.00120369],
       [ 0.08941675, -0.03581122, -0.00120369,  0.00936699]]), array([[ 0.85356739,  0.34185189, -0.01149039, -0.08941675],
       [ 0.34185189,  0.13691094, -0.00460188, -0.03581122],
       [-0.01149039, -0.00460188,  0.00015468,  0.00120369],
       [-0.08941675, -0.03581122,  0.00120369,  0.00936699]])]
Fock (ortho)
 (array([[-0.46194847,  0.27188529,  0.04447171,  0.00300418],
       [ 0.27188529,  0.52125227,  0.08965031,  0.53269371],
       [ 0.04447171,  0.08965031,  1.07082959,  0.03442244],
       [ 0.00300418,  0.53269371,  0.03442244,  0.91575459]]), array([[-0.46194847, -0.27188529,  0.04447171, -0.00300418],
       [-0.27188529,  0.52125227, -0.08965031,  0.53269371],
       [ 0.04447171, -0.08965031,  1.07082959, -0.03442244],
       [-0.00300418,  0.53269371, -0.03442244,  0.91575459]]))
E(UHF) =    -1.569462
NO eigenvalue
[-1. -0. -0.  0.] [-1. -0.  0.  0.]
NO vec
[[ 0.92388711  0.         -0.0285618  -0.00321752 -0.38158417  0.          0.          0.        ]
 [-0.37001479  0.          0.18756872 -0.01219301 -0.90981227  0.          0.          0.        ]
 [-0.01243701  0.         -0.10758328  0.99365219 -0.03043814  0.          0.          0.        ]
 [ 0.0967832   0.          0.9759242   0.11178685  0.16033925  0.          0.          0.        ]
 [ 0.          0.92388711  0.          0.          0.         -0.0819358  -0.02483351  0.37296438]
 [ 0.          0.37001479  0.          0.          0.         -0.04327696 -0.02422642 -0.92770105]
 [ 0.         -0.01243701  0.          0.          0.          0.20622049 -0.97836502  0.01096885]
 [ 0.         -0.0967832   0.          0.          0.         -0.97410818 -0.20395652  0.01216595]]
dm(NO)
[[ 1.  0.  0. -0.  0.  0.  0.  0.]
 [ 0.  1.  0.  0.  0. -0.  0.  0.]
 [ 0.  0.  0. -0. -0.  0.  0.  0.]
 [-0.  0.  0.  0. -0.  0.  0.  0.]
 [-0.  0.  0. -0.  0.  0.  0.  0.]
 [ 0. -0.  0.  0.  0.  0.  0. -0.]
 [ 0.  0.  0.  0.  0.  0.  0. -0.]
 [ 0. -0.  0.  0.  0.  0. -0. -0.]]
D(g) (NO)
[[ 0.99951369  0.02206038  0.         -0.         -0.         -0.00488106 -0.00067203  0.02148153]
[...]
       [-0.00702454,  0.53209589, -0.03502276,  0.91690768]]))
E(UHF) =    -1.567032
NO eigenvalue
[-1. -0. -0.  0.] [-1. -0.  0.  0.]
NO vec
[[ 0.92451828  0.         -0.25594583 -0.00215291 -0.28240581  0.          0.          0.        ]
 [-0.37080527  0.         -0.77535252 -0.00761909 -0.51114955  0.          0.          0.        ]
 [-0.01189208  0.          0.06605877  0.99205926 -0.10636373  0.          0.          0.        ]
 [ 0.08733828  0.         -0.57354724  0.12552187  0.80477317  0.          0.          0.        ]
 [ 0.          0.92451828  0.          0.          0.          0.12910756  0.00786557 -0.35851822]
 [ 0.          0.37080527  0.          0.          0.         -0.51997038  0.01671469  0.76932105]
 [ 0.         -0.01189208  0.          0.          0.          0.02296881  0.99966534 -0.00046319]
 [ 0.         -0.08733828  0.          0.          0.         -0.84405834  0.01810952 -0.52878123]]
dm(NO)
[[ 1.  0. -0.  0. -0.  0.  0.  0.]
 [ 0.  1.  0.  0.  0.  0.  0. -0.]
 [-0.  0. -0.  0. -0.  0.  0.  0.]
 [-0.  0.  0. -0. -0.  0.  0.  0.]
 [-0.  0. -0. -0. -0.  0.  0.  0.]
 [ 0.  0.  0.  0.  0.  0. -0.  0.]
 [ 0.  0.  0.  0.  0. -0.  0. -0.]
 [ 0. -0.  0.  0.  0.  0.  0.  0.]]
D(g) (NO)
[[ 0.99951369  0.02213232 -0.         -0.         -0.          0.00742717 -0.0002879  -0.02067143]
 [-0.02213232  0.99951369  0.01480655  0.00085991  0.01620432 -0.          0.          0.        ]
 [-0.         -0.01480655  0.99951369  0.          0.          0.02668474  0.00126844 -0.0062829 ]
 [-0.         -0.00085991  0.          0.99951369 -0.         -0.00247837  0.03099163 -0.00224278]
 [-0.         -0.01620432  0.         -0.          0.99951369 -0.01410718 -0.00319687 -0.02237365]
 [-0.00742717 -0.         -0.02668474  0.00247837  0.01410718  0.99951369 -0.         -0.        ]
 [ 0.0002879   0.         -0.00126844 -0.03099163  0.00319687 -0.          0.99951369 -0.        ]
 [ 0.02067143  0.          0.0062829   0.00224278  0.02237365 -0.         -0.          0.99951369]]
...
N(g) (NO)
[[ 0.99999624 -0.022143  ]
 [ 0.022143    0.99999624]]
...
P(g) (NO)
[[ 1.         -0.         -0.          0.         -0.         -0.         -0.          0.        ]
 [-0.          1.          0.         -0.          0.          0.          0.         -0.        ]
 [-0.00032786 -0.0148065   0.         -0.          0.         -0.         -0.          0.        ]
 [-0.00001904 -0.00085991  0.         -0.          0.         -0.         -0.          0.        ]
 [-0.00035881 -0.01620426  0.         -0.          0.         -0.         -0.          0.        ]
 [-0.00742714  0.00016446  0.         -0.          0.          0.          0.         -0.        ]
 [ 0.0002879  -0.00000637 -0.          0.         -0.         -0.         -0.          0.        ]
 [ 0.02067135 -0.00045773 -0.          0.         -0.         -0.         -0.          0.        ]]
...
Pg_ortho
[[ 0.85490536 -0.34288496 -0.01099665  0.08076202  0.00773608  0.00310278 -0.00009951 -0.00073082]
 [-0.34241153  0.13733422  0.00440444 -0.03234726  0.01827736  0.00733067 -0.0002351  -0.00172664]
 [-0.01099665  0.00441053  0.00014145 -0.00103884 -0.00009951 -0.00003991  0.00000128  0.0000094 ]
 [ 0.08065051 -0.03234726 -0.00103741  0.00761897 -0.00430499 -0.00172664  0.00005538  0.00040669]
 [-0.00773608  0.00310278  0.00009951 -0.00073082  0.85490536  0.34288496 -0.01099665 -0.08076202]
 [ 0.01827736 -0.00733067 -0.0002351   0.00172664  0.34241153  0.13733422 -0.00440444 -0.03234726]
 [ 0.00009951 -0.00003991 -0.00000128  0.0000094  -0.01099665 -0.00441053  0.00014145  0.00103884]
 [-0.00430499  0.00172664  0.00005538 -0.00040669 -0.08065051 -0.03234726  0.00103741  0.00761897]]
G(g) (NO)
[[ 0.49499341 -0.00188762 -0.03820802  0.09295958 -0.08645553  0.00131984 -0.00052017 -0.00144289]
 [ 0.00188762  0.49499341  0.00181354  0.0004551   0.00077358  0.014293    0.09855733 -0.08751033]
 [-0.03804774  0.01207683  1.17576658 -0.13122992  0.12454929 -0.00248136  0.0037618   0.00077403]
 [ 0.09295345 -0.002285   -0.13125304  0.96232217 -0.08920348  0.00191289 -0.0015833  -0.0007375 ]
 [-0.0863351   0.00894025  0.12456826 -0.08919694  0.77821183 -0.0012722   0.00145309  0.00105074]
 [ 0.00803168  0.01419008  0.00230491  0.00285223 -0.00074427  1.05264034  0.09405304 -0.23645881]
 [ 0.00223037  0.09855146  0.00209792  0.00121991 -0.00012337  0.09407317  0.9565745  -0.10020039]
 [-0.01270892 -0.08733828 -0.00252514 -0.00248283 -0.00006419 -0.23647435 -0.10018336  0.90708575]]
...
C(NO)
[[-1.02302869  0.         -0.43472273 -0.12703425  0.0519724   0.          0.          0.        ]
 [ 0.         -1.02302869  0.          0.          0.         -0.43472273 -0.12703425  0.0519724 ]
 [ 0.01994388  0.          0.38238843 -0.57323801  0.74493282  0.          0.          0.        ]
 [ 0.05211106  0.          0.19740247 -0.73686458 -0.64231709  0.          0.          0.        ]
 [-0.05205065  0.          0.61836724  0.25866389 -0.03660057  0.          0.          0.        ]
 [ 0.         -0.0313344   0.          0.          0.         -0.09512739  0.53184522 -0.77811565]
 [ 0.          0.0592737   0.          0.          0.          0.15789936 -0.80889648 -0.56633578]
 [ 0.         -0.03643315  0.          0.          0.          0.7304692  -0.03613007  0.20648382]]
detC 1.0465876988007081
detNg [1.00048279 1.01270839 1.07041272 1.21597861 1.46764531 1.75584199 1.93687591 1.98322598]
xg [0.91251314 0.90149711 0.85289877 0.75079749 0.62205335 0.51995208 0.47135373 0.4603377 ]
ciS 1.372850843325932
[[-1.03099159  0.          0.15560623 -0.10877155  0.09264609  0.          0.          0.        ]
 [ 0.         -1.03099159  0.          0.          0.         -0.12180747 -0.10465653  0.13725086]
 [ 0.15560623  0.         -0.01500648 -0.01196094 -0.45318386  0.          0.          0.        ]
 [-0.10877155  0.         -0.01196094  0.11358768  0.00215454  0.          0.          0.        ]
 [ 0.09264609  0.         -0.45318386  0.00215454 -0.42766013  0.          0.          0.        ]
 [ 0.         -0.12180747  0.          0.          0.          0.24396661 -0.01747457  0.17722836]
 [ 0.         -0.10465653  0.          0.          0.         -0.01747457  0.11201694  0.03360483]
 [ 0.          0.13725086  0.          0.          0.          0.17722836  0.03360483 -0.68506248]]
ciH -2.2644556235993942
S2 = -0.000000
X(g)
[[ 2.         -0.         -0.00032786 -0.00001904 -0.00035881  0.00742714 -0.0002879  -0.02067135]
 [-0.          2.          0.0148065   0.00085991  0.01620426  0.00016446 -0.00000637 -0.00045773]
 [-0.00032786 -0.0148065   0.          0.          0.          0.          0.          0.        ]
 [-0.00001904 -0.00085991  0.          0.          0.          0.          0.          0.        ]
 [-0.00035881 -0.01620426  0.          0.          0.          0.          0.          0.        ]
 [-0.00742714  0.00016446  0.          0.          0.          0.          0.          0.        ]
 [ 0.0002879  -0.00000637  0.          0.          0.          0.          0.          0.        ]
 [ 0.02067135 -0.00045773  0.          0.          0.          0.          0.          0.        ]]
X(g) int
[[ 2.         -0.         -0.22411161 -0.01301561 -0.24526828  0.12439917 -0.00482207 -0.34623007]
 [-0.          2.          0.24799804  0.01440285  0.27140965  0.11241741 -0.00435762 -0.31288223]
 [-0.22411161 -0.24799804  0.          0.          0.          0.          0.          0.        ]
 [-0.01301561 -0.01440285  0.          0.          0.          0.          0.          0.        ]
 [-0.24526828 -0.27140965  0.          0.          0.          0.          0.          0.        ]
 [-0.12439917  0.11241741  0.          0.          0.          0.          0.          0.        ]
 [ 0.00482207 -0.00435762  0.          0.          0.          0.          0.          0.        ]
 [ 0.34623007 -0.31288223  0.          0.          0.          0.          0.          0.        ]]
Hsp + Hph =  -1.6494549532514537
Feff (mod,ortho)
[[-0.40192747  0.34901763  0.05244675  0.06932362  0.          0.          0.          0.        ]
 [ 0.34901763  0.45293525  0.08744168  0.51643531  0.          0.          0.          0.        ]
 [ 0.05244675  0.08744168  1.07206755  0.03500805  0.          0.          0.          0.        ]
 [ 0.06932362  0.51643531  0.03500805  0.92815442  0.          0.          0.          0.        ]
 [ 0.          0.          0.          0.         -0.40192747 -0.34901763  0.05244675 -0.06932362]
 [ 0.          0.          0.          0.         -0.34901763  0.45293525 -0.08744168  0.51643531]
 [ 0.          0.          0.          0.          0.05244675 -0.08744168  1.07206755 -0.03500805]
 [ 0.          0.          0.          0.         -0.06932362  0.51643531 -0.03500805  0.92815442]]
E(SUHF) =     -1.12027774
e_a, e_b
[-0.53603998  0.21423019  1.04778031  1.32525923] [-0.53603998  0.21423019  1.04778031  1.32525923]
P_a, P_b
[[ 0.85473967 -0.34281896 -0.01099252  0.08070991]
 [-0.34281896  0.13749782  0.00440888 -0.03237113]
 [-0.01099252  0.00440888  0.00014137 -0.00103798]
 [ 0.08070991 -0.03237113 -0.00103798  0.00762114]] 
 [[ 0.85473967  0.34281896 -0.01099252 -0.08070991]
 [ 0.34281896  0.13749782 -0.00440888 -0.03237113]
 [-0.01099252 -0.00440888  0.00014137  0.00103798]
 [-0.08070991 -0.03237113  0.00103798  0.00762114]]
**** Start Cycle 28 ****
dm (ortho)
[array([[ 0.85473967, -0.34281896, -0.01099252,  0.08070991],
       [-0.34281896,  0.13749782,  0.00440888, -0.03237113],
       [-0.01099252,  0.00440888,  0.00014137, -0.00103798],
       [ 0.08070991, -0.03237113, -0.00103798,  0.00762114]]), array([[ 0.85473967,  0.34281896, -0.01099252, -0.08070991],
       [ 0.34281896,  0.13749782, -0.00440888, -0.03237113],
       [-0.01099252, -0.00440888,  0.00014137,  0.00103798],
       [-0.08070991, -0.03237113,  0.00103798,  0.00762114]])]
Fock (ortho)
 (array([[-0.46062837,  0.27384701,  0.04487651,  0.00704103],
       [ 0.27384701,  0.52268959,  0.09175674,  0.53209335],
       [ 0.04487651,  0.09175674,  1.07227784,  0.03502511],
       [ 0.00704103,  0.53209335,  0.03502511,  0.91691223]]), array([[-0.46062837, -0.27384701,  0.04487651, -0.00704103],
       [-0.27384701,  0.52268959, -0.09175674,  0.53209335],
       [ 0.04487651, -0.09175674,  1.07227784, -0.03502511],
       [-0.00704103,  0.53209335, -0.03502511,  0.91691223]]))
E(UHF) =    -1.567021
NO eigenvalue
[-1. -0. -0.  0.] [-1. -0. -0.  0.]
NO vec
[[ 0.92452132  0.          0.37849177  0.04449307  0.00496755  0.          0.          0.        ]
 [-0.37080698  0.          0.92040446 -0.12279769 -0.01668928  0.          0.          0.        ]
 [-0.01188996  0.          0.01471145  0.01029291  0.9997681   0.          0.          0.        ]
 [ 0.08729913  0.         -0.09686681 -0.99138043  0.01267017  0.          0.          0.        ]
 [ 0.          0.92452132  0.          0.          0.         -0.38061807  0.01936185 -0.00391553]
 [ 0.          0.37080698  0.          0.          0.          0.90961566  0.1832987   0.03877006]
 [ 0.         -0.01188996  0.          0.          0.         -0.00584582  0.25742802 -0.96620664]
 [ 0.         -0.08729913  0.          0.          0.         -0.16641833  0.94855549  0.25480636]]
dm(NO)
[[ 1.  0. -0.  0.  0.  0.  0.  0.]
 [ 0.  1.  0.  0.  0.  0.  0.  0.]
 [-0.  0.  0. -0. -0.  0.  0.  0.]
 [ 0.  0.  0.  0.  0.  0.  0.  0.]
 [ 0.  0. -0. -0. -0.  0.  0.  0.]
 [ 0.  0.  0.  0.  0.  0.  0.  0.]
 [ 0.  0.  0.  0.  0.  0.  0.  0.]
 [ 0.  0.  0.  0.  0. -0.  0.  0.]]
D(g) (NO)
[[ 0.99951369  0.02213267  0.          0.          0.         -0.02194176  0.0009255   0.00049071]
 [-0.02213267  0.99951369 -0.02181259 -0.0025578   0.00045494  0.          0.          0.        ]
 [ 0.          0.02181259  0.99951369 -0.         -0.          0.02211476  0.00274228 -0.00014639]
 [ 0.          0.0025578  -0.          0.99951369  0.          0.00113164 -0.02991646 -0.00834121]
 [ 0.         -0.00045494 -0.          0.          0.99951369 -0.00078035  0.00830795 -0.03004256]
 [ 0.02194176  0.         -0.02211476 -0.00113164  0.00078035  0.99951369  0.          0.        ]
 [-0.0009255   0.         -0.00274228  0.02991646 -0.00830795 -0.          0.99951369  0.        ]
 [-0.00049071  0.          0.00014639  0.00834121  0.03004256  0.          0.          0.99951369]]
...
N(g) (NO)
[[ 0.99999622 -0.02214335]
 [ 0.02214335  0.99999622]]
...
P(g) (NO)
[[ 1.          0.         -0.          0.          0.          0.          0.          0.        ]
 [ 0.          1.         -0.          0.          0.          0.          0.          0.        ]
 [ 0.000483    0.0218125  -0.          0.          0.          0.          0.          0.        ]
 [ 0.00005664  0.00255779 -0.          0.          0.          0.          0.          0.        ]
 [-0.00001007 -0.00045494  0.         -0.         -0.         -0.         -0.         -0.        ]
 [ 0.02194168 -0.00048586 -0.          0.          0.         -0.         -0.         -0.        ]
 [-0.00092549  0.00002049  0.         -0.         -0.          0.          0.          0.        ]
 [-0.00049071  0.00001087  0.         -0.         -0.          0.          0.          0.        ]]
...
Pg_ortho
[[ 0.85491097 -0.34288766 -0.01099472  0.08072608  0.00773584  0.00310269 -0.00009949 -0.00073047]
 [-0.34241423  0.13733549  0.00440367 -0.03233291  0.01827763  0.00733079 -0.00023506 -0.00172589]
 [-0.01099472  0.00440976  0.0001414  -0.00103819 -0.00009949 -0.0000399   0.00000128  0.00000939]
 [ 0.08061462 -0.03233291 -0.00103676  0.00761214 -0.0043031  -0.00172589  0.00005534  0.00040633]
 [-0.00773584  0.00310269  0.00009949 -0.00073047  0.85491097  0.34288766 -0.01099472 -0.08072608]
 [ 0.01827763 -0.00733079 -0.00023506  0.00172589  0.34241423  0.13733549 -0.00440367 -0.03233291]
 [ 0.00009949 -0.0000399  -0.00000128  0.00000939 -0.01099472 -0.00440976  0.0001414   0.00103819]
 [-0.0043031   0.00172589  0.00005534 -0.00040633 -0.08061462 -0.03233291  0.00103676  0.00761214]]
G(g) (NO)
[[ 0.49499979 -0.0018875   0.08509515  0.02923293  0.09736152 -0.0018393  -0.00078538  0.00030797]
 [ 0.0018875   0.49499979 -0.00187805  0.00055357  0.00051104 -0.08600513  0.04685393 -0.08934675]
 [ 0.08489523 -0.01496631  1.12591395 -0.19655337  0.13702513 -0.00221582 -0.00297663  0.00306913]
 [ 0.02924816  0.0014538  -0.19653705  0.83262959 -0.0349212   0.00016058  0.00128819 -0.00123903]
 [ 0.097356   -0.00221555  0.13704886 -0.03493156  0.95777217 -0.0014204  -0.00174767  0.00098614]
 [-0.01480527 -0.08580683  0.00228878 -0.00187908 -0.00360383  1.09432803  0.17431891  0.18465071]
 [-0.00183781  0.04688041 -0.00001675 -0.00069072 -0.00136729  0.17429751  0.84533521  0.01701023]
 [-0.00290497 -0.08933229  0.00157243 -0.00158468 -0.0018349   0.18466891  0.01702238  0.97665247]]
...
C(NO)
[[-1.02302672  0.         -0.43473404 -0.12705366  0.0519926   0.          0.          0.        ]
 [ 0.         -1.02302672  0.          0.          0.         -0.43473404 -0.12705366  0.0519926 ]
 [ 0.01887586  0.         -0.69556564  0.26627509 -0.53416081  0.          0.          0.        ]
 [ 0.04612854  0.         -0.23561465 -0.48449753  0.58675443  0.          0.          0.        ]
 [ 0.05781414  0.          0.1680209  -0.79550803 -0.58243036  0.          0.          0.        ]
 [ 0.         -0.02151788  0.          0.          0.          0.71197823 -0.23915433  0.48601367]
 [ 0.          0.05770537  0.          0.          0.         -0.14023813 -0.68340287  0.45740165]
 [ 0.         -0.04509641  0.          0.          0.         -0.20242804  0.64361404  0.72346948]]
detC 1.046583673749527
detNg [1.00048277 1.01270798 1.07041032 1.21597025 1.46762346 1.75579973 1.93681812 1.98316389]
xg [0.91252017 0.90150441 0.85290724 0.75080843 0.6220674  0.51996859 0.47137142 0.46035566]
ciS 1.3728758300034094
[[-1.03098965  0.         -0.17760363  0.04464163 -0.10535182  0.          0.          0.        ]
 [ 0.         -1.03098965  0.          0.          0.          0.17301237  0.02863148  0.11782143]
 [-0.17760363  0.         -0.64203342 -0.26509198 -0.02670229  0.          0.          0.        ]
 [ 0.04464163  0.         -0.26509198  0.20066317 -0.00098283  0.          0.          0.        ]
 [-0.10535182  0.         -0.02670229 -0.00098283  0.11228938  0.          0.          0.        ]
 [ 0.          0.17301237  0.          0.          0.         -0.67445955  0.20551513  0.0173973 ]
 [ 0.          0.02863148  0.          0.          0.          0.20551513  0.22563482  0.03027686]
 [ 0.          0.11782143  0.          0.          0.          0.0173973   0.03027686  0.11974386]]
ciH -2.2644968494726294
S2 = 0.000000
X(g)
[[ 2.         -0.          0.000483    0.00005664 -0.00001007 -0.02194168  0.00092549  0.00049071]
 [ 0.          2.         -0.0218125  -0.00255779  0.00045494 -0.00048586  0.00002049  0.00001087]
 [ 0.000483    0.0218125   0.          0.          0.          0.          0.          0.        ]
 [ 0.00005664  0.00255779  0.          0.          0.          0.          0.          0.        ]
 [-0.00001007 -0.00045494  0.          0.          0.          0.          0.          0.        ]
 [ 0.02194168 -0.00048586  0.          0.          0.          0.          0.          0.        ]
 [-0.00092549  0.00002049  0.          0.          0.          0.          0.          0.        ]
 [-0.00049071  0.00001087  0.          0.          0.          0.          0.          0.        ]]
X(g) int
[[ 2.          0.          0.33015649  0.03871497 -0.00688597 -0.3675033   0.01550115  0.00821891]
 [-0.          2.         -0.36533975 -0.04284064  0.00761977 -0.33211169  0.01400835  0.0074274 ]
 [ 0.33015649  0.36533975  0.          0.          0.          0.          0.          0.        ]
 [ 0.03871497  0.04284064  0.          0.          0.          0.          0.          0.        ]
 [-0.00688597 -0.00761977  0.          0.          0.          0.          0.          0.        ]
 [ 0.3675033  -0.33211169  0.          0.          0.          0.          0.          0.        ]
 [-0.01550115  0.01400835  0.          0.          0.          0.          0.          0.        ]
 [-0.00821891  0.0074274   0.          0.          0.          0.          0.          0.        ]]
Hsp + Hph =  -1.6494549616093146
Feff (mod,ortho)
[[-0.40191456  0.34903341  0.05244812  0.06936839  0.          0.          0.          0.        ]
 [ 0.34903341  0.45293307  0.08745012  0.51641831  0.          0.          0.          0.        ]
 [ 0.05244812  0.08745012  1.07207338  0.0350098   0.          0.          0.          0.        ]
 [ 0.06936839  0.51641831  0.0350098   0.9281594   0.          0.          0.          0.        ]
 [ 0.          0.          0.          0.         -0.40191456 -0.34903341  0.05244812 -0.06936839]
 [ 0.          0.          0.          0.         -0.34903341  0.45293307 -0.08745012  0.51641831]
 [ 0.          0.          0.          0.          0.05244812 -0.08745012  1.07207338 -0.0350098 ]
 [ 0.          0.          0.          0.         -0.06936839  0.51641831 -0.0350098   0.9281594 ]]
E(SUHF) =     -1.12027775
e_a, e_b
[-0.53603165  0.21423607  1.0477818   1.32526507] [-0.53603165  0.21423607  1.0477818   1.32526507]
P_a, P_b
[[ 0.85474428 -0.34282117 -0.01099094  0.08068051]
 [-0.34282117  0.13749885  0.00440825 -0.03235937]
 [-0.01099094  0.00440825  0.00014133 -0.00103745]
 [ 0.08068051 -0.03235937 -0.00103745  0.00761555]] 
 [[ 0.85474428  0.34282117 -0.01099094 -0.08068051]
 [ 0.34282117  0.13749885 -0.00440825 -0.03235937]
 [-0.01099094 -0.00440825  0.00014133  0.00103745]
 [-0.08068051 -0.03235937  0.00103745  0.00761555]]

***************
SCF converged at cycle 27
Final E(SUHF) =     -1.12027775, delta E = -8.35786e-09
***** Start DFT Correlation for SUHF+DFT **********
tot grids = 20048
E(SUHF) =     -1.12027775
E_c(TPSS) =     -0.03215278
E(SUHF+DFT) =     -1.15243054
