

#INFO: **** input file is /share/home/srwang/ExSCF/test/pytest/scan_h2/scan_dft.py ****
#import phf
from pyscf import lib
#import scipy
import numpy as np
import sys, os, contextlib

from pyphf import util, sudft

#xyz = 'h2.xyz' #sys.argv[1]
fch = 'test_uhf.fchk' #sys.argv[2]
#bas = '../h2.bas'
bas = 'cc-pvtz'

lib.num_threads(4)

for r in np.arange(0.5, 1.4, 0.1):
    output = 'sudft_%.1f_diis.out' % r
    os.system("echo '\n' > %s" % output)
    with open(output, 'a', encoding='utf-8') as f:
        with contextlib.redirect_stdout(f):
            xyz = '''H 0.0 0.0 0.0; H 0.0 0.0 %f'''%r
            mf = util.guess_from_fchk(xyz, bas, fch)
            #mf = util.guess(xyz, bas)
            #f.flush()
            mf2 = util.SUHF(mf)
            #mf2.cut_no = False
            mf2.debug = False
            #mf2.max_cycle = 50
            mf2.diis_on = True
            #mf2.output = 'sudft_%.1f.out'%r
            #mf2.kernel()
            
            mf3 = sudft.SUDFT(mf2)
            mf3.kernel()
                    #INFO: ******************** input file end ********************


System: uname_result(system='Linux', node='xcluster', release='3.10.0-693.el7.x86_64', version='#1 SMP Thu Jul 6 19:56:57 EDT 2017', machine='x86_64', processor='x86_64')  Threads 4
Python 3.7.4 (default, Aug 13 2019, 20:35:49) 
[GCC 7.3.0]
numpy 1.17.2  scipy 1.4.1
Date: Sat Nov 21 21:25:04 2020
PySCF version 1.7.3
PySCF path  /share/apps/Python/Anaconda3-2019/lib/python3.7/site-packages/pyscf

[CONFIG] conf_file None
[INPUT] verbose = 4
[INPUT] num. atoms = 2
[INPUT] num. electrons = 2
[INPUT] charge = 0
[INPUT] spin (= nelec alpha-beta = 2S) = 0
[INPUT] symmetry False subgroup None
[INPUT] Mole.unit = angstrom
[INPUT]  1 H      0.000000000000   0.000000000000   0.000000000000 AA    0.000000000000   0.000000000000   0.000000000000 Bohr
[INPUT]  2 H      0.000000000000   0.000000000000   0.800000000000 AA    0.000000000000   0.000000000000   1.511780899652 Bohr

nuclear repulsion = 0.66147151365
number of shells = 12
number of NR pGTOs = 32
number of NR cGTOs = 28
basis = cc-pvtz
ecp = {}
CPU time:       138.16


******** <class 'pyscf.scf.uhf.UHF'> ********
method = UHF
initial guess = minao
damping factor = 0
level_shift factor = 0
DIIS = <class 'pyscf.scf.diis.CDIIS'>
diis_start_cycle = 1
diis_space = 8
SCF conv_tol = 1e-09
SCF conv_tol_grad = None
SCF max_cycles = 1
direct_scf = True
direct_scf_tol = 1e-13
chkfile to save SCF result = /share/home/srwang/ExSCF/test/pytest/scan_h2/tmpmqy5ntlv
max_memory 4000 MB (current use 135 MB)
number electrons alpha = 1  beta = 1
Set gradient conv threshold to 3.16228e-05
init E= -0.802721635191718
  alpha nocc = 1  HOMO = -0.523947320965203  LUMO = 0.125076878515369
  beta  nocc = 1  HOMO = -0.526116956459053  LUMO = 0.125241527721242
cycle= 1 E= -1.12937688501243  delta_E= -0.327  |g|= 0.0313  |ddm|= 0.328
SCF not converged.
SCF energy = -1.12937688501243 after 1 cycles  <S^2> = 5.3908113e-06  2S+1 = 1.0000108


******** <class 'pyscf.scf.uhf.UHF'> ********
method = UHF
initial guess = minao
damping factor = 0
level_shift factor = 0
DIIS = <class 'pyscf.scf.diis.CDIIS'>
diis_start_cycle = 1
diis_space = 8
SCF conv_tol = 1e-09
SCF conv_tol_grad = None
SCF max_cycles = 1
direct_scf = True
direct_scf_tol = 1e-13
chkfile to save SCF result = /share/home/srwang/ExSCF/test/pytest/scan_h2/tmpmqy5ntlv
max_memory 4000 MB (current use 135 MB)
number electrons alpha = 1  beta = 1
Set gradient conv threshold to 3.16228e-05
init E= -1.22127247007631
  alpha nocc = 1  HOMO = -0.541299377692538  LUMO = 0.225393706315368
  beta  nocc = 1  HOMO = -0.541299377692538  LUMO = 0.225393706315372
cycle= 1 E= -1.11229990924483  delta_E= 0.109  |g|= 0.0849  |ddm|= 0.149
SCF not converged.
SCF energy = -1.11229990924483 after 1 cycles  <S^2> = 0.12296701  2S+1 = 1.2214205

******** <class 'pyphf.util.SUHF'> ********
SVD: S^(-1/2)
[[ -0.15360926   0.           0.          -0.24306679   0.06831308   0.          -0.           0.          -0.           0.           0.          -0.11666606
    0.2598579    0.          -0.          -0.40665351   0.           0.          -0.72268618  -0.          -0.           0.25210772   0.          -0.
   -1.3235948    1.2141892   -0.17907586   0.39963724]
 [ -0.21136706  -0.          -0.          -0.17015041  -0.08521969  -0.           0.          -0.          -0.           0.           0.           0.04939438
   -0.01156612  -0.          -0.          -0.14806292  -0.          -0.           0.30430254  -0.           0.           0.84404484  -0.           0.
    1.28748673  -0.09165801   0.28651011  13.19985569]
 [ -0.19246069  -0.          -0.          -0.06121896  -0.22500816  -0.          -0.           0.           0.          -0.          -0.           0.04064482
   -0.14507916   0.           0.           0.43693208  -0.          -0.           0.33582074   0.          -0.          -0.64083762  -0.          -0.
   -0.60882865   0.29390979  -3.19855732  -0.69141426]
 [  0.           0.16692358  -0.1955172    0.           0.          -0.09144158  -0.4207653    0.           0.           0.07466564   0.00197548  -0.
   -0.           0.           0.           0.           0.61848888  -0.57701294  -0.           0.17381815   0.94922727   0.           0.01175971  -0.02388823
   -0.          -0.           0.           0.        ]
 [  0.          -0.1955172   -0.16692358   0.           0.           0.4207653   -0.09144158   0.          -0.          -0.00197548   0.07466564   0.
    0.           0.          -0.           0.          -0.57701294  -0.61848888  -0.          -0.94922727   0.17381815  -0.          -0.02388823  -0.01175971
    0.          -0.           0.          -0.        ]
 [ -0.07201318   0.           0.           0.1610462    0.38786375   0.           0.          -0.          -0.          -0.           0.          -0.24452702
   -0.09979651  -0.          -0.           0.43791915  -0.           0.           0.54106408  -0.          -0.           0.60950659   0.           0.
   -0.21638001   1.508318     0.58827572   0.71979529]
 [  0.           0.19911272  -0.23322026   0.           0.          -0.05350114  -0.24618366   0.           0.           0.27315223   0.00722699   0.
    0.           0.          -0.           0.          -0.44278881   0.41309535   0.          -0.10383275  -0.56703448   0.           0.70755855  -1.43730813
    0.          -0.           0.           0.        ]
 [  0.          -0.23322026  -0.19911272   0.           0.           0.24618366  -0.05350114  -0.          -0.          -0.00722699   0.27315223   0.
   -0.          -0.           0.          -0.           0.41309535   0.44278881   0.           0.56703448  -0.10383275   0.          -1.43730813  -0.70755855
   -0.          -0.          -0.           0.        ]
 [ -0.09298625   0.           0.           0.30849241   0.22556658   0.           0.           0.          -0.           0.          -0.          -0.15804524
   -0.2072546   -0.          -0.          -0.32247949   0.          -0.          -0.56590392   0.           0.          -1.2683378   -0.          -0.
    0.47707541  -0.17232843  -0.98585847   6.60993025]
 [  0.          -0.           0.           0.           0.           0.           0.           0.62045269  -0.00000005   0.           0.           0.
    0.           0.8433663    0.04275711   0.           0.           0.           0.           0.           0.           0.           0.          -0.
    0.           0.           0.           0.        ]
 [  0.          -0.13598728  -0.11609968   0.           0.          -0.34543003   0.07506956  -0.           0.           0.01523468  -0.57581157  -0.
    0.           0.          -0.           0.           0.12114184   0.12984957   0.          -0.75212704   0.13772606   0.          -1.05344957  -0.51859253
   -0.          -0.          -0.          -0.        ]
 [ -0.03085365   0.           0.           0.12652164   0.06217903  -0.          -0.          -0.          -0.          -0.           0.           0.55856821
    0.54802741  -0.          -0.           0.26315619   0.          -0.          -0.12554742  -0.           0.          -0.64004874  -0.          -0.
    0.63462437   0.85186546   0.14859384   1.15188304]
 [  0.           0.11609968  -0.13598728   0.           0.           0.07506956   0.34543003  -0.          -0.          -0.57581157  -0.01523468   0.
    0.          -0.           0.          -0.          -0.12984957   0.12114184   0.           0.13772606   0.75212704   0.           0.51859253  -1.05344957
    0.          -0.          -0.           0.        ]
 [  0.          -0.           0.           0.           0.           0.           0.           0.00000005   0.62045269  -0.          -0.           0.
    0.           0.04275711  -0.8433663    0.           0.          -0.           0.           0.           0.           0.          -0.           0.
    0.           0.           0.           0.        ]
 [ -0.15360926  -0.          -0.           0.24306679   0.06831308   0.          -0.           0.           0.           0.          -0.           0.11666606
    0.2598579    0.           0.          -0.40665351  -0.          -0.           0.72268618   0.          -0.           0.25210772   0.           0.
   -1.3235948   -1.2141892    0.17907586  -0.39963724]
 [ -0.21136706  -0.          -0.           0.17015041  -0.08521969  -0.          -0.           0.           0.           0.           0.          -0.04939438
   -0.01156612   0.           0.          -0.14806292   0.           0.          -0.30430254  -0.          -0.           0.84404484  -0.           0.
    1.28748673   0.09165801  -0.28651011 -13.19985569]
 [ -0.19246069  -0.          -0.           0.06121896  -0.22500816   0.           0.          -0.          -0.          -0.          -0.          -0.04064482
   -0.14507916  -0.          -0.           0.43693208   0.           0.          -0.33582074   0.           0.          -0.64083762  -0.          -0.
   -0.60882865  -0.29390979   3.19855732   0.69141426]
 [ -0.           0.16692358  -0.1955172    0.           0.           0.09144158   0.4207653   -0.          -0.           0.07466564   0.00197548   0.
    0.           0.          -0.           0.           0.61848888  -0.57701294   0.          -0.17381815  -0.94922727  -0.          -0.01175971   0.02388823
    0.           0.           0.          -0.        ]
 [  0.          -0.1955172   -0.16692358   0.           0.          -0.4207653    0.09144158  -0.           0.          -0.00197548   0.07466564  -0.
   -0.          -0.           0.          -0.          -0.57701294  -0.61848888  -0.           0.94922727  -0.17381815   0.           0.02388823   0.01175971
    0.           0.           0.           0.        ]
 [  0.07201318  -0.          -0.           0.1610462   -0.38786375   0.           0.          -0.          -0.           0.           0.          -0.24452702
    0.09979651  -0.          -0.          -0.43791915  -0.          -0.           0.54106408  -0.           0.          -0.60950659  -0.          -0.
    0.21638001   1.508318     0.58827572   0.71979529]
 [ -0.           0.19911272  -0.23322026   0.           0.           0.05350114   0.24618366  -0.          -0.           0.27315223   0.00722699  -0.
    0.           0.           0.           0.          -0.44278881   0.41309535  -0.           0.10383275   0.56703448  -0.          -0.70755855   1.43730813
   -0.           0.           0.          -0.        ]
 [  0.          -0.23322026  -0.19911272   0.           0.          -0.24618366   0.05350114  -0.           0.          -0.00722699   0.27315223  -0.
   -0.           0.          -0.           0.           0.41309535   0.44278881   0.          -0.56703448   0.10383275  -0.           1.43730813   0.70755855
    0.           0.           0.          -0.        ]
 [  0.09298625  -0.          -0.           0.30849241  -0.22556658  -0.           0.           0.          -0.          -0.          -0.          -0.15804524
    0.2072546    0.          -0.           0.32247949  -0.           0.          -0.56590392  -0.          -0.           1.2683378    0.           0.
   -0.47707541  -0.17232843  -0.98585847   6.60993025]
 [ -0.           0.          -0.           0.           0.           0.           0.           0.62045269  -0.00000005   0.           0.          -0.
   -0.          -0.8433663   -0.04275711  -0.          -0.           0.          -0.          -0.           0.          -0.          -0.           0.
   -0.          -0.          -0.          -0.        ]
 [ -0.           0.13598728   0.11609968  -0.          -0.          -0.34543003   0.07506956  -0.           0.          -0.01523468   0.57581157  -0.
   -0.           0.          -0.          -0.          -0.12114184  -0.12984957   0.          -0.75212704   0.13772606   0.          -1.05344957  -0.51859253
   -0.          -0.          -0.          -0.        ]
 [ -0.03085365  -0.           0.          -0.12652164   0.06217903   0.           0.           0.           0.          -0.          -0.          -0.55856821
    0.54802741   0.           0.           0.26315619  -0.           0.           0.12554742   0.           0.          -0.64004874  -0.          -0.
    0.63462437  -0.85186546  -0.14859384  -1.15188304]
 [  0.          -0.11609968   0.13598728  -0.          -0.           0.07506956   0.34543003  -0.          -0.           0.57581157   0.01523468   0.
    0.           0.           0.           0.           0.12984957  -0.12114184   0.           0.13772606   0.75212704   0.           0.51859253  -1.05344957
    0.          -0.          -0.           0.        ]
 [  0.          -0.           0.           0.           0.           0.           0.           0.00000005   0.62045269  -0.          -0.           0.
    0.          -0.04275711   0.8433663    0.           0.          -0.          -0.          -0.          -0.          -0.           0.          -0.
   -0.          -0.          -0.          -0.        ]]
C (ortho)
[[-0.96901072 -0.13887427  0.01795418  0.11231705  0.         -0.         -0.12619299 -0.          0.          0.00738134 -0.00994845  0.04273375 -0.
  -0.          0.          0.          0.09389026  0.          0.          0.         -0.         -0.          0.         -0.00151301  0.          0.
   0.04545111  0.00263114]
 [ 0.         -0.          0.         -0.          0.38461211 -0.75146716  0.          0.01618353 -0.04300451 -0.          0.          0.         -0.
   0.         -0.39513502  0.35789907 -0.         -0.00990859  0.00027811  0.          0.         -0.01567351  0.02583932  0.          0.00377343 -0.00317599
   0.         -0.        ]
 [-0.          0.         -0.          0.         -0.75146716 -0.38461211 -0.         -0.04300451 -0.01618353  0.          0.          0.         -0.
  -0.         -0.35789907 -0.39513502 -0.         -0.00027811 -0.00990859  0.         -0.         -0.02583932 -0.01567351  0.          0.00317599  0.00377343
   0.         -0.        ]
 [-0.1724464   0.60438313  0.02548595 -0.74124498 -0.         -0.         -0.0349849   0.         -0.         -0.02413845  0.20777271 -0.08488197  0.
  -0.         -0.         -0.          0.00897112 -0.          0.         -0.          0.          0.         -0.          0.01163831  0.         -0.
   0.00285051  0.0498448 ]
 [-0.15593509 -0.04538447 -0.4772212  -0.04516418 -0.          0.          0.61240596  0.         -0.         -0.01433738 -0.07433455 -0.24727043  0.
  -0.         -0.          0.         -0.52709812 -0.         -0.         -0.         -0.          0.          0.          0.01212068 -0.         -0.
  -0.15470018 -0.00426888]
 [-0.         -0.         -0.          0.          0.00084378  0.04300039 -0.         -0.09477948 -0.70979288  0.          0.          0.          0.
   0.          0.01293797 -0.00321164  0.         -0.61198277 -0.30673123 -0.          0.         -0.09754145  0.05752929 -0.          0.05995073 -0.01258786
  -0.          0.        ]
 [-0.          0.          0.          0.         -0.04300039  0.00084378 -0.          0.70979288 -0.09477948  0.         -0.          0.          0.
   0.         -0.00321164 -0.01293797 -0.         -0.30673123  0.61198277  0.          0.          0.05752929  0.09754145 -0.         -0.01258786 -0.05995073
   0.          0.        ]
 [-0.         -0.          0.          0.          0.         -0.         -0.         -0.          0.         -0.          0.          0.          0.99942602
   0.02923635 -0.         -0.          0.          0.         -0.          0.01711313 -0.0000715   0.         -0.         -0.          0.          0.
   0.         -0.        ]
 [-0.          0.          0.         -0.          0.          0.          0.         -0.          0.          0.         -0.         -0.         -0.02923635
   0.99942602 -0.         -0.          0.          0.         -0.          0.0000715   0.01711313  0.         -0.          0.         -0.          0.
   0.          0.        ]
 [ 0.         -0.         -0.         -0.          0.37872042 -0.10077462  0.          0.01840652 -0.00720689 -0.         -0.          0.          0.
  -0.         -0.00188266 -0.65608017  0.          0.07356084 -0.08644291  0.          0.          0.18293791  0.6076336   0.         -0.00011303  0.00337466
   0.         -0.        ]
 [-0.         -0.         -0.         -0.          0.10077462  0.37872042 -0.          0.00720689  0.01840652 -0.          0.          0.         -0.
  -0.         -0.65608017  0.00188266  0.         -0.08644291 -0.07356084  0.         -0.          0.6076336  -0.18293791  0.          0.00337466  0.00011303
  -0.          0.        ]
 [ 0.01406092 -0.17977399  0.01959062  0.00584652  0.         -0.         -0.01363081  0.         -0.         -0.50310533  0.42886941 -0.1522283  -0.
  -0.          0.         -0.          0.01757346 -0.          0.          0.         -0.         -0.          0.          0.69332257  0.         -0.
   0.00520129 -0.16009484]
 [ 0.03064229 -0.02880024 -0.30086021 -0.00773241  0.         -0.         -0.47323472  0.          0.          0.00827799 -0.22940076 -0.65593944  0.
  -0.         -0.         -0.          0.17711474 -0.          0.         -0.         -0.         -0.          0.         -0.00671937 -0.         -0.
  -0.41150528 -0.00163617]
 [ 0.         -0.          0.          0.          0.         -0.         -0.          0.          0.         -0.          0.          0.          0.01705868
   0.00136589 -0.         -0.          0.          0.          0.         -0.99877386 -0.04645328  0.         -0.         -0.          0.          0.
   0.         -0.        ]
 [-0.         -0.          0.          0.         -0.          0.         -0.         -0.         -0.         -0.          0.          0.          0.00136589
  -0.01705868  0.          0.          0.          0.         -0.         -0.04645328  0.99877386 -0.         -0.          0.         -0.          0.
   0.         -0.        ]
 [-0.04770694  0.04095542  0.66341354  0.06560373  0.         -0.         -0.14381131 -0.          0.          0.0052293  -0.03720547 -0.09397457  0.
   0.         -0.         -0.         -0.5923765  -0.         -0.          0.         -0.          0.          0.          0.01337989 -0.         -0.
  -0.41183666 -0.00156296]
 [-0.          0.         -0.          0.         -0.20007806  0.30112054 -0.         -0.01092887  0.02133832 -0.          0.          0.         -0.
   0.         -0.35250587  0.40078267 -0.          0.11146754 -0.01587522 -0.          0.         -0.31630415  0.68636305 -0.          0.00254452 -0.00268927
   0.         -0.        ]
 [-0.          0.         -0.         -0.          0.30112054  0.20007806  0.          0.02133832  0.01092887  0.         -0.          0.          0.
  -0.         -0.40078267 -0.35250587 -0.          0.01587522  0.11146754 -0.         -0.         -0.68636305 -0.31630415 -0.          0.00268927  0.00254452
   0.         -0.        ]
 [ 0.03050605 -0.45584459  0.05771451 -0.17207247 -0.         -0.          0.00061998  0.          0.          0.03476008  0.64976254 -0.22708518 -0.
  -0.         -0.         -0.         -0.00562351  0.          0.          0.          0.         -0.          0.         -0.52463819  0.          0.
   0.0007394   0.08994507]
 [-0.         -0.          0.          0.          0.00105816  0.02013469 -0.         -0.06878968 -0.41151268 -0.         -0.         -0.         -0.
  -0.         -0.01306059  0.00278964 -0.          0.31084544  0.16880793  0.         -0.          0.0477848  -0.02610465 -0.         -0.8223978   0.14462513
   0.         -0.        ]
 [-0.         -0.         -0.          0.         -0.02013469  0.00105816  0.          0.41151268 -0.06878968 -0.          0.         -0.          0.
  -0.          0.00278964  0.01306059  0.          0.16880793 -0.31084544 -0.         -0.         -0.02610465 -0.0477848   0.          0.14462513  0.8223978
  -0.          0.        ]
 [ 0.04141795 -0.02839373 -0.35825762 -0.02425337  0.         -0.         -0.59026766 -0.         -0.          0.01415036  0.063615    0.16623437  0.
   0.          0.         -0.         -0.57343994  0.          0.          0.          0.          0.          0.          0.00919699  0.          0.
   0.39915572 -0.00121506]
 [ 0.          0.         -0.         -0.          0.00637522 -0.02800411 -0.         -0.06152209  0.55342068  0.         -0.         -0.          0.
  -0.          0.00832125 -0.00440403 -0.         -0.60191271 -0.13533016 -0.          0.         -0.06943354  0.06818678  0.         -0.49222559  0.2380282
   0.         -0.        ]
 [ 0.         -0.         -0.          0.         -0.02800411 -0.00637522 -0.          0.55342068  0.06152209  0.          0.          0.         -0.
   0.          0.00440403  0.00832125 -0.          0.13533016 -0.60191271 -0.         -0.         -0.06818678 -0.06943354 -0.         -0.2380282  -0.49222559
   0.         -0.        ]
 [ 0.00472515 -0.0216286  -0.31551161 -0.03360848  0.         -0.         -0.11926012  0.          0.          0.0019393   0.21768118  0.59986739 -0.
   0.          0.          0.          0.04078251 -0.         -0.          0.          0.         -0.          0.          0.00435502 -0.         -0.
  -0.68970365  0.00259757]
 [ 0.01395624 -0.14929984  0.01774685 -0.10648449 -0.          0.         -0.0052954   0.          0.         -0.31131228 -0.17246628  0.05642509  0.
   0.         -0.         -0.         -0.00397882  0.         -0.         -0.          0.         -0.         -0.          0.06515391 -0.         -0.
   0.00014165  0.91199135]
 [-0.02535148  0.58888401 -0.09293338  0.61434723  0.          0.          0.0017224  -0.          0.         -0.20604163  0.36165238 -0.12179961 -0.
  -0.          0.         -0.         -0.00435169 -0.         -0.          0.          0.          0.         -0.         -0.20516354 -0.         -0.
   0.00043227  0.19057514]
 [ 0.00680002  0.0201651  -0.0095512   0.10684087  0.         -0.          0.01792928  0.         -0.          0.77792397  0.28126073 -0.10248715  0.
   0.         -0.         -0.          0.01097106  0.          0.         -0.         -0.         -0.          0.          0.4439697  -0.          0.
   0.00191404  0.30936941]]
[[-0.96901072 -0.13887427  0.01795418  0.11231705 -0.          0.          0.12619299 -0.          0.          0.00738134 -0.00994845  0.04273375  0.
   0.          0.         -0.         -0.09389026  0.          0.          0.         -0.          0.          0.         -0.00151301 -0.         -0.
   0.04545111  0.00263114]
 [-0.          0.         -0.          0.          0.77318929 -0.33883284 -0.         -0.04586627 -0.00275317 -0.          0.          0.         -0.
   0.          0.09714019 -0.5242015   0.          0.00476936 -0.00868969 -0.         -0.         -0.03015267  0.00203619 -0.          0.00486827 -0.00079097
  -0.         -0.        ]
 [-0.         -0.         -0.         -0.         -0.33883284 -0.77318929 -0.          0.00275317 -0.04586627 -0.         -0.         -0.          0.
  -0.         -0.5242015  -0.09714019  0.         -0.00868969 -0.00476936 -0.          0.         -0.00203619 -0.03015267  0.         -0.00079097 -0.00486827
  -0.         -0.        ]
 [ 0.1724464  -0.60438313 -0.02548595  0.74124498 -0.          0.         -0.0349849  -0.         -0.          0.02413845 -0.20777271  0.08488197  0.
  -0.          0.          0.          0.00897112  0.         -0.          0.          0.         -0.          0.         -0.01163831  0.          0.
  -0.00285051 -0.0498448 ]
 [-0.15593509 -0.04538447 -0.4772212  -0.04516418 -0.          0.         -0.61240596  0.         -0.         -0.01433738 -0.07433455 -0.24727043  0.
  -0.          0.          0.          0.52709812 -0.         -0.          0.          0.         -0.         -0.          0.01212068  0.          0.
  -0.15470018 -0.00426888]
 [ 0.         -0.          0.          0.          0.02654229 -0.03384157  0.          0.6095007   0.37589623 -0.          0.         -0.          0.
   0.         -0.00405955 -0.01269747  0.         -0.00635742  0.68451921  0.          0.          0.10315709  0.04671797  0.         -0.04862748  0.03725471
   0.         -0.        ]
 [ 0.         -0.          0.         -0.          0.03384157  0.02654229  0.          0.37589623 -0.6095007  -0.         -0.         -0.          0.
   0.          0.01269747 -0.00405955 -0.         -0.68451921 -0.00635742  0.         -0.          0.04671797 -0.10315709  0.         -0.03725471 -0.04862748
  -0.         -0.        ]
 [-0.          0.         -0.          0.         -0.         -0.         -0.         -0.          0.         -0.         -0.         -0.          0.99622601
  -0.08509328  0.         -0.         -0.          0.          0.          0.0171129  -0.00011401 -0.         -0.          0.         -0.          0.
   0.          0.        ]
 [ 0.         -0.         -0.          0.          0.          0.         -0.         -0.          0.          0.          0.          0.          0.08509328
   0.99622601 -0.          0.         -0.          0.         -0.          0.00011401  0.0171129   0.          0.          0.          0.          0.
  -0.         -0.        ]
 [ 0.          0.         -0.          0.          0.35709082  0.16146463 -0.         -0.01408436  0.01386976  0.          0.          0.          0.
  -0.         -0.55936488  0.3428639  -0.         -0.11048675  0.02600485  0.         -0.         -0.39191647  0.49908552 -0.         -0.0026327  -0.00211424
   0.          0.        ]
 [ 0.          0.          0.          0.         -0.16146463  0.35709082  0.          0.01386976  0.01408436  0.          0.          0.          0.
  -0.         -0.3428639  -0.55936488  0.         -0.02600485 -0.11048675  0.         -0.          0.49908552  0.39191647 -0.          0.00211424 -0.0026327
  -0.          0.        ]
 [-0.01406092  0.17977399 -0.01959062 -0.00584652 -0.         -0.         -0.01363081  0.          0.          0.50310533 -0.42886941  0.1522283  -0.
   0.         -0.          0.          0.01757346 -0.          0.         -0.          0.         -0.          0.         -0.69332257 -0.          0.
  -0.00520129  0.16009484]
 [ 0.03064229 -0.02880024 -0.30086021 -0.00773241 -0.          0.          0.47323472 -0.          0.          0.00827799 -0.22940076 -0.65593944 -0.
   0.          0.         -0.         -0.17711474  0.          0.         -0.          0.          0.          0.         -0.00671937  0.          0.
  -0.41150528 -0.00163617]
 [-0.          0.         -0.          0.          0.          0.         -0.         -0.         -0.         -0.         -0.         -0.         -0.01710306
   0.00059122 -0.         -0.         -0.         -0.         -0.          0.99888617  0.04397213 -0.         -0.          0.         -0.          0.
   0.          0.        ]
 [ 0.          0.          0.          0.          0.         -0.         -0.          0.         -0.         -0.         -0.         -0.          0.00059122
   0.01710306 -0.         -0.         -0.          0.          0.          0.04397213 -0.99888617  0.         -0.          0.          0.         -0.
   0.          0.        ]
 [-0.04770694  0.04095542  0.66341354  0.06560373  0.          0.          0.14381131 -0.          0.          0.0052293  -0.03720547 -0.09397457 -0.
   0.         -0.          0.          0.5923765  -0.         -0.         -0.          0.         -0.          0.          0.01337989  0.          0.
  -0.41183666 -0.00156296]
 [ 0.         -0.          0.         -0.         -0.3454253   0.10670602 -0.          0.02393999 -0.00128091 -0.          0.          0.         -0.
   0.          0.15601941 -0.51043617  0.         -0.06499515  0.09193838 -0.         -0.         -0.74341651  0.1359207   0.          0.00369806 -0.00017638
  -0.          0.        ]
 [-0.          0.          0.          0.          0.10670602  0.3454253   0.          0.00128091  0.02393999 -0.         -0.         -0.          0.
  -0.         -0.51043617 -0.15601941 -0.          0.09193838  0.06499515 -0.          0.         -0.1359207  -0.74341651  0.         -0.00017638 -0.00369806
  -0.         -0.        ]
 [-0.03050605  0.45584459 -0.05771451  0.17207247 -0.         -0.          0.00061998 -0.         -0.         -0.03476008 -0.64976254  0.22708518 -0.
   0.         -0.         -0.         -0.00562351  0.          0.         -0.          0.         -0.          0.          0.52463819  0.          0.
  -0.0007394  -0.08994507]
 [-0.          0.          0.          0.          0.01191467 -0.01626549  0.          0.34772495  0.230569   -0.         -0.         -0.          0.
   0.          0.00448309  0.01258026 -0.         -0.00834658 -0.35362599 -0.         -0.         -0.0488354  -0.02408202  0.          0.6457933  -0.52934448
  -0.          0.        ]
 [-0.         -0.         -0.         -0.          0.01626549  0.01191467  0.          0.230569   -0.34772495  0.          0.          0.          0.
  -0.         -0.01258026  0.00448309 -0.          0.35362599 -0.00834658 -0.          0.         -0.02408202  0.0488354  -0.          0.52934448  0.6457933
   0.         -0.        ]
 [ 0.04141795 -0.02839373 -0.35825762 -0.02425337 -0.         -0.          0.59026766 -0.          0.          0.01415036  0.063615    0.16623437  0.
  -0.         -0.          0.          0.57343994 -0.         -0.          0.         -0.         -0.         -0.          0.00919699  0.          0.
   0.39915572 -0.00121506]
 [ 0.         -0.         -0.         -0.         -0.02264961  0.01765982  0.         -0.53042841 -0.16942585 -0.         -0.         -0.         -0.
  -0.         -0.00062078 -0.00939432  0.         -0.15427358  0.59733812  0.          0.          0.09571265  0.0175938  -0.          0.50138074 -0.21808441
   0.          0.        ]
 [ 0.         -0.         -0.         -0.          0.01765982  0.02264961  0.          0.16942585 -0.53042841 -0.          0.          0.         -0.
  -0.         -0.00939432  0.00062078  0.          0.59733812  0.15427358 -0.          0.         -0.0175938   0.09571265  0.         -0.21808441 -0.50138074
   0.          0.        ]
 [ 0.00472515 -0.0216286  -0.31551161 -0.03360848 -0.         -0.          0.11926012 -0.         -0.          0.0019393   0.21768118  0.59986739  0.
  -0.          0.          0.         -0.04078251 -0.          0.          0.         -0.          0.         -0.          0.00435502  0.          0.
  -0.68970365  0.00259757]
 [-0.01395624  0.14929984 -0.01774685  0.10648449 -0.          0.         -0.0052954   0.         -0.          0.31131228  0.17246628 -0.05642509  0.
  -0.         -0.         -0.         -0.00397882  0.          0.          0.         -0.         -0.         -0.         -0.06515391  0.         -0.
  -0.00014165 -0.91199135]
 [ 0.02535148 -0.58888401  0.09293338 -0.61434723  0.          0.          0.0017224  -0.          0.          0.20604163 -0.36165238  0.12179961 -0.
   0.          0.          0.         -0.00435169  0.          0.         -0.          0.          0.          0.          0.20516354  0.         -0.
  -0.00043227 -0.19057514]
 [-0.00680002 -0.0201651   0.0095512  -0.10684087  0.         -0.          0.01792928  0.         -0.         -0.77792397 -0.28126073  0.10248715  0.
  -0.         -0.         -0.          0.01097106 -0.         -0.          0.         -0.         -0.          0.         -0.4439697   0.         -0.
  -0.00191404 -0.30936941]]
grids:  [0.06237655 0.31939555 0.74529195 1.28265786 1.85893479 2.39630071 2.8221971  3.07921611] 
weights:  [0.15900941 0.34931531 0.49276925 0.56970235 0.56970235 0.49276925 0.34931531 0.15900941]
S = 0.0, Sz = 0.0
Wigner small d:  1
value : [1. 1. 1. 1. 1. 1. 1. 1.]
**** Start Cycle 1 ****
dm (ortho)
[[[ 0.93898177 -0.          0.         ... -0.01352375  0.02456585 -0.00658929]
  [-0.          0.         -0.         ...  0.         -0.          0.        ]
  [ 0.         -0.          0.         ... -0.          0.         -0.        ]
  ...
  [-0.01352375  0.         -0.         ...  0.00019478 -0.00035381  0.0000949 ]
  [ 0.02456585 -0.          0.         ... -0.00035381  0.0006427  -0.00017239]
  [-0.00658929  0.         -0.         ...  0.0000949  -0.00017239  0.00004624]]

 [[ 0.93898177  0.          0.         ...  0.01352375 -0.02456585  0.00658929]
  [ 0.          0.          0.         ...  0.         -0.          0.        ]
  [ 0.          0.          0.         ...  0.         -0.          0.        ]
  ...
  [ 0.01352375  0.          0.         ...  0.00019478 -0.00035381  0.0000949 ]
  [-0.02456585 -0.         -0.         ... -0.00035381  0.0006427  -0.00017239]
  [ 0.00658929  0.          0.         ...  0.0000949  -0.00017239  0.00004624]]]
Fock (ortho)
 (array([[-0.49887651,  0.        , -0.        , -0.12058963, -0.39590708, -0.        , -0.        ,  0.        , -0.        ,  0.        , -0.        ,
        -0.0107539 , -0.00902097,  0.        ,  0.        , -0.33253532, -0.        , -0.        , -0.01168013, -0.        ,  0.        ,  0.02697717,
         0.        ,  0.        , -0.09389566,  0.01589455, -0.00365378,  0.00451434],
       [ 0.        ,  1.43072141, -0.        ,  0.        , -0.        ,  0.01864313,  0.01000817,  0.        , -0.        , -0.58451032,  0.64905654,
         0.        , -0.        ,  0.        , -0.        , -0.        ,  0.82551238,  0.09402329,  0.        , -0.00563776, -0.00326972,  0.        ,
        -0.00511701,  0.00130232, -0.        , -0.        , -0.        ,  0.        ],
       [-0.        , -0.        ,  1.43072141, -0.        , -0.        ,  0.01000817, -0.01864313, -0.        ,  0.        ,  0.64905654,  0.58451032,
        -0.        , -0.        ,  0.        ,  0.        ,  0.        , -0.09402329,  0.82551238,  0.        , -0.00326972,  0.00563776,  0.        ,
        -0.00130232, -0.00511701, -0.        ,  0.        , -0.        ,  0.        ],
       [-0.12058963,  0.        , -0.        ,  0.50901761, -0.01931762, -0.        , -0.        ,  0.        ,  0.        ,  0.        ,  0.        ,
         0.22220734,  0.03200427, -0.        ,  0.        , -0.03372522, -0.        , -0.        ,  0.39795395, -0.        ,  0.        ,  0.0119116 ,
        -0.        , -0.        , -0.00874207,  0.2575286 ,  0.03156174,  0.20830531],
       [-0.39590708, -0.        , -0.        , -0.01931762,  1.75606712, -0.        ,  0.        ,  0.        ,  0.        , -0.        , -0.        ,
         0.01563422,  0.183128  ,  0.        , -0.        ,  1.35247836,  0.        , -0.        ,  0.00319005,  0.        , -0.        ,  0.31188259,
         0.        ,  0.        ,  0.08905049, -0.00905191, -0.0015586 , -0.00061834],
       [-0.        ,  0.01864313,  0.01000817, -0.        , -0.        ,  2.46800251,  0.        ,  0.        ,  0.        ,  0.00314764, -0.01283757,
        -0.        , -0.        , -0.        ,  0.        , -0.        ,  0.00814295,  0.00564391,  0.        , -0.92404821, -0.03039885, -0.        ,
         1.04403874,  0.25932379,  0.        ,  0.        ,  0.        , -0.        ],
       [-0.        ,  0.01000817, -0.01864313, -0.        ,  0.        ,  0.        ,  2.46800251,  0.        ,  0.        ,  0.01283757,  0.00314764,
        -0.        ,  0.        , -0.        ,  0.        ,  0.        ,  0.00564391, -0.00814295,  0.        ,  0.03039885, -0.92404821,  0.        ,
         0.25932379, -1.04403874,  0.        , -0.        , -0.        ,  0.        ],
       [ 0.        ,  0.        , -0.        ,  0.        ,  0.        ,  0.        ,  0.        ,  3.14863489,  0.        , -0.        ,  0.        ,
         0.        , -0.        , -0.0102306 , -0.00051867, -0.        , -0.        ,  0.        , -0.        ,  0.        ,  0.        ,  0.        ,
        -0.        ,  0.        ,  0.        ,  0.        , -0.        ,  0.        ],
       [-0.        , -0.        ,  0.        ,  0.        ,  0.        ,  0.        ,  0.        ,  0.        ,  3.14863489,  0.        ,  0.        ,
         0.        , -0.        , -0.00051867,  0.0102306 , -0.        ,  0.        , -0.        , -0.        ,  0.        ,  0.        ,  0.        ,
        -0.        ,  0.        ,  0.        ,  0.        ,  0.        ,  0.        ],
       [ 0.        , -0.58451032,  0.64905654,  0.        , -0.        ,  0.00314764,  0.01283757, -0.        ,  0.        ,  3.22441089, -0.        ,
         0.        , -0.        , -0.        , -0.        ,  0.        ,  0.53982539, -0.47755436,  0.        ,  0.00102114,  0.00484885,  0.        ,
         0.00071113, -0.00135304, -0.        , -0.        , -0.        ,  0.        ],
       [-0.        ,  0.64905654,  0.58451032,  0.        , -0.        , -0.01283757,  0.00314764,  0.        ,  0.        , -0.        ,  3.22441089,
        -0.        , -0.        ,  0.        ,  0.        , -0.        , -0.47755436, -0.53982539, -0.        , -0.00484885,  0.00102114,  0.        ,
        -0.00135304, -0.00071113,  0.        ,  0.        ,  0.        ,  0.        ],
       [-0.0107539 ,  0.        , -0.        ,  0.22220734,  0.01563422, -0.        , -0.        ,  0.        ,  0.        ,  0.        , -0.        ,
         3.17769317, -0.00481961,  0.        ,  0.        , -0.00495404,  0.        , -0.        , -0.99666662, -0.        ,  0.        ,  0.00207182,
         0.        ,  0.        , -0.00848957, -0.72709705, -0.28895606,  0.77144255],
       [-0.00902097, -0.        , -0.        ,  0.03200427,  0.183128  , -0.        ,  0.        , -0.        , -0.        , -0.        , -0.        ,
        -0.00481961,  2.47893522, -0.        , -0.        ,  0.74608398, -0.        ,  0.        ,  0.01484472,  0.        ,  0.        , -1.24592307,
        -0.        , -0.        ,  0.62008589, -0.01013978,  0.00078676, -0.00033789],
       [ 0.        ,  0.        ,  0.        , -0.        ,  0.        , -0.        , -0.        , -0.0102306 , -0.00051867, -0.        ,  0.        ,
         0.        , -0.        ,  4.00220968, -0.        ,  0.        ,  0.        ,  0.        , -0.        ,  0.        , -0.        ,  0.        ,
        -0.        , -0.        ,  0.        ,  0.        ,  0.        ,  0.        ],
       [ 0.        , -0.        ,  0.        ,  0.        , -0.        ,  0.        ,  0.        , -0.00051867,  0.0102306 , -0.        ,  0.        ,
         0.        , -0.        , -0.        ,  4.00220968, -0.        ,  0.        ,  0.        , -0.        , -0.        , -0.        ,  0.        ,
         0.        , -0.        ,  0.        ,  0.        ,  0.        ,  0.        ],
       [-0.33253532, -0.        ,  0.        , -0.03372522,  1.35247836, -0.        ,  0.        , -0.        , -0.        ,  0.        , -0.        ,
        -0.00495404,  0.74608398,  0.        , -0.        ,  2.39400396,  0.        , -0.        , -0.01616989, -0.        , -0.        ,  0.29595378,
        -0.        ,  0.        ,  1.27946481,  0.00126059, -0.00178353,  0.00028639],
       [-0.        ,  0.82551238, -0.09402329, -0.        ,  0.        ,  0.00814295,  0.00564391, -0.        ,  0.        ,  0.53982539, -0.47755436,
         0.        , -0.        ,  0.        ,  0.        ,  0.        ,  3.40550596,  0.        ,  0.        , -0.00553434, -0.0041117 ,  0.        ,
         0.00348649, -0.00132278, -0.        , -0.        , -0.        ,  0.        ],
       [-0.        ,  0.09402329,  0.82551238, -0.        , -0.        ,  0.00564391, -0.00814295,  0.        , -0.        , -0.47755436, -0.53982539,
        -0.        ,  0.        ,  0.        ,  0.        , -0.        ,  0.        ,  3.40550596,  0.        , -0.0041117 ,  0.00553434,  0.        ,
         0.00132278,  0.00348649, -0.        ,  0.        , -0.        ,  0.        ],
       [-0.01168013,  0.        ,  0.        ,  0.39795395,  0.00319005,  0.        ,  0.        , -0.        , -0.        ,  0.        , -0.        ,
        -0.99666662,  0.01484472, -0.        , -0.        , -0.01616989,  0.        ,  0.        ,  2.43852848,  0.        , -0.        , -0.00455704,
        -0.        , -0.        , -0.01008887,  0.11014798,  1.08984319, -0.34317257],
       [-0.        , -0.00563776, -0.00326972, -0.        ,  0.        , -0.92404821,  0.03039885,  0.        ,  0.        ,  0.00102114, -0.00484885,
        -0.        ,  0.        ,  0.        , -0.        , -0.        , -0.00553434, -0.0041117 ,  0.        ,  4.52077447,  0.        , -0.        ,
         1.31745917,  0.3736315 ,  0.        ,  0.        ,  0.        ,  0.        ],
       [ 0.        , -0.00326972,  0.00563776,  0.        , -0.        , -0.03039885, -0.92404821,  0.        ,  0.        ,  0.00484885,  0.00102114,
         0.        ,  0.        , -0.        , -0.        , -0.        , -0.0041117 ,  0.00553434, -0.        ,  0.        ,  4.52077447,  0.        ,
         0.3736315 , -1.31745917, -0.        , -0.        , -0.        ,  0.        ],
       [ 0.02697717,  0.        ,  0.        ,  0.0119116 ,  0.31188259, -0.        ,  0.        ,  0.        ,  0.        ,  0.        ,  0.        ,
         0.00207182, -1.24592307,  0.        ,  0.        ,  0.29595378,  0.        ,  0.        , -0.00455704, -0.        ,  0.        ,  2.57234362,
         0.        , -0.        , -1.22210208, -0.00146493, -0.00133853,  0.00122515],
       [ 0.        , -0.00511701, -0.00130232, -0.        ,  0.        ,  1.04403874,  0.25932379, -0.        , -0.        ,  0.00071113, -0.00135304,
         0.        , -0.        , -0.        ,  0.        , -0.        ,  0.00348649,  0.00132278, -0.        ,  1.31745917,  0.3736315 ,  0.        ,
         3.51611428,  0.        , -0.        , -0.        ,  0.        ,  0.        ],
       [ 0.        ,  0.00130232, -0.00511701, -0.        ,  0.        ,  0.25932379, -1.04403874,  0.        ,  0.        , -0.00135304, -0.00071113,
         0.        , -0.        , -0.        , -0.        ,  0.        , -0.00132278,  0.00348649, -0.        ,  0.3736315 , -1.31745917, -0.        ,
         0.        ,  3.51611428, -0.        , -0.        , -0.        , -0.        ],
       [-0.09389566, -0.        , -0.        , -0.00874207,  0.08905049,  0.        ,  0.        ,  0.        ,  0.        , -0.        ,  0.        ,
        -0.00848957,  0.62008589,  0.        ,  0.        ,  1.27946481, -0.        , -0.        , -0.01008887,  0.        , -0.        , -1.22210208,
        -0.        , -0.        ,  3.67991855,  0.00815065, -0.0023759 ,  0.00021221],
       [ 0.01589455, -0.        ,  0.        ,  0.2575286 , -0.00905191,  0.        , -0.        ,  0.        ,  0.        , -0.        ,  0.        ,
        -0.72709705, -0.01013978,  0.        ,  0.        ,  0.00126059, -0.        ,  0.        ,  0.11014798,  0.        , -0.        , -0.00146493,
        -0.        , -0.        ,  0.00815065,  5.79945217,  0.97971179,  1.51222305],
       [-0.00365378, -0.        , -0.        ,  0.03156174, -0.0015586 ,  0.        , -0.        , -0.        ,  0.        , -0.        ,  0.        ,
        -0.28895606,  0.00078676,  0.        ,  0.        , -0.00178353, -0.        , -0.        ,  1.08984319,  0.        , -0.        , -0.00133853,
         0.        , -0.        , -0.0023759 ,  0.97971179,  1.14077688,  0.05841329],
       [ 0.00451434,  0.        ,  0.        ,  0.20830531, -0.00061834, -0.        ,  0.        ,  0.        ,  0.        ,  0.        ,  0.        ,
         0.77144255, -0.00033789,  0.        ,  0.        ,  0.00028639,  0.        ,  0.        , -0.34317257,  0.        ,  0.        ,  0.00122515,
         0.        , -0.        ,  0.00021221,  1.51222305,  0.05841329,  2.65360632]]), array([[-0.49887651, -0.        , -0.        ,  0.12058963, -0.39590708,  0.        , -0.        , -0.        ,  0.        ,  0.        , -0.        ,
         0.0107539 , -0.00902097, -0.        ,  0.        , -0.33253532, -0.        , -0.        ,  0.01168013, -0.        ,  0.        ,  0.02697717,
         0.        ,  0.        , -0.09389566, -0.01589455,  0.00365378, -0.00451434],
       [-0.        ,  1.43072141, -0.        ,  0.        , -0.        , -0.01864313, -0.01000817,  0.        , -0.        , -0.58451032,  0.64905654,
         0.        , -0.        ,  0.        , -0.        , -0.        ,  0.82551238,  0.09402329,  0.        ,  0.00563776,  0.00326972,  0.        ,
         0.00511701, -0.00130232, -0.        , -0.        , -0.        ,  0.        ],
       [-0.        , -0.        ,  1.43072141, -0.        , -0.        , -0.01000817,  0.01864313, -0.        ,  0.        ,  0.64905654,  0.58451032,
        -0.        , -0.        ,  0.        ,  0.        ,  0.        , -0.09402329,  0.82551238,  0.        ,  0.00326972, -0.00563776,  0.        ,
         0.00130232,  0.00511701, -0.        ,  0.        , -0.        ,  0.        ],
       [ 0.12058963,  0.        , -0.        ,  0.50901761,  0.01931762, -0.        , -0.        , -0.        , -0.        , -0.        ,  0.        ,
         0.22220734, -0.03200427, -0.        , -0.        ,  0.03372522, -0.        , -0.        ,  0.39795395, -0.        ,  0.        , -0.0119116 ,
        -0.        , -0.        ,  0.00874207,  0.2575286 ,  0.03156174,  0.20830531],
       [-0.39590708, -0.        , -0.        ,  0.01931762,  1.75606712, -0.        ,  0.        ,  0.        , -0.        , -0.        , -0.        ,
        -0.01563422,  0.183128  ,  0.        , -0.        ,  1.35247836,  0.        , -0.        , -0.00319005,  0.        , -0.        ,  0.31188259,
         0.        ,  0.        ,  0.08905049,  0.00905191,  0.0015586 ,  0.00061834],
       [ 0.        , -0.01864313, -0.01000817, -0.        , -0.        ,  2.46800251,  0.        ,  0.        ,  0.        , -0.00314764,  0.01283757,
        -0.        , -0.        ,  0.        , -0.        , -0.        , -0.00814295, -0.00564391,  0.        , -0.92404821, -0.03039885, -0.        ,
         1.04403874,  0.25932379,  0.        ,  0.        ,  0.        , -0.        ],
       [-0.        , -0.01000817,  0.01864313, -0.        ,  0.        ,  0.        ,  2.46800251,  0.        ,  0.        , -0.01283757, -0.00314764,
        -0.        ,  0.        ,  0.        ,  0.        , -0.        , -0.00564391,  0.00814295,  0.        ,  0.03039885, -0.92404821,  0.        ,
         0.25932379, -1.04403874,  0.        , -0.        , -0.        ,  0.        ],
       [-0.        ,  0.        , -0.        , -0.        ,  0.        ,  0.        ,  0.        ,  3.14863489,  0.        ,  0.        ,  0.        ,
         0.        , -0.        ,  0.0102306 ,  0.00051867, -0.        , -0.        ,  0.        , -0.        ,  0.        ,  0.        ,  0.        ,
        -0.        ,  0.        ,  0.        ,  0.        , -0.        ,  0.        ],
       [ 0.        , -0.        ,  0.        , -0.        , -0.        ,  0.        ,  0.        ,  0.        ,  3.14863489,  0.        , -0.        ,
        -0.        , -0.        ,  0.00051867, -0.0102306 ,  0.        ,  0.        , -0.        , -0.        ,  0.        ,  0.        , -0.        ,
        -0.        ,  0.        , -0.        ,  0.        ,  0.        ,  0.        ],
       [ 0.        , -0.58451032,  0.64905654, -0.        , -0.        , -0.00314764, -0.01283757,  0.        ,  0.        ,  3.22441089,  0.        ,
         0.        , -0.        , -0.        , -0.        ,  0.        ,  0.53982539, -0.47755436,  0.        , -0.00102114, -0.00484885,  0.        ,
        -0.00071113,  0.00135304, -0.        , -0.        , -0.        ,  0.        ],
       [-0.        ,  0.64905654,  0.58451032,  0.        , -0.        ,  0.01283757, -0.00314764,  0.        , -0.        ,  0.        ,  3.22441089,
        -0.        , -0.        ,  0.        ,  0.        ,  0.        , -0.47755436, -0.53982539, -0.        ,  0.00484885, -0.00102114,  0.        ,
         0.00135304,  0.00071113,  0.        ,  0.        ,  0.        ,  0.        ],
       [ 0.0107539 ,  0.        , -0.        ,  0.22220734, -0.01563422, -0.        , -0.        ,  0.        , -0.        ,  0.        , -0.        ,
         3.17769317,  0.00481961,  0.        ,  0.        ,  0.00495404,  0.        , -0.        , -0.99666662, -0.        ,  0.        , -0.00207182,
         0.        ,  0.        ,  0.00848957, -0.72709705, -0.28895606,  0.77144255],
       [-0.00902097, -0.        , -0.        , -0.03200427,  0.183128  , -0.        ,  0.        , -0.        , -0.        , -0.        , -0.        ,
         0.00481961,  2.47893522, -0.        , -0.        ,  0.74608398, -0.        ,  0.        , -0.01484472,  0.        ,  0.        , -1.24592307,
        -0.        , -0.        ,  0.62008589,  0.01013978, -0.00078676,  0.00033789],
       [-0.        ,  0.        ,  0.        , -0.        ,  0.        ,  0.        ,  0.        ,  0.0102306 ,  0.00051867, -0.        ,  0.        ,
         0.        , -0.        ,  4.00220968, -0.        ,  0.        ,  0.        ,  0.        , -0.        ,  0.        , -0.        ,  0.        ,
        -0.        , -0.        ,  0.        ,  0.        ,  0.        ,  0.        ],
       [ 0.        , -0.        ,  0.        , -0.        , -0.        , -0.        ,  0.        ,  0.00051867, -0.0102306 , -0.        ,  0.        ,
         0.        , -0.        , -0.        ,  4.00220968, -0.        ,  0.        ,  0.        , -0.        , -0.        , -0.        ,  0.        ,
         0.        , -0.        ,  0.        ,  0.        ,  0.        ,  0.        ],
       [-0.33253532, -0.        ,  0.        ,  0.03372522,  1.35247836, -0.        , -0.        , -0.        ,  0.        ,  0.        ,  0.        ,
         0.00495404,  0.74608398,  0.        , -0.        ,  2.39400396,  0.        , -0.        ,  0.01616989, -0.        , -0.        ,  0.29595378,
        -0.        ,  0.        ,  1.27946481, -0.00126059,  0.00178353, -0.00028639],
       [-0.        ,  0.82551238, -0.09402329, -0.        ,  0.        , -0.00814295, -0.00564391, -0.        ,  0.        ,  0.53982539, -0.47755436,
         0.        , -0.        ,  0.        ,  0.        ,  0.        ,  3.40550596,  0.        ,  0.        ,  0.00553434,  0.0041117 ,  0.        ,
        -0.00348649,  0.00132278, -0.        , -0.        , -0.        ,  0.        ],
       [-0.        ,  0.09402329,  0.82551238, -0.        , -0.        , -0.00564391,  0.00814295,  0.        , -0.        , -0.47755436, -0.53982539,
        -0.        ,  0.        ,  0.        ,  0.        , -0.        ,  0.        ,  3.40550596,  0.        ,  0.0041117 , -0.00553434,  0.        ,
        -0.00132278, -0.00348649, -0.        ,  0.        , -0.        ,  0.        ],
       [ 0.01168013,  0.        ,  0.        ,  0.39795395, -0.00319005,  0.        ,  0.        , -0.        , -0.        ,  0.        , -0.        ,
        -0.99666662, -0.01484472, -0.        , -0.        ,  0.01616989,  0.        ,  0.        ,  2.43852848,  0.        , -0.        ,  0.00455704,
        -0.        , -0.        ,  0.01008887,  0.11014798,  1.08984319, -0.34317257],
       [-0.        ,  0.00563776,  0.00326972, -0.        ,  0.        , -0.92404821,  0.03039885,  0.        ,  0.        , -0.00102114,  0.00484885,
        -0.        ,  0.        ,  0.        , -0.        , -0.        ,  0.00553434,  0.0041117 ,  0.        ,  4.52077447,  0.        , -0.        ,
         1.31745917,  0.3736315 ,  0.        ,  0.        ,  0.        ,  0.        ],
       [ 0.        ,  0.00326972, -0.00563776,  0.        , -0.        , -0.03039885, -0.92404821,  0.        ,  0.        , -0.00484885, -0.00102114,
         0.        ,  0.        , -0.        , -0.        , -0.        ,  0.0041117 , -0.00553434, -0.        ,  0.        ,  4.52077447,  0.        ,
         0.3736315 , -1.31745917, -0.        , -0.        , -0.        ,  0.        ],
       [ 0.02697717,  0.        ,  0.        , -0.0119116 ,  0.31188259, -0.        ,  0.        ,  0.        , -0.        ,  0.        ,  0.        ,
        -0.00207182, -1.24592307,  0.        ,  0.        ,  0.29595378,  0.        ,  0.        ,  0.00455704, -0.        ,  0.        ,  2.57234362,
         0.        , -0.        , -1.22210208,  0.00146493,  0.00133853, -0.00122515],
       [ 0.        ,  0.00511701,  0.00130232, -0.        ,  0.        ,  1.04403874,  0.25932379, -0.        , -0.        , -0.00071113,  0.00135304,
         0.        , -0.        , -0.        ,  0.        , -0.        , -0.00348649, -0.00132278, -0.        ,  1.31745917,  0.3736315 ,  0.        ,
         3.51611428,  0.        , -0.        , -0.        ,  0.        ,  0.        ],
       [ 0.        , -0.00130232,  0.00511701, -0.        ,  0.        ,  0.25932379, -1.04403874,  0.        ,  0.        ,  0.00135304,  0.00071113,
         0.        , -0.        , -0.        , -0.        ,  0.        ,  0.00132278, -0.00348649, -0.        ,  0.3736315 , -1.31745917, -0.        ,
         0.        ,  3.51611428, -0.        , -0.        , -0.        , -0.        ],
       [-0.09389566, -0.        , -0.        ,  0.00874207,  0.08905049,  0.        ,  0.        ,  0.        , -0.        , -0.        ,  0.        ,
         0.00848957,  0.62008589,  0.        ,  0.        ,  1.27946481, -0.        , -0.        ,  0.01008887,  0.        , -0.        , -1.22210208,
        -0.        , -0.        ,  3.67991855, -0.00815065,  0.0023759 , -0.00021221],
       [-0.01589455, -0.        ,  0.        ,  0.2575286 ,  0.00905191,  0.        , -0.        ,  0.        ,  0.        , -0.        ,  0.        ,
        -0.72709705,  0.01013978,  0.        ,  0.        , -0.00126059, -0.        ,  0.        ,  0.11014798,  0.        , -0.        ,  0.00146493,
        -0.        , -0.        , -0.00815065,  5.79945217,  0.97971179,  1.51222305],
       [ 0.00365378, -0.        , -0.        ,  0.03156174,  0.0015586 ,  0.        , -0.        , -0.        ,  0.        , -0.        ,  0.        ,
        -0.28895606, -0.00078676,  0.        ,  0.        ,  0.00178353, -0.        , -0.        ,  1.08984319,  0.        , -0.        ,  0.00133853,
         0.        , -0.        ,  0.0023759 ,  0.97971179,  1.14077688,  0.05841329],
       [-0.00451434,  0.        ,  0.        ,  0.20830531,  0.00061834, -0.        ,  0.        ,  0.        ,  0.        ,  0.        ,  0.        ,
         0.77144255,  0.00033789,  0.        ,  0.        , -0.00028639,  0.        ,  0.        , -0.34317257,  0.        ,  0.        , -0.00122515,
         0.        , -0.        , -0.00021221,  1.51222305,  0.05841329,  2.65360632]]))
E(UHF) =    -1.773771
NO eigenvalue
[-1. -0. -0. -0. -0. -0. -0. -0. -0. -0. -0. -0. -0. -0. -0. -0.  0.  0.  0.  0.  0.  0.  0.  0.  0.  0.  0.  0.] [-1. -0. -0. -0. -0. -0. -0. -0. -0. -0. -0. -0. -0. -0. -0. -0. -0.  0.  0.  0.  0.  0.  0.  0.  0.  0.  0.  0.]
NO vec
[[ 0.96901072  0.          0.23080992 ...  0.          0.          0.        ]
 [-0.          0.          0.34085098 ...  0.          0.          0.        ]
 [ 0.          0.         -0.         ...  0.          0.          0.        ]
 ...
 [ 0.          0.01395624  0.         ...  0.01270821 -0.06689269 -0.10028574]
 [ 0.         -0.02535148  0.         ...  0.23516995 -0.08055596  0.00925041]
 [ 0.          0.00680002  0.         ...  0.15069402 -0.03760451 -0.02414962]]
dm(NO)
[[ 1.  0. -0. ...  0.  0.  0.]
 [ 0.  1.  0. ... -0. -0.  0.]
 [-0.  0.  0. ...  0.  0.  0.]
 ...
 [ 0. -0.  0. ... -0. -0.  0.]
 [ 0. -0.  0. ...  0. -0.  0.]
 [ 0. -0.  0. ...  0. -0.  0.]]
D(g) (NO)
[[ 0.99951369  0.0292031  -0.         ...  0.00279359 -0.00379989  0.0049556 ]
 [-0.0292031   0.99951369 -0.00745681 ... -0.          0.         -0.        ]
 [-0.          0.00745681  0.99951369 ... -0.00834418 -0.00842385  0.00104641]
 ...
 [-0.00279359 -0.          0.00834418 ...  0.99951369 -0.          0.        ]
 [ 0.00379989  0.          0.00842385 ... -0.          0.99951369  0.        ]
 [-0.0049556  -0.         -0.00104641 ...  0.          0.          0.99951369]]
...
N(g) (NO)
[[ 0.99963321 -0.02920659]
 [ 0.02920659  0.99963321]]
...
P(g) (NO)
[[ 1.         -0.         -0.         ... -0.         -0.          0.        ]
 [ 0.          1.         -0.         ... -0.         -0.          0.        ]
 [ 0.00021779  0.00745408 -0.         ... -0.         -0.          0.        ]
 ...
 [-0.00279257  0.00008159  0.         ... -0.         -0.          0.        ]
 [ 0.0037985  -0.00011098 -0.         ...  0.          0.         -0.        ]
 [-0.00495379  0.00014474  0.         ... -0.         -0.          0.        ]]
...
Pg_ortho
[[ 0.93903607 -0.          0.         ...  0.00002677 -0.00004863  0.00001304]
 [-0.          0.         -0.         ...  0.         -0.          0.        ]
 [ 0.         -0.          0.         ...  0.         -0.          0.        ]
 ...
 [ 0.00081635 -0.          0.         ...  0.00019443 -0.00035319  0.00009474]
 [-0.0014829   0.         -0.         ... -0.00035319  0.00064156 -0.00017209]
 [ 0.00039776 -0.          0.         ...  0.00009474 -0.00017209  0.00004616]]
G(g) (NO)
[[ 0.59471036 -0.00061885  0.09740367 ...  0.00041966 -0.00048954  0.00056242]
 [ 0.00061885  0.59471036 -0.00086749 ...  0.09106086 -0.02351351  0.11146312]
 [ 0.09731174 -0.00403917  1.0769608  ... -0.00058774  0.0001256  -0.00042805]
 ...
 [ 0.00233213  0.0910195  -0.00037822 ...  0.91911046 -0.01762569 -0.0532543 ]
 [-0.0019589  -0.02346686 -0.00034311 ... -0.0176252   1.14955683  0.0117761 ]
 [ 0.00270437  0.11139941  0.00047232 ... -0.05324767  0.0117715   1.18937196]]
...
C(NO)
[[-1.          0.         -0.         ...  0.          0.          0.        ]
 [ 0.         -1.          0.         ...  0.         -0.         -0.        ]
 [ 0.          0.         -0.56937597 ...  0.          0.          0.        ]
 ...
 [ 0.          0.          0.         ... -0.0000229  -0.35499829 -0.15548062]
 [ 0.          0.          0.         ...  0.00065615 -0.07030929  0.12244615]
 [ 0.          0.          0.         ...  0.00035375  0.17621932  0.09198194]]
detC 0.9999999999999982
detNg [1.00011959 1.0031192  1.01656999 1.04603809 1.08572345 1.11940355 1.13617966 1.14005254]
xg [0.99988043 0.9968905  0.9837001  0.95598813 0.92104485 0.89333288 0.88014249 0.87715256]
ciS 1.877032987809912
[[-1.18423185  0.         -0.13868246 ...  0.          0.          0.        ]
 [ 0.         -1.18423185  0.         ... -0.12319521  0.03860032 -0.14831605]
 [-0.13868246  0.          0.03984282 ...  0.          0.          0.        ]
 ...
 [ 0.         -0.12319521  0.         ...  0.87467304  0.07085242 -0.78029608]
 [ 0.          0.03860032  0.         ...  0.07085242  0.41404311 -0.02692096]
 [ 0.         -0.14831605  0.         ... -0.78029608 -0.02692096  0.46304919]]
ciH -3.374051056522832
S2 = 0.000000
X(g)
[[ 2.         -0.          0.00021779 ...  0.00279257 -0.0037985   0.00495379]
 [ 0.          2.         -0.00745408 ...  0.00008159 -0.00011098  0.00014474]
 [ 0.00021779  0.00745408  0.         ...  0.          0.          0.        ]
 ...
 [-0.00279257  0.00008159  0.         ...  0.          0.          0.        ]
 [ 0.0037985  -0.00011098  0.         ...  0.          0.          0.        ]
 [-0.00495379  0.00014474  0.         ...  0.          0.          0.        ]]
X(g) int
[[ 2.         -0.          0.11930765 ...  0.03748525 -0.05098803  0.06649572]
 [ 0.          2.         -0.10005763 ...  0.04469701 -0.06079758  0.07928878]
 [ 0.11930765  0.10005763  0.         ...  0.          0.          0.        ]
 ...
 [-0.03748525  0.04469701  0.         ...  0.          0.          0.        ]
 [ 0.05098803 -0.06079758  0.         ...  0.          0.          0.        ]
 [-0.06649572  0.07928878  0.         ...  0.          0.          0.        ]]
Hsp + Hph =  -1.7975448904921025
Feff (mod,ortho)
[[-0.4772274  -0.         -0.         ...  0.          0.          0.        ]
 [-0.          1.43072141 -0.         ...  0.          0.          0.        ]
 [-0.         -0.          1.43072141 ...  0.          0.          0.        ]
 ...
 [ 0.          0.          0.         ...  5.79911413  0.98004457  1.5121077 ]
 [ 0.          0.          0.         ...  0.98004457  1.14068327  0.05848579]
 [ 0.          0.          0.         ...  1.5121077   0.05848579  2.65357416]]
E(SUHF) =     -1.13607338
e_a, e_b
[-0.59085288  0.15337353  0.3061068   0.61013393  0.67198699  0.67198699  1.06996571  1.10004422  1.10004422  1.50725344  2.33332935  2.41857295  3.14851197
  3.14851197  3.34518626  3.34518626  3.62463211  3.91814679  3.91814679  4.0023326   4.0023326   4.04438667  4.04438667  4.45202207  5.48577861  5.48577861
  5.54538849  6.67154109] [-0.59085288  0.15337353  0.3061068   0.61013393  0.67198699  0.67198699  1.06996571  1.10004422  1.10004422  1.50725344  2.33332935  2.41857295  3.14851197
  3.14851197  3.34518626  3.34518626  3.62463211  3.91814679  3.91814679  4.0023326   4.0023326   4.04438667  4.04438667  4.45202207  5.48577861  5.48577861
  5.54538849  6.67154109]
P_a, P_b
[[ 0.93429123  0.          0.          0.18553713  0.13093421  0.          0.          0.          0.         -0.          0.         -0.01399983 -0.03879405
   0.          0.          0.06416658  0.          0.         -0.03025982  0.          0.         -0.04598565 -0.         -0.         -0.00874089 -0.01469481
   0.02506324 -0.00735959]
 [ 0.          0.          0.          0.          0.          0.          0.          0.          0.         -0.          0.         -0.         -0.
   0.          0.          0.          0.          0.         -0.          0.          0.         -0.         -0.         -0.         -0.         -0.
   0.         -0.        ]
 [ 0.          0.          0.          0.          0.          0.          0.          0.          0.         -0.          0.         -0.         -0.
   0.          0.          0.          0.          0.         -0.          0.          0.         -0.         -0.         -0.         -0.         -0.
   0.         -0.        ]
 [ 0.18553713  0.          0.          0.03684507  0.0260017   0.          0.          0.          0.         -0.          0.         -0.00278017 -0.00770395
   0.          0.          0.01274258  0.          0.         -0.00600918  0.          0.         -0.0091321  -0.         -0.         -0.00173582 -0.00291818
   0.00497721 -0.00146151]
 [ 0.13093421  0.          0.          0.0260017   0.01834949  0.          0.          0.          0.         -0.          0.         -0.00196198 -0.00543671
   0.          0.          0.00899248  0.          0.         -0.0042407   0.          0.         -0.00644456 -0.         -0.         -0.00122497 -0.00205937
   0.00351243 -0.00103139]
 [ 0.          0.          0.          0.          0.          0.          0.          0.          0.         -0.          0.         -0.         -0.
   0.          0.          0.          0.          0.         -0.          0.          0.         -0.         -0.         -0.         -0.         -0.
   0.         -0.        ]
 [ 0.          0.          0.          0.          0.          0.          0.          0.          0.         -0.          0.         -0.         -0.
   0.          0.          0.          0.          0.         -0.          0.          0.         -0.         -0.         -0.         -0.         -0.
   0.         -0.        ]
 [ 0.          0.          0.          0.          0.          0.          0.          0.          0.         -0.          0.         -0.         -0.
   0.          0.          0.          0.          0.         -0.          0.          0.         -0.         -0.         -0.         -0.         -0.
   0.         -0.        ]
 [ 0.          0.          0.          0.          0.          0.          0.          0.          0.         -0.          0.         -0.         -0.
   0.          0.          0.          0.          0.         -0.          0.          0.         -0.         -0.         -0.         -0.         -0.
   0.         -0.        ]
 [-0.         -0.         -0.         -0.         -0.         -0.         -0.         -0.         -0.          0.         -0.          0.          0.
  -0.         -0.         -0.         -0.         -0.          0.         -0.         -0.          0.          0.          0.          0.          0.
  -0.          0.        ]
 [ 0.          0.          0.          0.          0.          0.          0.          0.          0.         -0.          0.         -0.         -0.
   0.          0.          0.          0.          0.         -0.          0.          0.         -0.         -0.         -0.         -0.         -0.
   0.         -0.        ]
 [-0.01399983 -0.         -0.         -0.00278017 -0.00196198 -0.         -0.         -0.         -0.          0.         -0.          0.00020978  0.00058131
  -0.         -0.         -0.0009615  -0.         -0.          0.00045343 -0.         -0.          0.00068907  0.          0.          0.00013098  0.00022019
  -0.00037556  0.00011028]
 [-0.03879405 -0.         -0.         -0.00770395 -0.00543671 -0.         -0.         -0.         -0.          0.         -0.          0.00058131  0.00161082
  -0.         -0.         -0.00266435 -0.         -0.          0.00125646 -0.         -0.          0.00190944  0.          0.          0.00036294  0.00061016
  -0.00104069  0.00030559]
 [ 0.          0.          0.          0.          0.          0.          0.          0.          0.         -0.          0.         -0.         -0.
   0.          0.          0.          0.          0.         -0.          0.          0.         -0.         -0.         -0.         -0.         -0.
   0.         -0.        ]
 [ 0.          0.          0.          0.          0.          0.          0.          0.          0.         -0.          0.         -0.         -0.
   0.          0.          0.          0.          0.         -0.          0.          0.         -0.         -0.         -0.         -0.         -0.
   0.         -0.        ]
 [ 0.06416658  0.          0.          0.01274258  0.00899248  0.          0.          0.          0.         -0.          0.         -0.0009615  -0.00266435
   0.          0.          0.00440692  0.          0.         -0.00207823  0.          0.         -0.00315827 -0.         -0.         -0.00060032 -0.00100923
   0.00172133 -0.00050545]
 [ 0.          0.          0.          0.          0.          0.          0.          0.          0.         -0.          0.         -0.         -0.
   0.          0.          0.          0.          0.         -0.          0.          0.         -0.         -0.         -0.         -0.         -0.
   0.         -0.        ]
 [ 0.          0.          0.          0.          0.          0.          0.          0.          0.         -0.          0.         -0.         -0.
   0.          0.          0.          0.          0.         -0.          0.          0.         -0.         -0.         -0.         -0.         -0.
   0.         -0.        ]
 [-0.03025982 -0.         -0.         -0.00600918 -0.0042407  -0.         -0.         -0.         -0.          0.         -0.          0.00045343  0.00125646
  -0.         -0.         -0.00207823 -0.         -0.          0.00098005 -0.         -0.          0.00148938  0.          0.          0.0002831   0.00047594
  -0.00081175  0.00023836]
 [ 0.          0.          0.          0.          0.          0.          0.          0.          0.         -0.          0.         -0.         -0.
   0.          0.          0.          0.          0.         -0.          0.          0.         -0.         -0.         -0.         -0.         -0.
   0.         -0.        ]
 [ 0.          0.          0.          0.          0.          0.          0.          0.          0.         -0.          0.         -0.         -0.
   0.          0.          0.          0.          0.         -0.          0.          0.         -0.         -0.         -0.         -0.         -0.
   0.         -0.        ]
 [-0.04598565 -0.         -0.         -0.0091321  -0.00644456 -0.         -0.         -0.         -0.          0.         -0.          0.00068907  0.00190944
  -0.         -0.         -0.00315827 -0.         -0.          0.00148938 -0.         -0.          0.00226341  0.          0.          0.00043023  0.00072328
  -0.00123361  0.00036224]
 [-0.         -0.         -0.         -0.         -0.         -0.         -0.         -0.         -0.          0.         -0.          0.          0.
  -0.         -0.         -0.         -0.         -0.          0.         -0.         -0.          0.          0.          0.          0.          0.
  -0.          0.        ]
 [-0.         -0.         -0.         -0.         -0.         -0.         -0.         -0.         -0.          0.         -0.          0.          0.
  -0.         -0.         -0.         -0.         -0.          0.         -0.         -0.          0.          0.          0.          0.          0.
  -0.          0.        ]
 [-0.00874089 -0.         -0.         -0.00173582 -0.00122497 -0.         -0.         -0.         -0.          0.         -0.          0.00013098  0.00036294
  -0.         -0.         -0.00060032 -0.         -0.          0.0002831  -0.         -0.          0.00043023  0.          0.          0.00008178  0.00013748
  -0.00023448  0.00006885]
 [-0.01469481 -0.         -0.         -0.00291818 -0.00205937 -0.         -0.         -0.         -0.          0.         -0.          0.00022019  0.00061016
  -0.         -0.         -0.00100923 -0.         -0.          0.00047594 -0.         -0.          0.00072328  0.          0.          0.00013748  0.00023112
  -0.0003942   0.00011575]
 [ 0.02506324  0.          0.          0.00497721  0.00351243  0.          0.          0.          0.         -0.          0.         -0.00037556 -0.00104069
   0.          0.          0.00172133  0.          0.         -0.00081175  0.          0.         -0.00123361 -0.         -0.         -0.00023448 -0.0003942
   0.00067235 -0.00019743]
 [-0.00735959 -0.         -0.         -0.00146151 -0.00103139 -0.         -0.         -0.         -0.          0.         -0.          0.00011028  0.00030559
  -0.         -0.         -0.00050545 -0.         -0.          0.00023836 -0.         -0.          0.00036224  0.          0.          0.00006885  0.00011575
  -0.00019743  0.00005797]] 
 [[ 0.93429123  0.          0.         -0.18553713  0.13093421 -0.         -0.          0.         -0.         -0.         -0.          0.01399983 -0.03879405
   0.         -0.          0.06416658 -0.         -0.          0.03025982  0.          0.         -0.04598565 -0.         -0.         -0.00874089  0.01469481
  -0.02506324  0.00735959]
 [ 0.          0.          0.         -0.          0.         -0.         -0.          0.         -0.         -0.         -0.          0.         -0.
   0.         -0.          0.         -0.         -0.          0.          0.          0.         -0.         -0.         -0.         -0.          0.
  -0.          0.        ]
 [ 0.          0.          0.         -0.          0.         -0.         -0.          0.         -0.         -0.         -0.          0.         -0.
   0.         -0.          0.         -0.         -0.          0.          0.          0.         -0.         -0.         -0.         -0.          0.
  -0.          0.        ]
 [-0.18553713 -0.         -0.          0.03684507 -0.0260017   0.          0.         -0.          0.          0.          0.         -0.00278017  0.00770395
  -0.          0.         -0.01274258  0.          0.         -0.00600918 -0.         -0.          0.0091321   0.          0.          0.00173582 -0.00291818
   0.00497721 -0.00146151]
 [ 0.13093421  0.          0.         -0.0260017   0.01834949 -0.         -0.          0.         -0.         -0.         -0.          0.00196198 -0.00543671
   0.         -0.          0.00899248 -0.         -0.          0.0042407   0.          0.         -0.00644456 -0.         -0.         -0.00122497  0.00205937
  -0.00351243  0.00103139]
 [-0.         -0.         -0.          0.         -0.          0.          0.         -0.          0.          0.          0.         -0.          0.
  -0.          0.         -0.          0.          0.         -0.         -0.         -0.          0.          0.          0.          0.         -0.
   0.         -0.        ]
 [-0.         -0.         -0.          0.         -0.          0.          0.         -0.          0.          0.          0.         -0.          0.
  -0.          0.         -0.          0.          0.         -0.         -0.         -0.          0.          0.          0.          0.         -0.
   0.         -0.        ]
 [ 0.          0.          0.         -0.          0.         -0.         -0.          0.         -0.         -0.         -0.          0.         -0.
   0.         -0.          0.         -0.         -0.          0.          0.          0.         -0.         -0.         -0.         -0.          0.
  -0.          0.        ]
 [-0.         -0.         -0.          0.         -0.          0.          0.         -0.          0.          0.          0.         -0.          0.
  -0.          0.         -0.          0.          0.         -0.         -0.         -0.          0.          0.          0.          0.         -0.
   0.         -0.        ]
 [-0.         -0.         -0.          0.         -0.          0.          0.         -0.          0.          0.          0.         -0.          0.
  -0.          0.         -0.          0.          0.         -0.         -0.         -0.          0.          0.          0.          0.         -0.
   0.         -0.        ]
 [-0.         -0.         -0.          0.         -0.          0.          0.         -0.          0.          0.          0.         -0.          0.
  -0.          0.         -0.          0.          0.         -0.         -0.         -0.          0.          0.          0.          0.         -0.
   0.         -0.        ]
 [ 0.01399983  0.          0.         -0.00278017  0.00196198 -0.         -0.          0.         -0.         -0.         -0.          0.00020978 -0.00058131
   0.         -0.          0.0009615  -0.         -0.          0.00045343  0.          0.         -0.00068907 -0.         -0.         -0.00013098  0.00022019
  -0.00037556  0.00011028]
 [-0.03879405 -0.         -0.          0.00770395 -0.00543671  0.          0.         -0.          0.          0.          0.         -0.00058131  0.00161082
  -0.          0.         -0.00266435  0.          0.         -0.00125646 -0.         -0.          0.00190944  0.          0.          0.00036294 -0.00061016
   0.00104069 -0.00030559]
 [ 0.          0.          0.         -0.          0.         -0.         -0.          0.         -0.         -0.         -0.          0.         -0.
   0.         -0.          0.         -0.         -0.          0.          0.          0.         -0.         -0.         -0.         -0.          0.
  -0.          0.        ]
 [-0.         -0.         -0.          0.         -0.          0.          0.         -0.          0.          0.          0.         -0.          0.
  -0.          0.         -0.          0.          0.         -0.         -0.         -0.          0.          0.          0.          0.         -0.
   0.         -0.        ]
 [ 0.06416658  0.          0.         -0.01274258  0.00899248 -0.         -0.          0.         -0.         -0.         -0.          0.0009615  -0.00266435
   0.         -0.          0.00440692 -0.         -0.          0.00207823  0.          0.         -0.00315827 -0.         -0.         -0.00060032  0.00100923
  -0.00172133  0.00050545]
 [-0.         -0.         -0.          0.         -0.          0.          0.         -0.          0.          0.          0.         -0.          0.
  -0.          0.         -0.          0.          0.         -0.         -0.         -0.          0.          0.          0.          0.         -0.
   0.         -0.        ]
 [-0.         -0.         -0.          0.         -0.          0.          0.         -0.          0.          0.          0.         -0.          0.
  -0.          0.         -0.          0.          0.         -0.         -0.         -0.          0.          0.          0.          0.         -0.
   0.         -0.        ]
 [ 0.03025982  0.          0.         -0.00600918  0.0042407  -0.         -0.          0.         -0.         -0.         -0.          0.00045343 -0.00125646
   0.         -0.          0.00207823 -0.         -0.          0.00098005  0.          0.         -0.00148938 -0.         -0.         -0.0002831   0.00047594
  -0.00081175  0.00023836]
 [ 0.          0.          0.         -0.          0.         -0.         -0.          0.         -0.         -0.         -0.          0.         -0.
   0.         -0.          0.         -0.         -0.          0.          0.          0.         -0.         -0.         -0.         -0.          0.
  -0.          0.        ]
 [ 0.          0.          0.         -0.          0.         -0.         -0.          0.         -0.         -0.         -0.          0.         -0.
   0.         -0.          0.         -0.         -0.          0.          0.          0.         -0.         -0.         -0.         -0.          0.
  -0.          0.        ]
 [-0.04598565 -0.         -0.          0.0091321  -0.00644456  0.          0.         -0.          0.          0.          0.         -0.00068907  0.00190944
  -0.          0.         -0.00315827  0.          0.         -0.00148938 -0.         -0.          0.00226341  0.          0.          0.00043023 -0.00072328
   0.00123361 -0.00036224]
 [-0.         -0.         -0.          0.         -0.          0.          0.         -0.          0.          0.          0.         -0.          0.
  -0.          0.         -0.          0.          0.         -0.         -0.         -0.          0.          0.          0.          0.         -0.
   0.         -0.        ]
 [-0.         -0.         -0.          0.         -0.          0.          0.         -0.          0.          0.          0.         -0.          0.
  -0.          0.         -0.          0.          0.         -0.         -0.         -0.          0.          0.          0.          0.         -0.
   0.         -0.        ]
 [-0.00874089 -0.         -0.          0.00173582 -0.00122497  0.          0.         -0.          0.          0.          0.         -0.00013098  0.00036294
  -0.          0.         -0.00060032  0.          0.         -0.0002831  -0.         -0.          0.00043023  0.          0.          0.00008178 -0.00013748
   0.00023448 -0.00006885]
 [ 0.01469481  0.          0.         -0.00291818  0.00205937 -0.         -0.          0.         -0.         -0.         -0.          0.00022019 -0.00061016
[...]
  [-0.         -0.          1.4592811  ...  0.         -0.          0.        ]
  ...
  [-0.08657733  0.          0.         ...  5.83233019  0.98328783  1.51746284]
  [-0.00379691 -0.         -0.         ...  0.98328783  1.14631226  0.05843876]
  [-0.00675725  0.          0.         ...  1.51746284  0.05843876  2.6624995 ]]]
e_a, e_b
[-0.56852559  0.16566603  0.3094485   0.62392027  0.68918969  0.68918969  1.08474344  1.11266923  1.11266923  1.51635514  2.33229302  2.46536688  3.17186509
  3.17186509  3.37388553  3.37388553  3.65625444  3.94143732  3.94143732  4.02577366  4.02577366  4.07795566  4.07795566  4.48065985  5.51444629  5.51444629
  5.57624899  6.70968951] [-0.56852559  0.16566603  0.3094485   0.62392027  0.68918969  0.68918969  1.08474344  1.11266923  1.11266923  1.51635514  2.33229302  2.46536688  3.17186509
  3.17186509  3.37388553  3.37388553  3.65625444  3.94143732  3.94143732  4.02577366  4.02577366  4.07795566  4.07795566  4.48065985  5.51444629  5.51444629
  5.57624899  6.70968951]
P_a, P_b
[[ 0.86553539 -0.         -0.          0.30467699  0.11850547  0.         -0.          0.         -0.         -0.          0.          0.00664783 -0.04262775
   0.          0.          0.06813706  0.          0.          0.00456295  0.          0.         -0.04732825 -0.         -0.         -0.01014966 -0.02179601
   0.00329619 -0.0125919 ]
 [-0.          0.          0.         -0.         -0.         -0.          0.         -0.          0.          0.         -0.         -0.          0.
  -0.         -0.         -0.         -0.         -0.         -0.         -0.         -0.          0.          0.          0.          0.          0.
  -0.          0.        ]
 [-0.          0.          0.         -0.         -0.         -0.          0.         -0.          0.          0.         -0.         -0.          0.
  -0.         -0.         -0.         -0.         -0.         -0.         -0.         -0.          0.          0.          0.          0.          0.
  -0.          0.        ]
 [ 0.30467699 -0.         -0.          0.10724931  0.04171509  0.         -0.          0.         -0.         -0.          0.          0.0023401  -0.01500539
   0.          0.          0.02398492  0.          0.          0.0016062   0.          0.         -0.01666001 -0.         -0.         -0.00357278 -0.00767241
   0.00116029 -0.00443247]
 [ 0.11850547 -0.         -0.          0.04171509  0.01622527  0.         -0.          0.         -0.         -0.          0.          0.00091019 -0.00583641
   0.          0.          0.00932904  0.          0.          0.00062474  0.          0.         -0.00647998 -0.         -0.         -0.00138965 -0.00298422
   0.0004513  -0.00172403]
 [ 0.         -0.         -0.          0.          0.          0.         -0.          0.         -0.         -0.          0.          0.         -0.
   0.          0.          0.          0.          0.          0.          0.          0.         -0.         -0.         -0.         -0.         -0.
   0.         -0.        ]
 [-0.          0.          0.         -0.         -0.         -0.          0.         -0.          0.          0.         -0.         -0.          0.
  -0.         -0.         -0.         -0.         -0.         -0.         -0.         -0.          0.          0.          0.          0.          0.
  -0.          0.        ]
 [ 0.         -0.         -0.          0.          0.          0.         -0.          0.         -0.         -0.          0.          0.         -0.
   0.          0.          0.          0.          0.          0.          0.          0.         -0.         -0.         -0.         -0.         -0.
   0.         -0.        ]
 [-0.          0.          0.         -0.         -0.         -0.          0.         -0.          0.          0.         -0.         -0.          0.
  -0.         -0.         -0.         -0.         -0.         -0.         -0.         -0.          0.          0.          0.          0.          0.
  -0.          0.        ]
 [-0.          0.          0.         -0.         -0.         -0.          0.         -0.          0.          0.         -0.         -0.          0.
  -0.         -0.         -0.         -0.         -0.         -0.         -0.         -0.          0.          0.          0.          0.          0.
  -0.          0.        ]
 [ 0.         -0.         -0.          0.          0.          0.         -0.          0.         -0.         -0.          0.          0.         -0.
   0.          0.          0.          0.          0.          0.          0.          0.         -0.         -0.         -0.         -0.         -0.
   0.         -0.        ]
 [ 0.00664783 -0.         -0.          0.0023401   0.00091019  0.         -0.          0.         -0.         -0.          0.          0.00005106 -0.00032741
   0.          0.          0.00052333  0.          0.          0.00003505  0.          0.         -0.00036351 -0.         -0.         -0.00007796 -0.00016741
   0.00002532 -0.00009671]
 [-0.04262775  0.          0.         -0.01500539 -0.00583641 -0.          0.         -0.          0.          0.         -0.         -0.00032741  0.00209942
  -0.         -0.         -0.00335576 -0.         -0.         -0.00022473 -0.         -0.          0.00233092  0.          0.          0.00049987  0.00107346
  -0.00016234  0.00062015]
 [ 0.         -0.         -0.          0.          0.          0.         -0.          0.         -0.         -0.          0.          0.         -0.
   0.          0.          0.          0.          0.          0.          0.          0.         -0.         -0.         -0.         -0.         -0.
   0.         -0.        ]
 [ 0.         -0.         -0.          0.          0.          0.         -0.          0.         -0.         -0.          0.          0.         -0.
   0.          0.          0.          0.          0.          0.          0.          0.         -0.         -0.         -0.         -0.         -0.
   0.         -0.        ]
 [ 0.06813706 -0.         -0.          0.02398492  0.00932904  0.         -0.          0.         -0.         -0.          0.          0.00052333 -0.00335576
   0.          0.          0.00536392  0.          0.          0.00035921  0.          0.         -0.0037258  -0.         -0.         -0.00079901 -0.00171584
   0.00025948 -0.00099126]
 [ 0.         -0.         -0.          0.          0.          0.         -0.          0.         -0.         -0.          0.          0.         -0.
   0.          0.          0.          0.          0.          0.          0.          0.         -0.         -0.         -0.         -0.         -0.
   0.         -0.        ]
 [ 0.         -0.         -0.          0.          0.          0.         -0.          0.         -0.         -0.          0.          0.         -0.
   0.          0.          0.          0.          0.          0.          0.          0.         -0.         -0.         -0.         -0.         -0.
   0.         -0.        ]
 [ 0.00456295 -0.         -0.          0.0016062   0.00062474  0.         -0.          0.         -0.         -0.          0.          0.00003505 -0.00022473
   0.          0.          0.00035921  0.          0.          0.00002406  0.          0.         -0.00024951 -0.         -0.         -0.00005351 -0.0001149
   0.00001738 -0.00006638]
 [ 0.         -0.         -0.          0.          0.          0.         -0.          0.         -0.         -0.          0.          0.         -0.
   0.          0.          0.          0.          0.          0.          0.          0.         -0.         -0.         -0.         -0.         -0.
   0.         -0.        ]
 [ 0.         -0.         -0.          0.          0.          0.         -0.          0.         -0.         -0.          0.          0.         -0.
   0.          0.          0.          0.          0.          0.          0.          0.         -0.         -0.         -0.         -0.         -0.
   0.         -0.        ]
 [-0.04732825  0.          0.         -0.01666001 -0.00647998 -0.          0.         -0.          0.          0.         -0.         -0.00036351  0.00233092
  -0.         -0.         -0.0037258  -0.         -0.         -0.00024951 -0.         -0.          0.00258795  0.          0.          0.00055499  0.00119183
  -0.00018024  0.00068854]
 [-0.          0.          0.         -0.         -0.         -0.          0.         -0.          0.          0.         -0.         -0.          0.
  -0.         -0.         -0.         -0.         -0.         -0.         -0.         -0.          0.          0.          0.          0.          0.
  -0.          0.        ]
 [-0.          0.          0.         -0.         -0.         -0.          0.         -0.          0.          0.         -0.         -0.          0.
  -0.         -0.         -0.         -0.         -0.         -0.         -0.         -0.          0.          0.          0.          0.          0.
  -0.          0.        ]
 [-0.01014966  0.          0.         -0.00357278 -0.00138965 -0.          0.         -0.          0.          0.         -0.         -0.00007796  0.00049987
  -0.         -0.         -0.00079901 -0.         -0.         -0.00005351 -0.         -0.          0.00055499  0.          0.          0.00011902  0.00025559
  -0.00003865  0.00014766]
 [-0.02179601  0.          0.         -0.00767241 -0.00298422 -0.          0.         -0.          0.          0.         -0.         -0.00016741  0.00107346
  -0.         -0.         -0.00171584 -0.         -0.         -0.0001149  -0.         -0.          0.00119183  0.          0.          0.00025559  0.00054887
  -0.00008301  0.00031709]
 [ 0.00329619 -0.         -0.          0.00116029  0.0004513   0.         -0.          0.         -0.         -0.          0.          0.00002532 -0.00016234
   0.          0.          0.00025948  0.          0.          0.00001738  0.          0.         -0.00018024 -0.         -0.         -0.00003865 -0.00008301
   0.00001255 -0.00004795]
 [-0.0125919   0.          0.         -0.00443247 -0.00172403 -0.          0.         -0.          0.          0.         -0.         -0.00009671  0.00062015
  -0.         -0.         -0.00099126 -0.         -0.         -0.00006638 -0.         -0.          0.00068854  0.          0.          0.00014766  0.00031709
  -0.00004795  0.00018319]] 
 [[ 0.86553539  0.          0.         -0.30467699  0.11850547  0.          0.         -0.          0.         -0.         -0.         -0.00664783 -0.04262775
  -0.         -0.          0.06813706  0.         -0.         -0.00456295  0.          0.         -0.04732825 -0.         -0.         -0.01014966  0.02179601
  -0.00329619  0.0125919 ]
 [ 0.          0.          0.         -0.          0.          0.          0.         -0.          0.         -0.         -0.         -0.         -0.
  -0.         -0.          0.          0.         -0.         -0.          0.          0.         -0.         -0.         -0.         -0.          0.
  -0.          0.        ]
 [ 0.          0.          0.         -0.          0.          0.          0.         -0.          0.         -0.         -0.         -0.         -0.
  -0.         -0.          0.          0.         -0.         -0.          0.          0.         -0.         -0.         -0.         -0.          0.
  -0.          0.        ]
 [-0.30467699 -0.         -0.          0.10724931 -0.04171509 -0.         -0.          0.         -0.          0.          0.          0.0023401   0.01500539
   0.          0.         -0.02398492 -0.          0.          0.0016062  -0.         -0.          0.01666001  0.          0.          0.00357278 -0.00767241
   0.00116029 -0.00443247]
 [ 0.11850547  0.          0.         -0.04171509  0.01622527  0.          0.         -0.          0.         -0.         -0.         -0.00091019 -0.00583641
  -0.         -0.          0.00932904  0.         -0.         -0.00062474  0.          0.         -0.00647998 -0.         -0.         -0.00138965  0.00298422
  -0.0004513   0.00172403]
 [ 0.          0.          0.         -0.          0.          0.          0.         -0.          0.         -0.         -0.         -0.         -0.
  -0.         -0.          0.          0.         -0.         -0.          0.          0.         -0.         -0.         -0.         -0.          0.
  -0.          0.        ]
 [ 0.          0.          0.         -0.          0.          0.          0.         -0.          0.         -0.         -0.         -0.         -0.
  -0.         -0.          0.          0.         -0.         -0.          0.          0.         -0.         -0.         -0.         -0.          0.
  -0.          0.        ]
 [-0.         -0.         -0.          0.         -0.         -0.         -0.          0.         -0.          0.          0.          0.          0.
   0.          0.         -0.         -0.          0.          0.         -0.         -0.          0.          0.          0.          0.         -0.
   0.         -0.        ]
 [ 0.          0.          0.         -0.          0.          0.          0.         -0.          0.         -0.         -0.         -0.         -0.
  -0.         -0.          0.          0.         -0.         -0.          0.          0.         -0.         -0.         -0.         -0.          0.
  -0.          0.        ]
 [-0.         -0.         -0.          0.         -0.         -0.         -0.          0.         -0.          0.          0.          0.          0.
   0.          0.         -0.         -0.          0.          0.         -0.         -0.          0.          0.          0.          0.         -0.
   0.         -0.        ]
 [-0.         -0.         -0.          0.         -0.         -0.         -0.          0.         -0.          0.          0.          0.          0.
   0.          0.         -0.         -0.          0.          0.         -0.         -0.          0.          0.          0.          0.         -0.
   0.         -0.        ]
 [-0.00664783 -0.         -0.          0.0023401  -0.00091019 -0.         -0.          0.         -0.          0.          0.          0.00005106  0.00032741
   0.          0.         -0.00052333 -0.          0.          0.00003505 -0.         -0.          0.00036351  0.          0.          0.00007796 -0.00016741
   0.00002532 -0.00009671]
 [-0.04262775 -0.         -0.          0.01500539 -0.00583641 -0.         -0.          0.         -0.          0.          0.          0.00032741  0.00209942
   0.          0.         -0.00335576 -0.          0.          0.00022473 -0.         -0.          0.00233092  0.          0.          0.00049987 -0.00107346
   0.00016234 -0.00062015]
 [-0.         -0.         -0.          0.         -0.         -0.         -0.          0.         -0.          0.          0.          0.          0.
   0.          0.         -0.         -0.          0.          0.         -0.         -0.          0.          0.          0.          0.         -0.
   0.         -0.        ]
 [-0.         -0.         -0.          0.         -0.         -0.         -0.          0.         -0.          0.          0.          0.          0.
   0.          0.         -0.         -0.          0.          0.         -0.         -0.          0.          0.          0.          0.         -0.
   0.         -0.        ]
 [ 0.06813706  0.          0.         -0.02398492  0.00932904  0.          0.         -0.          0.         -0.         -0.         -0.00052333 -0.00335576
  -0.         -0.          0.00536392  0.         -0.         -0.00035921  0.          0.         -0.0037258  -0.         -0.         -0.00079901  0.00171584
  -0.00025948  0.00099126]
 [ 0.          0.          0.         -0.          0.          0.          0.         -0.          0.         -0.         -0.         -0.         -0.
  -0.         -0.          0.          0.         -0.         -0.          0.          0.         -0.         -0.         -0.         -0.          0.
  -0.          0.        ]
 [-0.         -0.         -0.          0.         -0.         -0.         -0.          0.         -0.          0.          0.          0.          0.
   0.          0.         -0.         -0.          0.          0.         -0.         -0.          0.          0.          0.          0.         -0.
   0.         -0.        ]
 [-0.00456295 -0.         -0.          0.0016062  -0.00062474 -0.         -0.          0.         -0.          0.          0.          0.00003505  0.00022473
   0.          0.         -0.00035921 -0.          0.          0.00002406 -0.         -0.          0.00024951  0.          0.          0.00005351 -0.0001149
   0.00001738 -0.00006638]
 [ 0.          0.          0.         -0.          0.          0.          0.         -0.          0.         -0.         -0.         -0.         -0.
  -0.         -0.          0.          0.         -0.         -0.          0.          0.         -0.         -0.         -0.         -0.          0.
  -0.          0.        ]
 [ 0.          0.          0.         -0.          0.          0.          0.         -0.          0.         -0.         -0.         -0.         -0.
  -0.         -0.          0.          0.         -0.         -0.          0.          0.         -0.         -0.         -0.         -0.          0.
  -0.          0.        ]
 [-0.04732825 -0.         -0.          0.01666001 -0.00647998 -0.         -0.          0.         -0.          0.          0.          0.00036351  0.00233092
   0.          0.         -0.0037258  -0.          0.          0.00024951 -0.         -0.          0.00258795  0.          0.          0.00055499 -0.00119183
   0.00018024 -0.00068854]
 [-0.         -0.         -0.          0.         -0.         -0.         -0.          0.         -0.          0.          0.          0.          0.
   0.          0.         -0.         -0.          0.          0.         -0.         -0.          0.          0.          0.          0.         -0.
   0.         -0.        ]
 [-0.         -0.         -0.          0.         -0.         -0.         -0.          0.         -0.          0.          0.          0.          0.
   0.          0.         -0.         -0.          0.          0.         -0.         -0.          0.          0.          0.          0.         -0.
   0.         -0.        ]
 [-0.01014966 -0.         -0.          0.00357278 -0.00138965 -0.         -0.          0.         -0.          0.          0.          0.00007796  0.00049987
   0.          0.         -0.00079901 -0.          0.          0.00005351 -0.         -0.          0.00055499  0.          0.          0.00011902 -0.00025559
   0.00003865 -0.00014766]
 [ 0.02179601  0.          0.         -0.00767241  0.00298422  0.          0.         -0.          0.         -0.         -0.         -0.00016741 -0.00107346
  -0.         -0.          0.00171584  0.         -0.         -0.0001149   0.          0.         -0.00119183 -0.         -0.         -0.00025559  0.00054887
  -0.00008301  0.00031709]
 [-0.00329619 -0.         -0.          0.00116029 -0.0004513  -0.         -0.          0.         -0.          0.          0.          0.00002532  0.00016234
   0.          0.         -0.00025948 -0.          0.          0.00001738 -0.         -0.          0.00018024  0.          0.          0.00003865 -0.00008301
   0.00001255 -0.00004795]
 [ 0.0125919   0.          0.         -0.00443247  0.00172403  0.          0.         -0.          0.         -0.         -0.         -0.00009671 -0.00062015
  -0.         -0.          0.00099126  0.         -0.         -0.00006638  0.          0.         -0.00068854 -0.         -0.         -0.00014766  0.00031709
  -0.00004795  0.00018319]]

***************
SCF converged at cycle 43
Final E(SUHF) =     -1.15044390, delta E = -3.05143e-10
***** Start DFT Correlation for SUHF+DFT **********
tot grids = 20048
E(SUHF) =     -1.15044390
E_c(TPSS) =     -0.03615466
E(SUHF+DFT) =     -1.18659855
