

#INFO: **** input file is /share/home/srwang/ExSCF/test/pytest/scan_h2/scan_dft.py ****
#import phf
from pyscf import gto, scf
#import scipy
import numpy as np
import sys, os, contextlib

from pyphf import util, sudft

#xyz = 'h2.xyz' #sys.argv[1]
fch = 'test_uhf.fchk' #sys.argv[2]
#bas = '../h2.bas'
bas = 'cc-pvtz'

for r in np.arange(0.5, 2.6, 0.1):
    output = 'sudft_%.1f.out' % r
    os.system("echo '\n' > %s" % output)
    with open(output, 'a', encoding='utf-8') as f:
        with contextlib.redirect_stdout(f):
            xyz = '''H 0.0 0.0 0.0; H 0.0 0.0 %f'''%r
            mf = util.guess_from_fchk(xyz, bas, fch)
            #mf = util.guess(xyz, bas)
            #f.flush()
            mf2 = util.SUHF(mf)
            mf2.cut_no = False
            mf2.debug = False
            mf2.max_cycle = 50
            #mf2.output = 'sudft_%.1f.out'%r
            #mf2.kernel()
            
            mf3 = sudft.SUDFT(mf2)
            mf3.kernel()
                    #INFO: ******************** input file end ********************


System: uname_result(system='Linux', node='xc02n18', release='3.10.0-693.el7.x86_64', version='#1 SMP Thu Jul 6 19:56:57 EDT 2017', machine='x86_64', processor='x86_64')  Threads 24
Python 3.7.4 (default, Aug 13 2019, 20:35:49) 
[GCC 7.3.0]
numpy 1.17.2  scipy 1.4.1
Date: Fri Nov 20 22:49:26 2020
PySCF version 1.7.3
PySCF path  /share/apps/Python/Anaconda3-2019/lib/python3.7/site-packages/pyscf

[CONFIG] conf_file None
[INPUT] verbose = 4
[INPUT] num. atoms = 2
[INPUT] num. electrons = 2
[INPUT] charge = 0
[INPUT] spin (= nelec alpha-beta = 2S) = 0
[INPUT] symmetry False subgroup None
[INPUT] Mole.unit = angstrom
[INPUT]  1 H      0.000000000000   0.000000000000   0.000000000000 AA    0.000000000000   0.000000000000   0.000000000000 Bohr
[INPUT]  2 H      0.000000000000   0.000000000000   1.600000000000 AA    0.000000000000   0.000000000000   3.023561799304 Bohr

nuclear repulsion = 0.330735756825
number of shells = 12
number of NR pGTOs = 32
number of NR cGTOs = 28
basis = cc-pvtz
ecp = {}
CPU time:      2127.04


******** <class 'pyscf.scf.uhf.UHF'> ********
method = UHF
initial guess = minao
damping factor = 0
level_shift factor = 0
DIIS = <class 'pyscf.scf.diis.CDIIS'>
diis_start_cycle = 1
diis_space = 8
SCF conv_tol = 1e-09
SCF conv_tol_grad = None
SCF max_cycles = 1
direct_scf = True
direct_scf_tol = 1e-13
chkfile to save SCF result = /share/home/srwang/ExSCF/test/pytest/scan_h2/tmpvmks7w4f
max_memory 4000 MB (current use 145 MB)
number electrons alpha = 1  beta = 1
Set gradient conv threshold to 3.16228e-05
init E= -0.671053549815293
  alpha nocc = 1  HOMO = -0.303503140178609  LUMO = -0.0472824475900289
  beta  nocc = 1  HOMO = -0.301776199778324  LUMO = -0.0466711214948889
cycle= 1 E= -0.985181803294674  delta_E= -0.314  |g|= 0.0353  |ddm|= 0.377
SCF not converged.
SCF energy = -0.985181803294674 after 1 cycles  <S^2> = 4.3111873e-07  2S+1 = 1.0000009


******** <class 'pyscf.scf.uhf.UHF'> ********
method = UHF
initial guess = minao
damping factor = 0
level_shift factor = 0
DIIS = <class 'pyscf.scf.diis.CDIIS'>
diis_start_cycle = 1
diis_space = 8
SCF conv_tol = 1e-09
SCF conv_tol_grad = None
SCF max_cycles = 1
direct_scf = True
direct_scf_tol = 1e-13
chkfile to save SCF result = /share/home/srwang/ExSCF/test/pytest/scan_h2/tmpvmks7w4f
max_memory 4000 MB (current use 146 MB)
number electrons alpha = 1  beta = 1
Set gradient conv threshold to 3.16228e-05
init E= -0.978765965486302
  alpha nocc = 1  HOMO = -0.488970331061901  LUMO = 0.0397346989512171
  beta  nocc = 1  HOMO = -0.488970331061902  LUMO = 0.0397346989512143
cycle= 1 E= -1.01394472512435  delta_E= -0.0352  |g|= 0.0211  |ddm|= 0.0376
SCF not converged.
SCF energy = -1.01394472512435 after 1 cycles  <S^2> = 0.54406307  2S+1 = 1.7822043

******** <class 'pyphf.util.SUHF'> ********
SVD: S^(-1/2)
[[-0.14874595  0.09163827  0.29711445 -0.         -0.          0.          0.          0.23575145 -0.01603463 -0.          0.         -0.         -0.
  -0.         -0.         -0.         -0.          0.15988468  0.68326138  0.63016265  0.         -0.         -0.11344462 -0.         -0.          0.82599069
  -0.37586844  0.83154801]
 [-0.22953455  0.09503007  0.30484075 -0.          0.         -0.         -0.          0.13024719 -0.01519952 -0.         -0.          0.          0.
   0.          0.          0.          0.          0.0002542   0.0632822  -0.26301915 -0.          0.          0.0216319   0.          0.         -1.64458402
   0.58431391 -1.80916429]
 [-0.24589622  0.12740829  0.1673466   0.         -0.          0.          0.          0.01203489  0.03853147  0.          0.         -0.         -0.
  -0.         -0.         -0.         -0.         -0.02038013 -0.48416692 -0.55191048 -0.         -0.         -0.07530629  0.         -0.          0.95995377
   1.0060557   1.68217561]
 [ 0.         -0.          0.          0.34849921 -0.01009777 -0.43011351 -0.00286462  0.         -0.         -0.09192827 -0.00543417 -0.          0.
  -0.          0.         -0.11053726  0.03647166  0.         -0.         -0.          0.40592771 -0.70124899  0.          0.35198046 -0.71968425 -0.
  -0.         -0.        ]
 [ 0.          0.          0.         -0.01009777 -0.34849921 -0.00286462  0.43011351  0.          0.          0.00543417 -0.09192827  0.          0.
   0.         -0.         -0.03647166 -0.11053726  0.         -0.         -0.          0.70124899  0.40592771  0.         -0.71968425 -0.35198046 -0.
   0.         -0.        ]
 [-0.06364225 -0.30258544 -0.14055381 -0.         -0.         -0.          0.          0.45798361  0.10813363  0.          0.          0.          0.
   0.          0.         -0.         -0.          0.30886769 -0.0106774  -0.4243623   0.          0.         -0.86853056  0.          0.         -0.09507891
  -0.67753001  0.03222742]
 [ 0.         -0.          0.          0.39974577 -0.01158264 -0.37680699 -0.00250959  0.         -0.         -0.02320629 -0.0013718  -0.         -0.
  -0.         -0.         -0.00313708  0.00103508 -0.          0.          0.         -0.3604037   0.62260527 -0.         -0.41204659  0.84249972 -0.
   0.          0.        ]
 [-0.          0.         -0.         -0.01158264 -0.39974577 -0.00250959  0.37680699  0.          0.          0.0013718  -0.02320629  0.          0.
  -0.          0.         -0.00103508 -0.00313708 -0.          0.          0.         -0.62260527 -0.3604037  -0.          0.84249972  0.41204659 -0.
  -0.          0.        ]
 [-0.12535026 -0.35827086 -0.19453148 -0.          0.          0.         -0.          0.24673326  0.07253897 -0.         -0.         -0.         -0.
  -0.         -0.         -0.          0.         -0.00478714  0.03912344  0.38176609 -0.         -0.          0.70003149  0.         -0.          0.17765067
   1.69135954 -0.13928351]
 [ 0.          0.          0.          0.          0.          0.         -0.          0.          0.         -0.          0.          0.70430413 -0.
   0.69317464  0.15338908  0.         -0.         -0.          0.          0.         -0.         -0.          0.         -0.          0.          0.
   0.          0.        ]
 [ 0.          0.         -0.         -0.00176635 -0.06096116  0.00047159 -0.07080835 -0.          0.         -0.04006111  0.67770274 -0.         -0.
  -0.         -0.         -0.22704916 -0.68813411  0.         -0.         -0.          0.07380264  0.04272168  0.          0.11176446  0.05466134 -0.
  -0.         -0.        ]
 [-0.02999275 -0.08689307 -0.00239797 -0.          0.          0.         -0.         -0.25226417 -0.65267381  0.          0.          0.         -0.
  -0.         -0.          0.          0.          0.70464257 -0.04426404  0.02975249 -0.         -0.         -0.06825647  0.          0.          0.07867059
   0.42264623 -0.15444668]
 [ 0.         -0.          0.          0.06096116 -0.00176635  0.07080835  0.00047159  0.          0.          0.67770274  0.04006111  0.         -0.
   0.          0.         -0.68813411  0.22704916 -0.          0.         -0.          0.04272168 -0.07380264  0.         -0.05466134  0.11176446 -0.
   0.          0.        ]
 [ 0.          0.          0.         -0.          0.         -0.         -0.          0.          0.         -0.         -0.         -0.         -0.70430413
  -0.15338908  0.69317464 -0.         -0.          0.          0.         -0.          0.         -0.         -0.         -0.          0.         -0.
  -0.         -0.        ]
 [-0.14874595  0.09163827 -0.29711445  0.         -0.         -0.          0.         -0.23575145 -0.01603463 -0.         -0.          0.         -0.
  -0.          0.         -0.          0.         -0.15988468  0.68326138 -0.63016265 -0.         -0.         -0.11344462  0.          0.          0.82599069
   0.37586844 -0.83154801]
 [-0.22953455  0.09503007 -0.30484075  0.          0.         -0.         -0.         -0.13024719 -0.01519952 -0.          0.         -0.          0.
   0.          0.         -0.         -0.         -0.0002542   0.0632822   0.26301915  0.          0.          0.0216319  -0.         -0.         -1.64458402
  -0.58431391  1.80916429]
 [-0.24589622  0.12740829 -0.1673466   0.          0.         -0.         -0.         -0.01203489  0.03853147  0.         -0.          0.          0.
   0.          0.          0.          0.          0.02038013 -0.48416692  0.55191048  0.          0.         -0.07530629 -0.          0.          0.95995377
  -1.0060557  -1.68217561]
 [ 0.         -0.          0.          0.34849921 -0.01009777  0.43011351  0.00286462 -0.         -0.         -0.09192827 -0.00543417 -0.          0.
  -0.         -0.          0.11053726 -0.03647166  0.         -0.         -0.          0.40592771 -0.70124899  0.         -0.35198046  0.71968425 -0.
  -0.          0.        ]
 [ 0.          0.         -0.         -0.01009777 -0.34849921  0.00286462 -0.43011351 -0.          0.          0.00543417 -0.09192827  0.          0.
   0.          0.          0.03647166  0.11053726  0.          0.         -0.          0.70124899  0.40592771  0.          0.71968425  0.35198046 -0.
  -0.          0.        ]
 [ 0.06364225  0.30258544 -0.14055381  0.          0.         -0.         -0.          0.45798361 -0.10813363  0.         -0.         -0.          0.
  -0.         -0.          0.          0.          0.30886769  0.0106774  -0.4243623  -0.         -0.          0.86853056 -0.          0.          0.09507891
  -0.67753001  0.03222742]
 [ 0.         -0.          0.          0.39974577 -0.01158264  0.37680699  0.00250959 -0.         -0.         -0.02320629 -0.0013718  -0.         -0.
  -0.          0.          0.00313708 -0.00103508  0.          0.          0.         -0.3604037   0.62260527 -0.          0.41204659 -0.84249972 -0.
  -0.         -0.        ]
 [ 0.          0.         -0.         -0.01158264 -0.39974577  0.00250959 -0.37680699 -0.          0.          0.0013718  -0.02320629 -0.          0.
  -0.          0.          0.00103508  0.00313708  0.         -0.          0.         -0.62260527 -0.3604037  -0.         -0.84249972 -0.41204659  0.
   0.         -0.        ]
 [ 0.12535026  0.35827086 -0.19453148  0.          0.         -0.         -0.          0.24673326 -0.07253897 -0.          0.          0.         -0.
  -0.          0.         -0.         -0.         -0.00478714 -0.03912344  0.38176609  0.         -0.         -0.70003149  0.         -0.         -0.17765067
   1.69135954 -0.13928351]
 [-0.         -0.          0.         -0.          0.          0.         -0.          0.          0.         -0.         -0.          0.70430413 -0.
  -0.69317464 -0.15338908 -0.         -0.          0.         -0.         -0.         -0.          0.         -0.         -0.          0.         -0.
  -0.          0.        ]
 [ 0.         -0.          0.          0.00176635  0.06096116  0.00047159 -0.07080835 -0.         -0.          0.04006111 -0.67770274 -0.          0.
   0.         -0.         -0.22704916 -0.68813411 -0.         -0.          0.         -0.07380264 -0.04272168 -0.          0.11176446  0.05466134 -0.
  -0.          0.        ]
 [-0.02999275 -0.08689307  0.00239797 -0.         -0.          0.         -0.          0.25226417 -0.65267381  0.          0.          0.          0.
   0.          0.         -0.          0.         -0.70464257 -0.04426404 -0.02975249  0.          0.         -0.06825647 -0.         -0.          0.07867059
  -0.42264623  0.15444668]
 [-0.          0.         -0.         -0.06096116  0.00176635  0.07080835  0.00047159 -0.         -0.         -0.67770274 -0.04006111 -0.          0.
  -0.         -0.         -0.68813411  0.22704916  0.         -0.          0.         -0.04272168  0.07380264 -0.         -0.05466134  0.11176446  0.
   0.          0.        ]
 [ 0.          0.          0.         -0.          0.         -0.          0.          0.          0.         -0.         -0.         -0.         -0.70430413
   0.15338908 -0.69317464  0.          0.          0.          0.          0.         -0.         -0.          0.          0.         -0.          0.
   0.          0.        ]]
C (ortho)
[[-0.88620198 -0.37041614  0.02628044  0.16078911  0.          0.         -0.20434188  0.         -0.          0.02489454  0.00137874  0.00932851 -0.06426044
   0.         -0.          0.         -0.          0.          0.          0.          0.         -0.          0.         -0.00399471  0.          0.
   0.06543815 -0.00153515]
 [ 0.22617897  0.08855426  0.21635259  0.11531275  0.          0.         -0.84829729  0.         -0.          0.03790727 -0.08693114 -0.02958904 -0.21712521
   0.         -0.          0.         -0.          0.          0.         -0.         -0.         -0.         -0.         -0.02467774  0.          0.
   0.32194734 -0.00394032]
 [ 0.38057958 -0.78883712 -0.05265581  0.36739996  0.          0.          0.04267236  0.         -0.         -0.20118364 -0.01630986  0.14165349 -0.00649681
  -0.         -0.         -0.         -0.         -0.         -0.          0.          0.         -0.          0.         -0.17780586  0.          0.
  -0.01960612  0.02169716]
 [ 0.          0.          0.          0.         -0.36625613  0.79761432 -0.          0.10670406  0.04510733  0.         -0.         -0.         -0.
   0.01525792  0.00147167 -0.          0.          0.         -0.          0.0474608  -0.00003109  0.03964077  0.45542053 -0.          0.01613082  0.06723438
   0.          0.        ]
 [-0.         -0.          0.         -0.         -0.79761432 -0.36625613 -0.          0.04510733 -0.10670406 -0.         -0.         -0.          0.
   0.00147167 -0.01525792  0.         -0.         -0.         -0.         -0.00003109 -0.0474608  -0.45542053  0.03964077  0.         -0.06723438  0.01613082
   0.         -0.        ]
 [-0.         -0.         -0.          0.          0.04435513 -0.10643687  0.          0.7566977   0.35215739  0.          0.          0.          0.
  -0.00134503 -0.00017828  0.         -0.          0.          0.         -0.22327376 -0.00781148 -0.00497727 -0.04044388  0.          0.13078411  0.47055136
  -0.         -0.        ]
 [ 0.          0.         -0.          0.          0.10643687  0.04435513  0.          0.35215739 -0.7566977   0.         -0.         -0.          0.
  -0.00017828  0.00134503 -0.         -0.         -0.         -0.         -0.00781148  0.22327376  0.04044388 -0.00497727 -0.         -0.47055136  0.13078411
  -0.          0.        ]
 [ 0.10266345 -0.12086042 -0.11909179  0.25199188 -0.         -0.          0.05491265 -0.          0.          0.75695562  0.01815829 -0.01118438  0.0048972
   0.         -0.          0.         -0.          0.          0.          0.         -0.          0.          0.          0.40544662 -0.         -0.
   0.03989778 -0.3933388 ]
 [ 0.00555248  0.0208838   0.0837848   0.03437069  0.         -0.          0.1591379   0.         -0.         -0.00100895 -0.13601448 -0.05096944 -0.91811543
   0.         -0.          0.          0.          0.          0.          0.         -0.         -0.          0.          0.04641188 -0.         -0.
  -0.31573014  0.01151349]
 [-0.          0.          0.          0.          0.00488583 -0.00984788 -0.          0.00135702  0.00052614 -0.          0.          0.          0.
   0.99716656  0.06598656 -0.         -0.          0.          0.         -0.02934603  0.00090216 -0.00041131 -0.00724057  0.         -0.00333298 -0.01599864
   0.          0.        ]
 [ 0.         -0.          0.          0.         -0.00984788 -0.00488583 -0.         -0.00052614  0.00135702 -0.          0.          0.         -0.
  -0.06598656  0.99716656 -0.         -0.          0.         -0.         -0.00090216 -0.02934603 -0.00724057  0.00041131  0.         -0.01599864  0.00333298
  -0.         -0.        ]
 [ 0.         -0.          0.          0.          0.         -0.         -0.         -0.         -0.         -0.         -0.         -0.          0.
   0.          0.         -0.03122461  0.97386769  0.00829595  0.22480642 -0.         -0.         -0.         -0.          0.         -0.          0.
  -0.         -0.        ]
 [ 0.          0.         -0.         -0.          0.          0.          0.         -0.          0.          0.          0.          0.         -0.
  -0.         -0.         -0.97386769 -0.03122461 -0.22480642  0.00829595 -0.          0.         -0.          0.         -0.          0.          0.
   0.         -0.        ]
 [ 0.         -0.          0.          0.          0.         -0.         -0.         -0.         -0.         -0.         -0.         -0.          0.
   0.         -0.         -0.05561816  0.21797562  0.17529348 -0.95847037 -0.         -0.          0.          0.          0.         -0.          0.
  -0.         -0.        ]
 [ 0.         -0.          0.          0.          0.          0.         -0.          0.         -0.         -0.         -0.         -0.          0.
   0.          0.          0.21797562  0.05561816 -0.95847037 -0.17529348  0.         -0.          0.          0.          0.          0.          0.
  -0.         -0.        ]
 [-0.          0.          0.          0.         -0.00019903  0.00239826  0.         -0.0237498  -0.02201977 -0.          0.          0.          0.
  -0.02859681 -0.01359664  0.         -0.         -0.          0.         -0.86684102 -0.31349095  0.06471746  0.13945659 -0.         -0.19438343 -0.29467152
   0.          0.        ]
 [-0.          0.          0.          0.          0.00239826  0.00019903 -0.          0.02201977 -0.0237498  -0.         -0.         -0.          0.
   0.01359664 -0.02859681 -0.          0.         -0.          0.          0.31349095 -0.86684102  0.13945659 -0.06471746 -0.         -0.29467152  0.19438343
   0.         -0.        ]
 [ 0.01468747 -0.00144814 -0.03562017  0.06594447 -0.         -0.          0.00133763  0.          0.         -0.07753425 -0.0876913   0.41178885  0.00407002
  -0.         -0.          0.         -0.          0.          0.          0.         -0.          0.          0.          0.67244079 -0.         -0.
   0.07877409  0.59371121]
 [ 0.00863522 -0.12232377 -0.69552946 -0.32058833  0.          0.         -0.1738745   0.         -0.          0.00148929 -0.5893054  -0.14247212 -0.00475435
   0.          0.          0.          0.         -0.         -0.         -0.         -0.         -0.         -0.          0.00501254 -0.          0.
  -0.02350565  0.00320367]
 [-0.07034991  0.37003191 -0.29662547  0.4693006  -0.          0.          0.0089556  -0.          0.          0.15907041 -0.11887645  0.5463804  -0.01932
  -0.         -0.         -0.          0.         -0.         -0.         -0.          0.         -0.         -0.         -0.45157096  0.          0.
  -0.04485853  0.07449107]
 [-0.          0.         -0.          0.         -0.27640442 -0.36772704 -0.         -0.00642946 -0.06689571  0.         -0.          0.         -0.
   0.0024461   0.00579185 -0.          0.          0.          0.          0.04701004  0.08678804  0.7992014   0.34635402 -0.          0.11989853  0.03193381
  -0.          0.        ]
 [-0.         -0.          0.          0.         -0.36772704  0.27640442 -0.          0.06689571 -0.00642946 -0.         -0.          0.         -0.
  -0.00579185  0.0024461  -0.          0.          0.          0.         -0.08678804  0.04701004  0.34635402 -0.7992014  -0.          0.03193381 -0.11989853
  -0.         -0.        ]
 [-0.01171977 -0.00743368 -0.1172368  -0.07470516 -0.         -0.          0.35510332  0.          0.         -0.02303725  0.04074855  0.00427369 -0.26556091
   0.         -0.         -0.          0.         -0.         -0.         -0.          0.          0.          0.         -0.08960474  0.          0.
   0.87946797 -0.01259962]
 [ 0.          0.         -0.         -0.          0.06789166 -0.00362667  0.          0.41231652 -0.33823218  0.          0.          0.          0.
  -0.00277541  0.00423624 -0.         -0.          0.         -0.          0.13746277 -0.26200235 -0.07034424  0.04515405  0.          0.59061883 -0.51728808
   0.          0.        ]
 [ 0.          0.          0.         -0.          0.00362667  0.06789166 -0.         -0.33823218 -0.41231652 -0.          0.          0.         -0.
   0.00423624  0.00277541  0.         -0.          0.          0.         -0.26200235 -0.13746277 -0.04515405 -0.07034424  0.          0.51728808  0.59061883
   0.          0.        ]
 [-0.02935792  0.06439618  0.4888547   0.24789134 -0.         -0.          0.22641486  0.          0.          0.00752761 -0.75870658 -0.1601429   0.18559663
   0.          0.         -0.         -0.         -0.         -0.         -0.         -0.         -0.         -0.         -0.00950624  0.          0.
   0.08616203  0.00022573]
 [ 0.04284682 -0.16802953  0.12427807 -0.21639196 -0.          0.          0.0211087  -0.          0.          0.57984771  0.0447296  -0.17208794  0.0036173
   0.         -0.         -0.          0.         -0.         -0.         -0.          0.         -0.         -0.         -0.35835086 -0.          0.
  -0.02347462  0.6406218 ]
 [-0.00179083 -0.18253157  0.29553408 -0.56565077  0.          0.         -0.01878669 -0.         -0.          0.12789724 -0.15794401  0.657701   -0.01819021
   0.         -0.         -0.          0.         -0.         -0.         -0.         -0.         -0.         -0.         -0.09255434 -0.          0.
  -0.01403497 -0.27578271]]
[[-0.88620198 -0.37041614  0.02628044  0.16078911 -0.          0.          0.20434188  0.         -0.         -0.02489454  0.00137874  0.00932851 -0.06426044
   0.          0.          0.         -0.         -0.         -0.          0.         -0.         -0.         -0.          0.00399471 -0.         -0.
  -0.06543815  0.00153515]
 [ 0.22617897  0.08855426  0.21635259  0.11531275 -0.          0.          0.84829729  0.         -0.         -0.03790727 -0.08693114 -0.02958904 -0.21712521
   0.          0.         -0.         -0.         -0.         -0.         -0.         -0.          0.         -0.          0.02467774 -0.         -0.
  -0.32194734  0.00394032]
 [-0.38057958  0.78883712  0.05265581 -0.36739996 -0.          0.          0.04267236  0.         -0.         -0.20118364  0.01630986 -0.14165349  0.00649681
   0.         -0.          0.          0.          0.          0.         -0.          0.          0.          0.         -0.17780586 -0.         -0.
  -0.01960612  0.02169716]
 [ 0.         -0.         -0.         -0.         -0.17740515  0.85956941 -0.          0.11531665 -0.01106784  0.         -0.          0.         -0.
  -0.0153021   0.00090315  0.         -0.          0.         -0.         -0.04134512 -0.0233047  -0.26119698  0.37517381 -0.          0.01571542  0.06733269
  -0.          0.        ]
 [-0.          0.          0.          0.         -0.85956941 -0.17740515  0.         -0.01106784 -0.11531665  0.          0.         -0.          0.
   0.00090315  0.0153021  -0.          0.         -0.          0.         -0.0233047   0.04134512 -0.37517381 -0.26119698 -0.         -0.06733269  0.01571542
   0.          0.        ]
 [-0.          0.         -0.          0.         -0.01926998  0.11368753  0.         -0.83312462  0.05009587 -0.          0.         -0.         -0.
  -0.00135642  0.00003165 -0.          0.          0.          0.         -0.19059124 -0.116564   -0.02207673  0.03425052  0.         -0.12787652 -0.47134983
   0.         -0.        ]
 [-0.         -0.          0.         -0.         -0.11368753 -0.01926998 -0.          0.05009587  0.83312462 -0.         -0.          0.         -0.
   0.00003165  0.00135642 -0.         -0.         -0.         -0.         -0.116564    0.19059124 -0.03425052 -0.02207673 -0.          0.47134983 -0.12787652
  -0.         -0.        ]
 [-0.10266345  0.12086042  0.11909179 -0.25199188  0.          0.          0.05491265 -0.          0.          0.75695562 -0.01815829  0.01118438 -0.0048972
  -0.          0.         -0.         -0.         -0.         -0.          0.         -0.         -0.          0.          0.40544662  0.          0.
   0.03989778 -0.3933388 ]
 [ 0.00555248  0.0208838   0.0837848   0.03437069  0.         -0.         -0.1591379  -0.         -0.          0.00100895 -0.13601448 -0.05096944 -0.91811543
   0.          0.         -0.          0.         -0.          0.          0.         -0.          0.         -0.         -0.04641188  0.          0.
   0.31573014 -0.01151349]
 [-0.          0.          0.          0.          0.00254482 -0.01069468 -0.          0.00144395 -0.00018256 -0.          0.         -0.         -0.
  -0.99538949  0.0888545   0.         -0.          0.         -0.          0.02599863  0.01364092  0.00432082 -0.00582456  0.         -0.00323414 -0.01601891
  -0.          0.        ]
 [ 0.          0.         -0.          0.         -0.01069468 -0.00254482  0.          0.00018256  0.00144395 -0.          0.         -0.         -0.
  -0.0888545  -0.99538949 -0.          0.          0.          0.         -0.01364092  0.02599863 -0.00582456 -0.00432082  0.         -0.01601891  0.00323414
   0.         -0.        ]
 [-0.          0.          0.          0.          0.         -0.          0.          0.          0.         -0.         -0.          0.          0.
  -0.          0.          0.07109001  0.9717713   0.00333269  0.22493476  0.         -0.         -0.          0.          0.          0.          0.
   0.         -0.        ]
 [-0.          0.         -0.          0.          0.         -0.          0.         -0.         -0.         -0.          0.          0.          0.
  -0.          0.         -0.9717713   0.07109001 -0.22493476  0.00333269 -0.          0.         -0.          0.          0.         -0.          0.
   0.          0.        ]
 [ 0.          0.          0.          0.         -0.          0.          0.          0.          0.         -0.         -0.          0.          0.
  -0.          0.          0.03244941 -0.2226068  -0.19640322  0.95436839  0.          0.          0.          0.          0.         -0.          0.
   0.         -0.        ]
 [-0.          0.          0.          0.          0.          0.          0.          0.          0.         -0.         -0.          0.          0.
   0.          0.         -0.2226068  -0.03244941  0.95436839  0.19640322  0.         -0.          0.         -0.          0.          0.         -0.
   0.         -0.        ]
 [-0.         -0.          0.         -0.         -0.00034567 -0.00238155 -0.          0.03136429  0.00807493 -0.         -0.         -0.          0.
  -0.030354   -0.00901559  0.          0.          0.          0.         -0.60075051 -0.69913429  0.03959891 -0.14855442 -0.          0.19256047  0.29586599
  -0.          0.        ]
 [ 0.         -0.          0.         -0.         -0.00238155  0.00034567  0.         -0.00807493  0.03136429 -0.         -0.          0.          0.
   0.00901559 -0.030354   -0.         -0.         -0.         -0.          0.69913429 -0.60075051 -0.14855442 -0.03959891 -0.          0.29586599 -0.19256047
  -0.         -0.        ]
 [-0.01468747  0.00144814  0.03562017 -0.06594447 -0.          0.          0.00133763 -0.         -0.         -0.07753425  0.0876913  -0.41178885 -0.00407002
   0.          0.         -0.         -0.         -0.         -0.          0.         -0.         -0.          0.          0.67244079  0.          0.
   0.07877409  0.59371121]
 [ 0.00863522 -0.12232377 -0.69552946 -0.32058833 -0.         -0.          0.1738745   0.          0.         -0.00148929 -0.5893054  -0.14247212 -0.00475435
  -0.          0.         -0.         -0.          0.         -0.         -0.         -0.          0.          0.         -0.00501254  0.          0.
   0.02350565 -0.00320367]
 [ 0.07034991 -0.37003191  0.29662547 -0.4693006   0.          0.          0.0089556  -0.         -0.          0.15907041  0.11887645 -0.5463804   0.01932
   0.         -0.          0.          0.          0.          0.         -0.          0.          0.         -0.         -0.45157096 -0.         -0.
  -0.04485853  0.07449107]
 [ 0.         -0.          0.         -0.         -0.35205444 -0.29610851  0.         -0.03747066 -0.0557882   0.          0.         -0.         -0.
  -0.0033115  -0.00534443  0.         -0.          0.         -0.          0.00172778 -0.09868699  0.39203254  0.77781391 -0.          0.11969909  0.03267344
  -0.         -0.        ]
 [ 0.         -0.         -0.         -0.         -0.29610851  0.35205444 -0.          0.0557882  -0.03747066 -0.         -0.         -0.          0.
   0.00534443 -0.0033115  -0.          0.         -0.          0.          0.09868699  0.00172778  0.77781391 -0.39203254  0.          0.03267344 -0.11969909
   0.         -0.        ]
 [-0.01171977 -0.00743368 -0.1172368  -0.07470516 -0.         -0.         -0.35510332 -0.          0.          0.02303725  0.04074855  0.00427369 -0.26556091
   0.         -0.          0.          0.          0.          0.         -0.         -0.          0.         -0.          0.08960474 -0.         -0.
  -0.87946797  0.01259962]
 [-0.          0.         -0.          0.         -0.06533491  0.01880904  0.         -0.20184186  0.49362515  0.          0.          0.         -0.
  -0.00208764  0.00461415  0.         -0.          0.         -0.          0.24850603 -0.1605802   0.08294419  0.01036638 -0.         -0.59380122  0.51363184
   0.          0.        ]
 [ 0.         -0.          0.         -0.         -0.01880904 -0.06533491 -0.          0.49362515  0.20184186 -0.         -0.          0.         -0.
   0.00461415  0.00208764 -0.          0.         -0.          0.         -0.1605802  -0.24850603 -0.01036638  0.08294419  0.         -0.51363184 -0.59380122
   0.          0.        ]
 [-0.02935792  0.06439618  0.4888547   0.24789134 -0.          0.         -0.22641486 -0.         -0.         -0.00752761 -0.75870658 -0.1601429   0.18559663
  -0.         -0.          0.          0.          0.          0.         -0.         -0.          0.         -0.          0.00950624 -0.         -0.
  -0.08616203 -0.00022573]
 [-0.04284682  0.16802953 -0.12427807  0.21639196 -0.         -0.          0.0211087   0.         -0.          0.57984771 -0.0447296   0.17208794 -0.0036173
  -0.         -0.          0.          0.          0.          0.         -0.          0.          0.         -0.         -0.35835086 -0.         -0.
  -0.02347462  0.6406218 ]
 [ 0.00179083  0.18253157 -0.29553408  0.56565077  0.         -0.         -0.01878669  0.          0.          0.12789724  0.15794401 -0.657701    0.01819021
   0.          0.          0.          0.          0.          0.          0.         -0.          0.         -0.         -0.09255434 -0.         -0.
  -0.01403497 -0.27578271]]
grids:  [0.06237655 0.31939555 0.74529195 1.28265786 1.85893479 2.39630071 2.8221971  3.07921611] 
weights:  [0.15900941 0.34931531 0.49276925 0.56970235 0.56970235 0.49276925 0.34931531 0.15900941]
S = 0.0, Sz = 0.0
Wigner small d:  1
value : [1. 1. 1. 1. 1. 1. 1. 1.]
**** Start Cycle 1 ****
dm (ortho)
[[[ 0.78535395 -0.20044025 -0.33727038 ...  0.02601704 -0.03797094  0.00158704]
  [-0.20044025  0.05115693  0.0860791  ... -0.00664014  0.00969105 -0.00040505]
  [-0.33727038  0.0860791   0.14484082 ... -0.01117302  0.01630662 -0.00068155]
  ...
  [ 0.02601704 -0.00664014 -0.01117302 ...  0.00086189 -0.00125789  0.00005258]
  [-0.03797094  0.00969105  0.01630662 ... -0.00125789  0.00183585 -0.00007673]
  [ 0.00158704 -0.00040505 -0.00068155 ...  0.00005258 -0.00007673  0.00000321]]

 [[ 0.78535395 -0.20044025  0.33727038 ...  0.02601704  0.03797094 -0.00158704]
  [-0.20044025  0.05115693 -0.0860791  ... -0.00664014 -0.00969105  0.00040505]
  [ 0.33727038 -0.0860791   0.14484082 ...  0.01117302  0.01630662 -0.00068155]
  ...
  [ 0.02601704 -0.00664014  0.01117302 ...  0.00086189  0.00125789 -0.00005258]
  [ 0.03797094 -0.00969105  0.01630662 ...  0.00125789  0.00183585 -0.00007673]
  [-0.00158704  0.00040505 -0.00068155 ... -0.00005258 -0.00007673  0.00000321]]]
Fock (ortho)
 (array([[-0.28021282,  0.37468865,  0.20753126,  0.        ,  0.        , -0.        ,  0.        ,  0.09263101,  0.07844004, -0.        , -0.        ,
        -0.        ,  0.        , -0.        , -0.        ,  0.        ,  0.        ,  0.02596722, -0.01308266,  0.01133451, -0.        , -0.        ,
         0.22696321, -0.        ,  0.        , -0.04601208,  0.01228944, -0.01059912],
       [ 0.37468865,  1.1734164 , -0.08657706,  0.        , -0.        ,  0.        ,  0.        ,  0.00971346,  0.13758415, -0.        , -0.        ,
        -0.        , -0.        , -0.        , -0.        ,  0.        ,  0.        ,  0.00789699,  0.153587  , -0.00951157, -0.        ,  0.        ,
         1.11518631, -0.        ,  0.        ,  0.07124164, -0.00045842,  0.00065462],
       [ 0.20753126, -0.08657706,  0.26858965,  0.        ,  0.        , -0.        , -0.        , -0.49709748,  0.00799067, -0.        ,  0.        ,
        -0.        ,  0.        , -0.        , -0.        , -0.        , -0.        , -0.22350245, -0.07993836,  0.58253523,  0.        , -0.        ,
         0.0045856 , -0.        , -0.        ,  0.00731875,  0.06134263,  0.16514145],
       [ 0.        ,  0.        ,  0.        ,  1.37244926,  0.        ,  0.04996962,  0.00178102,  0.        ,  0.        ,  0.02107874,  0.00063419,
         0.        ,  0.        ,  0.        , -0.        ,  0.00766735, -0.00277856,  0.        ,  0.        , -0.        ,  0.62528934, -1.15619195,
         0.        , -0.00142622,  0.00271403, -0.        , -0.        , -0.        ],
       [ 0.        , -0.        ,  0.        ,  0.        ,  1.37244926, -0.00178102,  0.04996962, -0.        ,  0.        ,  0.00063419, -0.02107874,
         0.        , -0.        ,  0.        ,  0.        , -0.00277856, -0.00766735, -0.        , -0.        ,  0.        , -1.15619195, -0.62528934,
        -0.        , -0.00271403, -0.00142622,  0.        , -0.        ,  0.        ],
       [-0.        ,  0.        , -0.        ,  0.04996962, -0.00178102,  1.81179742,  0.        , -0.        , -0.        , -0.00987779, -0.00064995,
         0.        ,  0.        ,  0.        , -0.        ,  0.01724747, -0.00556369, -0.        , -0.        ,  0.        ,  0.00527845, -0.00898016,
         0.        , -0.60309199,  1.25422115,  0.        ,  0.        ,  0.        ],
       [ 0.        ,  0.        , -0.        ,  0.00178102,  0.04996962,  0.        ,  1.81179742,  0.        ,  0.        , -0.00064995,  0.00987779,
         0.        ,  0.        , -0.        , -0.        , -0.00556369, -0.01724747,  0.        ,  0.        , -0.        , -0.00898016, -0.00527845,
        -0.        , -1.25422115, -0.60309199, -0.        ,  0.        , -0.        ],
       [ 0.09263101,  0.00971346, -0.49709748,  0.        , -0.        , -0.        ,  0.        ,  2.18961607, -0.01481296, -0.        ,  0.        ,
         0.        ,  0.        ,  0.        ,  0.        , -0.        ,  0.        , -0.13592313, -0.04045713, -0.66445765, -0.        , -0.        ,
         0.01593688,  0.        , -0.        , -0.00169012, -1.25324166,  0.39889168],
       [ 0.07844004,  0.13758415,  0.00799067,  0.        ,  0.        , -0.        ,  0.        , -0.01481296,  3.16720067, -0.        ,  0.        ,
         0.        , -0.        ,  0.        ,  0.        , -0.        , -0.        ,  0.01504216,  0.21629132,  0.00294418, -0.        ,  0.        ,
        -0.37977457, -0.        , -0.        , -0.32805495,  0.00131158, -0.00029006],
       [-0.        , -0.        , -0.        ,  0.02107874,  0.00063419, -0.00987779, -0.00064995, -0.        , -0.        ,  3.2173701 ,  0.        ,
        -0.        ,  0.        , -0.        , -0.        ,  0.01759644, -0.00698229, -0.        ,  0.        , -0.        , -0.00914651,  0.01820004,
         0.        ,  0.00118378, -0.002097  ,  0.        ,  0.        ,  0.        ],
       [-0.        , -0.        ,  0.        ,  0.00063419, -0.02107874, -0.00064995,  0.00987779,  0.        ,  0.        ,  0.        ,  3.2173701 ,
        -0.        , -0.        , -0.        ,  0.        ,  0.00698229,  0.01759644, -0.        , -0.        ,  0.        , -0.01820004, -0.00914651,
        -0.        , -0.002097  , -0.00118378, -0.        , -0.        , -0.        ],
       [-0.        , -0.        , -0.        ,  0.        ,  0.        ,  0.        ,  0.        ,  0.        ,  0.        , -0.        , -0.        ,
         3.41402843,  0.        , -0.02082643, -0.00460858,  0.        , -0.        , -0.        ,  0.        , -0.        , -0.        ,  0.        ,
        -0.        , -0.        , -0.        ,  0.        ,  0.        , -0.        ],
       [ 0.        , -0.        ,  0.        ,  0.        , -0.        ,  0.        ,  0.        ,  0.        , -0.        ,  0.        , -0.        ,
         0.        ,  3.41402843, -0.00460858,  0.02082643, -0.        ,  0.        , -0.        , -0.        ,  0.        , -0.        , -0.        ,
        -0.        ,  0.        , -0.        ,  0.        , -0.        , -0.        ],
       [-0.        , -0.        , -0.        ,  0.        ,  0.        ,  0.        , -0.        ,  0.        ,  0.        , -0.        , -0.        ,
        -0.02082643, -0.00460858,  3.49474309,  0.        , -0.        , -0.        , -0.        ,  0.        , -0.        , -0.        , -0.        ,
         0.        , -0.        , -0.        ,  0.        ,  0.        ,  0.        ],
       [-0.        , -0.        , -0.        , -0.        ,  0.        , -0.        , -0.        ,  0.        ,  0.        , -0.        ,  0.        ,
        -0.00460858,  0.02082643,  0.        ,  3.49474309,  0.        , -0.        , -0.        ,  0.        , -0.        ,  0.        , -0.        ,
        -0.        , -0.        , -0.        ,  0.        ,  0.        , -0.        ],
       [ 0.        ,  0.        , -0.        ,  0.00766735, -0.00277856,  0.01724747, -0.00556369, -0.        , -0.        ,  0.01759644,  0.00698229,
         0.        , -0.        , -0.        ,  0.        ,  3.74927632, -0.        , -0.        ,  0.        , -0.        ,  0.00359543, -0.00320057,
         0.        ,  0.0194635 , -0.14205191,  0.        ,  0.        ,  0.        ],
       [ 0.        ,  0.        , -0.        , -0.00277856, -0.00766735, -0.00556369, -0.01724747,  0.        , -0.        , -0.00698229,  0.01759644,
        -0.        ,  0.        , -0.        , -0.        , -0.        ,  3.74927632, -0.        ,  0.        , -0.        ,  0.00320057,  0.00359543,
        -0.        , -0.14205191, -0.0194635 ,  0.        ,  0.        ,  0.        ],
       [ 0.02596722,  0.00789699, -0.22350245,  0.        , -0.        , -0.        ,  0.        , -0.13592313,  0.01504216, -0.        , -0.        ,
        -0.        , -0.        , -0.        , -0.        , -0.        , -0.        ,  4.00295793, -0.01642889, -0.3599151 , -0.        , -0.        ,
         0.01119238,  0.        ,  0.        , -0.00425187,  0.63110467, -0.32007268],
       [-0.01308266,  0.153587  , -0.07993836,  0.        , -0.        , -0.        ,  0.        , -0.04045713,  0.21629132,  0.        , -0.        ,
         0.        , -0.        ,  0.        ,  0.        ,  0.        ,  0.        , -0.01642889,  1.17195583, -0.03931152,  0.        ,  0.        ,
        -0.15452708,  0.        ,  0.        ,  0.97292658,  0.00629966, -0.0104569 ],
       [ 0.01133451, -0.00951157,  0.58253523, -0.        ,  0.        ,  0.        , -0.        , -0.66445765,  0.00294418, -0.        ,  0.        ,
        -0.        ,  0.        , -0.        , -0.        , -0.        , -0.        , -0.3599151 , -0.03931152,  1.84671843, -0.        ,  0.        ,
        -0.00703305, -0.        ,  0.        , -0.01635903,  0.66357204,  0.94635338],
       [-0.        , -0.        ,  0.        ,  0.62528934, -1.15619195,  0.00527845, -0.00898016, -0.        , -0.        , -0.00914651, -0.01820004,
        -0.        , -0.        , -0.        ,  0.        ,  0.00359543,  0.00320057, -0.        ,  0.        , -0.        ,  3.18011264,  0.        ,
        -0.        ,  0.00961162,  0.01431826, -0.        ,  0.        , -0.        ],
       [-0.        ,  0.        , -0.        , -1.15619195, -0.62528934, -0.00898016, -0.00527845, -0.        ,  0.        ,  0.01820004, -0.00914651,
         0.        , -0.        , -0.        , -0.        , -0.00320057,  0.00359543, -0.        ,  0.        ,  0.        ,  0.        ,  3.18011264,
         0.        ,  0.01431826, -0.00961162,  0.        ,  0.        ,  0.        ],
       [ 0.22696321,  1.11518631,  0.0045856 ,  0.        , -0.        ,  0.        , -0.        ,  0.01593688, -0.37977457,  0.        , -0.        ,
        -0.        , -0.        ,  0.        , -0.        ,  0.        , -0.        ,  0.01119238, -0.15452708, -0.00703305, -0.        ,  0.        ,
         3.59313788, -0.        ,  0.        ,  0.11777221, -0.00947495,  0.00325708],
       [-0.        , -0.        , -0.        , -0.00142622, -0.00271403, -0.60309199, -1.25422115,  0.        , -0.        ,  0.00118378, -0.002097  ,
        -0.        ,  0.        , -0.        , -0.        ,  0.0194635 , -0.14205191,  0.        ,  0.        , -0.        ,  0.00961162,  0.01431826,
        -0.        ,  3.10774212,  0.        ,  0.        , -0.        , -0.        ],
       [ 0.        ,  0.        , -0.        ,  0.00271403, -0.00142622,  1.25422115, -0.60309199, -0.        , -0.        , -0.002097  , -0.00118378,
        -0.        , -0.        , -0.        , -0.        , -0.14205191, -0.0194635 ,  0.        ,  0.        ,  0.        ,  0.01431826, -0.00961162,
         0.        , -0.        ,  3.10774212,  0.        ,  0.        ,  0.        ],
       [-0.04601208,  0.07124164,  0.00731875, -0.        ,  0.        ,  0.        , -0.        , -0.00169012, -0.32805495,  0.        , -0.        ,
         0.        ,  0.        ,  0.        ,  0.        ,  0.        ,  0.        , -0.00425187,  0.97292658, -0.01635903, -0.        ,  0.        ,
         0.11777221,  0.        ,  0.        ,  1.79375454,  0.00376681, -0.01376787],
       [ 0.01228944, -0.00045842,  0.06134263, -0.        , -0.        ,  0.        ,  0.        , -1.25324166,  0.00131158,  0.        , -0.        ,
         0.        , -0.        ,  0.        ,  0.        ,  0.        ,  0.        ,  0.63110467,  0.00629966,  0.66357204,  0.        ,  0.        ,
        -0.00947495, -0.        ,  0.        ,  0.00376681,  3.05327091, -0.88331696],
       [-0.01059912,  0.00065462,  0.16514145, -0.        ,  0.        ,  0.        , -0.        ,  0.39889168, -0.00029006,  0.        , -0.        ,
        -0.        , -0.        ,  0.        , -0.        ,  0.        ,  0.        , -0.32007268, -0.0104569 ,  0.94635338, -0.        ,  0.        ,
         0.00325708, -0.        ,  0.        , -0.01376787, -0.88331696,  1.82843229]]), array([[-0.28021282,  0.37468865, -0.20753126,  0.        , -0.        , -0.        , -0.        , -0.09263101,  0.07844004, -0.        , -0.        ,
        -0.        , -0.        , -0.        , -0.        ,  0.        ,  0.        , -0.02596722, -0.01308266, -0.01133451, -0.        ,  0.        ,
         0.22696321, -0.        ,  0.        , -0.04601208, -0.01228944,  0.01059912],
       [ 0.37468865,  1.1734164 ,  0.08657706, -0.        , -0.        ,  0.        ,  0.        , -0.00971346,  0.13758415, -0.        , -0.        ,
        -0.        ,  0.        , -0.        , -0.        ,  0.        ,  0.        , -0.00789699,  0.153587  ,  0.00951157, -0.        ,  0.        ,
         1.11518631, -0.        ,  0.        ,  0.07124164,  0.00045842, -0.00065462],
       [-0.20753126,  0.08657706,  0.26858965,  0.        ,  0.        , -0.        , -0.        , -0.49709748, -0.00799067, -0.        ,  0.        ,
        -0.        , -0.        , -0.        , -0.        , -0.        ,  0.        , -0.22350245,  0.07993836,  0.58253523,  0.        , -0.        ,
        -0.0045856 , -0.        , -0.        , -0.00731875,  0.06134263,  0.16514145],
       [ 0.        , -0.        ,  0.        ,  1.37244926,  0.        , -0.04996962, -0.00178102,  0.        ,  0.        ,  0.02107874,  0.00063419,
         0.        ,  0.        ,  0.        , -0.        , -0.00766735,  0.00277856,  0.        ,  0.        , -0.        ,  0.62528934, -1.15619195,
         0.        ,  0.00142622, -0.00271403, -0.        , -0.        , -0.        ],
       [-0.        , -0.        ,  0.        ,  0.        ,  1.37244926,  0.00178102, -0.04996962, -0.        , -0.        ,  0.00063419, -0.02107874,
         0.        , -0.        ,  0.        ,  0.        ,  0.00277856,  0.00766735, -0.        , -0.        ,  0.        , -1.15619195, -0.62528934,
        -0.        ,  0.00271403,  0.00142622,  0.        , -0.        ,  0.        ],
       [-0.        ,  0.        , -0.        , -0.04996962,  0.00178102,  1.81179742,  0.        , -0.        , -0.        ,  0.00987779,  0.00064995,
         0.        ,  0.        ,  0.        , -0.        ,  0.01724747, -0.00556369, -0.        , -0.        ,  0.        , -0.00527845,  0.00898016,
         0.        , -0.60309199,  1.25422115,  0.        ,  0.        ,  0.        ],
       [-0.        ,  0.        , -0.        , -0.00178102, -0.04996962,  0.        ,  1.81179742,  0.        ,  0.        ,  0.00064995, -0.00987779,
         0.        ,  0.        , -0.        , -0.        , -0.00556369, -0.01724747,  0.        ,  0.        , -0.        ,  0.00898016,  0.00527845,
        -0.        , -1.25422115, -0.60309199, -0.        ,  0.        , -0.        ],
       [-0.09263101, -0.00971346, -0.49709748,  0.        , -0.        , -0.        ,  0.        ,  2.18961607,  0.01481296, -0.        ,  0.        ,
         0.        , -0.        ,  0.        ,  0.        , -0.        ,  0.        , -0.13592313,  0.04045713, -0.66445765, -0.        , -0.        ,
        -0.01593688,  0.        , -0.        ,  0.00169012, -1.25324166,  0.39889168],
       [ 0.07844004,  0.13758415, -0.00799067,  0.        , -0.        , -0.        ,  0.        ,  0.01481296,  3.16720067, -0.        ,  0.        ,
         0.        , -0.        ,  0.        ,  0.        , -0.        , -0.        , -0.01504216,  0.21629132, -0.00294418, -0.        ,  0.        ,
        -0.37977457, -0.        , -0.        , -0.32805495, -0.00131158,  0.00029006],
       [-0.        , -0.        , -0.        ,  0.02107874,  0.00063419,  0.00987779,  0.00064995, -0.        , -0.        ,  3.2173701 ,  0.        ,
        -0.        ,  0.        , -0.        , -0.        , -0.01759644,  0.00698229, -0.        ,  0.        , -0.        , -0.00914651,  0.01820004,
         0.        , -0.00118378,  0.002097  ,  0.        ,  0.        ,  0.        ],
       [-0.        , -0.        ,  0.        ,  0.00063419, -0.02107874,  0.00064995, -0.00987779,  0.        ,  0.        ,  0.        ,  3.2173701 ,
        -0.        , -0.        , -0.        ,  0.        , -0.00698229, -0.01759644, -0.        , -0.        ,  0.        , -0.01820004, -0.00914651,
        -0.        ,  0.002097  ,  0.00118378, -0.        , -0.        , -0.        ],
       [-0.        , -0.        , -0.        ,  0.        ,  0.        ,  0.        ,  0.        ,  0.        ,  0.        , -0.        , -0.        ,
         3.41402843,  0.        ,  0.02082643,  0.00460858,  0.        ,  0.        , -0.        ,  0.        , -0.        , -0.        ,  0.        ,
        -0.        , -0.        , -0.        ,  0.        ,  0.        , -0.        ],
       [-0.        ,  0.        , -0.        ,  0.        , -0.        ,  0.        ,  0.        , -0.        , -0.        ,  0.        , -0.        ,
         0.        ,  3.41402843,  0.00460858, -0.02082643, -0.        ,  0.        , -0.        ,  0.        , -0.        , -0.        , -0.        ,
        -0.        ,  0.        , -0.        , -0.        , -0.        ,  0.        ],
       [-0.        , -0.        , -0.        ,  0.        ,  0.        ,  0.        , -0.        ,  0.        ,  0.        , -0.        , -0.        ,
         0.02082643,  0.00460858,  3.49474309,  0.        , -0.        , -0.        , -0.        ,  0.        , -0.        , -0.        , -0.        ,
         0.        , -0.        , -0.        ,  0.        ,  0.        ,  0.        ],
       [-0.        , -0.        , -0.        , -0.        ,  0.        , -0.        , -0.        ,  0.        ,  0.        , -0.        ,  0.        ,
         0.00460858, -0.02082643,  0.        ,  3.49474309,  0.        , -0.        , -0.        ,  0.        , -0.        ,  0.        , -0.        ,
        -0.        , -0.        , -0.        ,  0.        ,  0.        , -0.        ],
       [ 0.        ,  0.        , -0.        , -0.00766735,  0.00277856,  0.01724747, -0.00556369, -0.        , -0.        , -0.01759644, -0.00698229,
         0.        , -0.        , -0.        ,  0.        ,  3.74927632,  0.        , -0.        ,  0.        , -0.        , -0.00359543,  0.00320057,
         0.        ,  0.0194635 , -0.14205191,  0.        ,  0.        ,  0.        ],
       [ 0.        ,  0.        ,  0.        ,  0.00277856,  0.00766735, -0.00556369, -0.01724747,  0.        , -0.        ,  0.00698229, -0.01759644,
         0.        ,  0.        , -0.        , -0.        , -0.        ,  3.74927632, -0.        ,  0.        , -0.        , -0.00320057, -0.00359543,
        -0.        , -0.14205191, -0.0194635 ,  0.        ,  0.        ,  0.        ],
       [-0.02596722, -0.00789699, -0.22350245,  0.        , -0.        , -0.        ,  0.        , -0.13592313, -0.01504216, -0.        , -0.        ,
        -0.        , -0.        , -0.        , -0.        , -0.        , -0.        ,  4.00295793,  0.01642889, -0.3599151 , -0.        , -0.        ,
        -0.01119238,  0.        ,  0.        ,  0.00425187,  0.63110467, -0.32007268],
       [-0.01308266,  0.153587  ,  0.07993836,  0.        , -0.        , -0.        ,  0.        ,  0.04045713,  0.21629132,  0.        , -0.        ,
         0.        ,  0.        ,  0.        ,  0.        ,  0.        ,  0.        ,  0.01642889,  1.17195583,  0.03931152,  0.        ,  0.        ,
        -0.15452708,  0.        ,  0.        ,  0.97292658, -0.00629966,  0.0104569 ],
       [-0.01133451,  0.00951157,  0.58253523, -0.        ,  0.        ,  0.        , -0.        , -0.66445765, -0.00294418, -0.        ,  0.        ,
        -0.        , -0.        , -0.        , -0.        , -0.        , -0.        , -0.3599151 ,  0.03931152,  1.84671843, -0.        ,  0.        ,
         0.00703305, -0.        ,  0.        ,  0.01635903,  0.66357204,  0.94635338],
       [-0.        , -0.        ,  0.        ,  0.62528934, -1.15619195, -0.00527845,  0.00898016, -0.        , -0.        , -0.00914651, -0.01820004,
        -0.        , -0.        , -0.        ,  0.        , -0.00359543, -0.00320057, -0.        ,  0.        , -0.        ,  3.18011264,  0.        ,
        -0.        , -0.00961162, -0.01431826, -0.        ,  0.        , -0.        ],
       [ 0.        ,  0.        , -0.        , -1.15619195, -0.62528934,  0.00898016,  0.00527845, -0.        ,  0.        ,  0.01820004, -0.00914651,
         0.        , -0.        , -0.        , -0.        ,  0.00320057, -0.00359543, -0.        ,  0.        ,  0.        ,  0.        ,  3.18011264,
         0.        , -0.01431826,  0.00961162,  0.        ,  0.        ,  0.        ],
       [ 0.22696321,  1.11518631, -0.0045856 ,  0.        , -0.        ,  0.        , -0.        , -0.01593688, -0.37977457,  0.        , -0.        ,
        -0.        , -0.        ,  0.        , -0.        ,  0.        , -0.        , -0.01119238, -0.15452708,  0.00703305, -0.        ,  0.        ,
         3.59313788, -0.        ,  0.        ,  0.11777221,  0.00947495, -0.00325708],
       [-0.        , -0.        , -0.        ,  0.00142622,  0.00271403, -0.60309199, -1.25422115,  0.        , -0.        , -0.00118378,  0.002097  ,
        -0.        ,  0.        , -0.        , -0.        ,  0.0194635 , -0.14205191,  0.        ,  0.        , -0.        , -0.00961162, -0.01431826,
        -0.        ,  3.10774212,  0.        ,  0.        , -0.        , -0.        ],
       [ 0.        ,  0.        , -0.        , -0.00271403,  0.00142622,  1.25422115, -0.60309199, -0.        , -0.        ,  0.002097  ,  0.00118378,
        -0.        , -0.        , -0.        , -0.        , -0.14205191, -0.0194635 ,  0.        ,  0.        ,  0.        , -0.01431826,  0.00961162,
         0.        , -0.        ,  3.10774212,  0.        ,  0.        ,  0.        ],
       [-0.04601208,  0.07124164, -0.00731875, -0.        ,  0.        ,  0.        , -0.        ,  0.00169012, -0.32805495,  0.        , -0.        ,
         0.        , -0.        ,  0.        ,  0.        ,  0.        ,  0.        ,  0.00425187,  0.97292658,  0.01635903, -0.        ,  0.        ,
         0.11777221,  0.        ,  0.        ,  1.79375454, -0.00376681,  0.01376787],
       [-0.01228944,  0.00045842,  0.06134263, -0.        , -0.        ,  0.        ,  0.        , -1.25324166, -0.00131158,  0.        , -0.        ,
         0.        , -0.        ,  0.        ,  0.        ,  0.        ,  0.        ,  0.63110467, -0.00629966,  0.66357204,  0.        ,  0.        ,
         0.00947495, -0.        ,  0.        , -0.00376681,  3.05327091, -0.88331696],
       [ 0.01059912, -0.00065462,  0.16514145, -0.        ,  0.        ,  0.        , -0.        ,  0.39889168,  0.00029006,  0.        , -0.        ,
        -0.        ,  0.        ,  0.        , -0.        ,  0.        ,  0.        , -0.32007268,  0.0104569 ,  0.94635338, -0.        ,  0.        ,
        -0.00325708, -0.        ,  0.        ,  0.01376787, -0.88331696,  1.82843229]]))
E(UHF) =    -1.344680
NO eigenvalue
[-1. -0. -0. -0. -0. -0. -0. -0. -0. -0. -0. -0. -0. -0. -0. -0.  0.  0.  0.  0.  0.  0.  0.  0.  0.  0.  0.  0.] [-1. -0. -0. -0. -0. -0. -0. -0. -0. -0. -0. -0. -0. -0. -0.  0.  0.  0.  0.  0.  0.  0.  0.  0.  0.  0.  0.  0.]
NO vec
[[ 0.88620198  0.         -0.39155113 ...  0.          0.          0.        ]
 [-0.22617897  0.         -0.82510351 ...  0.          0.          0.        ]
 [-0.38057958  0.         -0.34338812 ...  0.          0.          0.        ]
 ...
 [ 0.          0.02935792  0.         ... -0.01778787  0.17844818  0.02057054]
 [ 0.          0.04284682  0.         ... -0.05348428  0.20975887  0.00646745]
 [ 0.         -0.00179083  0.         ...  0.02270977 -0.01964105  0.00137711]]
dm(NO)
[[ 1.  0.  0. ...  0.  0.  0.]
 [ 0.  1.  0. ... -0. -0.  0.]
 [ 0.  0.  0. ...  0.  0.  0.]
 ...
 [ 0.  0.  0. ... -0.  0. -0.]
 [ 0. -0.  0. ... -0.  0.  0.]
 [ 0.  0.  0. ... -0. -0. -0.]]
D(g) (NO)
[[ 0.99951369  0.02105588  0.         ...  0.00237112 -0.0098932  -0.02029505]
 [-0.02105588  0.99951369  0.00991969 ... -0.         -0.          0.        ]
 [ 0.         -0.00991969  0.99951369 ...  0.00447534 -0.02105742  0.00060344]
 ...
 [-0.00237112 -0.         -0.00447534 ...  0.99951369  0.         -0.        ]
 [ 0.0098932   0.          0.02105742 ...  0.          0.99951369 -0.        ]
 [ 0.02029505  0.         -0.00060344 ...  0.         -0.          0.99951369]]
...
N(g) (NO)
[[ 1.00004275 -0.02106702]
 [ 0.02106702  1.00004275]]
...
P(g) (NO)
[[ 1.          0.          0.         ... -0.         -0.          0.        ]
 [ 0.          1.          0.         ... -0.         -0.          0.        ]
 [-0.00020898 -0.00992012 -0.         ...  0.          0.         -0.        ]
 ...
 [-0.00237122  0.00004995 -0.         ... -0.         -0.          0.        ]
 [ 0.00989362 -0.00020842  0.         ...  0.          0.         -0.        ]
 [ 0.02029592 -0.00042756  0.         ...  0.          0.         -0.        ]]
...
Pg_ortho
[[ 0.7855215  -0.20048301 -0.33734234 ...  0.00026349  0.00038456 -0.00001607]
 [-0.20048301  0.05116784  0.08609746 ... -0.00006725 -0.00009815  0.0000041 ]
 [-0.3368992   0.08598436  0.14468142 ...  0.00058369  0.00085188 -0.00003561]
 ...
 [-0.00026349  0.00006725  0.00011316 ...  0.00086207  0.00125816 -0.00005259]
 [ 0.00198365 -0.00050627 -0.00085188 ...  0.00125651  0.00183383 -0.00007665]
 [-0.00008291  0.00002116  0.00003561 ... -0.00005252 -0.00007665  0.0000032 ]]
G(g) (NO)
[[ 0.38145414 -0.00196102 -0.09221934 ... -0.00042449 -0.00102568 -0.00142624]
 [ 0.00196102  0.38145414  0.00081    ...  0.00114171  0.00970839 -0.09447458]
 [-0.09214279  0.00486703  0.91677371 ... -0.00004228  0.00156596 -0.00095566]
 ...
 [-0.00088406  0.00114068 -0.00029464 ...  0.85970885  0.00177377  0.13957555]
 [-0.00668299  0.00977237 -0.00050258 ...  0.00177368  0.92324154  0.02404521]
 [-0.01093907 -0.0943472  -0.00086132 ...  0.13957975  0.02407326  0.83467198]]
...
C(NO)
[[-1.          0.         -0.         ...  0.          0.          0.        ]
 [ 0.         -1.          0.         ...  0.         -0.          0.        ]
 [-0.          0.          0.42320075 ...  0.          0.          0.        ]
 ...
 [ 0.          0.          0.         ... -0.          0.09361454 -0.14893276]
 [ 0.          0.          0.         ... -0.         -0.33628812 -0.07495509]
 [ 0.         -0.          0.         ... -0.          0.07721129  0.07650409]]
detC 1.0000000000000013
detNg [1.00052932 1.01394981 1.07772359 1.24181782 1.53688723 1.89374132 2.12904201 2.19074381]
xg [0.99947096 0.98624211 0.9278817  0.8052711  0.65066583 0.52805523 0.46969482 0.45646597]
ciS 1.4559369285614325
[[-0.86304665  0.          0.08343166 ...  0.          0.          0.        ]
 [ 0.         -0.86304665  0.         ... -0.00273479 -0.0147103   0.08200206]
 [ 0.08343166  0.          0.08010931 ...  0.          0.          0.        ]
 ...
 [ 0.         -0.00273479  0.         ...  1.49727965 -0.31910509  0.38776749]
 [ 0.         -0.0147103   0.         ... -0.31910509  0.48861091 -0.54895579]
 [ 0.          0.08200206  0.         ...  0.38776749 -0.54895579 -0.37788643]]
ciH -1.9838411050305578
S2 = 0.000000
X(g)
[[ 2.          0.         -0.00020898 ...  0.00237122 -0.00989362 -0.02029592]
 [-0.          2.          0.00992012 ...  0.00004995 -0.00020842 -0.00042756]
 [-0.00020898 -0.00992012  0.         ...  0.          0.          0.        ]
 ...
 [-0.00237122  0.00004995  0.         ...  0.          0.          0.        ]
 [ 0.00989362 -0.00020842  0.         ...  0.          0.          0.        ]
 [ 0.02029592 -0.00042756  0.         ...  0.          0.          0.        ]]
X(g) int
[[ 2.         -0.         -0.14753227 ...  0.04101851 -0.17114462 -0.35108841]
 [-0.          2.          0.17160287 ...  0.03526488 -0.14713831 -0.30184153]
 [-0.14753227 -0.17160287  0.         ...  0.          0.          0.        ]
 ...
 [-0.04101851  0.03526488  0.         ...  0.          0.          0.        ]
 [ 0.17114462 -0.14713831  0.         ...  0.          0.          0.        ]
 [ 0.35108841 -0.30184153  0.         ...  0.          0.          0.        ]]
Hsp + Hph =  -1.3625872564347492
Feff (mod,ortho)
[[-0.26221247  0.36833154  0.22552581 ...  0.          0.          0.        ]
 [ 0.36833154  1.17548884 -0.09041255 ...  0.          0.          0.        ]
 [ 0.22552581 -0.09041255  0.24981436 ...  0.          0.          0.        ]
 ...
 [ 0.          0.          0.         ...  1.79380697 -0.00370909  0.01382183]
 [ 0.          0.          0.         ... -0.00370909  3.05332771 -0.88323705]
 [ 0.          0.          0.         ...  0.01382183 -0.88323705  1.82842551]]
E(SUHF) =     -1.03185150
e_a, e_b
[-0.4845889   0.06709702  0.35900979  0.47222859  0.67540832  0.67540832  0.78603101  0.92673018  0.92673018  1.30370302  2.48859033  2.68362826  3.16304502
  3.21692522  3.21692522  3.40873827  3.40873827  3.50003325  3.50003325  3.70731127  3.70731127  3.86988527  3.86988527  3.9279353   4.04248759  4.04248759
  4.17348174  4.86867659] [-0.4845889   0.06709702  0.35900979  0.47222859  0.67540832  0.67540832  0.78603101  0.92673018  0.92673018  1.30370302  2.48859033  2.68362826  3.16304502
  3.21692522  3.21692522  3.40873827  3.40873827  3.50003325  3.50003325  3.70731127  3.70731127  3.86988527  3.86988527  3.9279353   4.04248759  4.04248759
  4.17348174  4.86867659]
P_a, P_b
[[ 0.73754271 -0.19048727 -0.37419914 -0.         -0.          0.         -0.         -0.10380908 -0.00546706  0.         -0.         -0.         -0.
  -0.         -0.          0.          0.         -0.01548064 -0.00008144  0.06327645  0.          0.          0.01040728 -0.          0.          0.02089711
  -0.04049013  0.0053697 ]
 [-0.19048727  0.0491977   0.09664549  0.          0.         -0.          0.          0.02681107  0.00141199 -0.          0.          0.          0.
   0.          0.         -0.         -0.          0.00399823  0.00002103 -0.01634259 -0.         -0.         -0.00268792  0.         -0.         -0.00539716
   0.0104575  -0.00138685]
 [-0.37419914  0.09664549  0.1898534   0.          0.         -0.          0.          0.0526685   0.00277376 -0.          0.          0.          0.
   0.          0.         -0.         -0.          0.00785425  0.00004132 -0.03210389 -0.         -0.         -0.00528023  0.         -0.         -0.01060234
   0.02054304 -0.00272437]
 [-0.          0.          0.          0.          0.         -0.          0.          0.          0.         -0.          0.          0.          0.
   0.          0.         -0.         -0.          0.          0.         -0.         -0.         -0.         -0.          0.         -0.         -0.
   0.         -0.        ]
 [-0.          0.          0.          0.          0.         -0.          0.          0.          0.         -0.          0.          0.          0.
   0.          0.         -0.         -0.          0.          0.         -0.         -0.         -0.         -0.          0.         -0.         -0.
   0.         -0.        ]
 [ 0.         -0.         -0.         -0.         -0.          0.         -0.         -0.         -0.          0.         -0.         -0.         -0.
  -0.         -0.          0.          0.         -0.         -0.          0.          0.          0.          0.         -0.          0.          0.
  -0.          0.        ]
 [-0.          0.          0.          0.          0.         -0.          0.          0.          0.         -0.          0.          0.          0.
   0.          0.         -0.         -0.          0.          0.         -0.         -0.         -0.         -0.          0.         -0.         -0.
   0.         -0.        ]
 [-0.10380908  0.02681107  0.0526685   0.          0.         -0.          0.          0.01461112  0.00076949 -0.          0.          0.          0.
   0.          0.         -0.         -0.          0.0021789   0.00001146 -0.00890616 -0.         -0.         -0.00146482  0.         -0.         -0.00294127
   0.00569898 -0.00075579]
 [-0.00546706  0.00141199  0.00277376  0.          0.         -0.          0.          0.00076949  0.00004052 -0.          0.          0.          0.
   0.          0.         -0.         -0.          0.00011475  0.0000006  -0.00046904 -0.         -0.         -0.00007714  0.         -0.         -0.0001549
   0.00030013 -0.0000398 ]
 [ 0.         -0.         -0.         -0.         -0.          0.         -0.         -0.         -0.          0.         -0.         -0.         -0.
  -0.         -0.          0.          0.         -0.         -0.          0.          0.          0.          0.         -0.          0.          0.
  -0.          0.        ]
 [-0.          0.          0.          0.          0.         -0.          0.          0.          0.         -0.          0.          0.          0.
   0.          0.         -0.         -0.          0.          0.         -0.         -0.         -0.         -0.          0.         -0.         -0.
   0.         -0.        ]
 [-0.          0.          0.          0.          0.         -0.          0.          0.          0.         -0.          0.          0.          0.
   0.          0.         -0.         -0.          0.          0.         -0.         -0.         -0.         -0.          0.         -0.         -0.
   0.         -0.        ]
 [-0.          0.          0.          0.          0.         -0.          0.          0.          0.         -0.          0.          0.          0.
   0.          0.         -0.         -0.          0.          0.         -0.         -0.         -0.         -0.          0.         -0.         -0.
   0.         -0.        ]
 [-0.          0.          0.          0.          0.         -0.          0.          0.          0.         -0.          0.          0.          0.
   0.          0.         -0.         -0.          0.          0.         -0.         -0.         -0.         -0.          0.         -0.         -0.
   0.         -0.        ]
 [-0.          0.          0.          0.          0.         -0.          0.          0.          0.         -0.          0.          0.          0.
   0.          0.         -0.         -0.          0.          0.         -0.         -0.         -0.         -0.          0.         -0.         -0.
   0.         -0.        ]
 [ 0.         -0.         -0.         -0.         -0.          0.         -0.         -0.         -0.          0.         -0.         -0.         -0.
  -0.         -0.          0.          0.         -0.         -0.          0.          0.          0.          0.         -0.          0.          0.
  -0.          0.        ]
 [ 0.         -0.         -0.         -0.         -0.          0.         -0.         -0.         -0.          0.         -0.         -0.         -0.
  -0.         -0.          0.          0.         -0.         -0.          0.          0.          0.          0.         -0.          0.          0.
  -0.          0.        ]
 [-0.01548064  0.00399823  0.00785425  0.          0.         -0.          0.          0.0021789   0.00011475 -0.          0.          0.          0.
   0.          0.         -0.         -0.          0.00032493  0.00000171 -0.00132814 -0.         -0.         -0.00021844  0.         -0.         -0.00043862
   0.00084987 -0.00011271]
 [-0.00008144  0.00002103  0.00004132  0.          0.         -0.          0.          0.00001146  0.0000006  -0.          0.          0.          0.
   0.          0.         -0.         -0.          0.00000171  0.00000001 -0.00000699 -0.         -0.         -0.00000115  0.         -0.         -0.00000231
   0.00000447 -0.00000059]
 [ 0.06327645 -0.01634259 -0.03210389 -0.         -0.          0.         -0.         -0.00890616 -0.00046904  0.         -0.         -0.         -0.
  -0.         -0.          0.          0.         -0.00132814 -0.00000699  0.00542872  0.          0.          0.00089288 -0.          0.          0.00179284
  -0.00347379  0.00046069]
 [ 0.         -0.         -0.         -0.         -0.          0.         -0.         -0.         -0.          0.         -0.         -0.         -0.
  -0.         -0.          0.          0.         -0.         -0.          0.          0.          0.          0.         -0.          0.          0.
  -0.          0.        ]
 [ 0.         -0.         -0.         -0.         -0.          0.         -0.         -0.         -0.          0.         -0.         -0.         -0.
  -0.         -0.          0.          0.         -0.         -0.          0.          0.          0.          0.         -0.          0.          0.
  -0.          0.        ]
 [ 0.01040728 -0.00268792 -0.00528023 -0.         -0.          0.         -0.         -0.00146482 -0.00007714  0.         -0.         -0.         -0.
  -0.         -0.          0.          0.         -0.00021844 -0.00000115  0.00089288  0.          0.          0.00014685 -0.          0.          0.00029487
  -0.00057135  0.00007577]
 [-0.          0.          0.          0.          0.         -0.          0.          0.          0.         -0.          0.          0.          0.
   0.          0.         -0.         -0.          0.          0.         -0.         -0.         -0.         -0.          0.         -0.         -0.
   0.         -0.        ]
 [ 0.         -0.         -0.         -0.         -0.          0.         -0.         -0.         -0.          0.         -0.         -0.         -0.
  -0.         -0.          0.          0.         -0.         -0.          0.          0.          0.          0.         -0.          0.          0.
  -0.          0.        ]
 [ 0.02089711 -0.00539716 -0.01060234 -0.         -0.          0.         -0.         -0.00294127 -0.0001549   0.         -0.         -0.         -0.
  -0.         -0.          0.          0.         -0.00043862 -0.00000231  0.00179284  0.          0.          0.00029487 -0.          0.          0.00059209
  -0.00114722  0.00015214]
 [-0.04049013  0.0104575   0.02054304  0.          0.         -0.          0.          0.00569898  0.00030013 -0.          0.          0.          0.
   0.          0.         -0.         -0.          0.00084987  0.00000447 -0.00347379 -0.         -0.         -0.00057135  0.         -0.         -0.00114722
   0.00222286 -0.00029479]
 [ 0.0053697  -0.00138685 -0.00272437 -0.         -0.          0.         -0.         -0.00075579 -0.0000398   0.         -0.         -0.         -0.
  -0.         -0.          0.          0.         -0.00011271 -0.00000059  0.00046069  0.          0.          0.00007577 -0.          0.          0.00015214
  -0.00029479  0.00003909]] 
 [[ 0.73754271 -0.19048727  0.37419914 -0.         -0.          0.          0.          0.10380908 -0.00546706  0.          0.         -0.          0.
  -0.         -0.         -0.         -0.          0.01548064 -0.00008144 -0.06327645 -0.         -0.          0.01040728  0.         -0.          0.02089711
   0.04049013 -0.0053697 ]
 [-0.19048727  0.0491977  -0.09664549  0.          0.         -0.         -0.         -0.02681107  0.00141199 -0.         -0.          0.         -0.
   0.          0.          0.          0.         -0.00399823  0.00002103  0.01634259  0.          0.         -0.00268792 -0.          0.         -0.00539716
  -0.0104575   0.00138685]
 [ 0.37419914 -0.09664549  0.1898534  -0.         -0.          0.          0.          0.0526685  -0.00277376  0.          0.         -0.          0.
  -0.         -0.         -0.         -0.          0.00785425 -0.00004132 -0.03210389 -0.         -0.          0.00528023  0.         -0.          0.01060234
   0.02054304 -0.00272437]
 [-0.          0.         -0.          0.          0.         -0.         -0.         -0.          0.         -0.         -0.          0.         -0.
   0.          0.          0.          0.         -0.          0.          0.          0.          0.         -0.         -0.          0.         -0.
  -0.          0.        ]
 [-0.          0.         -0.          0.          0.         -0.         -0.         -0.          0.         -0.         -0.          0.         -0.
   0.          0.          0.          0.         -0.          0.          0.          0.          0.         -0.         -0.          0.         -0.
  -0.          0.        ]
 [ 0.         -0.          0.         -0.         -0.          0.          0.          0.         -0.          0.          0.         -0.          0.
  -0.         -0.         -0.         -0.          0.         -0.         -0.         -0.         -0.          0.          0.         -0.          0.
   0.         -0.        ]
 [ 0.         -0.          0.         -0.         -0.          0.          0.          0.         -0.          0.          0.         -0.          0.
  -0.         -0.         -0.         -0.          0.         -0.         -0.         -0.         -0.          0.          0.         -0.          0.
   0.         -0.        ]
 [ 0.10380908 -0.02681107  0.0526685  -0.         -0.          0.          0.          0.01461112 -0.00076949  0.          0.         -0.          0.
  -0.         -0.         -0.         -0.          0.0021789  -0.00001146 -0.00890616 -0.         -0.          0.00146482  0.         -0.          0.00294127
   0.00569898 -0.00075579]
 [-0.00546706  0.00141199 -0.00277376  0.          0.         -0.         -0.         -0.00076949  0.00004052 -0.         -0.          0.         -0.
   0.          0.          0.          0.         -0.00011475  0.0000006   0.00046904  0.          0.         -0.00007714 -0.          0.         -0.0001549
  -0.00030013  0.0000398 ]
 [ 0.         -0.          0.         -0.         -0.          0.          0.          0.         -0.          0.          0.         -0.          0.
  -0.         -0.         -0.         -0.          0.         -0.         -0.         -0.         -0.          0.          0.         -0.          0.
   0.         -0.        ]
 [ 0.         -0.          0.         -0.         -0.          0.          0.          0.         -0.          0.          0.         -0.          0.
  -0.         -0.         -0.         -0.          0.         -0.         -0.         -0.         -0.          0.          0.         -0.          0.
   0.         -0.        ]
 [-0.          0.         -0.          0.          0.         -0.         -0.         -0.          0.         -0.         -0.          0.         -0.
   0.          0.          0.          0.         -0.          0.          0.          0.          0.         -0.         -0.          0.         -0.
  -0.          0.        ]
 [ 0.         -0.          0.         -0.         -0.          0.          0.          0.         -0.          0.          0.         -0.          0.
  -0.         -0.         -0.         -0.          0.         -0.         -0.         -0.         -0.          0.          0.         -0.          0.
   0.         -0.        ]
 [-0.          0.         -0.          0.          0.         -0.         -0.         -0.          0.         -0.         -0.          0.         -0.
   0.          0.          0.          0.         -0.          0.          0.          0.          0.         -0.         -0.          0.         -0.
  -0.          0.        ]
 [-0.          0.         -0.          0.          0.         -0.         -0.         -0.          0.         -0.         -0.          0.         -0.
   0.          0.          0.          0.         -0.          0.          0.          0.          0.         -0.         -0.          0.         -0.
  -0.          0.        ]
 [-0.          0.         -0.          0.          0.         -0.         -0.         -0.          0.         -0.         -0.          0.         -0.
   0.          0.          0.          0.         -0.          0.          0.          0.          0.         -0.         -0.          0.         -0.
  -0.          0.        ]
 [-0.          0.         -0.          0.          0.         -0.         -0.         -0.          0.         -0.         -0.          0.         -0.
   0.          0.          0.          0.         -0.          0.          0.          0.          0.         -0.         -0.          0.         -0.
  -0.          0.        ]
 [ 0.01548064 -0.00399823  0.00785425 -0.         -0.          0.          0.          0.0021789  -0.00011475  0.          0.         -0.          0.
  -0.         -0.         -0.         -0.          0.00032493 -0.00000171 -0.00132814 -0.         -0.          0.00021844  0.         -0.          0.00043862
   0.00084987 -0.00011271]
 [-0.00008144  0.00002103 -0.00004132  0.          0.         -0.         -0.         -0.00001146  0.0000006  -0.         -0.          0.         -0.
   0.          0.          0.          0.         -0.00000171  0.00000001  0.00000699  0.          0.         -0.00000115 -0.          0.         -0.00000231
  -0.00000447  0.00000059]
 [-0.06327645  0.01634259 -0.03210389  0.          0.         -0.         -0.         -0.00890616  0.00046904 -0.         -0.          0.         -0.
   0.          0.          0.          0.         -0.00132814  0.00000699  0.00542872  0.          0.         -0.00089288 -0.          0.         -0.00179284
  -0.00347379  0.00046069]
 [-0.          0.         -0.          0.          0.         -0.         -0.         -0.          0.         -0.         -0.          0.         -0.
   0.          0.          0.          0.         -0.          0.          0.          0.          0.         -0.         -0.          0.         -0.
  -0.          0.        ]
 [-0.          0.         -0.          0.          0.         -0.         -0.         -0.          0.         -0.         -0.          0.         -0.
   0.          0.          0.          0.         -0.          0.          0.          0.          0.         -0.         -0.          0.         -0.
  -0.          0.        ]
 [ 0.01040728 -0.00268792  0.00528023 -0.         -0.          0.          0.          0.00146482 -0.00007714  0.          0.         -0.          0.
  -0.         -0.         -0.         -0.          0.00021844 -0.00000115 -0.00089288 -0.         -0.          0.00014685  0.         -0.          0.00029487
   0.00057135 -0.00007577]
 [ 0.         -0.          0.         -0.         -0.          0.          0.          0.         -0.          0.          0.         -0.          0.
  -0.         -0.         -0.         -0.          0.         -0.         -0.         -0.         -0.          0.          0.         -0.          0.
   0.         -0.        ]
 [-0.          0.         -0.          0.          0.         -0.         -0.         -0.          0.         -0.         -0.          0.         -0.
   0.          0.          0.          0.         -0.          0.          0.          0.          0.         -0.         -0.          0.         -0.
  -0.          0.        ]
 [ 0.02089711 -0.00539716  0.01060234 -0.         -0.          0.          0.          0.00294127 -0.0001549   0.          0.         -0.          0.
  -0.         -0.         -0.         -0.          0.00043862 -0.00000231 -0.00179284 -0.         -0.          0.00029487  0.         -0.          0.00059209
   0.00114722 -0.00015214]
 [ 0.04049013 -0.0104575   0.02054304 -0.         -0.          0.          0.          0.00569898 -0.00030013  0.          0.         -0.          0.
  -0.         -0.         -0.         -0.          0.00084987 -0.00000447 -0.00347379 -0.         -0.          0.00057135  0.         -0.          0.00114722
   0.00222286 -0.00029479]
 [-0.0053697   0.00138685 -0.00272437  0.          0.         -0.         -0.         -0.00075579  0.0000398  -0.         -0.          0.         -0.
   0.          0.          0.          0.         -0.00011271  0.00000059  0.00046069  0.          0.         -0.00007577 -0.          0.         -0.00015214
  -0.00029479  0.00003909]]
**** Start Cycle 2 ****
dm (ortho)
[...]
Feff (mod,ortho)
[[-0.22776187  0.36974398  0.25967338 ...  0.          0.          0.        ]
 [ 0.36974398  1.18151437 -0.10664187 ...  0.          0.          0.        ]
 [ 0.25967338 -0.10664187  0.23818859 ...  0.          0.          0.        ]
 ...
 [ 0.          0.          0.         ...  1.79991207 -0.0048934   0.01744571]
 [ 0.          0.          0.         ... -0.0048934   3.05781388 -0.88340711]
 [ 0.          0.          0.         ...  0.01744571 -0.88340711  1.83311271]]
E(SUHF) =     -1.04660329
e_a, e_b
[-0.50069887  0.08415774  0.35396565  0.48848138  0.67846974  0.67846974  0.79116965  0.93253543  0.93253543  1.30915927  2.49333946  2.70098272  3.16969459
  3.22528732  3.22528732  3.41480364  3.41480364  3.51109091  3.51109091  3.7124826   3.7124826   3.88049366  3.88049366  3.93550545  4.05874413  4.05874413
  4.18763766  4.87924941] [-0.50069887  0.08415774  0.35396565  0.48848138  0.67846974  0.67846974  0.79116965  0.93253543  0.93253543  1.30915927  2.49333946  2.70098272  3.16969459
  3.22528732  3.22528732  3.41480364  3.41480364  3.51109091  3.51109091  3.7124826   3.7124826   3.88049366  3.88049366  3.93550545  4.05874413  4.05874413
  4.18763766  4.87924941]
P_a, P_b
[[ 0.68418402 -0.18200359 -0.40249264  0.          0.         -0.          0.         -0.1237623  -0.00376749  0.         -0.          0.          0.
   0.          0.          0.          0.         -0.02020366 -0.01055651  0.04996932  0.          0.          0.01138658 -0.         -0.          0.02347843
  -0.03997662  0.01799244]
 [-0.18200359  0.04841579  0.1070693  -0.         -0.          0.         -0.          0.0329227   0.00100221 -0.          0.         -0.         -0.
  -0.         -0.         -0.         -0.          0.00537449  0.0028082  -0.01329262 -0.         -0.         -0.00302901  0.          0.         -0.00624563
   0.0106344  -0.00478627]
 [-0.40249264  0.1070693   0.23677888 -0.         -0.          0.         -0.          0.07280704  0.00221634 -0.          0.         -0.         -0.
  -0.         -0.         -0.         -0.          0.01188544  0.0062102  -0.02939602 -0.         -0.         -0.00669851  0.          0.         -0.01381192
   0.0235175  -0.01058462]
 [ 0.         -0.         -0.          0.          0.         -0.          0.         -0.         -0.          0.         -0.          0.          0.
   0.          0.          0.          0.         -0.         -0.          0.          0.          0.          0.         -0.         -0.          0.
  -0.          0.        ]
 [ 0.         -0.         -0.          0.          0.         -0.          0.         -0.         -0.          0.         -0.          0.          0.
   0.          0.          0.          0.         -0.         -0.          0.          0.          0.          0.         -0.         -0.          0.
  -0.          0.        ]
 [-0.          0.          0.         -0.         -0.          0.         -0.          0.          0.         -0.          0.         -0.         -0.
  -0.         -0.         -0.         -0.          0.          0.         -0.         -0.         -0.         -0.          0.          0.         -0.
   0.         -0.        ]
 [ 0.         -0.         -0.          0.          0.         -0.          0.         -0.         -0.          0.         -0.          0.          0.
   0.          0.          0.          0.         -0.         -0.          0.          0.          0.          0.         -0.         -0.          0.
  -0.          0.        ]
 [-0.1237623   0.0329227   0.07280704 -0.         -0.          0.         -0.          0.02238741  0.0006815  -0.          0.         -0.         -0.
  -0.         -0.         -0.         -0.          0.00365465  0.00190957 -0.00903897 -0.         -0.         -0.00205972  0.          0.         -0.00424702
   0.00723138 -0.00325466]
 [-0.00376749  0.00100221  0.00221634 -0.         -0.          0.         -0.          0.0006815   0.00002075 -0.          0.         -0.         -0.
  -0.         -0.         -0.         -0.          0.00011125  0.00005813 -0.00027516 -0.         -0.         -0.0000627   0.          0.         -0.00012929
   0.00022013 -0.00009908]
 [ 0.         -0.         -0.          0.          0.         -0.          0.         -0.         -0.          0.         -0.          0.          0.
   0.          0.          0.          0.         -0.         -0.          0.          0.          0.          0.         -0.         -0.          0.
  -0.          0.        ]
 [-0.          0.          0.         -0.         -0.          0.         -0.          0.          0.         -0.          0.         -0.         -0.
  -0.         -0.         -0.         -0.          0.          0.         -0.         -0.         -0.         -0.          0.          0.         -0.
   0.         -0.        ]
 [ 0.         -0.         -0.          0.          0.         -0.          0.         -0.         -0.          0.         -0.          0.          0.
   0.          0.          0.          0.         -0.         -0.          0.          0.          0.          0.         -0.         -0.          0.
  -0.          0.        ]
 [ 0.         -0.         -0.          0.          0.         -0.          0.         -0.         -0.          0.         -0.          0.          0.
   0.          0.          0.          0.         -0.         -0.          0.          0.          0.          0.         -0.         -0.          0.
  -0.          0.        ]
 [ 0.         -0.         -0.          0.          0.         -0.          0.         -0.         -0.          0.         -0.          0.          0.
   0.          0.          0.          0.         -0.         -0.          0.          0.          0.          0.         -0.         -0.          0.
  -0.          0.        ]
 [ 0.         -0.         -0.          0.          0.         -0.          0.         -0.         -0.          0.         -0.          0.          0.
   0.          0.          0.          0.         -0.         -0.          0.          0.          0.          0.         -0.         -0.          0.
  -0.          0.        ]
 [ 0.         -0.         -0.          0.          0.         -0.          0.         -0.         -0.          0.         -0.          0.          0.
   0.          0.          0.          0.         -0.         -0.          0.          0.          0.          0.         -0.         -0.          0.
  -0.          0.        ]
 [ 0.         -0.         -0.          0.          0.         -0.          0.         -0.         -0.          0.         -0.          0.          0.
   0.          0.          0.          0.         -0.         -0.          0.          0.          0.          0.         -0.         -0.          0.
  -0.          0.        ]
 [-0.02020366  0.00537449  0.01188544 -0.         -0.          0.         -0.          0.00365465  0.00011125 -0.          0.         -0.         -0.
  -0.         -0.         -0.         -0.          0.00059661  0.00031173 -0.00147557 -0.         -0.         -0.00033624  0.          0.         -0.00069331
   0.00118049 -0.00053131]
 [-0.01055651  0.0028082   0.0062102  -0.         -0.          0.         -0.          0.00190957  0.00005813 -0.          0.         -0.         -0.
  -0.         -0.         -0.         -0.          0.00031173  0.00016288 -0.00077099 -0.         -0.         -0.00017569  0.          0.         -0.00036226
   0.00061681 -0.00027761]
 [ 0.04996932 -0.01329262 -0.02939602  0.          0.         -0.          0.         -0.00903897 -0.00027516  0.         -0.          0.          0.
   0.          0.          0.          0.         -0.00147557 -0.00077099  0.00364951  0.          0.          0.00083162 -0.         -0.          0.00171475
  -0.00291969  0.00131408]
 [ 0.         -0.         -0.          0.          0.         -0.          0.         -0.         -0.          0.         -0.          0.          0.
   0.          0.          0.          0.         -0.         -0.          0.          0.          0.          0.         -0.         -0.          0.
  -0.          0.        ]
 [ 0.         -0.         -0.          0.          0.         -0.          0.         -0.         -0.          0.         -0.          0.          0.
   0.          0.          0.          0.         -0.         -0.          0.          0.          0.          0.         -0.         -0.          0.
  -0.          0.        ]
 [ 0.01138658 -0.00302901 -0.00669851  0.          0.         -0.          0.         -0.00205972 -0.0000627   0.         -0.          0.          0.
   0.          0.          0.          0.         -0.00033624 -0.00017569  0.00083162  0.          0.          0.0001895  -0.         -0.          0.00039074
  -0.00066531  0.00029944]
 [-0.          0.          0.         -0.         -0.          0.         -0.          0.          0.         -0.          0.         -0.         -0.
  -0.         -0.         -0.         -0.          0.          0.         -0.         -0.         -0.         -0.          0.          0.         -0.
   0.         -0.        ]
 [-0.          0.          0.         -0.         -0.          0.         -0.          0.          0.         -0.          0.         -0.         -0.
  -0.         -0.         -0.         -0.          0.          0.         -0.         -0.         -0.         -0.          0.          0.         -0.
   0.         -0.        ]
 [ 0.02347843 -0.00624563 -0.01381192  0.          0.         -0.          0.         -0.00424702 -0.00012929  0.         -0.          0.          0.
   0.          0.          0.          0.         -0.00069331 -0.00036226  0.00171475  0.          0.          0.00039074 -0.         -0.          0.00080569
  -0.00137184  0.00061743]
 [-0.03997662  0.0106344   0.0235175  -0.         -0.          0.         -0.          0.00723138  0.00022013 -0.          0.         -0.         -0.
  -0.         -0.         -0.         -0.          0.00118049  0.00061681 -0.00291969 -0.         -0.         -0.00066531  0.          0.         -0.00137184
   0.00233582 -0.00105129]
 [ 0.01799244 -0.00478627 -0.01058462  0.          0.         -0.          0.         -0.00325466 -0.00009908  0.         -0.          0.          0.
   0.          0.          0.          0.         -0.00053131 -0.00027761  0.00131408  0.          0.          0.00029944 -0.         -0.          0.00061743
  -0.00105129  0.00047316]] 
 [[ 0.68418402 -0.18200359  0.40249264 -0.         -0.          0.         -0.          0.1237623  -0.00376749  0.          0.         -0.          0.
  -0.         -0.         -0.         -0.          0.02020366 -0.01055651 -0.04996932 -0.         -0.          0.01138658  0.         -0.          0.02347843
   0.03997662 -0.01799244]
 [-0.18200359  0.04841579 -0.1070693   0.          0.         -0.          0.         -0.0329227   0.00100221 -0.         -0.          0.         -0.
   0.          0.          0.          0.         -0.00537449  0.0028082   0.01329262  0.          0.         -0.00302901 -0.          0.         -0.00624563
  -0.0106344   0.00478627]
 [ 0.40249264 -0.1070693   0.23677888 -0.         -0.          0.         -0.          0.07280704 -0.00221634  0.          0.         -0.          0.
  -0.         -0.         -0.         -0.          0.01188544 -0.0062102  -0.02939602 -0.         -0.          0.00669851  0.         -0.          0.01381192
   0.0235175  -0.01058462]
 [-0.          0.         -0.          0.          0.         -0.          0.         -0.          0.         -0.         -0.          0.         -0.
   0.          0.          0.          0.         -0.          0.          0.          0.          0.         -0.         -0.          0.         -0.
  -0.          0.        ]
 [-0.          0.         -0.          0.          0.         -0.          0.         -0.          0.         -0.         -0.          0.         -0.
   0.          0.          0.          0.         -0.          0.          0.          0.          0.         -0.         -0.          0.         -0.
  -0.          0.        ]
 [ 0.         -0.          0.         -0.         -0.          0.         -0.          0.         -0.          0.          0.         -0.          0.
  -0.         -0.         -0.         -0.          0.         -0.         -0.         -0.         -0.          0.          0.         -0.          0.
   0.         -0.        ]
 [-0.          0.         -0.          0.          0.         -0.          0.         -0.          0.         -0.         -0.          0.         -0.
   0.          0.          0.          0.         -0.          0.          0.          0.          0.         -0.         -0.          0.         -0.
  -0.          0.        ]
 [ 0.1237623  -0.0329227   0.07280704 -0.         -0.          0.         -0.          0.02238741 -0.0006815   0.          0.         -0.          0.
  -0.         -0.         -0.         -0.          0.00365465 -0.00190957 -0.00903897 -0.         -0.          0.00205972  0.         -0.          0.00424702
   0.00723138 -0.00325466]
 [-0.00376749  0.00100221 -0.00221634  0.          0.         -0.          0.         -0.0006815   0.00002075 -0.         -0.          0.         -0.
   0.          0.          0.          0.         -0.00011125  0.00005813  0.00027516  0.          0.         -0.0000627  -0.          0.         -0.00012929
  -0.00022013  0.00009908]
 [ 0.         -0.          0.         -0.         -0.          0.         -0.          0.         -0.          0.          0.         -0.          0.
  -0.         -0.         -0.         -0.          0.         -0.         -0.         -0.         -0.          0.          0.         -0.          0.
   0.         -0.        ]
 [ 0.         -0.          0.         -0.         -0.          0.         -0.          0.         -0.          0.          0.         -0.          0.
  -0.         -0.         -0.         -0.          0.         -0.         -0.         -0.         -0.          0.          0.         -0.          0.
   0.         -0.        ]
 [-0.          0.         -0.          0.          0.         -0.          0.         -0.          0.         -0.         -0.          0.         -0.
   0.          0.          0.          0.         -0.          0.          0.          0.          0.         -0.         -0.          0.         -0.
  -0.          0.        ]
 [ 0.         -0.          0.         -0.         -0.          0.         -0.          0.         -0.          0.          0.         -0.          0.
  -0.         -0.         -0.         -0.          0.         -0.         -0.         -0.         -0.          0.          0.         -0.          0.
   0.         -0.        ]
 [-0.          0.         -0.          0.          0.         -0.          0.         -0.          0.         -0.         -0.          0.         -0.
   0.          0.          0.          0.         -0.          0.          0.          0.          0.         -0.         -0.          0.         -0.
  -0.          0.        ]
 [-0.          0.         -0.          0.          0.         -0.          0.         -0.          0.         -0.         -0.          0.         -0.
   0.          0.          0.          0.         -0.          0.          0.          0.          0.         -0.         -0.          0.         -0.
  -0.          0.        ]
 [-0.          0.         -0.          0.          0.         -0.          0.         -0.          0.         -0.         -0.          0.         -0.
   0.          0.          0.          0.         -0.          0.          0.          0.          0.         -0.         -0.          0.         -0.
  -0.          0.        ]
 [-0.          0.         -0.          0.          0.         -0.          0.         -0.          0.         -0.         -0.          0.         -0.
   0.          0.          0.          0.         -0.          0.          0.          0.          0.         -0.         -0.          0.         -0.
  -0.          0.        ]
 [ 0.02020366 -0.00537449  0.01188544 -0.         -0.          0.         -0.          0.00365465 -0.00011125  0.          0.         -0.          0.
  -0.         -0.         -0.         -0.          0.00059661 -0.00031173 -0.00147557 -0.         -0.          0.00033624  0.         -0.          0.00069331
   0.00118049 -0.00053131]
 [-0.01055651  0.0028082  -0.0062102   0.          0.         -0.          0.         -0.00190957  0.00005813 -0.         -0.          0.         -0.
   0.          0.          0.          0.         -0.00031173  0.00016288  0.00077099  0.          0.         -0.00017569 -0.          0.         -0.00036226
  -0.00061681  0.00027761]
 [-0.04996932  0.01329262 -0.02939602  0.          0.         -0.          0.         -0.00903897  0.00027516 -0.         -0.          0.         -0.
   0.          0.          0.          0.         -0.00147557  0.00077099  0.00364951  0.          0.         -0.00083162 -0.          0.         -0.00171475
  -0.00291969  0.00131408]
 [-0.          0.         -0.          0.          0.         -0.          0.         -0.          0.         -0.         -0.          0.         -0.
   0.          0.          0.          0.         -0.          0.          0.          0.          0.         -0.         -0.          0.         -0.
  -0.          0.        ]
 [-0.          0.         -0.          0.          0.         -0.          0.         -0.          0.         -0.         -0.          0.         -0.
   0.          0.          0.          0.         -0.          0.          0.          0.          0.         -0.         -0.          0.         -0.
  -0.          0.        ]
 [ 0.01138658 -0.00302901  0.00669851 -0.         -0.          0.         -0.          0.00205972 -0.0000627   0.          0.         -0.          0.
  -0.         -0.         -0.         -0.          0.00033624 -0.00017569 -0.00083162 -0.         -0.          0.0001895   0.         -0.          0.00039074
   0.00066531 -0.00029944]
 [ 0.         -0.          0.         -0.         -0.          0.         -0.          0.         -0.          0.          0.         -0.          0.
  -0.         -0.         -0.         -0.          0.         -0.         -0.         -0.         -0.          0.          0.         -0.          0.
   0.         -0.        ]
 [-0.          0.         -0.          0.          0.         -0.          0.         -0.          0.         -0.         -0.          0.         -0.
   0.          0.          0.          0.         -0.          0.          0.          0.          0.         -0.         -0.          0.         -0.
  -0.          0.        ]
 [ 0.02347843 -0.00624563  0.01381192 -0.         -0.          0.         -0.          0.00424702 -0.00012929  0.          0.         -0.          0.
  -0.         -0.         -0.         -0.          0.00069331 -0.00036226 -0.00171475 -0.         -0.          0.00039074  0.         -0.          0.00080569
   0.00137184 -0.00061743]
 [ 0.03997662 -0.0106344   0.0235175  -0.         -0.          0.         -0.          0.00723138 -0.00022013  0.          0.         -0.          0.
  -0.         -0.         -0.         -0.          0.00118049 -0.00061681 -0.00291969 -0.         -0.          0.00066531  0.         -0.          0.00137184
   0.00233582 -0.00105129]
 [-0.01799244  0.00478627 -0.01058462  0.          0.         -0.          0.         -0.00325466  0.00009908 -0.         -0.          0.         -0.
   0.          0.          0.          0.         -0.00053131  0.00027761  0.00131408  0.          0.         -0.00029944 -0.          0.         -0.00061743
  -0.00105129  0.00047316]]

***************
SCF converged at cycle 15
Final E(SUHF) =     -1.04660329, delta E = -4.33168e-09
***** Start DFT Correlation for SUHF+DFT **********
tot grids = 20048
E(SUHF) =     -1.04660329
E_c(TPSS) =     -0.01547588
E(SUHF+DFT) =     -1.06207917
