

#INFO: **** input file is /share/home/srwang/ExSCF/test/pytest/scan_h2/scan_dft.py ****
#import phf
from pyscf import gto, scf
#import scipy
import numpy as np
import sys, os, contextlib

from pyphf import util, sudft

#xyz = 'h2.xyz' #sys.argv[1]
fch = 'test_uhf.fchk' #sys.argv[2]
#bas = '../h2.bas'
bas = 'cc-pvtz'

for r in np.arange(0.5, 2.6, 0.1):
    output = 'sudft_%.1f.out' % r
    os.system("echo '\n' > %s" % output)
    with open(output, 'a', encoding='utf-8') as f:
        with contextlib.redirect_stdout(f):
            xyz = '''H 0.0 0.0 0.0; H 0.0 0.0 %f'''%r
            mf = util.guess_from_fchk(xyz, bas, fch)
            #mf = util.guess(xyz, bas)
            #f.flush()
            mf2 = util.SUHF(mf)
            mf2.cut_no = False
            mf2.debug = False
            mf2.max_cycle = 50
            #mf2.output = 'sudft_%.1f.out'%r
            #mf2.kernel()
            
            mf3 = sudft.SUDFT(mf2)
            mf3.kernel()
                    #INFO: ******************** input file end ********************


System: uname_result(system='Linux', node='xc02n18', release='3.10.0-693.el7.x86_64', version='#1 SMP Thu Jul 6 19:56:57 EDT 2017', machine='x86_64', processor='x86_64')  Threads 24
Python 3.7.4 (default, Aug 13 2019, 20:35:49) 
[GCC 7.3.0]
numpy 1.17.2  scipy 1.4.1
Date: Fri Nov 20 22:49:33 2020
PySCF version 1.7.3
PySCF path  /share/apps/Python/Anaconda3-2019/lib/python3.7/site-packages/pyscf

[CONFIG] conf_file None
[INPUT] verbose = 4
[INPUT] num. atoms = 2
[INPUT] num. electrons = 2
[INPUT] charge = 0
[INPUT] spin (= nelec alpha-beta = 2S) = 0
[INPUT] symmetry False subgroup None
[INPUT] Mole.unit = angstrom
[INPUT]  1 H      0.000000000000   0.000000000000   0.000000000000 AA    0.000000000000   0.000000000000   0.000000000000 Bohr
[INPUT]  2 H      0.000000000000   0.000000000000   1.800000000000 AA    0.000000000000   0.000000000000   3.401507024217 Bohr

nuclear repulsion = 0.2939873394
number of shells = 12
number of NR pGTOs = 32
number of NR cGTOs = 28
basis = cc-pvtz
ecp = {}
CPU time:      2294.25


******** <class 'pyscf.scf.uhf.UHF'> ********
method = UHF
initial guess = minao
damping factor = 0
level_shift factor = 0
DIIS = <class 'pyscf.scf.diis.CDIIS'>
diis_start_cycle = 1
diis_space = 8
SCF conv_tol = 1e-09
SCF conv_tol_grad = None
SCF max_cycles = 1
direct_scf = True
direct_scf_tol = 1e-13
chkfile to save SCF result = /share/home/srwang/ExSCF/test/pytest/scan_h2/tmp70o937ul
max_memory 4000 MB (current use 145 MB)
number electrons alpha = 1  beta = 1
Set gradient conv threshold to 3.16228e-05
init E= -0.660017757767299
  alpha nocc = 1  HOMO = -0.276190807711065  LUMO = -0.0776966751047559
  beta  nocc = 1  HOMO = -0.27460846991659  LUMO = -0.0771916744314204
cycle= 1 E= -0.952432320571369  delta_E= -0.292  |g|= 0.0352  |ddm|=  0.4
SCF not converged.
SCF energy = -0.952432320571369 after 1 cycles  <S^2> = 3.3941973e-07  2S+1 = 1.0000007


******** <class 'pyscf.scf.uhf.UHF'> ********
method = UHF
initial guess = minao
damping factor = 0
level_shift factor = 0
DIIS = <class 'pyscf.scf.diis.CDIIS'>
diis_start_cycle = 1
diis_space = 8
SCF conv_tol = 1e-09
SCF conv_tol_grad = None
SCF max_cycles = 1
direct_scf = True
direct_scf_tol = 1e-13
chkfile to save SCF result = /share/home/srwang/ExSCF/test/pytest/scan_h2/tmp70o937ul
max_memory 4000 MB (current use 146 MB)
number electrons alpha = 1  beta = 1
Set gradient conv threshold to 3.16228e-05
init E= -0.934915624886184
  alpha nocc = 1  HOMO = -0.489209888684064  LUMO = 0.00748934225660438
  beta  nocc = 1  HOMO = -0.489209888684064  LUMO = 0.00748934225660306
cycle= 1 E= -1.00268660738773  delta_E= -0.0678  |g|= 0.0364  |ddm|= 0.0701
SCF not converged.
SCF energy = -1.00268660738773 after 1 cycles  <S^2> = 0.64755163  2S+1 = 1.894784

******** <class 'pyphf.util.SUHF'> ********
SVD: S^(-1/2)
[[-0.15909295  0.29661301  0.09584198 -0.         -0.          0.          0.          0.20512802 -0.00993928  0.          0.          0.         -0.
   0.          0.          0.         -0.          0.10021223 -0.68122917 -0.62980529 -0.0099493  -0.         -0.         -0.         -0.          0.49262908
  -0.83014621  0.73244151]
 [-0.23898736  0.31363858  0.08903508 -0.         -0.          0.         -0.          0.1259242   0.00893196 -0.         -0.         -0.          0.
   0.         -0.         -0.          0.          0.00623833 -0.05521513  0.24308148  0.0119471   0.          0.          0.         -0.         -0.60283569
   1.65926804 -1.61809649]
 [-0.26159307  0.18521687  0.09416728 -0.         -0.         -0.          0.          0.01219307 -0.02420543  0.         -0.          0.         -0.
  -0.          0.         -0.         -0.         -0.01746516  0.48357486  0.5739084  -0.10986641  0.          0.         -0.          0.         -0.48592386
  -0.97273441  1.74720403]
 [ 0.          0.         -0.         -0.15622903  0.33192435 -0.39284156 -0.14132973  0.          0.          0.04964375 -0.02694997 -0.         -0.
  -0.          0.          0.01837687 -0.0597272   0.          0.         -0.          0.          0.00937048  0.80428651 -0.211052    0.78099564  0.
   0.         -0.        ]
 [ 0.         -0.          0.          0.33192435  0.15622903 -0.14132973  0.39284156  0.          0.         -0.02694997 -0.04964375 -0.         -0.
  -0.         -0.         -0.0597272  -0.01837687  0.          0.          0.          0.          0.80428651 -0.00937048  0.78099564  0.211052    0.
   0.          0.        ]
 [-0.05572433 -0.12083992 -0.31248584  0.         -0.          0.          0.          0.45691248 -0.10841885  0.          0.         -0.          0.
  -0.         -0.         -0.         -0.          0.2022105  -0.06504737  0.40624863 -0.8332365   0.          0.          0.          0.          0.72455296
   0.07620939 -0.12589737]
 [ 0.          0.         -0.         -0.17034534  0.36191587 -0.36102537 -0.12988345  0.          0.          0.00535344 -0.00290621  0.          0.
   0.          0.          0.00050037 -0.00162628  0.         -0.          0.         -0.         -0.00865085 -0.74251961  0.23140334 -0.85630555 -0.
  -0.          0.        ]
 [-0.         -0.          0.          0.36191587  0.17034534 -0.12988345  0.36102537  0.          0.         -0.00290621 -0.00535344  0.         -0.
   0.          0.         -0.00162628 -0.00050037  0.          0.         -0.         -0.         -0.74251961  0.00865085 -0.85630555 -0.23140334 -0.
   0.         -0.        ]
 [-0.11209092 -0.16335435 -0.37740247  0.          0.         -0.          0.          0.29543359 -0.03079128 -0.         -0.          0.         -0.
  -0.          0.          0.         -0.          0.0012066  -0.01101614 -0.32618797  0.6808782  -0.         -0.          0.         -0.         -1.34049811
  -0.11469419  0.29774851]
 [ 0.          0.          0.          0.          0.          0.          0.          0.          0.         -0.          0.         -0.70632681  0.
  -0.70788934 -0.          0.          0.          0.          0.         -0.          0.          0.         -0.          0.         -0.          0.
   0.          0.        ]
 [-0.         -0.          0.          0.0300876   0.01416153  0.01268825 -0.03526838 -0.          0.          0.33226821  0.61206157  0.         -0.
   0.         -0.         -0.68192697 -0.20981531  0.          0.         -0.          0.          0.05874044 -0.00068437 -0.06636208 -0.01793333 -0.
  -0.         -0.        ]
 [-0.02262223 -0.00541931 -0.06379088  0.         -0.          0.          0.         -0.16181805  0.67507076  0.         -0.         -0.          0.
  -0.         -0.         -0.         -0.          0.70374048 -0.00290958 -0.01439876 -0.10700863  0.          0.         -0.          0.         -0.28275804
  -0.06204693 -0.01092968]
 [ 0.          0.         -0.         -0.01416153  0.0300876   0.03526838  0.01268825 -0.          0.         -0.61206157  0.33226821  0.         -0.
  -0.          0.          0.20981531 -0.68192697  0.         -0.          0.          0.          0.00068437  0.05874044  0.01793333 -0.06636208  0.
  -0.          0.        ]
 [ 0.          0.          0.         -0.          0.          0.          0.          0.          0.         -0.          0.         -0.         -0.70632681
  -0.          0.70788934 -0.          0.          0.          0.          0.          0.          0.         -0.          0.          0.          0.
   0.          0.        ]
 [-0.15909295 -0.29661301  0.09584198 -0.         -0.         -0.         -0.         -0.20512802 -0.00993928 -0.         -0.         -0.          0.
  -0.         -0.         -0.          0.         -0.10021223 -0.68122917  0.62980529 -0.0099493  -0.          0.          0.          0.         -0.49262908
  -0.83014621 -0.73244151]
 [-0.23898736 -0.31363858  0.08903508 -0.          0.         -0.          0.         -0.1259242   0.00893196  0.          0.          0.         -0.
   0.          0.          0.         -0.         -0.00623833 -0.05521513 -0.24308148  0.0119471  -0.         -0.         -0.         -0.          0.60283569
   1.65926804  1.61809649]
 [-0.26159307 -0.18521687  0.09416728 -0.         -0.          0.         -0.         -0.01219307 -0.02420543 -0.          0.         -0.          0.
  -0.         -0.          0.          0.          0.01746516  0.48357486 -0.5739084  -0.10986641  0.         -0.          0.         -0.          0.48592386
  -0.97273441 -1.74720403]
 [ 0.          0.         -0.         -0.15622903  0.33192435  0.39284156  0.14132973 -0.         -0.          0.04964375 -0.02694997 -0.          0.
  -0.         -0.         -0.01837687  0.0597272  -0.          0.         -0.          0.          0.00937048  0.80428651  0.211052   -0.78099564  0.
  -0.          0.        ]
 [-0.         -0.          0.          0.33192435  0.15622903  0.14132973 -0.39284156 -0.         -0.         -0.02694997 -0.04964375 -0.          0.
  -0.          0.          0.0597272   0.01837687 -0.         -0.          0.          0.          0.80428651 -0.00937048 -0.78099564 -0.211052   -0.
  -0.         -0.        ]
 [ 0.05572433 -0.12083992  0.31248584 -0.         -0.          0.         -0.          0.45691248  0.10841885 -0.         -0.          0.         -0.
   0.          0.         -0.          0.          0.2022105   0.06504737  0.40624863  0.8332365  -0.         -0.         -0.         -0.          0.72455296
  -0.07620939 -0.12589737]
 [ 0.          0.         -0.         -0.17034534  0.36191587  0.36102537  0.12988345 -0.         -0.          0.00535344 -0.00290621  0.          0.
   0.         -0.         -0.00050037  0.00162628  0.         -0.          0.         -0.         -0.00865085 -0.74251961 -0.23140334  0.85630555  0.
  -0.         -0.        ]
 [-0.         -0.          0.          0.36191587  0.17034534  0.12988345 -0.36102537 -0.         -0.         -0.00290621 -0.00535344 -0.         -0.
  -0.          0.          0.00162628  0.00050037  0.          0.         -0.         -0.         -0.74251961  0.00865085  0.85630555  0.23140334  0.
  -0.          0.        ]
 [ 0.11209092 -0.16335435  0.37740247 -0.         -0.          0.         -0.          0.29543359  0.03079128  0.          0.         -0.          0.
  -0.         -0.         -0.         -0.          0.0012066   0.01101614 -0.32618797 -0.6808782   0.          0.          0.          0.         -1.34049811
   0.11469419  0.29774851]
 [ 0.          0.         -0.          0.         -0.         -0.          0.         -0.         -0.         -0.          0.         -0.70632681  0.
   0.70788934  0.          0.          0.         -0.         -0.         -0.         -0.          0.          0.          0.          0.         -0.
  -0.         -0.        ]
 [ 0.          0.         -0.         -0.0300876  -0.01416153  0.01268825 -0.03526838 -0.         -0.         -0.33226821 -0.61206157 -0.         -0.
  -0.         -0.         -0.68192697 -0.20981531  0.          0.         -0.         -0.         -0.05874044  0.00068437 -0.06636208 -0.01793333 -0.
   0.         -0.        ]
 [-0.02262223  0.00541931 -0.06379088 -0.         -0.          0.         -0.          0.16181805  0.67507076  0.         -0.         -0.         -0.
   0.          0.         -0.         -0.         -0.70374048 -0.00290958  0.01439876 -0.10700863  0.          0.          0.         -0.          0.28275804
  -0.06204693  0.01092968]
 [-0.         -0.          0.          0.01416153 -0.0300876   0.03526838  0.01268825 -0.         -0.          0.61206157 -0.33226821 -0.         -0.
  -0.          0.          0.20981531 -0.68192697  0.         -0.          0.         -0.         -0.00068437 -0.05874044  0.01793333 -0.06636208 -0.
  -0.         -0.        ]
 [ 0.          0.          0.          0.         -0.          0.         -0.          0.          0.         -0.         -0.         -0.         -0.70632681
   0.         -0.70788934  0.         -0.          0.          0.          0.          0.          0.          0.         -0.          0.          0.
   0.          0.        ]]
C (ortho)
[[-0.8719557  -0.42369373  0.0082954   0.15786315 -0.         -0.         -0.16764509 -0.          0.          0.02130533  0.02102304  0.0144804  -0.03221722
  -0.         -0.         -0.         -0.         -0.          0.          0.         -0.         -0.00389508  0.         -0.         -0.          0.
   0.0700928  -0.00327632]
 [ 0.42845587 -0.79020579 -0.05868819  0.31437264 -0.          0.          0.04433764 -0.         -0.         -0.21029024 -0.01379485  0.14001303 -0.00725389
   0.         -0.         -0.         -0.         -0.          0.          0.          0.         -0.13983604  0.         -0.         -0.         -0.
  -0.01064864  0.06343521]
 [ 0.18860223  0.07319269  0.14790598  0.11593942  0.         -0.         -0.87384154  0.          0.          0.04371446 -0.04435572 -0.01657741 -0.07576629
  -0.         -0.          0.         -0.         -0.          0.         -0.         -0.         -0.02378993  0.         -0.         -0.          0.
   0.38667191 -0.01341675]
 [-0.         -0.          0.          0.          0.855754    0.09769427  0.         -0.11872784  0.08794366 -0.         -0.         -0.         -0.
   0.01862873 -0.04739056 -0.          0.         -0.         -0.          0.00575754  0.02187185 -0.         -0.04018766  0.46996806 -0.07636832  0.06992116
   0.         -0.        ]
 [ 0.          0.         -0.         -0.         -0.09769427  0.855754   -0.          0.08794366  0.11872784 -0.         -0.         -0.         -0.
  -0.04739056 -0.01862873  0.         -0.          0.         -0.          0.02187185 -0.00575754  0.          0.46996806  0.04018766  0.06992116  0.07636832
  -0.         -0.        ]
 [-0.         -0.          0.          0.          0.03090204 -0.14624576  0.          0.56109196  0.6243296   0.          0.          0.          0.
  -0.0026852  -0.00077204  0.          0.         -0.          0.         -0.12007307  0.0440983  -0.         -0.09346158  0.00086599  0.36942679  0.33386167
   0.          0.        ]
 [-0.         -0.          0.          0.          0.14624576  0.03090204  0.          0.6243296  -0.56109196 -0.         -0.         -0.         -0.
  -0.00077204  0.0026852  -0.         -0.          0.         -0.          0.0440983   0.12007307 -0.          0.00086599  0.09346158  0.33386167 -0.36942679
   0.         -0.        ]
 [ 0.10917916 -0.11797946 -0.15312569  0.24644894 -0.          0.          0.062622   -0.         -0.          0.77418416  0.01025867  0.01795268  0.00406465
  -0.          0.          0.         -0.          0.         -0.         -0.          0.          0.2858814  -0.          0.          0.         -0.
   0.01239789 -0.45207038]
 [-0.00836823 -0.01437711 -0.05470146 -0.03381241  0.          0.         -0.05592258  0.         -0.         -0.00334481  0.20606075  0.06335319  0.96396098
  -0.         -0.         -0.         -0.          0.         -0.         -0.         -0.         -0.03237307  0.          0.         -0.         -0.
   0.12466297 -0.01284229]
 [ 0.          0.          0.          0.          0.01062104 -0.00607925  0.         -0.00411585  0.00001647  0.          0.          0.         -0.
  -0.84090453  0.530409    0.         -0.          0.          0.          0.02307194 -0.05841988 -0.         -0.05675569  0.06486302 -0.0023427   0.00025358
   0.         -0.        ]
 [-0.          0.          0.          0.          0.00607925  0.01062104  0.          0.00001647  0.00411585  0.         -0.          0.          0.
   0.530409    0.84090453  0.          0.         -0.         -0.         -0.05841988 -0.02307194 -0.          0.06486302  0.05675569  0.00025358  0.0023427
   0.          0.        ]
 [-0.         -0.         -0.         -0.          0.          0.         -0.          0.         -0.         -0.          0.          0.         -0.
   0.          0.         -0.01247567 -0.88949327 -0.45612096  0.02448971 -0.         -0.          0.          0.          0.          0.          0.
  -0.         -0.        ]
 [ 0.          0.          0.          0.         -0.         -0.          0.          0.         -0.          0.         -0.          0.         -0.
  -0.          0.         -0.88949327  0.01247567 -0.02448971 -0.45612096 -0.         -0.          0.          0.         -0.         -0.         -0.
   0.         -0.        ]
 [-0.          0.         -0.         -0.          0.         -0.         -0.          0.          0.         -0.          0.          0.         -0.
   0.          0.         -0.00640595 -0.45673301  0.8883013  -0.04769402 -0.          0.          0.         -0.          0.         -0.          0.
  -0.         -0.        ]
 [ 0.          0.          0.         -0.          0.         -0.          0.          0.         -0.         -0.         -0.          0.         -0.
  -0.         -0.          0.45673301 -0.00640595 -0.04769402 -0.8883013   0.         -0.          0.         -0.          0.          0.         -0.
   0.         -0.        ]
 [-0.          0.         -0.          0.          0.00303581  0.00079167  0.          0.01878154 -0.01854126  0.          0.          0.         -0.
   0.01579034 -0.06650698 -0.          0.          0.          0.         -0.3788211  -0.89893354 -0.          0.00468995  0.08347732  0.12055668 -0.14666223
  -0.          0.        ]
 [-0.         -0.         -0.         -0.         -0.00079167  0.00303581 -0.         -0.01854126 -0.01878154 -0.          0.          0.         -0.
  -0.06650698 -0.01579034  0.         -0.         -0.         -0.         -0.89893354  0.3788211   0.          0.08347732 -0.00468995 -0.14666223 -0.12055668
  -0.          0.        ]
 [ 0.01218943 -0.00019618 -0.03938753  0.05682023 -0.          0.          0.00099362 -0.         -0.         -0.07671652 -0.06136408  0.31970205  0.01514242
  -0.          0.          0.         -0.          0.          0.         -0.         -0.          0.82156823 -0.          0.          0.         -0.
   0.07880735  0.44921694]
 [ 0.00194982  0.13555522  0.65209111  0.39652956 -0.          0.          0.18581097 -0.         -0.         -0.00326831  0.57828999  0.13131002 -0.07935671
   0.         -0.          0.         -0.          0.         -0.         -0.          0.         -0.00825885  0.         -0.         -0.          0.
   0.08108799 -0.00484508]
 [ 0.07490828 -0.33605546  0.37254395 -0.47151453 -0.          0.         -0.00999188 -0.          0.         -0.0914405   0.11351148 -0.55512085  0.01855349
   0.          0.          0.         -0.         -0.          0.         -0.         -0.          0.3797406  -0.          0.          0.          0.
   0.02250471 -0.2139666 ]
 [-0.0097147  -0.01459008 -0.1526347  -0.11842146 -0.         -0.          0.36436725 -0.         -0.         -0.02683772 -0.00275329 -0.00171094 -0.11056804
  -0.         -0.         -0.         -0.          0.         -0.         -0.         -0.         -0.07054573  0.         -0.         -0.          0.
   0.90049751 -0.02792401]
 [ 0.          0.         -0.         -0.         -0.40345484 -0.25589759 -0.          0.04117301 -0.07875915  0.          0.          0.          0.
  -0.00502272 -0.06507551 -0.          0.          0.         -0.          0.02863127  0.03338024  0.          0.30518994  0.79566053 -0.06541064  0.16478234
  -0.         -0.        ]
 [ 0.         -0.          0.          0.          0.25589759 -0.40345484 -0.         -0.07875915 -0.04117301 -0.         -0.         -0.          0.
  -0.06507551  0.00502272  0.          0.          0.         -0.          0.03338024 -0.02863127  0.          0.79566053 -0.30518994  0.16478234  0.06541064
  -0.         -0.        ]
 [ 0.          0.         -0.         -0.         -0.08232366 -0.02453542 -0.         -0.35359147  0.37405796  0.          0.         -0.         -0.
   0.00070044 -0.00348127 -0.         -0.          0.         -0.          0.06727008  0.1453784  -0.          0.01519181  0.16707156  0.4990464  -0.6517751
   0.         -0.        ]
 [ 0.         -0.          0.          0.          0.02453542 -0.08232366  0.          0.37405796  0.35359147  0.         -0.         -0.         -0.
  -0.00348127 -0.00070044 -0.         -0.          0.          0.          0.1453784  -0.06727008  0.          0.16707156 -0.01519181 -0.6517751  -0.4990464
  -0.         -0.        ]
 [-0.04355765  0.10736668 -0.05551425  0.0632222  -0.         -0.         -0.02832114  0.          0.         -0.52119146 -0.07897421  0.33653925 -0.00967541
  -0.          0.          0.          0.         -0.          0.          0.          0.          0.21205451 -0.          0.          0.         -0.
  -0.0109144  -0.73646329]
 [ 0.02812593 -0.06727561 -0.46651613 -0.31189892  0.         -0.         -0.17568926  0.         -0.         -0.00619059  0.75927609  0.15014227 -0.21091251
   0.          0.          0.          0.         -0.          0.          0.          0.          0.00695243  0.          0.         -0.         -0.
  -0.07268521  0.00109593]
 [ 0.00340028 -0.17029505  0.37227852 -0.55030442  0.         -0.         -0.01491891  0.          0.          0.25958476 -0.14498145  0.64199748 -0.01605033
   0.         -0.          0.          0.          0.         -0.         -0.          0.         -0.16688597  0.          0.          0.         -0.
  -0.01317317 -0.0221924 ]]
[[-0.8719557  -0.42369373  0.0082954   0.15786315  0.          0.          0.16764509  0.          0.         -0.02130533  0.02102304  0.0144804  -0.03221722
   0.          0.          0.         -0.         -0.         -0.          0.         -0.          0.00389508 -0.         -0.          0.          0.
  -0.0700928   0.00327632]
 [-0.42845587  0.79020579  0.05868819 -0.31437264  0.          0.          0.04433764  0.         -0.         -0.21029024  0.01379485 -0.14001303  0.00725389
  -0.          0.          0.          0.          0.          0.         -0.          0.         -0.13983604  0.         -0.          0.          0.
  -0.01064864  0.06343521]
 [ 0.18860223  0.07319269  0.14790598  0.11593942  0.         -0.          0.87384154  0.          0.         -0.04371446 -0.04435572 -0.01657741 -0.07576629
   0.         -0.         -0.         -0.         -0.         -0.          0.         -0.          0.02378993 -0.         -0.          0.          0.
  -0.38667191  0.01341675]
 [-0.          0.         -0.          0.          0.66820974 -0.54346557 -0.          0.0188958   0.14653783  0.          0.         -0.          0.
   0.04532071 -0.02321481 -0.         -0.          0.         -0.          0.01840517 -0.01314446  0.          0.10264832  0.46037848  0.05973543 -0.08457403
  -0.          0.        ]
 [ 0.         -0.         -0.          0.          0.54346557  0.66820974 -0.          0.14653783 -0.0188958   0.          0.          0.          0.
   0.02321481  0.04532071 -0.          0.         -0.          0.         -0.01314446 -0.01840517  0.          0.46037848 -0.10264832  0.08457403  0.05973543
  -0.         -0.        ]
 [-0.          0.         -0.          0.          0.0829431   0.12435112  0.         -0.81866153  0.18548569 -0.         -0.         -0.         -0.
  -0.00103327 -0.00259589  0.          0.          0.         -0.         -0.08383845 -0.09660909 -0.          0.08889722 -0.02886352 -0.37777191 -0.3243889
  -0.          0.        ]
 [-0.         -0.          0.         -0.         -0.12435112  0.0829431  -0.          0.18548569  0.81866153  0.          0.         -0.          0.
   0.00259589 -0.00103327 -0.         -0.          0.          0.         -0.09660909  0.08383845  0.         -0.02886352 -0.08889722  0.3243889  -0.37777191
  -0.          0.        ]
 [-0.10917916  0.11797946  0.15312569 -0.24644894  0.          0.          0.062622   -0.         -0.          0.77418416 -0.01025867 -0.01795268 -0.00406465
   0.          0.         -0.         -0.         -0.         -0.          0.         -0.          0.2858814   0.         -0.         -0.          0.
   0.01239789 -0.45207038]
 [-0.00836823 -0.01437711 -0.05470146 -0.03381241  0.          0.          0.05592258  0.          0.          0.00334481  0.20606075  0.06335319  0.96396098
  -0.         -0.          0.          0.          0.          0.          0.         -0.          0.03237307 -0.         -0.         -0.          0.
  -0.12466297  0.01284229]
 [ 0.         -0.         -0.          0.          0.00308051 -0.01184374  0.         -0.00199234  0.00360154 -0.          0.         -0.         -0.
  -0.44482975  0.88914601  0.         -0.         -0.         -0.         -0.0628052  -0.0008389   0.         -0.03468351  0.07890167 -0.00004379 -0.00235598
  -0.         -0.        ]
 [ 0.         -0.         -0.          0.          0.01184374  0.00308051  0.          0.00360154  0.00199234 -0.         -0.         -0.         -0.
  -0.88914601 -0.44482975 -0.          0.          0.          0.         -0.0008389   0.0628052   0.          0.07890167  0.03468351  0.00235598 -0.00004379
  -0.          0.        ]
 [ 0.         -0.         -0.         -0.          0.          0.         -0.          0.          0.         -0.          0.          0.          0.
  -0.         -0.         -0.02759143 -0.88915276 -0.45676158 -0.0038651  -0.         -0.         -0.         -0.         -0.          0.          0.
   0.         -0.        ]
 [-0.          0.          0.          0.          0.          0.          0.          0.         -0.         -0.          0.         -0.          0.
   0.          0.         -0.88915276  0.02759143  0.0038651  -0.45676158  0.          0.          0.         -0.         -0.         -0.          0.
  -0.          0.        ]
 [ 0.         -0.         -0.         -0.          0.         -0.         -0.          0.          0.         -0.          0.          0.          0.
  -0.         -0.          0.01416753  0.45655817 -0.88954891 -0.00752732 -0.          0.         -0.         -0.          0.          0.         -0.
   0.         -0.        ]
 [-0.          0.          0.         -0.         -0.         -0.         -0.         -0.          0.          0.          0.         -0.          0.
   0.          0.         -0.45655817  0.01416753 -0.00752732  0.88954891  0.         -0.          0.         -0.         -0.          0.         -0.
  -0.          0.        ]
 [ 0.         -0.          0.         -0.         -0.00268869  0.00161673 -0.          0.00703106  0.02543794  0.         -0.         -0.          0.
  -0.06462394  0.0222769   0.          0.         -0.         -0.          0.70599527 -0.67316983 -0.         -0.02951618 -0.07822565  0.13029332 -0.13808465
   0.          0.        ]
 [-0.          0.          0.         -0.         -0.00161673 -0.00268869 -0.          0.02543794 -0.00703106 -0.         -0.          0.         -0.
  -0.0222769  -0.06462394  0.          0.          0.         -0.         -0.67316983 -0.70599527  0.         -0.07822565  0.02951618  0.13808465  0.13029332
   0.          0.        ]
 [-0.01218943  0.00019618  0.03938753 -0.05682023  0.          0.          0.00099362  0.         -0.         -0.07671652  0.06136408 -0.31970205 -0.01514242
   0.          0.         -0.         -0.         -0.         -0.          0.          0.          0.82156823 -0.         -0.         -0.         -0.
   0.07880735  0.44921694]
 [ 0.00194982  0.13555522  0.65209111  0.39652956  0.          0.         -0.18581097 -0.         -0.          0.00326831  0.57828999  0.13131002 -0.07935671
   0.          0.          0.         -0.         -0.         -0.          0.         -0.          0.00825885 -0.         -0.          0.          0.
  -0.08108799  0.00484508]
 [-0.07490828  0.33605546 -0.37254395  0.47151453 -0.          0.         -0.00999188  0.          0.         -0.0914405  -0.11351148  0.55512085 -0.01855349
  -0.         -0.         -0.         -0.         -0.         -0.          0.         -0.          0.3797406  -0.          0.         -0.         -0.
   0.02250471 -0.2139666 ]
 [-0.0097147  -0.01459008 -0.1526347  -0.11842146 -0.         -0.         -0.36436725 -0.         -0.          0.02683772 -0.00275329 -0.00171094 -0.11056804
   0.          0.         -0.         -0.         -0.         -0.          0.         -0.          0.07054573  0.         -0.          0.          0.
  -0.90049751  0.02792401]
 [ 0.          0.          0.          0.         -0.465048    0.10949769  0.         -0.0486895  -0.07434751 -0.          0.          0.          0.
   0.06525351 -0.00142418 -0.         -0.          0.         -0.          0.02104736 -0.03861345 -0.          0.52982282  0.66746114  0.15522118 -0.08566304
   0.         -0.        ]
 [-0.          0.          0.          0.         -0.10949769 -0.465048    0.         -0.07434751  0.0486895  -0.         -0.          0.          0.
   0.00142418  0.06525351 -0.          0.         -0.          0.         -0.03861345 -0.02104736  0.          0.66746114 -0.52982282  0.08566304  0.15522118
   0.         -0.        ]
 [ 0.          0.         -0.          0.          0.07510343 -0.04169708  0.         -0.15418922 -0.49109263 -0.          0.          0.          0.
  -0.00339514  0.00104059 -0.         -0.          0.          0.         -0.11204449  0.1144822  -0.         -0.06461167 -0.15481934  0.58365938 -0.57723463
  -0.          0.        ]
 [-0.          0.         -0.          0.          0.04169708  0.07510343  0.         -0.49109263  0.15418922 -0.         -0.          0.          0.
  -0.00104059 -0.00339514 -0.          0.         -0.          0.          0.1144822   0.11204449  0.         -0.15481934  0.06461167  0.57723463  0.58365938
   0.         -0.        ]
 [ 0.04355765 -0.10736668  0.05551425 -0.0632222   0.          0.         -0.02832114  0.          0.         -0.52119146  0.07897421 -0.33653925  0.00967541
   0.          0.          0.         -0.         -0.         -0.          0.          0.          0.21205451  0.          0.          0.         -0.
  -0.0109144  -0.73646329]
 [ 0.02812593 -0.06727561 -0.46651613 -0.31189892 -0.         -0.          0.17568926  0.          0.          0.00619059  0.75927609  0.15014227 -0.21091251
   0.          0.         -0.         -0.         -0.         -0.          0.         -0.         -0.00695243  0.         -0.          0.          0.
   0.07268521 -0.00109593]
 [-0.00340028  0.17029505 -0.37227852  0.55030442 -0.         -0.         -0.01491891  0.         -0.          0.25958476  0.14498145 -0.64199748  0.01605033
   0.         -0.         -0.         -0.         -0.         -0.          0.         -0.         -0.16688597 -0.          0.          0.         -0.
  -0.01317317 -0.0221924 ]]
grids:  [0.06237655 0.31939555 0.74529195 1.28265786 1.85893479 2.39630071 2.8221971  3.07921611] 
weights:  [0.15900941 0.34931531 0.49276925 0.56970235 0.56970235 0.49276925 0.34931531 0.15900941]
S = 0.0, Sz = 0.0
Wigner small d:  1
value : [1. 1. 1. 1. 1. 1. 1. 1.]
**** Start Cycle 1 ****
dm (ortho)
[[[ 0.76030674 -0.37359454 -0.16445279 ...  0.03798034 -0.02452457 -0.0029649 ]
  [-0.37359454  0.18357444  0.08080773 ... -0.01866253  0.01205072  0.00145687]
  [-0.16445279  0.08080773  0.0355708  ... -0.00821507  0.00530461  0.0006413 ]
  ...
  [ 0.03798034 -0.01866253 -0.00821507 ...  0.00189727 -0.0012251  -0.00014811]
  [-0.02452457  0.01205072  0.00530461 ... -0.0012251   0.00079107  0.00009564]
  [-0.0029649   0.00145687  0.0006413  ... -0.00014811  0.00009564  0.00001156]]

 [[ 0.76030674  0.37359454 -0.16445279 ... -0.03798034 -0.02452457  0.0029649 ]
  [ 0.37359454  0.18357444 -0.08080773 ... -0.01866253 -0.01205072  0.00145687]
  [-0.16445279 -0.08080773  0.0355708  ...  0.00821507  0.00530461 -0.0006413 ]
  ...
  [-0.03798034 -0.01866253  0.00821507 ...  0.00189727  0.0012251  -0.00014811]
  [-0.02452457 -0.01205072  0.00530461 ...  0.0012251   0.00079107 -0.00009564]
  [ 0.0029649   0.00145687 -0.0006413  ... -0.00014811 -0.00009564  0.00001156]]]
Fock (ortho)
 (array([[-0.27359284,  0.23005034,  0.30913446, -0.        , -0.        , -0.        , -0.        ,  0.09580851, -0.05235574, -0.        , -0.        ,
         0.        ,  0.        ,  0.        ,  0.        ,  0.        ,  0.        ,  0.02088583,  0.08247183, -0.01445022,  0.20922426, -0.        ,
        -0.        , -0.        , -0.        , -0.0116058 ,  0.0533049 , -0.00912272],
       [ 0.23005034,  0.18767864, -0.08688437, -0.        ,  0.        , -0.        , -0.        , -0.45248459, -0.00082952,  0.        ,  0.        ,
         0.        ,  0.        ,  0.        ,  0.        ,  0.        , -0.        , -0.15594061,  0.0847742 , -0.53466047, -0.00122628, -0.        ,
        -0.        ,  0.        , -0.        , -0.04592985, -0.00853396,  0.17409507],
       [ 0.30913446, -0.08688437,  1.18745132,  0.        , -0.        , -0.        ,  0.        ,  0.01844416, -0.03464956, -0.        , -0.        ,
         0.        , -0.        ,  0.        , -0.        ,  0.        ,  0.        ,  0.00724632,  0.0168124 ,  0.01231328,  1.19801608, -0.        ,
        -0.        , -0.        , -0.        , -0.00020532, -0.08653341,  0.00051829],
       [-0.        , -0.        ,  0.        ,  1.44591907,  0.        , -0.00518402, -0.05465356, -0.        ,  0.        , -0.00539919, -0.0039659 ,
        -0.        ,  0.        ,  0.        , -0.        ,  0.00522685, -0.00074419,  0.        , -0.        ,  0.        ,  0.        ,  1.20711279,
        -0.58543377, -0.00461003,  0.00081977,  0.        ,  0.        ,  0.        ],
       [-0.        ,  0.        , -0.        ,  0.        ,  1.44591907,  0.05465356, -0.00518402,  0.        , -0.        ,  0.0039659 , -0.00539919,
        -0.        ,  0.        , -0.        ,  0.        ,  0.00074419,  0.00522685, -0.        ,  0.        , -0.        ,  0.        ,  0.58543377,
         1.20711279, -0.00081977, -0.00461003,  0.        ,  0.        , -0.        ],
       [-0.        , -0.        , -0.        , -0.00518402,  0.05465356,  1.72875632,  0.        , -0.        ,  0.        ,  0.00381019, -0.0042739 ,
        -0.        ,  0.        , -0.        , -0.        ,  0.00096216,  0.02051859,  0.        , -0.        ,  0.        , -0.        ,  0.00346551,
         0.0092915 , -0.11156386, -1.36728122, -0.        , -0.        ,  0.        ],
       [-0.        , -0.        ,  0.        , -0.05465356, -0.00518402,  0.        ,  1.72875632, -0.        , -0.        ,  0.0042739 ,  0.00381019,
        -0.        , -0.        ,  0.        , -0.        , -0.02051859,  0.00096216,  0.        ,  0.        ,  0.        , -0.        , -0.0092915 ,
         0.00346551,  1.36728122, -0.11156386,  0.        ,  0.        ,  0.        ],
       [ 0.09580851, -0.45248459,  0.01844416, -0.        ,  0.        , -0.        , -0.        ,  2.02162588,  0.01501969,  0.        , -0.        ,
         0.        ,  0.        ,  0.        ,  0.        , -0.        , -0.        , -0.09506223,  0.0425483 ,  0.66144226,  0.01386252, -0.        ,
         0.        , -0.        ,  0.        ,  1.27959131,  0.00096941,  0.05679837],
       [-0.05235574, -0.00082952, -0.03464956,  0.        , -0.        ,  0.        , -0.        ,  0.01501969,  3.20994666,  0.        , -0.        ,
        -0.        ,  0.        , -0.        ,  0.        ,  0.        ,  0.        , -0.01824943,  0.0794599 ,  0.00131528,  0.10628993, -0.        ,
        -0.        , -0.        , -0.        ,  0.00187637, -0.26911073,  0.00007228],
       [-0.        ,  0.        , -0.        , -0.00539919,  0.0039659 ,  0.00381019,  0.0042739 ,  0.        ,  0.        ,  3.32611099,  0.        ,
         0.        , -0.        , -0.        ,  0.        ,  0.01567237, -0.0153485 , -0.        , -0.        ,  0.        ,  0.        ,  0.02509808,
        -0.04754523,  0.00110779, -0.00116255,  0.        , -0.        , -0.        ],
       [-0.        ,  0.        , -0.        , -0.0039659 , -0.00539919, -0.0042739 ,  0.00381019, -0.        , -0.        , -0.        ,  3.32611099,
        -0.        ,  0.        , -0.        ,  0.        ,  0.0153485 ,  0.01567237, -0.        , -0.        ,  0.        ,  0.        ,  0.04754523,
         0.02509808,  0.00116255,  0.00110779, -0.        , -0.        , -0.        ],
       [ 0.        ,  0.        ,  0.        , -0.        , -0.        , -0.        , -0.        ,  0.        , -0.        ,  0.        , -0.        ,
         3.4378903 , -0.        , -0.02300228, -0.        ,  0.        ,  0.        , -0.        ,  0.        ,  0.        ,  0.        , -0.        ,
         0.        , -0.        ,  0.        ,  0.        ,  0.        ,  0.        ],
       [ 0.        ,  0.        , -0.        ,  0.        ,  0.        ,  0.        , -0.        ,  0.        ,  0.        , -0.        ,  0.        ,
        -0.        ,  3.4378903 , -0.        ,  0.02300228, -0.        ,  0.        , -0.        ,  0.        ,  0.        , -0.        , -0.        ,
         0.        , -0.        ,  0.        , -0.        , -0.        , -0.        ],
       [ 0.        ,  0.        ,  0.        ,  0.        , -0.        , -0.        ,  0.        ,  0.        , -0.        , -0.        , -0.        ,
        -0.02300228, -0.        ,  3.46649462, -0.        ,  0.        ,  0.        , -0.        ,  0.        ,  0.        ,  0.        ,  0.        ,
        -0.        ,  0.        ,  0.        ,  0.        ,  0.        ,  0.        ],
       [ 0.        ,  0.        , -0.        , -0.        ,  0.        , -0.        , -0.        ,  0.        ,  0.        ,  0.        ,  0.        ,
        -0.        ,  0.02300228, -0.        ,  3.46649462,  0.        , -0.        , -0.        ,  0.        , -0.        , -0.        , -0.        ,
        -0.        ,  0.        , -0.        , -0.        , -0.        , -0.        ],
       [ 0.        ,  0.        ,  0.        ,  0.00522685,  0.00074419,  0.00096216, -0.02051859, -0.        ,  0.        ,  0.01567237,  0.0153485 ,
         0.        , -0.        ,  0.        ,  0.        ,  3.5863634 , -0.        , -0.        , -0.        ,  0.        , -0.        ,  0.0028572 ,
        -0.00091568,  0.10590608, -0.00366128, -0.        ,  0.        ,  0.        ],
       [ 0.        , -0.        ,  0.        , -0.00074419,  0.00522685,  0.02051859,  0.00096216, -0.        ,  0.        , -0.0153485 ,  0.01567237,
         0.        ,  0.        ,  0.        , -0.        , -0.        ,  3.5863634 , -0.        , -0.        , -0.        , -0.        ,  0.00091568,
         0.0028572 ,  0.00366128,  0.10590608, -0.        ,  0.        ,  0.        ],
       [ 0.02088583, -0.15594061,  0.00724632,  0.        , -0.        ,  0.        ,  0.        , -0.09506223, -0.01824943, -0.        , -0.        ,
        -0.        , -0.        , -0.        , -0.        , -0.        , -0.        ,  3.76735698,  0.0141278 ,  0.23833125,  0.00852696, -0.        ,
         0.        , -0.        ,  0.        , -0.51695059,  0.00266862, -0.04245429],
       [ 0.08247183,  0.0847742 ,  0.0168124 , -0.        ,  0.        , -0.        ,  0.        ,  0.0425483 ,  0.0794599 , -0.        , -0.        ,
         0.        ,  0.        ,  0.        ,  0.        , -0.        , -0.        ,  0.0141278 ,  1.17308312, -0.04236712,  0.31342338, -0.        ,
        -0.        , -0.        , -0.        ,  0.01323688,  0.96603283,  0.01011734],
       [-0.01445022, -0.53466047,  0.01231328,  0.        , -0.        ,  0.        ,  0.        ,  0.66144226,  0.00131528,  0.        ,  0.        ,
         0.        ,  0.        ,  0.        , -0.        ,  0.        , -0.        ,  0.23833125, -0.04236712,  1.76913807,  0.01122358, -0.        ,
        -0.        , -0.        , -0.        ,  0.5395698 , -0.01708244, -1.06129307],
       [ 0.20922426, -0.00122628,  1.19801608,  0.        ,  0.        , -0.        , -0.        ,  0.01386252,  0.10628993,  0.        ,  0.        ,
         0.        , -0.        ,  0.        , -0.        , -0.        , -0.        ,  0.00852696,  0.31342338,  0.01122358,  3.44585439, -0.        ,
        -0.        , -0.        , -0.        ,  0.01162662, -0.19814596, -0.00034444],
       [-0.        , -0.        , -0.        ,  1.20711279,  0.58543377,  0.00346551, -0.0092915 , -0.        , -0.        ,  0.02509808,  0.04754523,
        -0.        , -0.        ,  0.        , -0.        ,  0.0028572 ,  0.00091568, -0.        , -0.        , -0.        , -0.        ,  3.10425317,
        -0.        , -0.01841306, -0.00520676,  0.        ,  0.        ,  0.        ],
       [-0.        , -0.        , -0.        , -0.58543377,  1.20711279,  0.0092915 ,  0.00346551,  0.        , -0.        , -0.04754523,  0.02509808,
         0.        ,  0.        , -0.        , -0.        , -0.00091568,  0.0028572 ,  0.        , -0.        , -0.        , -0.        , -0.        ,
         3.10425317,  0.00520676, -0.01841306,  0.        ,  0.        , -0.        ],
       [-0.        ,  0.        , -0.        , -0.00461003, -0.00081977, -0.11156386,  1.36728122, -0.        , -0.        ,  0.00110779,  0.00116255,
        -0.        , -0.        ,  0.        ,  0.        ,  0.10590608,  0.00366128, -0.        , -0.        , -0.        , -0.        , -0.01841306,
         0.00520676,  3.12547506,  0.        ,  0.        ,  0.        ,  0.        ],
       [-0.        , -0.        , -0.        ,  0.00081977, -0.00461003, -1.36728122, -0.11156386,  0.        , -0.        , -0.00116255,  0.00110779,
         0.        ,  0.        ,  0.        , -0.        , -0.00366128,  0.10590608,  0.        , -0.        , -0.        , -0.        , -0.00520676,
        -0.01841306,  0.        ,  3.12547506,  0.        ,  0.        , -0.        ],
       [-0.0116058 , -0.04592985, -0.00020532,  0.        ,  0.        , -0.        ,  0.        ,  1.27959131,  0.00187637,  0.        , -0.        ,
         0.        , -0.        ,  0.        , -0.        , -0.        , -0.        , -0.51695059,  0.01323688,  0.5395698 ,  0.01162662,  0.        ,
         0.        ,  0.        ,  0.        ,  3.30236901,  0.00828035,  0.35662355],
       [ 0.0533049 , -0.00853396, -0.08653341,  0.        ,  0.        , -0.        ,  0.        ,  0.00096941, -0.26911073, -0.        , -0.        ,
         0.        , -0.        ,  0.        , -0.        ,  0.        ,  0.        ,  0.00266862,  0.96603283, -0.01708244, -0.19814596,  0.        ,
         0.        ,  0.        ,  0.        ,  0.00828035,  1.77842808,  0.01423904],
       [-0.00912272,  0.17409507,  0.00051829,  0.        , -0.        ,  0.        ,  0.        ,  0.05679837,  0.00007228, -0.        , -0.        ,
         0.        , -0.        ,  0.        , -0.        ,  0.        ,  0.        , -0.04245429,  0.01011734, -1.06129307, -0.00034444,  0.        ,
        -0.        ,  0.        , -0.        ,  0.35662355,  0.01423904,  1.52008351]]), array([[-0.27359284, -0.23005034,  0.30913446, -0.        , -0.        , -0.        , -0.        , -0.09580851, -0.05235574, -0.        , -0.        ,
         0.        , -0.        ,  0.        , -0.        ,  0.        ,  0.        , -0.02088583,  0.08247183,  0.01445022,  0.20922426, -0.        ,
        -0.        , -0.        , -0.        ,  0.0116058 ,  0.0533049 ,  0.00912272],
       [-0.23005034,  0.18767864,  0.08688437, -0.        ,  0.        , -0.        , -0.        , -0.45248459,  0.00082952,  0.        ,  0.        ,
         0.        , -0.        ,  0.        , -0.        ,  0.        , -0.        , -0.15594061, -0.0847742 , -0.53466047,  0.00122628, -0.        ,
        -0.        ,  0.        , -0.        , -0.04592985,  0.00853396,  0.17409507],
       [ 0.30913446,  0.08688437,  1.18745132,  0.        , -0.        , -0.        ,  0.        , -0.01844416, -0.03464956, -0.        , -0.        ,
         0.        ,  0.        ,  0.        ,  0.        ,  0.        ,  0.        , -0.00724632,  0.0168124 , -0.01231328,  1.19801608, -0.        ,
        -0.        , -0.        , -0.        ,  0.00020532, -0.08653341, -0.00051829],
       [-0.        , -0.        ,  0.        ,  1.44591907,  0.        ,  0.00518402,  0.05465356, -0.        ,  0.        , -0.00539919, -0.0039659 ,
        -0.        ,  0.        ,  0.        , -0.        , -0.00522685,  0.00074419,  0.        , -0.        ,  0.        ,  0.        ,  1.20711279,
        -0.58543377,  0.00461003, -0.00081977,  0.        ,  0.        ,  0.        ],
       [-0.        ,  0.        , -0.        ,  0.        ,  1.44591907, -0.05465356,  0.00518402,  0.        , -0.        ,  0.0039659 , -0.00539919,
        -0.        , -0.        , -0.        ,  0.        , -0.00074419, -0.00522685, -0.        ,  0.        , -0.        ,  0.        ,  0.58543377,
         1.20711279,  0.00081977,  0.00461003,  0.        ,  0.        , -0.        ],
       [-0.        , -0.        , -0.        ,  0.00518402, -0.05465356,  1.72875632,  0.        , -0.        ,  0.        , -0.00381019,  0.0042739 ,
        -0.        ,  0.        , -0.        , -0.        ,  0.00096216,  0.02051859,  0.        , -0.        ,  0.        , -0.        , -0.00346551,
        -0.0092915 , -0.11156386, -1.36728122, -0.        , -0.        ,  0.        ],
       [-0.        , -0.        ,  0.        ,  0.05465356,  0.00518402,  0.        ,  1.72875632, -0.        , -0.        , -0.0042739 , -0.00381019,
        -0.        , -0.        ,  0.        , -0.        , -0.02051859,  0.00096216,  0.        ,  0.        ,  0.        , -0.        ,  0.0092915 ,
        -0.00346551,  1.36728122, -0.11156386,  0.        ,  0.        ,  0.        ],
       [-0.09580851, -0.45248459, -0.01844416, -0.        ,  0.        , -0.        , -0.        ,  2.02162588, -0.01501969, -0.        , -0.        ,
         0.        , -0.        ,  0.        , -0.        , -0.        , -0.        , -0.09506223, -0.0425483 ,  0.66144226, -0.01386252,  0.        ,
         0.        , -0.        ,  0.        ,  1.27959131, -0.00096941,  0.05679837],
       [-0.05235574,  0.00082952, -0.03464956,  0.        , -0.        ,  0.        , -0.        , -0.01501969,  3.20994666,  0.        , -0.        ,
        -0.        , -0.        , -0.        , -0.        ,  0.        ,  0.        ,  0.01824943,  0.0794599 , -0.00131528,  0.10628993, -0.        ,
        -0.        , -0.        , -0.        , -0.00187637, -0.26911073, -0.00007228],
       [-0.        ,  0.        , -0.        , -0.00539919,  0.0039659 , -0.00381019, -0.0042739 , -0.        ,  0.        ,  3.32611099, -0.        ,
         0.        , -0.        , -0.        , -0.        , -0.01567237,  0.0153485 , -0.        , -0.        ,  0.        ,  0.        ,  0.02509808,
        -0.04754523, -0.00110779,  0.00116255,  0.        , -0.        , -0.        ],
       [-0.        ,  0.        , -0.        , -0.0039659 , -0.00539919,  0.0042739 , -0.00381019, -0.        , -0.        , -0.        ,  3.32611099,
        -0.        , -0.        , -0.        ,  0.        , -0.0153485 , -0.01567237, -0.        , -0.        ,  0.        ,  0.        ,  0.04754523,
         0.02509808, -0.00116255, -0.00110779, -0.        , -0.        , -0.        ],
       [ 0.        ,  0.        ,  0.        , -0.        , -0.        , -0.        , -0.        ,  0.        , -0.        ,  0.        , -0.        ,
         3.4378903 , -0.        ,  0.02300228,  0.        ,  0.        , -0.        , -0.        ,  0.        ,  0.        ,  0.        , -0.        ,
         0.        , -0.        ,  0.        ,  0.        ,  0.        ,  0.        ],
       [-0.        , -0.        ,  0.        ,  0.        , -0.        ,  0.        , -0.        , -0.        , -0.        , -0.        , -0.        ,
        -0.        ,  3.4378903 ,  0.        , -0.02300228,  0.        ,  0.        , -0.        , -0.        ,  0.        ,  0.        , -0.        ,
         0.        , -0.        ,  0.        ,  0.        ,  0.        ,  0.        ],
       [ 0.        ,  0.        ,  0.        ,  0.        , -0.        , -0.        ,  0.        ,  0.        , -0.        , -0.        , -0.        ,
         0.02300228,  0.        ,  3.46649462, -0.        ,  0.        ,  0.        , -0.        ,  0.        ,  0.        ,  0.        ,  0.        ,
        -0.        ,  0.        ,  0.        ,  0.        ,  0.        ,  0.        ],
       [-0.        , -0.        ,  0.        , -0.        ,  0.        , -0.        , -0.        , -0.        , -0.        , -0.        ,  0.        ,
         0.        , -0.02300228, -0.        ,  3.46649462,  0.        ,  0.        , -0.        , -0.        ,  0.        , -0.        , -0.        ,
        -0.        ,  0.        , -0.        ,  0.        ,  0.        ,  0.        ],
       [ 0.        ,  0.        ,  0.        , -0.00522685, -0.00074419,  0.00096216, -0.02051859, -0.        ,  0.        , -0.01567237, -0.0153485 ,
         0.        ,  0.        ,  0.        ,  0.        ,  3.5863634 , -0.        , -0.        , -0.        ,  0.        , -0.        , -0.0028572 ,
         0.00091568,  0.10590608, -0.00366128, -0.        ,  0.        ,  0.        ],
       [ 0.        , -0.        ,  0.        ,  0.00074419, -0.00522685,  0.02051859,  0.00096216, -0.        ,  0.        ,  0.0153485 , -0.01567237,
        -0.        ,  0.        ,  0.        ,  0.        , -0.        ,  3.5863634 , -0.        , -0.        , -0.        , -0.        , -0.00091568,
        -0.0028572 ,  0.00366128,  0.10590608, -0.        ,  0.        ,  0.        ],
       [-0.02088583, -0.15594061, -0.00724632,  0.        , -0.        ,  0.        ,  0.        , -0.09506223,  0.01824943, -0.        , -0.        ,
        -0.        , -0.        , -0.        , -0.        , -0.        , -0.        ,  3.76735698, -0.0141278 ,  0.23833125, -0.00852696, -0.        ,
         0.        , -0.        ,  0.        , -0.51695059, -0.00266862, -0.04245429],
       [ 0.08247183, -0.0847742 ,  0.0168124 , -0.        ,  0.        , -0.        ,  0.        , -0.0425483 ,  0.0794599 , -0.        , -0.        ,
         0.        , -0.        ,  0.        , -0.        , -0.        , -0.        , -0.0141278 ,  1.17308312,  0.04236712,  0.31342338, -0.        ,
        -0.        , -0.        , -0.        , -0.01323688,  0.96603283, -0.01011734],
       [ 0.01445022, -0.53466047, -0.01231328,  0.        , -0.        ,  0.        ,  0.        ,  0.66144226, -0.00131528,  0.        ,  0.        ,
         0.        ,  0.        ,  0.        ,  0.        ,  0.        , -0.        ,  0.23833125,  0.04236712,  1.76913807, -0.01122358,  0.        ,
        -0.        ,  0.        , -0.        ,  0.5395698 ,  0.01708244, -1.06129307],
       [ 0.20922426,  0.00122628,  1.19801608,  0.        ,  0.        , -0.        , -0.        , -0.01386252,  0.10628993,  0.        ,  0.        ,
         0.        ,  0.        ,  0.        , -0.        , -0.        , -0.        , -0.00852696,  0.31342338, -0.01122358,  3.44585439, -0.        ,
        -0.        , -0.        , -0.        , -0.01162662, -0.19814596,  0.00034444],
       [-0.        , -0.        , -0.        ,  1.20711279,  0.58543377, -0.00346551,  0.0092915 ,  0.        , -0.        ,  0.02509808,  0.04754523,
        -0.        , -0.        ,  0.        , -0.        , -0.0028572 , -0.00091568, -0.        , -0.        ,  0.        , -0.        ,  3.10425317,
        -0.        ,  0.01841306,  0.00520676,  0.        ,  0.        ,  0.        ],
       [-0.        , -0.        , -0.        , -0.58543377,  1.20711279, -0.0092915 , -0.00346551,  0.        , -0.        , -0.04754523,  0.02509808,
         0.        ,  0.        , -0.        , -0.        ,  0.00091568, -0.0028572 ,  0.        , -0.        , -0.        , -0.        , -0.        ,
         3.10425317, -0.00520676,  0.01841306,  0.        ,  0.        , -0.        ],
       [-0.        ,  0.        , -0.        ,  0.00461003,  0.00081977, -0.11156386,  1.36728122, -0.        , -0.        , -0.00110779, -0.00116255,
        -0.        , -0.        ,  0.        ,  0.        ,  0.10590608,  0.00366128, -0.        , -0.        ,  0.        , -0.        ,  0.01841306,
        -0.00520676,  3.12547506,  0.        ,  0.        ,  0.        ,  0.        ],
       [-0.        , -0.        , -0.        , -0.00081977,  0.00461003, -1.36728122, -0.11156386,  0.        , -0.        ,  0.00116255, -0.00110779,
         0.        ,  0.        ,  0.        , -0.        , -0.00366128,  0.10590608,  0.        , -0.        , -0.        , -0.        ,  0.00520676,
         0.01841306,  0.        ,  3.12547506,  0.        ,  0.        , -0.        ],
       [ 0.0116058 , -0.04592985,  0.00020532,  0.        ,  0.        , -0.        ,  0.        ,  1.27959131, -0.00187637,  0.        , -0.        ,
         0.        ,  0.        ,  0.        ,  0.        , -0.        , -0.        , -0.51695059, -0.01323688,  0.5395698 , -0.01162662,  0.        ,
         0.        ,  0.        ,  0.        ,  3.30236901, -0.00828035,  0.35662355],
       [ 0.0533049 ,  0.00853396, -0.08653341,  0.        ,  0.        , -0.        ,  0.        , -0.00096941, -0.26911073, -0.        , -0.        ,
         0.        ,  0.        ,  0.        ,  0.        ,  0.        ,  0.        , -0.00266862,  0.96603283,  0.01708244, -0.19814596,  0.        ,
         0.        ,  0.        ,  0.        , -0.00828035,  1.77842808, -0.01423904],
       [ 0.00912272,  0.17409507, -0.00051829,  0.        , -0.        ,  0.        ,  0.        ,  0.05679837, -0.00007228, -0.        , -0.        ,
         0.        ,  0.        ,  0.        ,  0.        ,  0.        ,  0.        , -0.04245429, -0.01011734, -1.06129307,  0.00034444,  0.        ,
        -0.        ,  0.        , -0.        ,  0.35662355, -0.01423904,  1.52008351]]))
E(UHF) =    -1.296674
NO eigenvalue
[-1. -0. -0. -0. -0. -0. -0. -0. -0. -0. -0. -0. -0. -0. -0. -0. -0.  0.  0.  0.  0.  0.  0.  0.  0.  0.  0.  0.] [-1. -0. -0. -0. -0. -0. -0. -0. -0. -0. -0. -0. -0. -0. -0.  0.  0.  0.  0.  0.  0.  0.  0.  0.  0.  0.  0.  0.]
NO vec
[[ 0.8719557   0.         -0.46904225 ...  0.          0.          0.        ]
 [-0.42845587  0.         -0.67383155 ...  0.          0.          0.        ]
 [-0.18860223  0.         -0.28809682 ...  0.          0.          0.        ]
 ...
 [ 0.         -0.04355765  0.         ...  0.7591963  -0.20435399  0.50599717]
 [ 0.         -0.02812593  0.         ... -0.00322491  0.02513824 -0.1700614 ]
 [ 0.          0.00340028  0.         ... -0.05872209  0.01937484 -0.04262688]]
dm(NO)
[[ 1.  0.  0. ...  0.  0.  0.]
 [ 0.  1.  0. ... -0.  0. -0.]
 [-0.  0. -0. ...  0.  0.  0.]
 ...
 [ 0. -0.  0. ... -0. -0.  0.]
 [ 0.  0.  0. ...  0. -0. -0.]
 [ 0. -0.  0. ...  0. -0. -0.]]
D(g) (NO)
[[ 0.99951369  0.01851265 -0.         ... -0.00146461 -0.00680638 -0.00838169]
 [-0.01851265  0.99951369  0.02197738 ... -0.          0.         -0.        ]
 [-0.         -0.02197738  0.99951369 ...  0.00185628 -0.01822143 -0.00312009]
 ...
 [ 0.00146461 -0.         -0.00185628 ...  0.99951369  0.         -0.        ]
 [ 0.00680638  0.          0.01822143 ...  0.          0.99951369  0.        ]
 [ 0.00838169 -0.          0.00312009 ... -0.         -0.          0.99951369]]
...
N(g) (NO)
[[ 1.00014345 -0.01852432]
 [ 0.01852432  1.00014345]]
...
P(g) (NO)
[[ 1.         -0.          0.         ...  0.         -0.          0.        ]
 [-0.          1.         -0.         ... -0.          0.         -0.        ]
 [-0.00040712 -0.02198053 -0.         ...  0.         -0.          0.        ]
 ...
 [ 0.00146482 -0.00002713  0.         ...  0.         -0.          0.        ]
 [ 0.00680736 -0.00012608  0.         ...  0.         -0.          0.        ]
 [ 0.0083829  -0.00015527  0.         ...  0.         -0.          0.        ]]
...
Pg_ortho
[[ 0.76048519 -0.37368223 -0.16449139 ... -0.0004813  -0.00031078  0.00003757]
 [-0.37325062  0.18340544  0.08073334 ... -0.00092758 -0.00059896  0.00007241]
 [-0.16449139  0.0808267   0.03557915 ...  0.0001041   0.00006722 -0.00000813]
 ...
 [-0.00188774  0.00092758  0.00040831 ...  0.00189552  0.00122397 -0.00014797]
 [ 0.00031078 -0.00015271 -0.00006722 ...  0.00122539  0.00079125 -0.00009566]
 [ 0.00014736 -0.00007241 -0.00003187 ... -0.00014797 -0.00009555  0.00001155]]
G(g) (NO)
[[ 0.33963929 -0.00208906 -0.09099498 ...  0.00022738 -0.00045855 -0.00111394]
 [ 0.00208906  0.33963929  0.00139636 ... -0.00026847  0.02104697 -0.02418871]
 [-0.09087418  0.01236955  0.87629083 ... -0.00054257  0.00160716  0.00216974]
 ...
 [ 0.0002051  -0.00027057 -0.00011737 ...  0.79904719  0.03683036  0.00371796]
 [-0.00486155  0.02107794 -0.00112065 ...  0.03683283  0.84944701  0.05373185]
 [-0.00706705 -0.02413731 -0.00126734 ...  0.00371855  0.05374109  0.91834341]]
...
C(NO)
[[-1.          0.         -0.         ...  0.          0.          0.        ]
 [ 0.         -1.          0.         ...  0.         -0.         -0.        ]
 [ 0.          0.          0.82746805 ...  0.          0.          0.        ]
 ...
 [ 0.          0.          0.         ... -0.         -0.08660358 -0.69993636]
 [ 0.         -0.          0.         ...  0.         -0.28387614 -0.15931459]
 [ 0.          0.          0.         ...  0.         -0.04927557 -0.23975613]]
detC 1.0000000000000007
detNg [1.00063007 1.01664744 1.0938959  1.301692   1.71169132 2.2816225  2.71132612 2.832235  ]
xg [0.99937033 0.98362516 0.91416377 0.76823089 0.58421748 0.4382846  0.36882321 0.35307805]
ciS 1.352448371457772
[[-0.81813727  0.          0.06754941 ...  0.          0.          0.        ]
 [ 0.         -0.81813727  0.         ...  0.00185894 -0.02475904  0.01215348]
 [ 0.06754941  0.         -0.498744   ...  0.          0.          0.        ]
 ...
 [ 0.          0.00185894  0.         ...  2.38770203  0.49414641  0.44844705]
 [ 0.         -0.02475904  0.         ...  0.49414641  0.45688307 -0.1436641 ]
 [ 0.          0.01215348  0.         ...  0.44844705 -0.1436641   0.74524713]]
ciH -1.7689188869688808
S2 = 0.000000
X(g)
[[ 2.          0.         -0.00040712 ... -0.00146482 -0.00680736 -0.0083829 ]
 [-0.          2.          0.02198053 ... -0.00002713 -0.00012608 -0.00015527]
 [-0.00040712 -0.02198053  0.         ...  0.          0.          0.        ]
 ...
 [ 0.00146482 -0.00002713  0.         ...  0.          0.          0.        ]
 [ 0.00680736 -0.00012608  0.         ...  0.          0.          0.        ]
 [ 0.0083829  -0.00015527  0.         ...  0.          0.          0.        ]]
X(g) int
[[ 2.          0.         -0.3093727  ... -0.02727533 -0.1267549  -0.15609177]
 [-0.          2.          0.40928338 ... -0.02061711 -0.0958126  -0.11798801]
 [-0.3093727  -0.40928338  0.         ...  0.          0.          0.        ]
 ...
 [ 0.02727533 -0.02061711  0.         ...  0.          0.          0.        ]
 [ 0.1267549  -0.0958126   0.         ...  0.          0.          0.        ]
 [ 0.15609177 -0.11798801  0.         ...  0.          0.          0.        ]]
Hsp + Hph =  -1.307938198825442
Feff (mod,ortho)
[[-0.25612847  0.24397395  0.3036747  ...  0.          0.          0.        ]
 [ 0.24397395  0.16977852 -0.0890694  ...  0.          0.          0.        ]
 [ 0.3036747  -0.0890694   1.18899612 ...  0.          0.          0.        ]
 ...
 [ 0.          0.          0.         ...  3.30245362 -0.00819437  0.35653578]
 [ 0.          0.          0.         ... -0.00819437  1.77850384 -0.01429816]
 [ 0.          0.          0.         ...  0.35653578 -0.01429816  1.5200967 ]]
E(SUHF) =     -1.01395086
e_a, e_b
[-0.48255212  0.05872898  0.36415711  0.47348596  0.68956245  0.68956245  0.7253097   0.89352946  0.89352946  1.23195675  2.44573113  2.65674149  3.25425262
  3.32122512  3.32122512  3.42510637  3.42510637  3.47927856  3.47927856  3.57306224  3.57306224  3.74574625  3.84901942  3.84901942  3.99047933  3.99047933
  4.03873963  4.57712533] [-0.48255212  0.05872898  0.36415711  0.47348596  0.68956245  0.68956245  0.7253097   0.89352946  0.89352946  1.23195675  2.44573113  2.65674149  3.25425262
  3.32122512  3.32122512  3.42510637  3.42510637  3.47927856  3.47927856  3.57306224  3.57306224  3.74574625  3.84901942  3.84901942  3.99047933  3.99047933
  4.03873963  4.57712533]
P_a, P_b
[[ 0.69723618 -0.41089712 -0.15459245  0.          0.         -0.          0.         -0.10772589  0.00733361 -0.          0.          0.         -0.
   0.         -0.          0.         -0.         -0.012563   -0.00978745 -0.06589007  0.00981945 -0.         -0.          0.         -0.          0.041041
  -0.01810604  0.00048169]
 [-0.41089712  0.24215101  0.09110484 -0.         -0.          0.         -0.          0.06348531 -0.00432186  0.         -0.         -0.          0.
  -0.          0.         -0.          0.          0.00740366  0.00576797  0.03883052 -0.00578683  0.          0.         -0.          0.         -0.02418639
   0.0106703  -0.00028387]
 [-0.15459245  0.09110484  0.03427651 -0.         -0.          0.         -0.          0.02388518 -0.00162602  0.         -0.         -0.          0.
  -0.          0.         -0.          0.          0.00278549  0.00217009  0.01460926 -0.00217719  0.          0.         -0.          0.         -0.00909968
   0.0040145  -0.0001068 ]
 [ 0.         -0.         -0.          0.          0.         -0.          0.         -0.          0.         -0.          0.          0.         -0.
   0.         -0.          0.         -0.         -0.         -0.         -0.          0.         -0.         -0.          0.         -0.          0.
  -0.          0.        ]
 [ 0.         -0.         -0.          0.          0.         -0.          0.         -0.          0.         -0.          0.          0.         -0.
   0.         -0.          0.         -0.         -0.         -0.         -0.          0.         -0.         -0.          0.         -0.          0.
  -0.          0.        ]
 [-0.          0.          0.         -0.         -0.          0.         -0.          0.         -0.          0.         -0.         -0.          0.
  -0.          0.         -0.          0.          0.          0.          0.         -0.          0.          0.         -0.          0.         -0.
   0.         -0.        ]
 [ 0.         -0.         -0.          0.          0.         -0.          0.         -0.          0.         -0.          0.          0.         -0.
   0.         -0.          0.         -0.         -0.         -0.         -0.          0.         -0.         -0.          0.         -0.          0.
  -0.          0.        ]
 [-0.10772589  0.06348531  0.02388518 -0.         -0.          0.         -0.          0.0166441  -0.00113307  0.         -0.         -0.          0.
  -0.          0.         -0.          0.          0.00194104  0.0015122   0.01018029 -0.00151715  0.          0.         -0.          0.         -0.00634101
   0.00279746 -0.00007442]
 [ 0.00733361 -0.00432186 -0.00162602  0.          0.         -0.          0.         -0.00113307  0.00007714 -0.          0.          0.         -0.
   0.         -0.          0.         -0.         -0.00013214 -0.00010295 -0.00069304  0.00010328 -0.         -0.          0.         -0.          0.00043167
  -0.00019044  0.00000507]
 [-0.          0.          0.         -0.         -0.          0.         -0.          0.         -0.          0.         -0.         -0.          0.
  -0.          0.         -0.          0.          0.          0.          0.         -0.          0.          0.         -0.          0.         -0.
   0.         -0.        ]
 [ 0.         -0.         -0.          0.          0.         -0.          0.         -0.          0.         -0.          0.          0.         -0.
   0.         -0.          0.         -0.         -0.         -0.         -0.          0.         -0.         -0.          0.         -0.          0.
  -0.          0.        ]
 [ 0.         -0.         -0.          0.          0.         -0.          0.         -0.          0.         -0.          0.          0.         -0.
   0.         -0.          0.         -0.         -0.         -0.         -0.          0.         -0.         -0.          0.         -0.          0.
  -0.          0.        ]
 [-0.          0.          0.         -0.         -0.          0.         -0.          0.         -0.          0.         -0.         -0.          0.
  -0.          0.         -0.          0.          0.          0.          0.         -0.          0.          0.         -0.          0.         -0.
   0.         -0.        ]
 [ 0.         -0.         -0.          0.          0.         -0.          0.         -0.          0.         -0.          0.          0.         -0.
   0.         -0.          0.         -0.         -0.         -0.         -0.          0.         -0.         -0.          0.         -0.          0.
  -0.          0.        ]
 [-0.          0.          0.         -0.         -0.          0.         -0.          0.         -0.          0.         -0.         -0.          0.
  -0.          0.         -0.          0.          0.          0.          0.         -0.          0.          0.         -0.          0.         -0.
   0.         -0.        ]
 [ 0.         -0.         -0.          0.          0.         -0.          0.         -0.          0.         -0.          0.          0.         -0.
   0.         -0.          0.         -0.         -0.         -0.         -0.          0.         -0.         -0.          0.         -0.          0.
  -0.          0.        ]
 [-0.          0.          0.         -0.         -0.          0.         -0.          0.         -0.          0.         -0.         -0.          0.
  -0.          0.         -0.          0.          0.          0.          0.         -0.          0.          0.         -0.          0.         -0.
   0.         -0.        ]
 [-0.012563    0.00740366  0.00278549 -0.         -0.          0.         -0.          0.00194104 -0.00013214  0.         -0.         -0.          0.
  -0.          0.         -0.          0.          0.00022636  0.00017635  0.00118723 -0.00017693  0.          0.         -0.          0.         -0.00073949
   0.00032624 -0.00000868]
 [-0.00978745  0.00576797  0.00217009 -0.         -0.          0.         -0.          0.0015122  -0.00010295  0.         -0.         -0.          0.
  -0.          0.         -0.          0.          0.00017635  0.00013739  0.00092493 -0.00013784  0.          0.         -0.          0.         -0.00057611
   0.00025416 -0.00000676]
 [-0.06589007  0.03883052  0.01460926 -0.         -0.          0.         -0.          0.01018029 -0.00069304  0.         -0.         -0.          0.
  -0.          0.         -0.          0.          0.00118723  0.00092493  0.00622673 -0.00092796  0.          0.         -0.          0.         -0.00387845
   0.00171105 -0.00004552]
 [ 0.00981945 -0.00578683 -0.00217719  0.          0.         -0.          0.         -0.00151715  0.00010328 -0.          0.          0.         -0.
   0.         -0.          0.         -0.         -0.00017693 -0.00013784 -0.00092796  0.00013829 -0.         -0.          0.         -0.          0.000578
  -0.00025499  0.00000678]
 [-0.          0.          0.         -0.         -0.          0.         -0.          0.         -0.          0.         -0.         -0.          0.
  -0.          0.         -0.          0.          0.          0.          0.         -0.          0.          0.         -0.          0.         -0.
   0.         -0.        ]
 [-0.          0.          0.         -0.         -0.          0.         -0.          0.         -0.          0.         -0.         -0.          0.
  -0.          0.         -0.          0.          0.          0.          0.         -0.          0.          0.         -0.          0.         -0.
   0.         -0.        ]
 [ 0.         -0.         -0.          0.          0.         -0.          0.         -0.          0.         -0.          0.          0.         -0.
   0.         -0.          0.         -0.         -0.         -0.         -0.          0.         -0.         -0.          0.         -0.          0.
  -0.          0.        ]
 [-0.          0.          0.         -0.         -0.          0.         -0.          0.         -0.          0.         -0.         -0.          0.
  -0.          0.         -0.          0.          0.          0.          0.         -0.          0.          0.         -0.          0.         -0.
   0.         -0.        ]
 [ 0.041041   -0.02418639 -0.00909968  0.          0.         -0.          0.         -0.00634101  0.00043167 -0.          0.          0.         -0.
   0.         -0.          0.         -0.         -0.00073949 -0.00057611 -0.00387845  0.000578   -0.         -0.          0.         -0.          0.00241577
  -0.00106577  0.00002835]
 [-0.01810604  0.0106703   0.0040145  -0.         -0.          0.         -0.          0.00279746 -0.00019044  0.         -0.         -0.          0.
  -0.          0.         -0.          0.          0.00032624  0.00025416  0.00171105 -0.00025499  0.          0.         -0.          0.         -0.00106577
   0.00047018 -0.00001251]
 [ 0.00048169 -0.00028387 -0.0001068   0.          0.         -0.          0.         -0.00007442  0.00000507 -0.          0.          0.         -0.
   0.         -0.          0.         -0.         -0.00000868 -0.00000676 -0.00004552  0.00000678 -0.         -0.          0.         -0.          0.00002835
  -0.00001251  0.00000033]] 
 [[ 0.69723618  0.41089712 -0.15459245  0.         -0.          0.          0.          0.10772589  0.00733361 -0.         -0.         -0.          0.
  -0.          0.         -0.          0.          0.012563   -0.00978745  0.06589007  0.00981945 -0.          0.         -0.          0.         -0.041041
  -0.01810604 -0.00048169]
 [ 0.41089712  0.24215101 -0.09110484  0.         -0.          0.          0.          0.06348531  0.00432186 -0.         -0.         -0.          0.
  -0.          0.         -0.          0.          0.00740366 -0.00576797  0.03883052  0.00578683 -0.          0.         -0.          0.         -0.02418639
  -0.0106703  -0.00028387]
 [-0.15459245 -0.09110484  0.03427651 -0.          0.         -0.         -0.         -0.02388518 -0.00162602  0.          0.          0.         -0.
   0.         -0.          0.         -0.         -0.00278549  0.00217009 -0.01460926 -0.00217719  0.         -0.          0.         -0.          0.00909968
   0.0040145   0.0001068 ]
 [ 0.          0.         -0.          0.         -0.          0.          0.          0.          0.         -0.         -0.         -0.          0.
  -0.          0.         -0.          0.          0.         -0.          0.          0.         -0.          0.         -0.          0.         -0.
  -0.         -0.        ]
 [-0.         -0.          0.         -0.          0.         -0.         -0.         -0.         -0.          0.          0.          0.         -0.
   0.         -0.          0.         -0.         -0.          0.         -0.         -0.          0.         -0.          0.         -0.          0.
   0.          0.        ]
 [ 0.          0.         -0.          0.         -0.          0.          0.          0.          0.         -0.         -0.         -0.          0.
  -0.          0.         -0.          0.          0.         -0.          0.          0.         -0.          0.         -0.          0.         -0.
  -0.         -0.        ]
 [ 0.          0.         -0.          0.         -0.          0.          0.          0.          0.         -0.         -0.         -0.          0.
  -0.          0.         -0.          0.          0.         -0.          0.          0.         -0.          0.         -0.          0.         -0.
  -0.         -0.        ]
 [ 0.10772589  0.06348531 -0.02388518  0.         -0.          0.          0.          0.0166441   0.00113307 -0.         -0.         -0.          0.
  -0.          0.         -0.          0.          0.00194104 -0.0015122   0.01018029  0.00151715 -0.          0.         -0.          0.         -0.00634101
  -0.00279746 -0.00007442]
 [ 0.00733361  0.00432186 -0.00162602  0.         -0.          0.          0.          0.00113307  0.00007714 -0.         -0.         -0.          0.
  -0.          0.         -0.          0.          0.00013214 -0.00010295  0.00069304  0.00010328 -0.          0.         -0.          0.         -0.00043167
  -0.00019044 -0.00000507]
 [-0.         -0.          0.         -0.          0.         -0.         -0.         -0.         -0.          0.          0.          0.         -0.
   0.         -0.          0.         -0.         -0.          0.         -0.         -0.          0.         -0.          0.         -0.          0.
   0.          0.        ]
 [-0.         -0.          0.         -0.          0.         -0.         -0.         -0.         -0.          0.          0.          0.         -0.
   0.         -0.          0.         -0.         -0.          0.         -0.         -0.          0.         -0.          0.         -0.          0.
   0.          0.        ]
 [-0.         -0.          0.         -0.          0.         -0.         -0.         -0.         -0.          0.          0.          0.         -0.
   0.         -0.          0.         -0.         -0.          0.         -0.         -0.          0.         -0.          0.         -0.          0.
   0.          0.        ]
 [ 0.          0.         -0.          0.         -0.          0.          0.          0.          0.         -0.         -0.         -0.          0.
  -0.          0.         -0.          0.          0.         -0.          0.          0.         -0.          0.         -0.          0.         -0.
  -0.         -0.        ]
 [-0.         -0.          0.         -0.          0.         -0.         -0.         -0.         -0.          0.          0.          0.         -0.
   0.         -0.          0.         -0.         -0.          0.         -0.         -0.          0.         -0.          0.         -0.          0.
   0.          0.        ]
 [ 0.          0.         -0.          0.         -0.          0.          0.          0.          0.         -0.         -0.         -0.          0.
  -0.          0.         -0.          0.          0.         -0.          0.          0.         -0.          0.         -0.          0.         -0.
  -0.         -0.        ]
 [-0.         -0.          0.         -0.          0.         -0.         -0.         -0.         -0.          0.          0.          0.         -0.
   0.         -0.          0.         -0.         -0.          0.         -0.         -0.          0.         -0.          0.         -0.          0.
   0.          0.        ]
 [ 0.          0.         -0.          0.         -0.          0.          0.          0.          0.         -0.         -0.         -0.          0.
  -0.          0.         -0.          0.          0.         -0.          0.          0.         -0.          0.         -0.          0.         -0.
  -0.         -0.        ]
 [ 0.012563    0.00740366 -0.00278549  0.         -0.          0.          0.          0.00194104  0.00013214 -0.         -0.         -0.          0.
  -0.          0.         -0.          0.          0.00022636 -0.00017635  0.00118723  0.00017693 -0.          0.         -0.          0.         -0.00073949
  -0.00032624 -0.00000868]
 [-0.00978745 -0.00576797  0.00217009 -0.          0.         -0.         -0.         -0.0015122  -0.00010295  0.          0.          0.         -0.
   0.         -0.          0.         -0.         -0.00017635  0.00013739 -0.00092493 -0.00013784  0.         -0.          0.         -0.          0.00057611
   0.00025416  0.00000676]
 [ 0.06589007  0.03883052 -0.01460926  0.         -0.          0.          0.          0.01018029  0.00069304 -0.         -0.         -0.          0.
  -0.          0.         -0.          0.          0.00118723 -0.00092493  0.00622673  0.00092796 -0.          0.         -0.          0.         -0.00387845
  -0.00171105 -0.00004552]
 [ 0.00981945  0.00578683 -0.00217719  0.         -0.          0.          0.          0.00151715  0.00010328 -0.         -0.         -0.          0.
  -0.          0.         -0.          0.          0.00017693 -0.00013784  0.00092796  0.00013829 -0.          0.         -0.          0.         -0.000578
  -0.00025499 -0.00000678]
 [-0.         -0.          0.         -0.          0.         -0.         -0.         -0.         -0.          0.          0.          0.         -0.
   0.         -0.          0.         -0.         -0.          0.         -0.         -0.          0.         -0.          0.         -0.          0.
   0.          0.        ]
 [ 0.          0.         -0.          0.         -0.          0.          0.          0.          0.         -0.         -0.         -0.          0.
  -0.          0.         -0.          0.          0.         -0.          0.          0.         -0.          0.         -0.          0.         -0.
  -0.         -0.        ]
 [-0.         -0.          0.         -0.          0.         -0.         -0.         -0.         -0.          0.          0.          0.         -0.
   0.         -0.          0.         -0.         -0.          0.         -0.         -0.          0.         -0.          0.         -0.          0.
   0.          0.        ]
 [ 0.          0.         -0.          0.         -0.          0.          0.          0.          0.         -0.         -0.         -0.          0.
  -0.          0.         -0.          0.          0.         -0.          0.          0.         -0.          0.         -0.          0.         -0.
  -0.         -0.        ]
 [-0.041041   -0.02418639  0.00909968 -0.          0.         -0.         -0.         -0.00634101 -0.00043167  0.          0.          0.         -0.
   0.         -0.          0.         -0.         -0.00073949  0.00057611 -0.00387845 -0.000578    0.         -0.          0.         -0.          0.00241577
   0.00106577  0.00002835]
 [-0.01810604 -0.0106703   0.0040145  -0.          0.         -0.         -0.         -0.00279746 -0.00019044  0.          0.          0.         -0.
   0.         -0.          0.         -0.         -0.00032624  0.00025416 -0.00171105 -0.00025499  0.         -0.          0.         -0.          0.00106577
   0.00047018  0.00001251]
 [-0.00048169 -0.00028387  0.0001068  -0.          0.         -0.         -0.         -0.00007442 -0.00000507  0.          0.          0.         -0.
   0.         -0.          0.         -0.         -0.00000868  0.00000676 -0.00004552 -0.00000678  0.         -0.          0.         -0.          0.00002835
   0.00001251  0.00000033]]
**** Start Cycle 2 ****
dm (ortho)
[...]
Feff (mod,ortho)
[[-0.2302672   0.27066638  0.30765203 ...  0.          0.          0.        ]
 [ 0.27066638  0.1622453  -0.10278207 ...  0.          0.          0.        ]
 [ 0.30765203 -0.10278207  1.19392441 ...  0.          0.          0.        ]
 ...
 [ 0.          0.          0.         ...  3.30557509 -0.00991097  0.35629134]
 [ 0.          0.          0.         ... -0.00991097  1.78369767 -0.01702961]
 [ 0.          0.          0.         ...  0.35629134 -0.01702961  1.52448611]]
E(SUHF) =     -1.02933637
e_a, e_b
[-0.49877295  0.07478808  0.359179    0.48777175  0.69141749  0.69141749  0.72900568  0.89876417  0.89876417  1.23632028  2.45051231  2.67177141  3.26141901
  3.32871213  3.32871213  3.42937274  3.42937274  3.49051483  3.49051483  3.57866549  3.57866549  3.7502539   3.85651642  3.85651642  4.00592214  4.00592214
  4.0494556   4.58827849] [-0.49877295  0.07478808  0.359179    0.48777175  0.69141749  0.69141749  0.72900568  0.89876417  0.89876417  1.23632028  2.45051231  2.67177141  3.26141901
  3.32871213  3.32871213  3.42937274  3.42937274  3.49051483  3.49051483  3.57866549  3.57866549  3.7502539   3.85651642  3.85651642  4.00592214  4.00592214
  4.0494556   4.58827849]
P_a, P_b
[[ 0.65439331 -0.42744274 -0.151371    0.          0.         -0.         -0.         -0.12087776  0.00656961 -0.          0.          0.         -0.
   0.         -0.          0.         -0.         -0.01507106  0.00177369 -0.05644524  0.0106171  -0.         -0.         -0.         -0.          0.04265281
  -0.02138709  0.00904964]
 [-0.42744274  0.27920105  0.09887393 -0.         -0.          0.          0.          0.07895607 -0.0042912   0.         -0.         -0.          0.
  -0.          0.         -0.          0.          0.00984425 -0.00115856  0.03686943 -0.00693498  0.          0.          0.          0.         -0.02786036
   0.01396982 -0.00591113]
 [-0.151371    0.09887393  0.03501439 -0.         -0.          0.          0.          0.02796084 -0.00151965  0.         -0.         -0.          0.
  -0.          0.         -0.          0.          0.00348616 -0.00041028  0.01305663 -0.0024559   0.          0.          0.          0.         -0.00986623
   0.00494716 -0.00209332]
 [ 0.         -0.         -0.          0.          0.         -0.         -0.         -0.          0.         -0.          0.          0.         -0.
   0.         -0.          0.         -0.         -0.          0.         -0.          0.         -0.         -0.         -0.         -0.          0.
  -0.          0.        ]
 [ 0.         -0.         -0.          0.          0.         -0.         -0.         -0.          0.         -0.          0.          0.         -0.
   0.         -0.          0.         -0.         -0.          0.         -0.          0.         -0.         -0.         -0.         -0.          0.
  -0.          0.        ]
 [-0.          0.          0.         -0.         -0.          0.          0.          0.         -0.          0.         -0.         -0.          0.
  -0.          0.         -0.          0.          0.         -0.          0.         -0.          0.          0.          0.          0.         -0.
   0.         -0.        ]
 [-0.          0.          0.         -0.         -0.          0.          0.          0.         -0.          0.         -0.         -0.          0.
  -0.          0.         -0.          0.          0.         -0.          0.         -0.          0.          0.          0.          0.         -0.
   0.         -0.        ]
 [-0.12087776  0.07895607  0.02796084 -0.         -0.          0.          0.          0.02232821 -0.00121352  0.         -0.         -0.          0.
  -0.          0.         -0.          0.          0.00278388 -0.00032763  0.01042641 -0.00196116  0.          0.          0.          0.         -0.00787871
   0.00395057 -0.00167163]
 [ 0.00656961 -0.0042912  -0.00151965  0.          0.         -0.         -0.         -0.00121352  0.00006595 -0.          0.          0.         -0.
   0.         -0.          0.         -0.         -0.0001513   0.00001781 -0.00056667  0.00010659 -0.         -0.         -0.         -0.          0.0004282
  -0.00021471  0.00009085]
 [-0.          0.          0.         -0.         -0.          0.          0.          0.         -0.          0.         -0.         -0.          0.
  -0.          0.         -0.          0.          0.         -0.          0.         -0.          0.          0.          0.          0.         -0.
   0.         -0.        ]
 [ 0.         -0.         -0.          0.          0.         -0.         -0.         -0.          0.         -0.          0.          0.         -0.
   0.         -0.          0.         -0.         -0.          0.         -0.          0.         -0.         -0.         -0.         -0.          0.
  -0.          0.        ]
 [ 0.         -0.         -0.          0.          0.         -0.         -0.         -0.          0.         -0.          0.          0.         -0.
   0.         -0.          0.         -0.         -0.          0.         -0.          0.         -0.         -0.         -0.         -0.          0.
  -0.          0.        ]
 [-0.          0.          0.         -0.         -0.          0.          0.          0.         -0.          0.         -0.         -0.          0.
  -0.          0.         -0.          0.          0.         -0.          0.         -0.          0.          0.          0.          0.         -0.
   0.         -0.        ]
 [ 0.         -0.         -0.          0.          0.         -0.         -0.         -0.          0.         -0.          0.          0.         -0.
   0.         -0.          0.         -0.         -0.          0.         -0.          0.         -0.         -0.         -0.         -0.          0.
  -0.          0.        ]
 [-0.          0.          0.         -0.         -0.          0.          0.          0.         -0.          0.         -0.         -0.          0.
  -0.          0.         -0.          0.          0.         -0.          0.         -0.          0.          0.          0.          0.         -0.
   0.         -0.        ]
 [ 0.         -0.         -0.          0.          0.         -0.         -0.         -0.          0.         -0.          0.          0.         -0.
   0.         -0.          0.         -0.         -0.          0.         -0.          0.         -0.         -0.         -0.         -0.          0.
  -0.          0.        ]
 [-0.          0.          0.         -0.         -0.          0.          0.          0.         -0.          0.         -0.         -0.          0.
  -0.          0.         -0.          0.          0.         -0.          0.         -0.          0.          0.          0.          0.         -0.
   0.         -0.        ]
 [-0.01507106  0.00984425  0.00348616 -0.         -0.          0.          0.          0.00278388 -0.0001513   0.         -0.         -0.          0.
  -0.          0.         -0.          0.          0.0003471  -0.00004085  0.00129997 -0.00024452  0.          0.          0.          0.         -0.00098232
   0.00049256 -0.00020842]
 [ 0.00177369 -0.00115856 -0.00041028  0.          0.         -0.         -0.         -0.00032763  0.00001781 -0.          0.          0.         -0.
   0.         -0.          0.         -0.         -0.00004085  0.00000481 -0.00015299  0.00002878 -0.         -0.         -0.         -0.          0.00011561
  -0.00005797  0.00002453]
 [-0.05644524  0.03686943  0.01305663 -0.         -0.          0.          0.          0.01042641 -0.00056667  0.         -0.         -0.          0.
  -0.          0.         -0.          0.          0.00129997 -0.00015299  0.00486873 -0.00091579  0.          0.          0.          0.         -0.00367905
   0.00184476 -0.00078058]
 [ 0.0106171  -0.00693498 -0.0024559   0.          0.         -0.         -0.         -0.00196116  0.00010659 -0.          0.          0.         -0.
   0.         -0.          0.         -0.         -0.00024452  0.00002878 -0.00091579  0.00017226 -0.         -0.         -0.         -0.          0.00069201
  -0.00034699  0.00014682]
 [-0.          0.          0.         -0.         -0.          0.          0.          0.         -0.          0.         -0.         -0.          0.
  -0.          0.         -0.          0.          0.         -0.          0.         -0.          0.          0.          0.          0.         -0.
   0.         -0.        ]
 [-0.          0.          0.         -0.         -0.          0.          0.          0.         -0.          0.         -0.         -0.          0.
  -0.          0.         -0.          0.          0.         -0.          0.         -0.          0.          0.          0.          0.         -0.
   0.         -0.        ]
 [-0.          0.          0.         -0.         -0.          0.          0.          0.         -0.          0.         -0.         -0.          0.
  -0.          0.         -0.          0.          0.         -0.          0.         -0.          0.          0.          0.          0.         -0.
   0.         -0.        ]
 [-0.          0.          0.         -0.         -0.          0.          0.          0.         -0.          0.         -0.         -0.          0.
  -0.          0.         -0.          0.          0.         -0.          0.         -0.          0.          0.          0.          0.         -0.
   0.         -0.        ]
 [ 0.04265281 -0.02786036 -0.00986623  0.          0.         -0.         -0.         -0.00787871  0.0004282  -0.          0.          0.         -0.
   0.         -0.          0.         -0.         -0.00098232  0.00011561 -0.00367905  0.00069201 -0.         -0.         -0.         -0.          0.00278007
  -0.00139399  0.00058985]
 [-0.02138709  0.01396982  0.00494716 -0.         -0.          0.          0.          0.00395057 -0.00021471  0.         -0.         -0.          0.
  -0.          0.         -0.          0.          0.00049256 -0.00005797  0.00184476 -0.00034699  0.          0.          0.          0.         -0.00139399
   0.00069898 -0.00029576]
 [ 0.00904964 -0.00591113 -0.00209332  0.          0.         -0.         -0.         -0.00167163  0.00009085 -0.          0.          0.         -0.
   0.         -0.          0.         -0.         -0.00020842  0.00002453 -0.00078058  0.00014682 -0.         -0.         -0.         -0.          0.00058985
  -0.00029576  0.00012515]] 
 [[ 0.65439331  0.42744274 -0.151371    0.         -0.          0.          0.          0.12087776  0.00656961 -0.         -0.         -0.          0.
  -0.          0.         -0.          0.          0.01507106  0.00177369  0.05644524  0.0106171  -0.          0.          0.          0.         -0.04265281
  -0.02138709 -0.00904964]
 [ 0.42744274  0.27920105 -0.09887393  0.         -0.          0.          0.          0.07895607  0.0042912  -0.         -0.         -0.          0.
  -0.          0.         -0.          0.          0.00984425  0.00115856  0.03686943  0.00693498 -0.          0.          0.          0.         -0.02786036
  -0.01396982 -0.00591113]
 [-0.151371   -0.09887393  0.03501439 -0.          0.         -0.         -0.         -0.02796084 -0.00151965  0.          0.          0.         -0.
   0.         -0.          0.         -0.         -0.00348616 -0.00041028 -0.01305663 -0.0024559   0.         -0.         -0.         -0.          0.00986623
   0.00494716  0.00209332]
 [ 0.          0.         -0.          0.         -0.          0.          0.          0.          0.         -0.         -0.         -0.          0.
  -0.          0.         -0.          0.          0.          0.          0.          0.         -0.          0.          0.          0.         -0.
  -0.         -0.        ]
 [-0.         -0.          0.         -0.          0.         -0.         -0.         -0.         -0.          0.          0.          0.         -0.
   0.         -0.          0.         -0.         -0.         -0.         -0.         -0.          0.         -0.         -0.         -0.          0.
   0.          0.        ]
 [ 0.          0.         -0.          0.         -0.          0.          0.          0.          0.         -0.         -0.         -0.          0.
  -0.          0.         -0.          0.          0.          0.          0.          0.         -0.          0.          0.          0.         -0.
  -0.         -0.        ]
 [ 0.          0.         -0.          0.         -0.          0.          0.          0.          0.         -0.         -0.         -0.          0.
  -0.          0.         -0.          0.          0.          0.          0.          0.         -0.          0.          0.          0.         -0.
  -0.         -0.        ]
 [ 0.12087776  0.07895607 -0.02796084  0.         -0.          0.          0.          0.02232821  0.00121352 -0.         -0.         -0.          0.
  -0.          0.         -0.          0.          0.00278388  0.00032763  0.01042641  0.00196116 -0.          0.          0.          0.         -0.00787871
  -0.00395057 -0.00167163]
 [ 0.00656961  0.0042912  -0.00151965  0.         -0.          0.          0.          0.00121352  0.00006595 -0.         -0.         -0.          0.
  -0.          0.         -0.          0.          0.0001513   0.00001781  0.00056667  0.00010659 -0.          0.          0.          0.         -0.0004282
  -0.00021471 -0.00009085]
 [-0.         -0.          0.         -0.          0.         -0.         -0.         -0.         -0.          0.          0.          0.         -0.
   0.         -0.          0.         -0.         -0.         -0.         -0.         -0.          0.         -0.         -0.         -0.          0.
   0.          0.        ]
 [-0.         -0.          0.         -0.          0.         -0.         -0.         -0.         -0.          0.          0.          0.         -0.
   0.         -0.          0.         -0.         -0.         -0.         -0.         -0.          0.         -0.         -0.         -0.          0.
   0.          0.        ]
 [-0.         -0.          0.         -0.          0.         -0.         -0.         -0.         -0.          0.          0.          0.         -0.
   0.         -0.          0.         -0.         -0.         -0.         -0.         -0.          0.         -0.         -0.         -0.          0.
   0.          0.        ]
 [ 0.          0.         -0.          0.         -0.          0.          0.          0.          0.         -0.         -0.         -0.          0.
  -0.          0.         -0.          0.          0.          0.          0.          0.         -0.          0.          0.          0.         -0.
  -0.         -0.        ]
 [-0.         -0.          0.         -0.          0.         -0.         -0.         -0.         -0.          0.          0.          0.         -0.
   0.         -0.          0.         -0.         -0.         -0.         -0.         -0.          0.         -0.         -0.         -0.          0.
   0.          0.        ]
 [ 0.          0.         -0.          0.         -0.          0.          0.          0.          0.         -0.         -0.         -0.          0.
  -0.          0.         -0.          0.          0.          0.          0.          0.         -0.          0.          0.          0.         -0.
  -0.         -0.        ]
 [-0.         -0.          0.         -0.          0.         -0.         -0.         -0.         -0.          0.          0.          0.         -0.
   0.         -0.          0.         -0.         -0.         -0.         -0.         -0.          0.         -0.         -0.         -0.          0.
   0.          0.        ]
 [ 0.          0.         -0.          0.         -0.          0.          0.          0.          0.         -0.         -0.         -0.          0.
  -0.          0.         -0.          0.          0.          0.          0.          0.         -0.          0.          0.          0.         -0.
  -0.         -0.        ]
 [ 0.01507106  0.00984425 -0.00348616  0.         -0.          0.          0.          0.00278388  0.0001513  -0.         -0.         -0.          0.
  -0.          0.         -0.          0.          0.0003471   0.00004085  0.00129997  0.00024452 -0.          0.          0.          0.         -0.00098232
  -0.00049256 -0.00020842]
 [ 0.00177369  0.00115856 -0.00041028  0.         -0.          0.          0.          0.00032763  0.00001781 -0.         -0.         -0.          0.
  -0.          0.         -0.          0.          0.00004085  0.00000481  0.00015299  0.00002878 -0.          0.          0.          0.         -0.00011561
  -0.00005797 -0.00002453]
 [ 0.05644524  0.03686943 -0.01305663  0.         -0.          0.          0.          0.01042641  0.00056667 -0.         -0.         -0.          0.
  -0.          0.         -0.          0.          0.00129997  0.00015299  0.00486873  0.00091579 -0.          0.          0.          0.         -0.00367905
  -0.00184476 -0.00078058]
 [ 0.0106171   0.00693498 -0.0024559   0.         -0.          0.          0.          0.00196116  0.00010659 -0.         -0.         -0.          0.
  -0.          0.         -0.          0.          0.00024452  0.00002878  0.00091579  0.00017226 -0.          0.          0.          0.         -0.00069201
  -0.00034699 -0.00014682]
 [-0.         -0.          0.         -0.          0.         -0.         -0.         -0.         -0.          0.          0.          0.         -0.
   0.         -0.          0.         -0.         -0.         -0.         -0.         -0.          0.         -0.         -0.         -0.          0.
   0.          0.        ]
 [ 0.          0.         -0.          0.         -0.          0.          0.          0.          0.         -0.         -0.         -0.          0.
  -0.          0.         -0.          0.          0.          0.          0.          0.         -0.          0.          0.          0.         -0.
  -0.         -0.        ]
 [ 0.          0.         -0.          0.         -0.          0.          0.          0.          0.         -0.         -0.         -0.          0.
  -0.          0.         -0.          0.          0.          0.          0.          0.         -0.          0.          0.          0.         -0.
  -0.         -0.        ]
 [ 0.          0.         -0.          0.         -0.          0.          0.          0.          0.         -0.         -0.         -0.          0.
  -0.          0.         -0.          0.          0.          0.          0.          0.         -0.          0.          0.          0.         -0.
  -0.         -0.        ]
 [-0.04265281 -0.02786036  0.00986623 -0.          0.         -0.         -0.         -0.00787871 -0.0004282   0.          0.          0.         -0.
   0.         -0.          0.         -0.         -0.00098232 -0.00011561 -0.00367905 -0.00069201  0.         -0.         -0.         -0.          0.00278007
   0.00139399  0.00058985]
 [-0.02138709 -0.01396982  0.00494716 -0.          0.         -0.         -0.         -0.00395057 -0.00021471  0.          0.          0.         -0.
   0.         -0.          0.         -0.         -0.00049256 -0.00005797 -0.00184476 -0.00034699  0.         -0.         -0.         -0.          0.00139399
   0.00069898  0.00029576]
 [-0.00904964 -0.00591113  0.00209332 -0.          0.         -0.         -0.         -0.00167163 -0.00009085  0.          0.          0.         -0.
   0.         -0.          0.         -0.         -0.00020842 -0.00002453 -0.00078058 -0.00014682  0.         -0.         -0.         -0.          0.00058985
   0.00029576  0.00012515]]

***************
SCF converged at cycle 12
Final E(SUHF) =     -1.02933637, delta E = -4.13996e-09
***** Start DFT Correlation for SUHF+DFT **********
tot grids = 20048
E(SUHF) =     -1.02933637
E_c(TPSS) =     -0.01019917
E(SUHF+DFT) =     -1.03953554
