

#INFO: **** input file is /share/home/srwang/ExSCF/test/pytest/scan_h2/scan_dft.py ****
#import phf
from pyscf import gto, scf
#import scipy
#import numpy as np
import sys, os, contextlib

from pyphf import util, sudft

#xyz = 'h2.xyz' #sys.argv[1]
fch = '../../test_carlos/test_uhf.fchk' #sys.argv[2]
bas = '../h2.bas'

for r in [0.6, 0.8, 1.0, 1.2, 1.4, 1.6, 1.8, 2.0]:
    output = 'sudft_%.1f.out' % r
    os.system("echo '\n' > %s" % output)
    with open(output, 'a', encoding='utf-8') as f:
        with contextlib.redirect_stdout(f):
            xyz = '''H 0.0 0.0 0.0; H 0.0 0.0 %f'''%r
            mf = util.guess_from_fchk(xyz, bas, fch)
            #f.flush()
            mf2 = util.SUHF(mf)
            mf2.cut_no = False
            mf2.debug = False
            mf2.max_cycle = 50
            #mf2.output = 'sudft_%.1f.out'%r
            #mf2.kernel()
            
            mf3 = sudft.SUDFT(mf2)
            mf3.kernel()
                    #INFO: ******************** input file end ********************


System: uname_result(system='Linux', node='xcluster', release='3.10.0-693.el7.x86_64', version='#1 SMP Thu Jul 6 19:56:57 EDT 2017', machine='x86_64', processor='x86_64')  Threads 16
Python 3.7.4 (default, Aug 13 2019, 20:35:49) 
[GCC 7.3.0]
numpy 1.17.2  scipy 1.4.1
Date: Thu Nov 19 17:46:25 2020
PySCF version 1.7.3
PySCF path  /share/apps/Python/Anaconda3-2019/lib/python3.7/site-packages/pyscf

[CONFIG] conf_file None
[INPUT] verbose = 4
[INPUT] num. atoms = 2
[INPUT] num. electrons = 2
[INPUT] charge = 0
[INPUT] spin (= nelec alpha-beta = 2S) = 0
[INPUT] symmetry False subgroup None
[INPUT] Mole.unit = angstrom
[INPUT]  1 H      0.000000000000   0.000000000000   0.000000000000 AA    0.000000000000   0.000000000000   0.000000000000 Bohr
[INPUT]  2 H      0.000000000000   0.000000000000   1.600000000000 AA    0.000000000000   0.000000000000   3.023561799304 Bohr

nuclear repulsion = 0.330735756825
number of shells = 4
number of NR pGTOs = 6
number of NR cGTOs = 4
basis = ../h2.bas
ecp = {}
CPU time:       120.73


******** <class 'pyscf.scf.uhf.UHF'> ********
method = UHF
initial guess = minao
damping factor = 0
level_shift factor = 0
DIIS = <class 'pyscf.scf.diis.CDIIS'>
diis_start_cycle = 1
diis_space = 8
SCF conv_tol = 1e-09
SCF conv_tol_grad = None
SCF max_cycles = 1
direct_scf = True
direct_scf_tol = 1e-13
chkfile to save SCF result = /share/home/srwang/ExSCF/test/pytest/scan_h2/tmp5xu0wch3
max_memory 4000 MB (current use 118 MB)
number electrons alpha = 1  beta = 1
Set gradient conv threshold to 3.16228e-05
init E= -0.66111373788752
  alpha nocc = 1  HOMO = -0.301388249210095  LUMO = -0.0322420000315699
  beta  nocc = 1  HOMO = -0.29291810279507  LUMO = -0.0322173315782708
cycle= 1 E= -0.973524616741227  delta_E= -0.312  |g|= 0.00827  |ddm|= 0.529
SCF not converged.
SCF energy = -0.973524616741227 after 1 cycles  <S^2> = 9.7320901e-07  2S+1 = 1.0000019


******** <class 'pyscf.scf.uhf.UHF'> ********
method = UHF
initial guess = minao
damping factor = 0
level_shift factor = 0
DIIS = <class 'pyscf.scf.diis.CDIIS'>
diis_start_cycle = 1
diis_space = 8
SCF conv_tol = 1e-09
SCF conv_tol_grad = None
SCF max_cycles = 0
direct_scf = True
direct_scf_tol = 1e-13
chkfile to save SCF result = /share/home/srwang/ExSCF/test/pytest/scan_h2/tmp5xu0wch3
max_memory 4000 MB (current use 121 MB)
number electrons alpha = 1  beta = 1
Set gradient conv threshold to 3.16228e-05
init E= -1.0225549260018
  alpha nocc = 1  HOMO = -0.495887977331487  LUMO = 0.150584663171005
  beta  nocc = 1  HOMO = -0.495887977331487  LUMO = 0.150584663171005
SCF not converged.
SCF energy = -1.0225549260018 after 0 cycles  <S^2> = 0.81572919  2S+1 = 2.0646832

******** <class 'pyphf.util.SUHF'> ********
SVD: S^(-1/2)
[[-0.30208612  0.51760653 -0.89236608  0.78213814]
 [-0.3891572   0.34157982  0.6927057  -1.18519824]
 [-0.30208612 -0.51760653 -0.89236608 -0.78213814]
 [-0.3891572  -0.34157982  0.6927057   1.18519824]]
C (ortho)
[[-0.8474505  -0.61091109 -0.037232   -0.11775966]
 [ 0.5267388  -0.66602127  0.20740718 -0.40104963]
 [ 0.06931475  0.15761377 -0.78133001 -0.57478374]
 [-0.12749654  0.27725842  0.5574195  -0.697073  ]]
[[-0.8474505  -0.61091109 -0.037232   -0.11775966]
 [-0.5267388   0.66602127 -0.20740718  0.40104963]
 [ 0.06931475  0.15761377 -0.78133001 -0.57478374]
 [ 0.12749654 -0.27725842 -0.5574195   0.697073  ]]
grids:  [0.06237655 0.31939555 0.74529195 1.28265786 1.85893479 2.39630071 2.8221971  3.07921611] 
weights:  [0.15900941 0.34931531 0.49276925 0.56970235 0.56970235 0.49276925 0.34931531 0.15900941]
S = 0.0, Sz = 0.0
Wigner small d:  1
value : [1. 1. 1. 1. 1. 1. 1. 1.]
**** Start Cycle 1 ****
dm (ortho)
[[[ 0.71817236 -0.44638506 -0.05874082  0.108047  ]
  [-0.44638506  0.27745376  0.03651077 -0.06715737]
  [-0.05874082  0.03651077  0.00480453 -0.00883739]
  [ 0.108047   -0.06715737 -0.00883739  0.01625537]]

 [[ 0.71817236  0.44638506 -0.05874082 -0.108047  ]
  [ 0.44638506  0.27745376 -0.03651077 -0.06715737]
  [-0.05874082 -0.03651077  0.00480453  0.00883739]
  [-0.108047   -0.06715737  0.00883739  0.01625537]]]
Fock (ortho)
 (array([[-0.29816309,  0.31868209,  0.17115001,  0.00988158],
       [ 0.31868209,  0.13650891,  0.08553079,  0.39328464],
       [ 0.17115001,  0.08553079,  1.20781644,  0.0449601 ],
       [ 0.00988158,  0.39328464,  0.0449601 ,  1.03231809]]), array([[-0.29816309, -0.31868209,  0.17115001, -0.00988158],
       [-0.31868209,  0.13650891, -0.08553079,  0.39328464],
       [ 0.17115001, -0.08553079,  1.20781644, -0.0449601 ],
       [-0.00988158,  0.39328464, -0.0449601 ,  1.03231809]]))
E(UHF) =    -1.353291
NO eigenvalue
[-1.01668602 -0.         -0.          0.        ] [-1.01668602 -0.          0.          0.        ]
NO vec
[[ 0.84046748  0.          0.52925918  0.10421391  0.05136717  0.          0.          0.        ]
 [-0.52239845  0.          0.84645943 -0.03872403 -0.09542921  0.          0.          0.        ]
 [-0.06874359  0.          0.0573133  -0.21591385  0.97230176  0.          0.          0.        ]
 [ 0.12644596  0.          0.01031182 -0.97006243 -0.20708445  0.          0.          0.        ]
 [ 0.          0.84046748  0.          0.          0.         -0.05781177  0.04773397 -0.53665042]
 [ 0.          0.52239845  0.          0.          0.         -0.0129355   0.1727936   0.83491011]
 [ 0.         -0.06874359  0.          0.          0.          0.62565187  0.76972157 -0.10659626]
 [ 0.         -0.12644596  0.          0.          0.         -0.77784974  0.61269286 -0.0597383 ]]
dm(NO)
[[ 1.01668602  0.          0.         -0.         -0.          0.          0.          0.        ]
 [ 0.          1.01668602  0.          0.          0.         -0.          0.         -0.        ]
 [ 0.          0.         -0.         -0.         -0.          0.          0.          0.        ]
 [-0.          0.          0.          0.         -0.          0.          0.          0.        ]
 [-0.          0.          0.          0.          0.          0.          0.          0.        ]
 [ 0.         -0.          0.          0.          0.          0.         -0.          0.        ]
 [ 0.          0.          0.          0.          0.          0.          0.          0.        ]
 [ 0.         -0.          0.          0.          0.         -0.          0.          0.        ]]
D(g) (NO)
[[ 0.99951369  0.01316626  0.          0.         -0.         -0.00571267 -0.00079795 -0.02767257]
 [-0.01316626  0.99951369 -0.02749644 -0.00638826  0.00147603 -0.          0.          0.        ]
 [ 0.          0.02749644  0.99951369 -0.         -0.         -0.00042751  0.00692142  0.01297113]
 [ 0.          0.00638826 -0.          0.99951369  0.          0.019145   -0.02376974 -0.00022739]
 [-0.         -0.00147603 -0.          0.          0.99951369  0.02393835  0.01894333 -0.0061903 ]
 [ 0.00571267 -0.          0.00042751 -0.019145   -0.02393835  0.99951369  0.          0.        ]
 [ 0.00079795 -0.         -0.00692142  0.02376974 -0.01894333 -0.          0.99951369  0.        ]
 [ 0.02767257  0.         -0.01297113  0.00022739  0.0061903   0.          0.          0.99951369]]
...
N(g) (NO)
[[ 0.96774781 -0.01274782]
 [ 0.01274782  0.96774781]]
...
P(g) (NO)
[[ 1.         -0.          0.         -0.         -0.          0.         -0.         -0.        ]
 [-0.          1.         -0.          0.          0.         -0.          0.         -0.        ]
 [ 0.00036231  0.02750504  0.         -0.         -0.         -0.          0.         -0.        ]
 [ 0.00008418  0.00639026  0.         -0.         -0.         -0.          0.         -0.        ]
 [-0.00001945 -0.00147649 -0.          0.          0.          0.         -0.          0.        ]
 [ 0.00571446 -0.00007527  0.         -0.         -0.          0.         -0.          0.        ]
 [ 0.0007982  -0.00001051  0.         -0.         -0.          0.         -0.          0.        ]
 [ 0.02768124 -0.00036464  0.         -0.         -0.          0.         -0.          0.        ]]
...
Pg_ortho
[[ 0.70655329 -0.43916315 -0.05779047  0.10629895  0.0127309   0.00791298 -0.00104129 -0.00191533]
 [-0.43880234  0.27274067  0.03589056 -0.06601657  0.01947813  0.01210677 -0.00159316 -0.00293043]
 [-0.05779047  0.03592007  0.0047268  -0.00869441 -0.00104129 -0.00064722  0.00008517  0.00015666]
 [ 0.10621161 -0.06601657 -0.00868727  0.01597924 -0.00471466 -0.00293043  0.00038562  0.00070931]
 [-0.0127309   0.00791298  0.00104129 -0.00191533  0.70655329  0.43916315 -0.05779047 -0.10629895]
 [ 0.01947813 -0.01210677 -0.00159316  0.00293043  0.43880234  0.27274067 -0.03589056 -0.06601657]
 [ 0.00104129 -0.00064722 -0.00008517  0.00015666 -0.05779047 -0.03592007  0.0047268   0.00869441]
 [-0.00471466  0.00293043  0.00038562 -0.00070931 -0.10621161 -0.06601657  0.00868727  0.01597924]]
G(g) (NO)
[[ 0.33498752 -0.00191259  0.06582489  0.02156394  0.02438777 -0.00001095 -0.00076918 -0.0007638 ]
 [ 0.00191259  0.33498752 -0.00082466  0.00028379  0.00064385 -0.00692535  0.02581564 -0.06839791]
 [ 0.06571339 -0.0182883   1.01408001 -0.15567062  0.09840642 -0.0004408  -0.00576902 -0.00196591]
 [ 0.02155284  0.00010912 -0.15566126  0.77435277 -0.04484765 -0.00012786  0.00232376  0.0001941 ]
 [ 0.02439716 -0.00189102  0.09840821 -0.04484768  0.84133186 -0.00002743 -0.00218619 -0.000907  ]
 [ 0.00137874 -0.00691395 -0.00088878  0.00144914  0.00277284  0.83212651  0.03849228 -0.19143007]
 [ 0.00012138  0.02582844 -0.00059663  0.00012679  0.00038861  0.03849181  0.79104362 -0.00004592]
 [-0.01833396 -0.06828678  0.0024652  -0.00201024 -0.0052132  -0.19143765 -0.00004017  1.00659451]]
...
C(NO)
[[-1.00830849  0.         -0.14129915 -0.0154466   0.06190518  0.          0.          0.        ]
 [ 0.         -1.00830849  0.          0.          0.         -0.14129915 -0.0154466   0.06190518]
 [-0.          0.         -0.87519788  0.1168238  -0.44192847  0.          0.          0.        ]
 [ 0.          0.         -0.34086337 -0.38394347  0.80356617  0.          0.          0.        ]
 [ 0.          0.          0.12800934 -0.89682666 -0.3822874   0.          0.          0.        ]
 [ 0.          0.          0.          0.          0.          0.34097927 -0.05041661 -0.90021246]
 [ 0.         -0.          0.          0.          0.          0.03736746 -0.98054938  0.04834588]
 [ 0.          0.          0.          0.          0.          0.88367549 -0.03659964  0.41766401]]
detC 1.0166860206271482
detNg [0.93669834 0.95581095 1.05035943 1.32591401 1.98134299 3.25892293 4.70205661 5.22669937]
xg [1.03282453 1.01217194 0.92106092 0.72964386 0.48827741 0.29686036 0.20574934 0.18509674]
ciS 1.2179212758362836
[[-0.83581588  0.         -0.08923769 -0.01288306 -0.0340389   0.          0.          0.        ]
 [ 0.         -0.83581588  0.          0.          0.         -0.00569738 -0.02867987  0.09183132]
 [-0.08923769  0.         -0.70142024 -0.23145965  0.03168233  0.          0.          0.        ]
 [-0.01288306  0.         -0.23145965  0.27496825  0.00696993  0.          0.          0.        ]
 [-0.0340389   0.          0.03168233  0.00696993  0.32652652  0.          0.          0.        ]
 [ 0.         -0.00569738  0.          0.          0.          0.28971299 -0.00203944 -0.19802385]
 [ 0.         -0.02867987  0.          0.          0.         -0.00203944  0.32714512 -0.01220371]
 [ 0.          0.09183132  0.          0.          0.         -0.19802385 -0.01220371 -0.71678357]]
ciH -1.6671985841206558
S2 = -0.000000
X(g)
[[ 1.96717567  0.          0.00035637  0.0000828  -0.00001913 -0.00562067 -0.0007851  -0.02722693]
 [-0.          1.96717567 -0.02705363 -0.00628538  0.00145226 -0.00007404 -0.00001034 -0.00035865]
 [ 0.00035637  0.02705363  0.          0.          0.          0.          0.          0.        ]
 [ 0.0000828   0.00628538  0.          0.          0.          0.          0.          0.        ]
 [-0.00001913 -0.00145226  0.          0.          0.          0.          0.          0.        ]
 [ 0.00562067 -0.00007404  0.          0.          0.          0.          0.          0.        ]
 [ 0.0007851  -0.00001034  0.          0.          0.          0.          0.          0.        ]
 [ 0.02722693 -0.00035865  0.          0.          0.          0.          0.          0.        ]]
X(g) int
[[ 1.96717567 -0.          0.31078824  0.0722056  -0.01668337 -0.12010905 -0.01677696 -0.58181667]
 [ 0.          1.96717567 -0.57811341 -0.1343134   0.0310336  -0.06456948 -0.00901913 -0.31277908]
 [ 0.31078824  0.57811341  0.          0.          0.          0.          0.          0.        ]
 [ 0.0722056   0.1343134   0.          0.          0.          0.          0.          0.        ]
 [-0.01668337 -0.0310336   0.          0.          0.          0.          0.          0.        ]
 [ 0.12010905 -0.06456948  0.          0.          0.          0.          0.          0.        ]
 [ 0.01677696 -0.00901913  0.          0.          0.          0.          0.          0.        ]
 [ 0.58181667 -0.31277908  0.          0.          0.          0.          0.          0.        ]]
Hsp + Hph =  -1.3688886278596921
Feff (mod,ortho)
[[-0.29917504  0.33426511  0.17982338  0.02509569  0.          0.          0.          0.        ]
 [ 0.33426511  0.11752839  0.07891667  0.38607799  0.          0.          0.          0.        ]
 [ 0.17982338  0.07891667  1.20640438  0.04500814  0.          0.          0.          0.        ]
 [ 0.02509569  0.38607799  0.04500814  1.03691884  0.          0.          0.          0.        ]
 [ 0.          0.          0.          0.         -0.29917504 -0.33426511  0.17982338 -0.02509569]
 [ 0.          0.          0.          0.         -0.33426511  0.11752839 -0.07891667  0.38607799]
 [ 0.          0.          0.          0.          0.17982338 -0.07891667  1.20640438 -0.04500814]
 [ 0.          0.          0.          0.         -0.02509569  0.38607799 -0.04500814  1.03691884]]
E(SUHF) =     -1.03815287
e_a, e_b
[-0.51227805  0.15033772  1.12247885  1.30113805] [-0.51227805  0.15033772  1.12247885  1.30113805]
P_a, P_b
[[ 0.71910188 -0.43470832 -0.05785414  0.09836636]
 [-0.43470832  0.26278797  0.03497373 -0.059464  ]
 [-0.05785414  0.03497373  0.00465456 -0.0079139 ]
 [ 0.09836636 -0.059464   -0.0079139   0.01345559]] 
 [[ 0.71910188  0.43470832 -0.05785414 -0.09836636]
 [ 0.43470832  0.26278797 -0.03497373 -0.059464  ]
 [-0.05785414 -0.03497373  0.00465456  0.0079139 ]
 [-0.09836636 -0.059464    0.0079139   0.01345559]]
**** Start Cycle 2 ****
dm (ortho)
[array([[ 0.71910188, -0.43470832, -0.05785414,  0.09836636],
       [-0.43470832,  0.26278797,  0.03497373, -0.059464  ],
       [-0.05785414,  0.03497373,  0.00465456, -0.0079139 ],
       [ 0.09836636, -0.059464  , -0.0079139 ,  0.01345559]]), array([[ 0.71910188,  0.43470832, -0.05785414, -0.09836636],
       [ 0.43470832,  0.26278797, -0.03497373, -0.059464  ],
       [-0.05785414, -0.03497373,  0.00465456,  0.0079139 ],
       [-0.09836636, -0.059464  ,  0.0079139 ,  0.01345559]])]
Fock (ortho)
 (array([[-0.31014838,  0.31143912,  0.16931692,  0.01275646],
       [ 0.31143912,  0.12823058,  0.08512784,  0.38967332],
       [ 0.16931692,  0.08512784,  1.19497699,  0.04422486],
       [ 0.01275646,  0.38967332,  0.04422486,  1.02128997]]), array([[-0.31014838, -0.31143912,  0.16931692, -0.01275646],
       [-0.31143912,  0.12823058, -0.08512784,  0.38967332],
       [ 0.16931692, -0.08512784,  1.19497699, -0.04422486],
       [-0.01275646,  0.38967332, -0.04422486,  1.02128997]]))
E(UHF) =    -1.337280
NO eigenvalue
[-1. -0.  0.  0.] [-1. -0.  0.  0.]
NO vec
[[ 0.84799875  0.          0.33393588  0.00749221 -0.41149582  0.          0.          0.        ]
 [-0.51262849  0.          0.68567365  0.1401217  -0.49742294  0.          0.          0.        ]
 [-0.06822432  0.          0.08807799 -0.98994644 -0.08714212  0.          0.          0.        ]
 [ 0.11599824  0.          0.64076574 -0.0177712   0.75871461  0.          0.          0.        ]
 [ 0.          0.84799875  0.          0.          0.          0.09814468  0.00604622 -0.52079668]
 [ 0.          0.51262849  0.          0.          0.          0.09589561  0.02004579  0.85300307]
 [ 0.         -0.06822432  0.          0.          0.          0.59862311 -0.79808454 -0.00754202]
 [ 0.         -0.11599824  0.          0.          0.          0.78919074  0.6021816  -0.03316182]]
dm(NO)
[[ 1.  0.  0.  0. -0.  0.  0.  0.]
 [ 0.  1.  0.  0.  0. -0. -0. -0.]
 [ 0.  0. -0. -0.  0.  0.  0.  0.]
 [ 0.  0. -0. -0.  0.  0.  0.  0.]
 [-0.  0.  0.  0. -0.  0.  0.  0.]
 [ 0. -0.  0.  0.  0.  0.  0. -0.]
 [ 0. -0.  0.  0.  0.  0. -0.  0.]
 [ 0. -0.  0.  0.  0.  0.  0. -0.]]
D(g) (NO)
[[ 0.99951369  0.01395489 -0.          0.         -0.          0.00264346  0.00371554 -0.02751111]
 [-0.01395489  0.99951369 -0.01728599 -0.00460837  0.02139186 -0.         -0.         -0.        ]
 [ 0.          0.01728599  0.99951369 -0.         -0.          0.02048547  0.01033186  0.01213201]
 [ 0.          0.00460837 -0.          0.99951369  0.         -0.01847473  0.02439194  0.00385667]
 [ 0.         -0.02139186 -0.          0.          0.99951369  0.01429808  0.01602729 -0.00731249]
 [-0.00264346  0.         -0.02048547  0.01847473 -0.01429808  0.99951369  0.         -0.        ]
 [-0.00371554 -0.         -0.01033186 -0.02439194 -0.01602729  0.          0.99951369 -0.        ]
 [ 0.02751111 -0.         -0.01213201 -0.00385667  0.00731249 -0.         -0.          0.99951369]]
...
N(g) (NO)
[[ 1.00029157 -0.01396575]
 [ 0.01396575  1.00029157]]
...
P(g) (NO)
[[ 1.         -0.          0.          0.         -0.          0.          0.          0.        ]
 [ 0.          1.          0.          0.         -0.         -0.         -0.         -0.        ]
 [ 0.00024141  0.01729103  0.          0.         -0.         -0.         -0.         -0.        ]
 [ 0.00006436  0.00460971  0.          0.         -0.         -0.         -0.         -0.        ]
 [-0.00029875 -0.02139809 -0.         -0.          0.          0.          0.          0.        ]
 [-0.00264423  0.00003692 -0.         -0.          0.         -0.         -0.         -0.        ]
 [-0.00371662  0.00005189 -0.         -0.          0.         -0.         -0.         -0.        ]
 [ 0.02751913 -0.00038421  0.          0.         -0.          0.          0.          0.        ]]
...
Pg_ortho
[[ 0.7192749  -0.43481291 -0.05786806  0.09839003  0.01239253  0.00749148 -0.00099702 -0.00169518]
 [-0.43443428  0.26262231  0.03495168 -0.05942652  0.01962763  0.01186521 -0.00157911 -0.00268488]
 [-0.05786806  0.03498214  0.00465568 -0.0079158  -0.00099702 -0.00060271  0.00008021  0.00013638]
 [ 0.09830435 -0.05942652 -0.00790891  0.01344711 -0.00444137 -0.00268488  0.00035732  0.00060754]
 [-0.01239253  0.00749148  0.00099702 -0.00169518  0.7192749   0.43481291 -0.05786806 -0.09839003]
 [ 0.01962763 -0.01186521 -0.00157911  0.00268488  0.43443428  0.26262231 -0.03495168 -0.05942652]
 [ 0.00099702 -0.00060271 -0.00008021  0.00013638 -0.05786806 -0.03498214  0.00465568  0.0079158 ]
 [-0.00444137  0.00268488  0.00035732 -0.00060754 -0.09830435 -0.05942652  0.00790891  0.01344711]]
G(g) (NO)
[[ 0.33937311 -0.00195997  0.03707194 -0.01533932 -0.06492758 -0.00068949  0.00016958 -0.0009381 ]
 [ 0.00195997  0.33937311 -0.00094822 -0.00065234  0.00024395  0.0328439  -0.00492286 -0.06871869]
 [ 0.03698696 -0.01391889  1.05011707 -0.1036708  -0.10863166 -0.00523474  0.00158692 -0.00216692]
 [-0.0153594   0.00070743 -0.10366993  0.84262462  0.06356331  0.0021175  -0.00046992  0.00107503]
 [-0.06484792  0.01167186 -0.10864162  0.06356352  0.73797348  0.00206866 -0.00089163  0.00159095]
 [ 0.0011668   0.0328458  -0.00042941 -0.00015848  0.00040811  0.76912007 -0.03802659  0.03131526]
 [-0.00264325 -0.00492939  0.00220067  0.00275187  0.00102027 -0.03802586  0.8732104   0.19331817]
 [-0.0179477  -0.06860069  0.00349487  0.00461061  0.0008818   0.03132278  0.19332472  0.98838471]]
...
C(NO)
[[-1.00817661  0.         -0.15522197 -0.01993013  0.06408441  0.          0.          0.        ]
 [ 0.         -1.00817661  0.          0.          0.         -0.15522197 -0.01993013  0.06408441]
 [ 0.00258648  0.         -0.46913837  0.41813788 -0.81159964  0.          0.          0.        ]
 [ 0.00110614  0.         -0.25885751  0.79235215  0.52431491  0.          0.          0.        ]
 [-0.01606334  0.          0.77930683  0.40316079 -0.23084271  0.          0.          0.        ]
 [ 0.          0.0084278   0.          0.          0.         -0.12054769 -0.93117607  0.23294614]
 [ 0.          0.00577427  0.          0.          0.         -0.28309181  0.28351688  0.88581791]
 [ 0.         -0.01271119  0.          0.          0.          0.89428432 -0.13315081  0.38464422]]
detC 1.0164200762384257
detNg [1.00077826 1.02064049 1.1185789  1.40102525 2.05547831 3.26502563 4.53533549 4.97400005]
xg [0.96719862 0.9483764  0.86534025 0.69088787 0.47091295 0.29646057 0.21342442 0.1946022 ]
ciS 1.161800820450889
[[-0.83831311  0.         -0.06357991  0.02340091  0.06692136  0.          0.          0.        ]
 [ 0.         -0.83831311  0.          0.          0.         -0.02601252  0.02300112  0.08867228]
 [-0.06357991  0.         -0.08011627 -0.09490941  0.51426183  0.          0.          0.        ]
 [ 0.02340091  0.         -0.09490941  0.30541199  0.12028242  0.          0.          0.        ]
 [ 0.06692136  0.          0.51426183  0.12028242 -0.32272397  0.          0.          0.        ]
 [ 0.         -0.02601252  0.          0.          0.          0.31286193 -0.01564869  0.12358212]
 [ 0.          0.02300112  0.          0.          0.         -0.01564869  0.31112858  0.12954572]
 [ 0.          0.08867228  0.          0.          0.          0.12358212  0.12954572 -0.72141876]]
ciH -1.5910232478140782
S2 = -0.000000
X(g)
[[ 2.         -0.          0.00024141  0.00006436 -0.00029875  0.00264423  0.00371662 -0.02751913]
 [ 0.          2.         -0.01729103 -0.00460971  0.02139809  0.00003692  0.00005189 -0.00038421]
 [ 0.00024141  0.01729103  0.          0.          0.          0.          0.          0.        ]
 [ 0.00006436  0.00460971  0.          0.          0.          0.          0.          0.        ]
 [-0.00029875 -0.02139809  0.          0.          0.          0.          0.          0.        ]
 [-0.00264423  0.00003692  0.          0.          0.          0.          0.          0.        ]
 [-0.00371662  0.00005189  0.          0.          0.          0.          0.          0.        ]
 [ 0.02751913 -0.00038421  0.          0.          0.          0.          0.          0.        ]]
X(g) int
[[ 2.         -0.          0.20668108  0.05510026 -0.25577316  0.05547065  0.07796735 -0.57729641]
 [ 0.          2.         -0.36273132 -0.09670256  0.44888935  0.03160668  0.0444251  -0.32893836]
 [ 0.20668108  0.36273132  0.          0.          0.          0.          0.          0.        ]
 [ 0.05510026  0.09670256  0.          0.          0.          0.          0.          0.        ]
 [-0.25577316 -0.44888935  0.          0.          0.          0.          0.          0.        ]
 [-0.05547065  0.03160668  0.          0.          0.          0.          0.          0.        ]
 [-0.07796735  0.0444251   0.          0.          0.          0.          0.          0.        ]
 [ 0.57729641 -0.32893836  0.          0.          0.          0.          0.          0.        ]]
Hsp + Hph =  -1.369445794672972
Feff (mod,ortho)
[[-0.29463317  0.32272656  0.17758515  0.03294308  0.          0.          0.          0.        ]
 [ 0.32272656  0.10891384  0.07846687  0.38029719  0.          0.          0.          0.        ]
 [ 0.17758515  0.07846687  1.19354615  0.04390254  0.          0.          0.          0.        ]
 [ 0.03294308  0.38029719  0.04390254  1.02652233  0.          0.          0.          0.        ]
 [ 0.          0.          0.          0.         -0.29463317 -0.32272656  0.17758515 -0.03294308]
 [ 0.          0.          0.          0.         -0.32272656  0.10891384 -0.07846687  0.38029719]
 [ 0.          0.          0.          0.          0.17758515 -0.07846687  1.19354615 -0.04390254]
 [ 0.          0.          0.          0.         -0.03294308  0.38029719 -0.04390254  1.02652233]]
E(SUHF) =     -1.03871004
e_a, e_b
[-0.49900071  0.1363598   1.11027863  1.28671143] [-0.49900071  0.1363598   1.11027863  1.28671143]
P_a, P_b
[[ 0.7212655  -0.43447395 -0.05798289  0.0944031 ]
 [-0.43447395  0.26171724  0.03492758 -0.05686628]
 [-0.05798289  0.03492758  0.00466127 -0.00758911]
 [ 0.0944031  -0.05686628 -0.00758911  0.01235599]] 
 [[ 0.7212655   0.43447395 -0.05798289 -0.0944031 ]
 [ 0.43447395  0.26171724 -0.03492758 -0.05686628]
 [-0.05798289 -0.03492758  0.00466127  0.00758911]
 [-0.0944031  -0.05686628  0.00758911  0.01235599]]
**** Start Cycle 3 ****
dm (ortho)
[array([[ 0.7212655 , -0.43447395, -0.05798289,  0.0944031 ],
       [-0.43447395,  0.26171724,  0.03492758, -0.05686628],
       [-0.05798289,  0.03492758,  0.00466127, -0.00758911],
       [ 0.0944031 , -0.05686628, -0.00758911,  0.01235599]]), array([[ 0.7212655 ,  0.43447395, -0.05798289, -0.0944031 ],
       [ 0.43447395,  0.26171724, -0.03492758, -0.05686628],
       [-0.05798289, -0.03492758,  0.00466127,  0.00758911],
       [-0.0944031 , -0.05686628,  0.00758911,  0.01235599]])]
Fock (ortho)
 (array([[-0.31002622,  0.31181376,  0.16945919,  0.01447335],
       [ 0.31181376,  0.12923471,  0.08594028,  0.38922507],
       [ 0.16945919,  0.08594028,  1.19570124,  0.0444232 ],
       [ 0.01447335,  0.38922507,  0.0444232 ,  1.02198697]]), array([[-0.31002622, -0.31181376,  0.16945919, -0.01447335],
       [-0.31181376,  0.12923471, -0.08594028,  0.38922507],
       [ 0.16945919, -0.08594028,  1.19570124, -0.0444232 ],
       [-0.01447335,  0.38922507, -0.0444232 ,  1.02198697]]))
E(UHF) =    -1.337051
NO eigenvalue
[-1. -0.  0.  0.] [-1. -0.  0.  0.]
NO vec
[[ 0.84927351  0.         -0.52447965 -0.0320137  -0.05129057  0.          0.          0.        ]
 [-0.51158307  0.         -0.80299098  0.0631781  -0.29916011  0.          0.          0.        ]
 [-0.06827352  0.         -0.0552109  -0.99462395  0.05489698  0.          0.          0.        ]
 [ 0.11115748  0.          0.27762986 -0.07554367 -0.95124068  0.          0.          0.        ]
 [ 0.          0.84927351  0.          0.          0.          0.50625245 -0.00609623 -0.14968565]
 [ 0.          0.51158307  0.          0.          0.         -0.85922424 -0.00234015 -0.00331465]
 [ 0.         -0.06827352  0.          0.          0.         -0.03643061 -0.87664516 -0.47487346]
 [ 0.         -0.11115748  0.          0.          0.         -0.06414806  0.48109315 -0.86722455]]
dm(NO)
[[ 1.  0.  0.  0.  0.  0.  0.  0.]
 [ 0.  1.  0.  0.  0. -0. -0.  0.]
 [ 0.  0. -0.  0.  0.  0.  0.  0.]
 [ 0.  0.  0. -0.  0.  0.  0.  0.]
 [ 0.  0. -0.  0. -0.  0.  0.  0.]
 [ 0. -0.  0.  0.  0. -0.  0.  0.]
 [ 0.  0.  0.  0.  0. -0. -0.  0.]
 [ 0.  0.  0.  0.  0. -0.  0. -0.]]
D(g) (NO)
[[ 0.99951369  0.01409025  0.         -0.         -0.          0.02696937  0.00340984 -0.00590627]
 [-0.01409025  0.99951369  0.02754459 -0.00253944  0.00295041  0.          0.          0.        ]
 [ 0.         -0.02754459  0.99951369 -0.          0.          0.01274247  0.00583259 -0.00415923]
 [-0.          0.00253944 -0.          0.99951369 -0.         -0.00091711  0.02605782  0.01691429]
 [-0.         -0.00295041 -0.         -0.          0.99951369  0.00904625 -0.01573966  0.02518167]
 [-0.02696937  0.         -0.01274247  0.00091711 -0.00904625  0.99951369  0.          0.        ]
 [-0.00340984  0.         -0.00583259 -0.02605782  0.01573966  0.          0.99951369  0.        ]
 [ 0.00590627  0.          0.00415923 -0.01691429 -0.02518167  0.          0.          0.99951369]]
...
N(g) (NO)
[[ 1.00028777 -0.01410116]
 [ 0.01410116  1.00028777]]
...
P(g) (NO)
[[ 1.          0.          0.          0.          0.         -0.         -0.          0.        ]
 [-0.          1.         -0.         -0.         -0.         -0.         -0.          0.        ]
 [-0.00038841 -0.02755251 -0.         -0.         -0.          0.          0.         -0.        ]
 [ 0.00003581  0.00254017  0.          0.          0.         -0.         -0.          0.        ]
 [-0.0000416  -0.00295126 -0.         -0.         -0.          0.          0.         -0.        ]
 [-0.02697713  0.0003803  -0.         -0.         -0.         -0.         -0.          0.        ]
 [-0.00341082  0.00004808 -0.         -0.         -0.         -0.         -0.          0.        ]
 [ 0.00590797 -0.00008329  0.          0.          0.          0.          0.         -0.        ]]
...
Pg_ortho
[[ 0.72143935 -0.43457867 -0.05799687  0.09442586  0.01233212  0.00742859 -0.00099139 -0.00161409]
 [-0.43419658  0.26155016  0.03490528 -0.05682998  0.0196758   0.01185226 -0.00158175 -0.00257527]
 [-0.05799687  0.034936    0.0046624  -0.00759094 -0.00099139 -0.00059719  0.0000797   0.00012976]
 [ 0.09434284 -0.05682998 -0.00758427  0.0123481  -0.00427519 -0.00257527  0.00034368  0.00055956]
 [-0.01233212  0.00742859  0.00099139 -0.00161409  0.72143935  0.43457867 -0.05799687 -0.09442586]
 [ 0.0196758  -0.01185226 -0.00158175  0.00257527  0.43419658  0.26155016 -0.03490528 -0.05682998]
 [ 0.00099139 -0.00059719 -0.0000797   0.00012976 -0.05799687 -0.034936    0.0046624   0.00759094]
 [-0.00427519  0.00257527  0.00034368 -0.00055956 -0.09434284 -0.05682998  0.00758427  0.0123481 ]]
G(g) (NO)
[[ 0.34029013 -0.00195781 -0.07356932 -0.01951727  0.00677372  0.00101628  0.00028492  0.00054358]
 [ 0.00195781  0.34029013  0.00078841 -0.00055333  0.00069406  0.06513525 -0.0087939  -0.03897843]
 [-0.07345393  0.01732411  0.91925957  0.13026324  0.17327537 -0.00288184 -0.00227342 -0.00389103]
 [-0.01952777  0.00231337  0.13026149  0.86849113  0.06288646 -0.00159192 -0.00105091 -0.00239523]
 [ 0.00680258  0.00505972  0.17326532  0.06288636  0.84459337 -0.00112689 -0.00123605 -0.00276557]
 [ 0.01779938  0.06501658  0.00147318 -0.00428656  0.00375571  1.00231532 -0.18342232  0.03332514]
 [-0.00271944 -0.0088013  -0.00064296  0.00249746 -0.00257427 -0.18341673  0.8798666   0.04179438]
 [-0.00261987 -0.03896756 -0.00066672  0.00019517 -0.00015813  0.03331671  0.04179578  0.75016216]]
...
C(NO)
[[-1.00809248  0.         -0.1580469  -0.02242066  0.06691768  0.          0.          0.        ]
 [ 0.         -1.00809248  0.          0.          0.         -0.1580469  -0.02242066  0.06691768]
 [-0.01771974  0.          0.92349272  0.05087556  0.22200783  0.          0.          0.        ]
 [ 0.00109783  0.         -0.20023198  0.74931556  0.6027855   0.          0.          0.        ]
 [ 0.01097204  0.         -0.024506   -0.63327106  0.75754832  0.          0.          0.        ]
 [ 0.          0.01285902  0.          0.          0.         -0.86949323  0.2235822  -0.42798384]
 [ 0.          0.00697218  0.          0.          0.         -0.2693928   0.41749081  0.83901781]
 [ 0.         -0.01488672  0.          0.          0.          0.25483571  0.86070133 -0.31527168]]
detC 1.0162504404317505
detNg [1.00077446 1.02053766 1.1179318  1.39828798 2.04494223 3.22932031 4.45839448 4.8793462 ]
xg [0.96752522 0.94878862 0.86613023 0.69247147 0.47349725 0.29983849 0.21718009 0.1984435 ]
ciS 1.165968716696857
[[-0.83865684  0.          0.08852161  0.03091169  0.01862087  0.          0.          0.        ]
 [ 0.         -0.83865684  0.          0.          0.         -0.08712114  0.02828287  0.02735564]
 [ 0.08852161  0.         -0.73787028  0.0757111  -0.09409335  0.          0.          0.        ]
 [ 0.03091169  0.          0.0757111   0.32218051  0.00623997  0.          0.          0.        ]
 [ 0.01862087  0.         -0.09409335  0.00623997  0.31860526  0.          0.          0.        ]
 [ 0.         -0.08712114  0.          0.          0.         -0.67732455 -0.11595906  0.24719246]
 [ 0.          0.02828287  0.          0.          0.         -0.11595906  0.31368819  0.02908203]
 [ 0.          0.02735564  0.          0.          0.          0.24719246  0.02908203  0.26655184]]
ciH -1.5968530297567822
S2 = 0.000000
X(g)
[[ 2.          0.         -0.00038841  0.00003581 -0.0000416   0.02697713  0.00341082 -0.00590797]
 [-0.          2.          0.02755251 -0.00254017  0.00295126  0.0003803   0.00004808 -0.00008329]
 [-0.00038841 -0.02755251  0.          0.          0.          0.          0.          0.        ]
 [ 0.00003581  0.00254017  0.          0.          0.          0.          0.          0.        ]
 [-0.0000416  -0.00295126  0.          0.          0.          0.          0.          0.        ]
 [-0.02697713  0.0003803   0.          0.          0.          0.          0.          0.        ]
 [-0.00341082  0.00004808  0.          0.          0.          0.          0.          0.        ]
 [ 0.00590797 -0.00008329  0.          0.          0.          0.          0.          0.        ]]
X(g) int
[[ 2.          0.         -0.33145506  0.03055812 -0.03550352  0.56409384  0.07132053 -0.12353619]
 [-0.          2.          0.57612514 -0.05311521  0.06171114  0.32453323  0.04103197 -0.07107257]
 [-0.33145506 -0.57612514  0.          0.          0.          0.          0.          0.        ]
 [ 0.03055812  0.05311521  0.          0.          0.          0.          0.          0.        ]
 [-0.03550352 -0.06171114  0.          0.          0.          0.          0.          0.        ]
 [-0.56409384  0.32453323  0.          0.          0.          0.          0.          0.        ]
 [-0.07132053  0.04103197  0.          0.          0.          0.          0.          0.        ]
 [ 0.12353619 -0.07107257  0.          0.          0.          0.          0.          0.        ]]
Hsp + Hph =  -1.369550492126927
Feff (mod,ortho)
[[-0.29390529  0.32376844  0.17768518  0.0367603   0.          0.          0.          0.        ]
 [ 0.32376844  0.10898264  0.07924343  0.37863562  0.          0.          0.          0.        ]
 [ 0.17768518  0.07924343  1.19427447  0.04387783  0.          0.          0.          0.        ]
 [ 0.0367603   0.37863562  0.04387783  1.02754487  0.          0.          0.          0.        ]
 [ 0.          0.          0.          0.         -0.29390529 -0.32376844  0.17768518 -0.0367603 ]
 [ 0.          0.          0.          0.         -0.32376844  0.10898264 -0.07924343  0.37863562]
 [ 0.          0.          0.          0.          0.17768518 -0.07924343  1.19427447 -0.04387783]
 [ 0.          0.          0.          0.         -0.0367603   0.37863562 -0.04387783  1.02754487]]
E(SUHF) =     -1.03881474
e_a, e_b
[-0.49840568  0.13693564  1.1103167   1.28805003] [-0.49840568  0.13693564  1.1103167   1.28805003]
P_a, P_b
[[ 0.7218639  -0.43467914 -0.05781454  0.09213002]
 [-0.43467914  0.26174733  0.03481373 -0.05547721]
 [-0.05781454  0.03481373  0.0046304  -0.00737875]
 [ 0.09213002 -0.05547721 -0.00737875  0.01175837]] 
 [[ 0.7218639   0.43467914 -0.05781454 -0.09213002]
 [ 0.43467914  0.26174733 -0.03481373 -0.05547721]
 [-0.05781454 -0.03481373  0.0046304   0.00737875]
 [-0.09213002 -0.05547721  0.00737875  0.01175837]]
**** Start Cycle 4 ****
dm (ortho)
[array([[ 0.7218639 , -0.43467914, -0.05781454,  0.09213002],
       [-0.43467914,  0.26174733,  0.03481373, -0.05547721],
       [-0.05781454,  0.03481373,  0.0046304 , -0.00737875],
       [ 0.09213002, -0.05547721, -0.00737875,  0.01175837]]), array([[ 0.7218639 ,  0.43467914, -0.05781454, -0.09213002],
       [ 0.43467914,  0.26174733, -0.03481373, -0.05547721],
       [-0.05781454, -0.03481373,  0.0046304 ,  0.00737875],
       [-0.09213002, -0.05547721,  0.00737875,  0.01175837]])]
Fock (ortho)
 (array([[-0.3097144 ,  0.31231351,  0.16949257,  0.01552617],
       [ 0.31231351,  0.1296737 ,  0.086561  ,  0.38898723],
       [ 0.16949257,  0.086561  ,  1.19617622,  0.04458895],
       [ 0.01552617,  0.38898723,  0.04458895,  1.02243853]]), array([[-0.3097144 , -0.31231351,  0.16949257, -0.01552617],
       [-0.31231351,  0.1296737 , -0.086561  ,  0.38898723],
       [ 0.16949257, -0.086561  ,  1.19617622, -0.04458895],
       [-0.01552617,  0.38898723, -0.04458895,  1.02243853]]))
E(UHF) =    -1.336828
NO eigenvalue
[-1. -0. -0.  0.] [-1. -0. -0.  0.]
NO vec
[[ 0.84962574  0.         -0.52570726 -0.0403227  -0.01191901  0.          0.          0.        ]
 [-0.51161248  0.         -0.84086046  0.17440547  0.02809059  0.          0.          0.        ]
 [-0.06804706  0.         -0.07460113 -0.67674597  0.72925932  0.          0.          0.        ]
 [ 0.108436    0.          0.1049773   0.71412303  0.68355665  0.          0.          0.        ]
 [ 0.          0.84962574  0.          0.          0.         -0.51011873 -0.03601331  0.12891093]
 [ 0.          0.51161248  0.          0.          0.          0.85502071 -0.08396065 -0.01195211]
 [ 0.         -0.06804706  0.          0.          0.         -0.05773135 -0.99433477 -0.0577499 ]
 [ 0.         -0.108436    0.          0.          0.          0.07338633 -0.05433243  0.98990104]]
dm(NO)
[[ 1.  0.  0. -0.  0.  0.  0.  0.]
 [ 0.  1.  0.  0.  0. -0. -0.  0.]
 [ 0.  0. -0. -0.  0.  0.  0.  0.]
 [-0.  0.  0. -0. -0.  0.  0.  0.]
 [ 0.  0.  0. -0.  0.  0.  0.  0.]
 [ 0. -0.  0.  0.  0.  0. -0. -0.]
 [ 0. -0.  0.  0.  0. -0.  0. -0.]
 [ 0.  0.  0.  0.  0.  0. -0. -0.]]
D(g) (NO)
[[ 0.99951369  0.01412564  0.         -0.         -0.         -0.02678523  0.00231153  0.00707583]
 [-0.01412564  0.99951369  0.02753965 -0.00073539  0.00372644  0.         -0.          0.        ]
 [ 0.         -0.02753965  0.99951369  0.          0.         -0.01368224  0.00492715  0.00157494]
 [-0.          0.00073539  0.          0.99951369  0.          0.008144    0.01936231  0.02303537]
 [-0.         -0.00372644  0.          0.          0.99951369  0.00118997 -0.0238301   0.01972858]
 [ 0.02678523  0.          0.01368224 -0.008144   -0.00118997  0.99951369  0.         -0.        ]
 [-0.00231153 -0.         -0.00492715 -0.01936231  0.0238301   0.          0.99951369  0.        ]
 [-0.00707583  0.         -0.00157494 -0.02303537 -0.01972858 -0.          0.          0.99951369]]
...
N(g) (NO)
[[ 1.00028677 -0.01413657]
 [ 0.01413657  1.00028677]]
...
P(g) (NO)
[[ 1.          0.          0.         -0.          0.         -0.         -0.          0.        ]
 [ 0.          1.          0.         -0.          0.         -0.         -0.          0.        ]
 [-0.00038932 -0.02754755 -0.          0.         -0.          0.          0.         -0.        ]
 [ 0.0000104   0.0007356   0.         -0.          0.         -0.         -0.          0.        ]
 [-0.00005268 -0.0037275  -0.          0.         -0.          0.          0.         -0.        ]
 [ 0.02679291 -0.00037865  0.         -0.          0.          0.          0.         -0.        ]
 [-0.0023122   0.00003268 -0.          0.         -0.         -0.         -0.          0.        ]
 [-0.00707786  0.00010003 -0.          0.         -0.         -0.         -0.          0.        ]]
...
Pg_ortho
[[ 0.72203796 -0.43478395 -0.05782848  0.09215223  0.01231678  0.0074167  -0.00098646 -0.00157197]
 [-0.43440072  0.26157968  0.03479143 -0.05544168  0.01970046  0.01186287 -0.00157782 -0.00251433]
 [-0.05782848  0.03482212  0.00463152 -0.00738053 -0.00098646 -0.00059401  0.00007901  0.0001259 ]
 [ 0.09207101 -0.05544168 -0.00737403  0.01175083 -0.0041755  -0.00251433  0.00033442  0.00053291]
 [-0.01231678  0.0074167   0.00098646 -0.00157197  0.72203796  0.43478395 -0.05782848 -0.09215223]
 [ 0.01970046 -0.01186287 -0.00157782  0.00251433  0.43440072  0.26157968 -0.03479143 -0.05544168]
 [ 0.00098646 -0.00059401 -0.00007901  0.0001259  -0.05782848 -0.03482212  0.00463152  0.00738053]
 [-0.0041755   0.00251433  0.00033442 -0.00053291 -0.09207101 -0.05544168  0.00737403  0.01175083]]
G(g) (NO)
[[ 0.34063662 -0.00195417 -0.071741   -0.02600052  0.00089927 -0.00096997  0.00062252 -0.00029075]
 [ 0.00195417  0.34063662  0.00088503 -0.00078578  0.00011033 -0.06698364 -0.02156376  0.02952631]
 [-0.07162233  0.01802741  0.98560166 -0.03138398 -0.20137139  0.00269517 -0.00471116  0.00236602]
 [-0.02601636 -0.00042644 -0.0313773   0.78237062 -0.02878943  0.00048484  0.00005277 -0.00013013]
 [ 0.00090458 -0.00267537 -0.20136353 -0.02878927  0.86570173 -0.00132627  0.0028404  -0.00189816]
 [-0.01808943 -0.06686524 -0.00209111  0.00570783 -0.00125483  1.03157424  0.12546018  0.12467899]
 [-0.00203145 -0.02157558 -0.00103252  0.00252897 -0.00033464  0.12545975  0.8568679   0.02619819]
 [ 0.00098627  0.02951205  0.00006968  0.00162108 -0.00009152  0.1246687   0.02619765  0.74523187]]
...
C(NO)
[[-1.00804379  0.         -0.15896135 -0.02413382  0.0686549   0.          0.          0.        ]
 [ 0.         -1.00804379  0.          0.          0.         -0.15896135 -0.02413382  0.0686549 ]
 [-0.01595815  0.          0.89853902 -0.03802287  0.36883656  0.          0.          0.        ]
 [-0.01191907  0.         -0.00019202  0.96450228 -0.17401016  0.          0.          0.        ]
 [-0.01170551  0.          0.29303566 -0.18249443 -0.90551743  0.          0.          0.        ]
 [ 0.         -0.01271734  0.          0.          0.          0.85165293 -0.15414443  0.48731581]
 [ 0.         -0.00110443  0.          0.          0.         -0.17557537  0.82594445  0.50422232]
 [ 0.          0.01925604  0.          0.          0.         -0.37027405 -0.50898907  0.7032531 ]]
detC 1.0161522749942702
detNg [1.00077346 1.02051062 1.11776169 1.39756963 2.04218829 3.2200562  4.43858438 4.8550399 ]
xg [0.96771313 0.9489971  0.86642942 0.69296126 0.47422739 0.30075923 0.21819155 0.19947552]
ciS 1.1671886523462838
[[-0.83871852  0.          0.09150022  0.01311444 -0.02554809  0.          0.          0.        ]
 [ 0.         -0.83871852  0.          0.          0.          0.09096612  0.02963208 -0.00663995]
 [ 0.09150022  0.         -0.73243889 -0.00417023 -0.14179645  0.          0.          0.        ]
 [ 0.01311444  0.         -0.00417023  0.32765583 -0.00101654  0.          0.          0.        ]
 [-0.02554809  0.         -0.14179645 -0.00101654  0.30776023  0.          0.          0.        ]
 [ 0.          0.09096612  0.          0.          0.         -0.66658731  0.06210605  0.2835758 ]
 [ 0.          0.02963208  0.          0.          0.          0.06210605  0.32379626 -0.01818339]
 [ 0.         -0.00663995  0.          0.          0.          0.2835758  -0.01818339  0.24576821]]
ciH -1.5985664572507363
S2 = -0.000000
X(g)
[[ 2.         -0.         -0.00038932  0.0000104  -0.00005268 -0.02679291  0.0023122   0.00707786]
 [ 0.          2.          0.02754755 -0.0007356   0.0037275  -0.00037865  0.00003268  0.00010003]
 [-0.00038932 -0.02754755  0.          0.          0.          0.          0.          0.        ]
 [ 0.0000104   0.0007356   0.          0.          0.          0.          0.          0.        ]
 [-0.00005268 -0.0037275   0.          0.          0.          0.          0.          0.        ]
 [ 0.02679291 -0.00037865  0.          0.          0.          0.          0.          0.        ]
 [-0.0023122   0.00003268  0.          0.          0.          0.          0.          0.        ]
 [-0.00707786  0.00010003  0.          0.          0.          0.          0.          0.        ]]
X(g) int
[[ 2.          0.         -0.33194496  0.00886386 -0.04491602 -0.55976501  0.04830702  0.14787262]
 [ 0.          2.          0.57553096 -0.01536829  0.07787604 -0.32285175  0.0278617   0.08528746]
 [-0.33194496 -0.57553096  0.          0.          0.          0.          0.          0.        ]
 [ 0.00886386  0.01536829  0.          0.          0.          0.          0.          0.        ]
 [-0.04491602 -0.07787604  0.          0.          0.          0.          0.          0.        ]
 [ 0.55976501 -0.32285175  0.          0.          0.          0.          0.          0.        ]
 [-0.04830702  0.0278617   0.          0.          0.          0.          0.          0.        ]
 [-0.14787262  0.08528746  0.          0.          0.          0.          0.          0.        ]]
Hsp + Hph =  -1.3695870449368202
Feff (mod,ortho)
[[-0.29342222  0.32452238  0.17773585  0.03906764  0.          0.          0.          0.        ]
 [ 0.32452238  0.10906273  0.07983367  0.37762174  0.          0.          0.          0.        ]
 [ 0.17773585  0.07983367  1.19475129  0.04392211  0.          0.          0.          0.        ]
 [ 0.03906764  0.37762174  0.04392211  1.02818224  0.          0.          0.          0.        ]
 [ 0.          0.          0.          0.         -0.29342222 -0.32452238  0.17773585 -0.03906764]
 [ 0.          0.          0.          0.         -0.32452238  0.10906273 -0.07983367  0.37762174]
 [ 0.          0.          0.          0.          0.17773585 -0.07983367  1.19475129 -0.04392211]
 [ 0.          0.          0.          0.         -0.03906764  0.37762174 -0.04392211  1.02818224]]
E(SUHF) =     -1.03885129
e_a, e_b
[-0.49811373  0.13740609  1.11028107  1.2890006 ] [-0.49811373  0.13740609  1.11028107  1.2890006 ]
P_a, P_b
[[ 0.72215432 -0.43483872 -0.05766807  0.09075867]
 [-0.43483872  0.26183422  0.03472431 -0.05464952]
 [-0.05766807  0.03472431  0.00460512 -0.00724759]
 [ 0.09075867 -0.05464952 -0.00724759  0.01140634]] 
 [[ 0.72215432  0.43483872 -0.05766807 -0.09075867]
 [ 0.43483872  0.26183422 -0.03472431 -0.05464952]
 [-0.05766807 -0.03472431  0.00460512  0.00724759]
 [-0.09075867 -0.05464952  0.00724759  0.01140634]]
**** Start Cycle 5 ****
dm (ortho)
[array([[ 0.72215432, -0.43483872, -0.05766807,  0.09075867],
       [-0.43483872,  0.26183422,  0.03472431, -0.05464952],
       [-0.05766807,  0.03472431,  0.00460512, -0.00724759],
       [ 0.09075867, -0.05464952, -0.00724759,  0.01140634]]), array([[ 0.72215432,  0.43483872, -0.05766807, -0.09075867],
       [ 0.43483872,  0.26183422, -0.03472431, -0.05464952],
       [-0.05766807, -0.03472431,  0.00460512,  0.00724759],
       [-0.09075867, -0.05464952,  0.00724759,  0.01140634]])]
Fock (ortho)
 (array([[-0.30949645,  0.31264826,  0.16950293,  0.01617104],
       [ 0.31264826,  0.1299283 ,  0.08695916,  0.38884646],
       [ 0.16950293,  0.08695916,  1.19647347,  0.04469613],
       [ 0.01617104,  0.38884646,  0.04469613,  1.02271882]]), array([[-0.30949645, -0.31264826,  0.16950293, -0.01617104],
       [-0.31264826,  0.1299283 , -0.08695916,  0.38884646],
       [ 0.16950293, -0.08695916,  1.19647347, -0.04469613],
       [-0.01617104,  0.38884646, -0.04469613,  1.02271882]]))
E(UHF) =    -1.336673
NO eigenvalue
[-1. -0.  0.  0.] [-1. -0.  0.  0.]
NO vec
[[ 0.84979664  0.         -0.10216767 -0.03462999  0.51595369  0.          0.          0.        ]
 [-0.51169739  0.         -0.10391267  0.17771381  0.83413772  0.          0.          0.        ]
 [-0.06786102  0.         -0.94690521 -0.29930495 -0.09582247  0.          0.          0.        ]
 [ 0.10680046  0.         -0.28659107  0.93682182 -0.16977664  0.          0.          0.        ]
 [ 0.          0.84979664  0.          0.          0.         -0.02413111  0.05155011  0.52402858]
 [ 0.          0.51169739  0.          0.          0.          0.06588526  0.15670364 -0.84218103]
 [ 0.         -0.06786102  0.          0.          0.          0.89330224  0.43077492  0.10880694]
 [ 0.         -0.10680046  0.          0.          0.         -0.44394586  0.88725392  0.06546919]]
dm(NO)
[[ 1.  0. -0. -0.  0.  0.  0.  0.]
 [ 0.  1.  0.  0.  0.  0. -0. -0.]
 [-0.  0.  0. -0. -0.  0.  0.  0.]
 [-0.  0.  0. -0.  0.  0.  0.  0.]
 [ 0.  0. -0.  0.  0.  0.  0.  0.]
 [ 0.  0.  0.  0.  0. -0. -0. -0.]
 [ 0. -0.  0.  0.  0. -0. -0.  0.]
 [ 0. -0.  0.  0.  0.  0.  0.  0.]]
D(g) (NO)
[[ 0.99951369  0.01414218  0.         -0.          0.         -0.0050596   0.00090895  0.02731238]
 [-0.01414218  0.99951369  0.00140722  0.00056861 -0.02775046  0.          0.         -0.        ]
 [ 0.         -0.00140722  0.99951369  0.         -0.         -0.02254617 -0.02132097 -0.00273846]
 [ 0.         -0.00056861  0.          0.99951369 -0.         -0.02091532  0.02271164 -0.00433596]
 [ 0.          0.02775046 -0.         -0.          0.99951369  0.0010066  -0.00107903 -0.01414663]
 [ 0.0050596   0.          0.02254617  0.02091532 -0.0010066   0.99951369  0.          0.        ]
 [-0.00090895  0.          0.02132097 -0.02271164  0.00107903  0.          0.99951369  0.        ]
 [-0.02731238 -0.          0.00273846  0.00433596  0.01414663  0.          0.          0.99951369]]
...
N(g) (NO)
[[ 1.0002863  -0.01415311]
 [ 0.01415311  1.0002863 ]]
...
P(g) (NO)
[[ 1.         -0.         -0.         -0.          0.         -0.          0.          0.        ]
 [-0.          1.          0.          0.         -0.          0.         -0.         -0.        ]
 [-0.00001992 -0.00140763  0.          0.         -0.         -0.          0.          0.        ]
 [-0.00000805 -0.00056878  0.          0.         -0.         -0.          0.          0.        ]
 [ 0.00039276  0.02775841 -0.         -0.          0.          0.         -0.         -0.        ]
 [ 0.00506105 -0.00007161 -0.         -0.          0.         -0.          0.          0.        ]
 [-0.00090921  0.00001286  0.          0.         -0.          0.         -0.         -0.        ]
 [-0.0273202   0.00038656  0.          0.         -0.          0.         -0.         -0.        ]]
...
Pg_ortho
[[ 0.72232849 -0.4349436  -0.05768198  0.09078056  0.01230978  0.00741223 -0.00098301 -0.00154706]
 [-0.43455978  0.26166626  0.03470203 -0.05461446  0.01971488  0.01187114 -0.00157434 -0.00247772]
 [-0.05768198  0.03473268  0.00460623 -0.00724934 -0.00098301 -0.00059191  0.0000785   0.00012354]
 [ 0.09070045 -0.05461446 -0.00724294  0.01139902 -0.00411485 -0.00247772  0.00032859  0.00051714]
 [-0.01230978  0.00741223  0.00098301 -0.00154706  0.72232849  0.4349436  -0.05768198 -0.09078056]
 [ 0.01971488 -0.01187114 -0.00157434  0.00247772  0.43455978  0.26166626 -0.03470203 -0.05461446]
 [ 0.00098301 -0.00059191 -0.0000785   0.00012354 -0.05768198 -0.03473268  0.00460623  0.00724934]
 [-0.00411485  0.00247772  0.00032859 -0.00051714 -0.09070045 -0.05461446  0.00724294  0.01139902]]
G(g) (NO)
[[ 0.34082848 -0.00195179 -0.02463819 -0.02236409  0.06859287 -0.00038437 -0.00069582  0.00088432]
 [ 0.00195179  0.34082848 -0.00027043 -0.00066905 -0.00094507  0.00500244  0.02600836  0.07148927]
 [-0.02462795  0.00550115  0.93703638 -0.03685685 -0.17747176  0.00187741  0.00370085 -0.00137666]
 [-0.02237777 -0.00175335 -0.03685499  0.77780046  0.11208423 -0.00066881 -0.00149135 -0.00005134]
 [ 0.06847402 -0.01731637 -0.17747612  0.11209346  0.91969486 -0.00258863 -0.00412754  0.00184695]
 [ 0.00158864  0.00501783 -0.00146405 -0.00265395 -0.00115862  0.85771925  0.00781591  0.17695904]
 [-0.00086013  0.02601982  0.00055689  0.00085514 -0.00016795  0.0078158   0.76974066 -0.08531312]
 [ 0.01816397  0.07137074 -0.00308625 -0.00452878 -0.00270285  0.17696466 -0.08532184  1.00707179]]
...
C(NO)
[[-1.00801192  0.         -0.15943335 -0.02521483  0.06970199  0.          0.          0.        ]
 [ 0.         -1.00801192  0.          0.          0.         -0.15943335 -0.02521483  0.06970199]
 [ 0.00275208  0.         -0.09708167  0.56234569  0.79774599  0.          0.          0.        ]
 [-0.01723183  0.          0.11536182  0.79420715 -0.54819162  0.          0.          0.        ]
 [ 0.01713151  0.         -0.93293023  0.13402833 -0.22186524  0.          0.          0.        ]
 [ 0.         -0.00893694  0.          0.          0.          0.3225074  -0.4632664  -0.79365335]
 [ 0.          0.01675281  0.          0.          0.         -0.10522714 -0.86557079  0.42765374]
 [ 0.          0.01541016  0.          0.          0.         -0.88204776  0.03365583 -0.41636947]]
detC 1.0160880221945048
detNg [1.00077299 1.02049796 1.11768208 1.39723366 2.04090185 3.21573839 4.42937266 4.84374639]
xg [0.96783598 0.9491289  0.86660072 0.69321555 0.47458632 0.30120115 0.21867298 0.1999659 ]
ciS 1.167801874310128
[[-0.83873687  0.          0.04520005 -0.0018902  -0.08480929  0.          0.          0.        ]
 [ 0.         -0.83873687  0.          0.          0.         -0.02445506 -0.00501958 -0.09282234]
 [ 0.04520005  0.          0.32283328 -0.00271446  0.06869786  0.          0.          0.        ]
 [-0.0018902   0.         -0.00271446  0.32447191  0.05348684  0.          0.          0.        ]
 [-0.08480929  0.          0.06869786  0.05348684 -0.74430968  0.          0.          0.        ]
 [ 0.         -0.02445506  0.          0.          0.          0.29480518  0.01253728  0.18324277]
 [ 0.         -0.00501958  0.          0.          0.          0.01253728  0.32298519 -0.06724598]
 [ 0.         -0.09282234  0.          0.          0.          0.18324277 -0.06724598 -0.71479486]]
ciH -1.5994221438523009
S2 = 0.000000
X(g)
[[ 2.          0.         -0.00001992 -0.00000805  0.00039276 -0.00506105  0.00090921  0.0273202 ]
 [-0.          2.          0.00140763  0.00056878 -0.02775841 -0.00007161  0.00001286  0.00038656]
 [-0.00001992 -0.00140763  0.          0.          0.          0.          0.          0.        ]
 [-0.00000805 -0.00056878  0.          0.          0.          0.          0.          0.        ]
 [ 0.00039276  0.02775841  0.          0.          0.          0.          0.          0.        ]
 [ 0.00506105 -0.00007161  0.          0.          0.          0.          0.          0.        ]
 [-0.00090921  0.00001286  0.          0.          0.          0.          0.          0.        ]
 [-0.0273202   0.00038656  0.          0.          0.          0.          0.          0.        ]]
X(g) int
[[ 2.          0.         -0.01697483 -0.00685899  0.33474405 -0.10569468  0.01898783  0.57055391]
 [-0.          2.          0.0293968   0.01187831 -0.57970544 -0.06103214  0.0109643   0.32945961]
 [-0.01697483 -0.0293968   0.          0.          0.          0.          0.          0.        ]
 [-0.00685899 -0.01187831  0.          0.          0.          0.          0.          0.        ]
 [ 0.33474405  0.57970544  0.          0.          0.          0.          0.          0.        ]
 [ 0.10569468 -0.06103214  0.          0.          0.          0.          0.          0.        ]
 [-0.01898783  0.0109643   0.          0.          0.          0.          0.          0.        ]
 [-0.57055391  0.32945961  0.          0.          0.          0.          0.          0.        ]]
Hsp + Hph =  -1.3696005966741147
Feff (mod,ortho)
[[-0.29312031  0.32499153  0.17776731  0.04047611  0.          0.          0.          0.        ]
 [ 0.32499153  0.10912596  0.08020973  0.37700193  0.          0.          0.          0.        ]
 [ 0.17776731  0.08020973  1.19504912  0.04395823  0.          0.          0.          0.        ]
 [ 0.04047611  0.37700193  0.04395823  1.02856937  0.          0.          0.          0.        ]
 [ 0.          0.          0.          0.         -0.29312031 -0.32499153  0.17776731 -0.04047611]
 [ 0.          0.          0.          0.         -0.32499153  0.10912596 -0.08020973  0.37700193]
 [ 0.          0.          0.          0.          0.17776731 -0.08020973  1.19504912 -0.04395823]
 [ 0.          0.          0.          0.         -0.04047611  0.37700193 -0.04395823  1.02856937]]
E(SUHF) =     -1.03886484
e_a, e_b
[-0.49793757  0.13770864  1.11025124  1.28960182] [-0.49793757  0.13770864  1.11025124  1.28960182]
P_a, P_b
[[ 0.7223297  -0.43493543 -0.05757478  0.08992117]
 [-0.43493543  0.2618871   0.03466742 -0.05414412]
 [-0.05757478  0.03466742  0.00458912 -0.00716735]
 [ 0.08992117 -0.05414412 -0.00716735  0.01119408]] 
 [[ 0.7223297   0.43493543 -0.05757478 -0.08992117]
 [ 0.43493543  0.2618871  -0.03466742 -0.05414412]
 [-0.05757478 -0.03466742  0.00458912  0.00716735]
 [-0.08992117 -0.05414412  0.00716735  0.01119408]]
**** Start Cycle 6 ****
dm (ortho)
[array([[ 0.7223297 , -0.43493543, -0.05757478,  0.08992117],
       [-0.43493543,  0.2618871 ,  0.03466742, -0.05414412],
       [-0.05757478,  0.03466742,  0.00458912, -0.00716735],
       [ 0.08992117, -0.05414412, -0.00716735,  0.01119408]]), array([[ 0.7223297 ,  0.43493543, -0.05757478, -0.08992117],
       [ 0.43493543,  0.2618871 , -0.03466742, -0.05414412],
       [-0.05757478, -0.03466742,  0.00458912,  0.00716735],
       [-0.08992117, -0.05414412,  0.00716735,  0.01119408]])]
Fock (ortho)
 (array([[-0.3093622 ,  0.31285277,  0.16950832,  0.01656527],
       [ 0.31285277,  0.13008456,  0.0872036 ,  0.3887605 ],
       [ 0.16950832,  0.0872036 ,  1.19665544,  0.04476193],
       [ 0.01656527,  0.3887605 ,  0.04476193,  1.02288975]]), array([[-0.3093622 , -0.31285277,  0.16950832, -0.01656527],
       [-0.31285277,  0.13008456, -0.0872036 ,  0.3887605 ],
       [ 0.16950832, -0.0872036 ,  1.19665544, -0.04476193],
       [-0.01656527,  0.3887605 , -0.04476193,  1.02288975]]))
E(UHF) =    -1.336572
NO eigenvalue
[-1. -0.  0.  0.] [-1. -0.  0.  0.]
NO vec
[[ 0.84989982  0.         -0.07028946  0.03143466 -0.52128836  0.          0.          0.        ]
 [-0.51174906  0.          0.12162086  0.0045692  -0.85047069  0.          0.          0.        ]
 [-0.06774302  0.         -0.36029767  0.93035652 -0.00576304  0.          0.          0.        ]
 [ 0.10580208  0.          0.92220027  0.3652776   0.07017726  0.          0.          0.        ]
 [ 0.          0.84989982  0.          0.          0.          0.01705702  0.00704735 -0.52662101]
 [ 0.          0.51174906  0.          0.          0.         -0.22146394  0.12642186  0.82041705]
 [ 0.         -0.06774302  0.          0.          0.         -0.90926925 -0.38461083 -0.14392645]
 [ 0.         -0.10580208  0.          0.          0.         -0.35198325  0.91435352 -0.16991572]]
dm(NO)
[[ 1.  0.  0.  0.  0.  0.  0.  0.]
 [ 0.  1.  0.  0.  0. -0. -0. -0.]
 [ 0.  0.  0. -0. -0.  0.  0.  0.]
 [ 0.  0.  0. -0. -0.  0.  0.  0.]
 [ 0.  0.  0.  0.  0.  0.  0.  0.]
 [ 0. -0.  0.  0.  0.  0. -0. -0.]
 [ 0. -0.  0.  0.  0.  0. -0. -0.]
 [ 0. -0.  0.  0.  0.  0. -0. -0.]]
D(g) (NO)
[[ 0.99951369  0.01415212 -0.          0.          0.          0.00474567  0.00199849 -0.02730559]
 [-0.01415212  0.99951369  0.00220349  0.00226445  0.02760666  0.         -0.         -0.        ]
 [-0.         -0.00220349  0.99951369  0.          0.         -0.00078348  0.03107943  0.00099648]
 [ 0.         -0.00226445  0.          0.99951369 -0.         -0.03040339 -0.00071825 -0.00651027]
 [ 0.         -0.02760666  0.         -0.          0.99951369  0.00498919 -0.00139727 -0.01354331]
 [-0.00474567  0.          0.00078348  0.03040339 -0.00498919  0.99951369  0.          0.        ]
 [-0.00199849  0.         -0.03107943  0.00071825  0.00139727  0.          0.99951369 -0.        ]
 [ 0.02730559 -0.         -0.00099648  0.00651027  0.01354331  0.         -0.          0.99951369]]
...
N(g) (NO)
[[ 1.00028602 -0.01416305]
 [ 0.01416305  1.00028602]]
...
P(g) (NO)
[[ 1.          0.          0.          0.          0.         -0.         -0.         -0.        ]
 [ 0.          1.          0.          0.          0.         -0.         -0.         -0.        ]
 [-0.00003121 -0.00220412 -0.         -0.         -0.          0.          0.          0.        ]
 [-0.00003207 -0.0022651  -0.         -0.         -0.          0.          0.          0.        ]
 [-0.00039099 -0.02761455 -0.         -0.         -0.          0.          0.          0.        ]
 [-0.00474703  0.00006721 -0.         -0.         -0.         -0.         -0.         -0.        ]
 [-0.00199906  0.0000283  -0.         -0.         -0.         -0.         -0.         -0.        ]
 [ 0.0273134  -0.00038673  0.          0.          0.          0.          0.          0.        ]]
...
Pg_ortho
[[ 0.72250394 -0.43504034 -0.05758866  0.08994286  0.01230559  0.00740955 -0.00098084 -0.00153189]
 [-0.43465617  0.26171895  0.03464517 -0.05410935  0.01972358  0.01187614 -0.00157211 -0.00245534]
 [-0.05758866  0.03467579  0.00459022 -0.00716908 -0.00098084 -0.00059059  0.00007818  0.0001221 ]
 [ 0.08986343 -0.05410935 -0.00716275  0.01118689 -0.00407777 -0.00245534  0.00032503  0.00050763]
 [-0.01230559  0.00740955  0.00098084 -0.00153189  0.72250394  0.43504034 -0.05758866 -0.08994286]
 [ 0.01972358 -0.01187614 -0.00157211  0.00245534  0.43465617  0.26171895 -0.03464517 -0.05410935]
 [ 0.00098084 -0.00059059 -0.00007818  0.0001221  -0.05758866 -0.03467579  0.00459022  0.00716908]
 [-0.00407777  0.00245534  0.00032503 -0.00050763 -0.08986343 -0.05410935  0.00716275  0.01118689]]
G(g) (NO)
[[ 0.34094597 -0.00195034 -0.02792353  0.01386242 -0.06952237  0.00083593 -0.00025094 -0.00080795]
 [ 0.00195034  0.34094597 -0.00062973  0.00035024  0.0009462  -0.01722259  0.0076115  -0.07382884]
 [-0.0279299  -0.00038738  0.76255493  0.00266206 -0.09140607  0.00096993 -0.00035033  0.00035703]
 [ 0.01386694 -0.00330183  0.00266303  0.89305322 -0.18143438  0.00350765 -0.00107666 -0.00077643]
 [-0.06940241  0.01796315 -0.09141518 -0.18143933  0.97944915 -0.0054947   0.00115357  0.00151026]
 [ 0.00090431 -0.01725022  0.00079887 -0.0003829  -0.00070752  0.81018822  0.0340778   0.03874292]
 [-0.00331711  0.00761798  0.00297939 -0.00164734 -0.00094374  0.0340784   0.84415485  0.20589804]
 [-0.01794174 -0.07371202  0.00441101 -0.00303616 -0.00257259  0.03874022  0.20590809  0.98071423]]
...
C(NO)
[[-1.0079911   0.         -0.15972018 -0.02587811  0.07033867  0.          0.          0.        ]
 [ 0.         -1.0079911   0.          0.          0.         -0.15972018 -0.02587811  0.07033867]
 [-0.01892202  0.          0.16083845  0.82340585 -0.47624641  0.          0.          0.        ]
 [-0.00631674  0.          0.22566632 -0.52352531 -0.79491317  0.          0.          0.        ]
 [-0.01555665  0.          0.9034413  -0.11336411  0.35686152  0.          0.          0.        ]
 [ 0.         -0.00570375  0.          0.          0.         -0.20364305  0.95193983  0.1864485 ]
 [ 0.          0.01735413  0.          0.          0.         -0.23423783 -0.23565369  0.90831075]
 [ 0.         -0.01750014  0.          0.          0.          0.89255959  0.05661515  0.35532559]]
detC 1.0160460672287834
detNg [1.00077271 1.02049034 1.11763419 1.39703159 2.04012861 3.21314603 4.42384857 4.83697661]
xg [0.96791618 0.94921437 0.86670943 0.69337308 0.47480541 0.30146905 0.21896412 0.20026231]
ciS 1.168178484724451
[[-0.83874526  0.          0.00505396 -0.03399364  0.08992802  0.          0.          0.        ]
 [ 0.         -0.83874526  0.          0.          0.          0.01271493  0.02365552  0.09244947]
 [ 0.00505396  0.          0.31401767 -0.00917971 -0.11827413  0.          0.          0.        ]
 [-0.03399364  0.         -0.00917971  0.32174766 -0.07546361  0.          0.          0.        ]
 [ 0.08992802  0.         -0.11827413 -0.07546361 -0.73276142  0.          0.          0.        ]
 [ 0.          0.01271493  0.          0.          0.          0.30634448 -0.01335191  0.15049127]
 [ 0.          0.02365552  0.          0.          0.         -0.01335191  0.31824456  0.09257454]
 [ 0.          0.09244947  0.          0.          0.          0.15049127  0.09257454 -0.72158514]]
ciH -1.5999438566236366
S2 = 0.000000
X(g)
[[ 2.          0.         -0.00003121 -0.00003207 -0.00039099  0.00474703  0.00199906 -0.0273134 ]
 [ 0.          2.          0.00220412  0.0022651   0.02761455  0.00006721  0.0000283  -0.00038673]
 [-0.00003121 -0.00220412  0.          0.          0.          0.          0.          0.        ]
 [-0.00003207 -0.0022651   0.          0.          0.          0.          0.          0.        ]
 [-0.00039099 -0.02761455  0.          0.          0.          0.          0.          0.        ]
 [-0.00474703  0.00006721  0.          0.          0.          0.          0.          0.        ]
 [-0.00199906  0.0000283   0.          0.          0.          0.          0.          0.        ]
 [ 0.0273134  -0.00038673  0.          0.          0.          0.          0.          0.        ]]
X(g) int
[[ 2.          0.         -0.02659223 -0.02732794 -0.33316349  0.09911306  0.04173821 -0.57027525]
 [ 0.          2.          0.04601973  0.04729294  0.576563    0.05727189  0.02411818 -0.32953015]
 [-0.02659223 -0.04601973  0.          0.          0.          0.          0.          0.        ]
 [-0.02732794 -0.04729294  0.          0.          0.          0.          0.          0.        ]
 [-0.33316349 -0.576563    0.          0.          0.          0.          0.          0.        ]
 [-0.09911306  0.05727189  0.          0.          0.          0.          0.          0.        ]
 [-0.04173821  0.02411818  0.          0.          0.          0.          0.          0.        ]
 [ 0.57027525 -0.32953015  0.          0.          0.          0.          0.          0.        ]]
Hsp + Hph =  -1.3696056531986462
Feff (mod,ortho)
[[-0.29293567  0.32527538  0.17778685  0.04133767  0.          0.          0.          0.        ]
 [ 0.32527538  0.10916896  0.08044032  0.37662208  0.          0.          0.          0.        ]
 [ 0.17778685  0.08044032  1.19523136  0.04398096  0.          0.          0.          0.        ]
 [ 0.04133767  0.37662208  0.04398096  1.0288029   0.          0.          0.          0.        ]
 [ 0.          0.          0.          0.         -0.29293567 -0.32527538  0.17778685 -0.04133767]
 [ 0.          0.          0.          0.         -0.32527538  0.10916896 -0.08044032  0.37662208]
 [ 0.          0.          0.          0.          0.17778685 -0.08044032  1.19523136 -0.04398096]
 [ 0.          0.          0.          0.         -0.04133767  0.37662208 -0.04398096  1.0288029 ]]
E(SUHF) =     -1.03886990
e_a, e_b
[-0.49782749  0.13789373  1.11023151  1.28996981] [-0.49782749  0.13789373  1.11023151  1.28996981]
P_a, P_b
[[ 0.7224408  -0.43499186 -0.05751829  0.08940817]
 [-0.43499186  0.26191477  0.03463258 -0.05383393]
 [-0.05751829  0.03463258  0.00457941 -0.00711838]
 [ 0.08940817 -0.05383393 -0.00711838  0.01106502]] 
 [[ 0.7224408   0.43499186 -0.05751829 -0.08940817]
 [ 0.43499186  0.26191477 -0.03463258 -0.05383393]
 [-0.05751829 -0.03463258  0.00457941  0.00711838]
 [-0.08940817 -0.05383393  0.00711838  0.01106502]]
**** Start Cycle 7 ****
dm (ortho)
[array([[ 0.7224408 , -0.43499186, -0.05751829,  0.08940817],
       [-0.43499186,  0.26191477,  0.03463258, -0.05383393],
       [-0.05751829,  0.03463258,  0.00457941, -0.00711838],
       [ 0.08940817, -0.05383393, -0.00711838,  0.01106502]]), array([[ 0.7224408 ,  0.43499186, -0.05751829, -0.08940817],
       [ 0.43499186,  0.26191477, -0.03463258, -0.05383393],
       [-0.05751829, -0.03463258,  0.00457941,  0.00711838],
       [-0.08940817, -0.05383393,  0.00711838,  0.01106502]])]
Fock (ortho)
 (array([[-0.30928131,  0.3129759 ,  0.16951171,  0.01680635],
       [ 0.3129759 ,  0.13018144,  0.08735253,  0.38870769],
       [ 0.16951171,  0.08735253,  1.19676648,  0.04480195],
       [ 0.01680635,  0.38870769,  0.04480195,  1.02299382]]), array([[-0.30928131, -0.3129759 ,  0.16951171, -0.01680635],
       [-0.3129759 ,  0.13018144, -0.08735253,  0.38870769],
       [ 0.16951171, -0.08735253,  1.19676648, -0.04480195],
       [-0.01680635,  0.38870769, -0.04480195,  1.02299382]]))
E(UHF) =    -1.336509
NO eigenvalue
[-1. -0.  0.  0.] [-1. -0. -0.  0.]
NO vec
[[ 0.84996518  0.          0.00287934 -0.02814589  0.52607862  0.          0.          0.        ]
 [-0.51177609  0.          0.18960297  0.10440818  0.83140536  0.          0.          0.        ]
 [-0.06767135  0.          0.11751665 -0.98919178  0.05576778  0.          0.          0.        ]
 [ 0.10519039  0.          0.97479857  0.09902706 -0.1699893   0.          0.          0.        ]
 [ 0.          0.84996518  0.          0.          0.          0.19457921  0.01023824 -0.48948269]
 [ 0.          0.51177609  0.          0.          0.         -0.0920139   0.04432398  0.85302641]
 [ 0.         -0.06767135  0.          0.          0.          0.71629689 -0.67742938  0.15306468]
 [ 0.         -0.10519039  0.          0.          0.          0.6637704   0.73417981  0.09656003]]
dm(NO)
[[ 1.  0.  0. -0.  0.  0.  0.  0.]
 [ 0.  1.  0.  0.  0. -0.  0.  0.]
 [ 0.  0.  0.  0.  0.  0.  0.  0.]
 [-0.  0. -0. -0. -0.  0.  0.  0.]
 [ 0.  0.  0. -0. -0.  0.  0.  0.]
 [ 0. -0.  0.  0.  0.  0.  0. -0.]
 [ 0. -0.  0.  0.  0. -0.  0. -0.]
 [ 0.  0.  0.  0.  0.  0.  0.  0.]]
D(g) (NO)
[[ 0.99951369  0.01415844  0.          0.          0.          0.00729143  0.00340176 -0.02659313]
 [-0.01415844  0.99951369  0.00034334 -0.00268281 -0.0276517   0.          0.         -0.        ]
 [ 0.         -0.00034334  0.99951369 -0.         -0.          0.02227521  0.02009764  0.00849559]
 [ 0.          0.00268281 -0.          0.99951369  0.         -0.02051567  0.02329857 -0.00121641]
 [ 0.          0.0276517  -0.          0.          0.99951369 -0.00146637 -0.00375272  0.01383993]
 [-0.00729143  0.         -0.02227521  0.02051567  0.00146637  0.99951369  0.          0.        ]
 [-0.00340176  0.         -0.02009764 -0.02329857  0.00375272  0.          0.99951369  0.        ]
 [ 0.02659313  0.         -0.00849559  0.00121641 -0.01383993  0.          0.          0.99951369]]
...
N(g) (NO)
[[ 1.00028584 -0.01416938]
 [ 0.01416938  1.00028584]]
...
P(g) (NO)
[[ 1.         -0.          0.         -0.          0.          0.         -0.         -0.        ]
 [-0.          1.         -0.          0.         -0.         -0.          0.          0.        ]
 [-0.00000486 -0.00034344 -0.          0.         -0.          0.         -0.         -0.        ]
 [ 0.00003801  0.00268358  0.         -0.          0.         -0.          0.          0.        ]
 [ 0.00039181  0.0276596   0.         -0.          0.         -0.          0.          0.        ]
 [-0.00729352  0.00010332 -0.          0.         -0.         -0.          0.          0.        ]
 [-0.00340273  0.0000482  -0.          0.         -0.         -0.          0.          0.        ]
 [ 0.02660073 -0.00037681  0.         -0.          0.          0.         -0.         -0.        ]]
...
Pg_ortho
[[ 0.72261508 -0.43509679 -0.05753217  0.08942974  0.01230291  0.00740776 -0.00097952 -0.00152259]
 [-0.43471239  0.2617465   0.03461033 -0.05379934  0.01972889  0.01187904 -0.00157075 -0.00244162]
 [-0.05753217  0.03464093  0.00458052 -0.00712009 -0.00097952 -0.00058978  0.00007799  0.00012122]
 [ 0.08935073 -0.05379934 -0.0071138   0.01105791 -0.00405507 -0.00244162  0.00032285  0.00050185]
 [-0.01230291  0.00740776  0.00097952 -0.00152259  0.72261508  0.43509679 -0.05753217 -0.08942974]
 [ 0.01972889 -0.01187904 -0.00157075  0.00244162  0.43471239  0.2617465  -0.03461033 -0.05379934]
 [ 0.00097952 -0.00058978 -0.00007799  0.00012122 -0.05753217 -0.03464093  0.00458052  0.00712009]
 [-0.00405507  0.00244162  0.00032285 -0.00050185 -0.08935073 -0.05379934  0.0071138   0.01105791]]
G(g) (NO)
[[ 0.34101928 -0.00194946 -0.01151258 -0.02084617  0.07234692 -0.00048136  0.0000538  -0.00108646]
 [ 0.00194946  0.34101928 -0.00047901 -0.00065929 -0.00086654  0.04632103  0.00092063 -0.06045407]
 [-0.01152762 -0.00360357  0.82652634 -0.05524462  0.18427179 -0.00281575  0.00018616 -0.00141721]
 [-0.02086054  0.00164164 -0.05524495  0.84882776 -0.10571364  0.00192834 -0.00013018  0.00165448]
 [ 0.07222843 -0.01784287  0.18428222 -0.10571387  0.96002254 -0.00438875  0.00082435 -0.00357049]
 [ 0.00521838  0.04630099 -0.00095101 -0.00164284 -0.00113665  0.79547769 -0.09501982 -0.0433902 ]
 [-0.00287737  0.00091762  0.00203683  0.00299594  0.00077051 -0.09501698  0.86396191  0.18462871]
 [-0.01727825 -0.06033549  0.0025281   0.00460157  0.0017188  -0.04338419  0.18463677  0.97593705]]
...
C(NO)
[[-1.00797777  0.         -0.15990041 -0.02628311  0.07072702  0.          0.          0.        ]
 [ 0.         -1.00797777  0.          0.          0.         -0.15990041 -0.02628311  0.07072702]
 [-0.01870666  0.          0.16075472  0.49077026 -0.8234317   0.          0.          0.        ]
 [-0.0023431   0.         -0.18079759  0.85078778  0.46098385  0.          0.          0.        ]
 [ 0.01764645  0.         -0.91346211  0.01452409 -0.30894511  0.          0.          0.        ]
 [ 0.          0.0178494   0.          0.          0.         -0.25129149 -0.91782305 -0.0088351 ]
 [ 0.          0.01462598  0.          0.          0.         -0.28706367  0.11047546  0.91772278]
 [ 0.         -0.01158905  0.          0.          0.          0.86451715 -0.33211786  0.37907755]]
detC 1.0160191942921553
detNg [1.00077253 1.02048549 1.11760371 1.39690299 2.03963671 3.21149804 4.42033937 4.83267713]
xg [0.96796755 0.94926909 0.86677892 0.69347359 0.47494504 0.30163971 0.21914954 0.20045108]
ciS 1.168418629979004
[[-0.83875013  0.         -0.02063932  0.02670807 -0.09026522  0.          0.          0.        ]
 [ 0.         -0.83875013  0.          0.          0.         -0.03925985  0.02739619  0.08363746]
 [-0.02063932  0.          0.32514954  0.00328337  0.03868297  0.          0.          0.        ]
 [ 0.02670807  0.          0.00328337  0.32214362 -0.0777341   0.          0.          0.        ]
 [-0.09026522  0.          0.03868297 -0.0777341  -0.74428438  0.          0.          0.        ]
 [ 0.         -0.03925985  0.          0.          0.          0.23422629 -0.04079073  0.30098877]
 [ 0.          0.02739619  0.          0.          0.         -0.04079073  0.30909426  0.1296935 ]
 [ 0.          0.08363746  0.          0.          0.          0.30098877  0.1296935  -0.64031178]]
ciH -1.6002749710786974
S2 = 0.000000
X(g)
[[ 2.         -0.         -0.00000486  0.00003801  0.00039181  0.00729352  0.00340273 -0.02660073]
 [ 0.          2.          0.00034344 -0.00268358 -0.0276596   0.00010332  0.0000482  -0.00037681]
 [-0.00000486 -0.00034344  0.          0.          0.          0.          0.          0.        ]
 [ 0.00003801  0.00268358  0.          0.          0.          0.          0.          0.        ]
 [ 0.00039181  0.0276596   0.          0.          0.          0.          0.          0.        ]
 [-0.00729352  0.00010332  0.          0.          0.          0.          0.          0.        ]
 [-0.00340273  0.0000482   0.          0.          0.          0.          0.          0.        ]
 [ 0.02660073 -0.00037681  0.          0.          0.          0.          0.          0.        ]]
X(g) int
[[ 2.         -0.         -0.0041447   0.03238631  0.33380517  0.1522578   0.07103464 -0.55531082]
 [ 0.          2.          0.00716949 -0.05602177 -0.57741547  0.08802058  0.04106529 -0.32102642]
 [-0.0041447  -0.00716949  0.          0.          0.          0.          0.          0.        ]
 [ 0.03238631  0.05602177  0.          0.          0.          0.          0.          0.        ]
 [ 0.33380517  0.57741547  0.          0.          0.          0.          0.          0.        ]
 [-0.1522578   0.08802058  0.          0.          0.          0.          0.          0.        ]
 [-0.07103464  0.04106529  0.          0.          0.          0.          0.          0.        ]
 [ 0.55531082 -0.32102642  0.          0.          0.          0.          0.          0.        ]]
Hsp + Hph =  -1.3696075447782388
Feff (mod,ortho)
[[-0.29282308  0.32544688  0.17779897  0.04186519  0.          0.          0.          0.        ]
 [ 0.32544688  0.10919673  0.08058077  0.37638921  0.          0.          0.          0.        ]
 [ 0.17779897  0.08058077  1.19534255  0.04399464  0.          0.          0.          0.        ]
 [ 0.04186519  0.37638921  0.04399464  1.02894423  0.          0.          0.          0.        ]
 [ 0.          0.          0.          0.         -0.29282308 -0.32544688  0.17779897 -0.04186519]
 [ 0.          0.          0.          0.         -0.32544688  0.10919673 -0.08058077  0.37638921]
 [ 0.          0.          0.          0.          0.17779897 -0.08058077  1.19534255 -0.04399464]
 [ 0.          0.          0.          0.         -0.04186519  0.37638921 -0.04399464  1.02894423]]
E(SUHF) =     -1.03887179
e_a, e_b
[-0.49775868  0.13800606  1.11021916  1.29019391] [-0.49775868  0.13800606  1.11021916  1.29019391]
P_a, P_b
[[ 0.72251104 -0.43502495 -0.05748429  0.08909372]
 [-0.43502495  0.26192916  0.03461137 -0.05364346]
 [-0.05748429  0.03461137  0.00457355 -0.00708846]
 [ 0.08909372 -0.05364346 -0.00708846  0.01098625]] 
 [[ 0.72251104  0.43502495 -0.05748429 -0.08909372]
 [ 0.43502495  0.26192916 -0.03461137 -0.05364346]
 [-0.05748429 -0.03461137  0.00457355  0.00708846]
 [-0.08909372 -0.05364346  0.00708846  0.01098625]]
**** Start Cycle 8 ****
dm (ortho)
[array([[ 0.72251104, -0.43502495, -0.05748429,  0.08909372],
       [-0.43502495,  0.26192916,  0.03461137, -0.05364346],
       [-0.05748429,  0.03461137,  0.00457355, -0.00708846],
       [ 0.08909372, -0.05364346, -0.00708846,  0.01098625]]), array([[ 0.72251104,  0.43502495, -0.05748429, -0.08909372],
       [ 0.43502495,  0.26192916, -0.03461137, -0.05364346],
       [-0.05748429, -0.03461137,  0.00457355,  0.00708846],
       [-0.08909372, -0.05364346,  0.00708846,  0.01098625]])]
Fock (ortho)
 (array([[-0.30923254,  0.31305018,  0.16951388,  0.01695389],
       [ 0.31305018,  0.1302414 ,  0.08744329,  0.38867524],
       [ 0.16951388,  0.08744329,  1.19683429,  0.0448263 ],
       [ 0.01695389,  0.38867524,  0.0448263 ,  1.02305728]]), array([[-0.30923254, -0.31305018,  0.16951388, -0.01695389],
       [-0.31305018,  0.1302414 , -0.08744329,  0.38867524],
       [ 0.16951388, -0.08744329,  1.19683429, -0.0448263 ],
       [-0.01695389,  0.38867524, -0.0448263 ,  1.02305728]]))
E(UHF) =    -1.336469
NO eigenvalue
[-1. -0.  0.  0.] [-1. -0. -0.  0.]
NO vec
[[ 0.85000649  0.         -0.02426627 -0.07521789 -0.52080935  0.          0.          0.        ]
 [-0.51179015  0.          0.08102284  0.08380733 -0.85116536  0.          0.          0.        ]
 [-0.06762806  0.          0.455422   -0.88769689 -0.00338894  0.          0.          0.        ]
 [ 0.10481534  0.          0.88624898  0.44644467  0.0652967   0.          0.          0.        ]
 [ 0.          0.85000649  0.          0.          0.         -0.51292253 -0.02384531  0.11760462]
 [ 0.          0.51179015  0.          0.          0.          0.85776353 -0.03252527  0.03542136]
 [ 0.         -0.06762806  0.          0.          0.         -0.00700606 -0.96236756  0.26310843]
 [ 0.         -0.10481534  0.          0.          0.          0.03321322  0.26874187  0.95691611]]
dm(NO)
[[ 1.  0.  0.  0.  0.  0.  0.  0.]
 [ 0.  1.  0.  0.  0.  0. -0.  0.]
 [ 0.  0. -0.  0. -0.  0.  0.  0.]
 [ 0.  0. -0.  0.  0.  0.  0.  0.]
 [ 0.  0. -0.  0.  0.  0.  0.  0.]
 [ 0.  0.  0.  0.  0. -0. -0.  0.]
 [ 0. -0.  0.  0.  0. -0.  0.  0.]
 [ 0. -0.  0.  0.  0.  0.  0.  0.]]
D(g) (NO)
[[ 0.99951369  0.01416246 -0.         -0.         -0.         -0.02716144  0.00279491  0.00512472]
[...]
       [-0.01715423,  0.38863096, -0.04485917,  1.02314315]]))
E(UHF) =    -1.336414
NO eigenvalue
[-1. -0.  0.  0.] [-1. -0.  0.  0.]
NO vec
[[ 0.85006451  0.          0.52636336  0.00764748 -0.01653661  0.          0.          0.        ]
 [-0.5118057   0.          0.81876065 -0.02379349 -0.25907486  0.          0.          0.        ]
 [-0.0675702   0.          0.10819227  0.9111976   0.39172393  0.          0.          0.        ]
 [ 0.10430492  0.         -0.20215598  0.4112108  -0.88269991  0.          0.          0.        ]
 [ 0.         -0.85006451  0.          0.          0.         -0.52667858  0.          0.        ]
 [ 0.         -0.5118057   0.          0.          0.          0.82605954 -0.04367233  0.23189068]
 [ 0.          0.0675702   0.          0.          0.         -0.10905898 -0.92256629  0.3638844 ]
 [ 0.          0.10430492  0.          0.          0.         -0.16834919  0.38335907  0.90211688]]
dm(NO)
[[ 1.  0. -0.  0. -0.  0.  0.  0.]
 [ 0.  1.  0.  0.  0. -0.  0. -0.]
 [-0.  0.  0. -0. -0.  0.  0.  0.]
 [ 0.  0.  0.  0. -0.  0.  0.  0.]
 [-0.  0.  0.  0. -0.  0.  0.  0.]
 [ 0. -0.  0.  0.  0. -0. -0.  0.]
 [ 0.  0.  0.  0.  0. -0. -0. -0.]
 [ 0.  0.  0.  0.  0.  0.  0.  0.]]
D(g) (NO)
[[ 0.99951369 -0.01416812 -0.         -0.          0.         -0.02746254  0.0038878  -0.00153345]
 [ 0.01416812  0.99951369  0.02744948 -0.00343445 -0.00252747 -0.          0.         -0.        ]
 [-0.         -0.02744948  0.99951369  0.         -0.          0.01313918 -0.00664421  0.00146137]
 [ 0.          0.00343445  0.          0.99951369  0.         -0.00599603 -0.0212657   0.02173512]
 [ 0.          0.00252747 -0.          0.          0.99951369 -0.00310027 -0.02146864 -0.02225962]
 [ 0.02746254 -0.         -0.01313918  0.00599603  0.00310027  0.99951369  0.          0.        ]
 [-0.0038878   0.          0.00664421  0.0212657   0.02146864 -0.          0.99951369  0.        ]
 [ 0.00153345 -0.         -0.00146137 -0.02173512  0.02225962  0.          0.          0.99951369]]
...
N(g) (NO)
[[ 1.00028556  0.01417906]
 [-0.01417906  1.00028556]]
...
P(g) (NO)
[[ 1.         -0.         -0.          0.         -0.          0.         -0.          0.        ]
 [-0.          1.          0.         -0.         -0.         -0.          0.         -0.        ]
 [ 0.00038921 -0.02745732 -0.          0.         -0.          0.         -0.          0.        ]
 [-0.0000487   0.00343544  0.         -0.          0.         -0.          0.         -0.        ]
 [-0.00003584  0.00252819  0.         -0.          0.         -0.          0.         -0.        ]
 [ 0.02747038  0.00038939 -0.          0.         -0.         -0.          0.         -0.        ]
 [-0.00388891 -0.00005513  0.         -0.          0.          0.         -0.          0.        ]
 [ 0.00153389  0.00002174 -0.          0.         -0.         -0.          0.         -0.        ]]
...
Pg_ortho
[[ 0.72278401 -0.43517283 -0.05745289  0.0886873   0.01229879  0.00740484 -0.00097761 -0.00150909]
 [-0.4347881   0.26177664  0.03456057 -0.05334953  0.01973654  0.01188295 -0.00156882 -0.00242172]
 [-0.05745289  0.03459116  0.00456683 -0.0070496  -0.00097761 -0.0005886   0.00007771  0.00011996]
 [ 0.0886089  -0.05334953 -0.00704337  0.01087252 -0.00402227 -0.00242172  0.00031972  0.00049354]
 [-0.01229879  0.00740484  0.00097761 -0.00150909  0.72278401  0.43517283 -0.05745289 -0.0886873 ]
 [ 0.01973654 -0.01188295 -0.00156882  0.00242172  0.4347881   0.26177664 -0.03456057 -0.05334953]
 [ 0.00097761 -0.0005886  -0.00007771  0.00011996 -0.05745289 -0.03459116  0.00456683  0.0070496 ]
 [-0.00402227  0.00242172  0.00031972 -0.00049354 -0.0886089  -0.05334953  0.00704337  0.01087252]]
G(g) (NO)
[[ 0.34112807  0.00194822  0.0736717   0.00959683  0.0166136  -0.00083495  0.00039723 -0.00074893]
 [-0.00194822  0.34112807  0.00081592 -0.00035946 -0.00078796  0.07324532  0.00917018 -0.01861883]
 [ 0.07355458  0.01780792  0.96138124  0.18056157 -0.11588882 -0.00175583  0.0030395  -0.00457799]
 [ 0.00960573  0.00262665  0.18055606  0.87870766 -0.02333894 -0.00080282  0.00162927 -0.00306992]
 [ 0.01664019 -0.00323745 -0.11587992 -0.02333919  0.79574391 -0.00008097 -0.00089124  0.00156029]
 [-0.01793705  0.07312756  0.00165554 -0.00290346 -0.00482515  0.97373486  0.17597198  0.11673456]
 [-0.00227442  0.00918157  0.00070779 -0.0014443  -0.00302752  0.17596677  0.87228067  0.01888721]
 [-0.00275529 -0.01864136 -0.00014652 -0.00079822 -0.0015407   0.11672548  0.01888742  0.78981728]]
...
C(NO)
[[-1.00795765  0.         -0.16017093 -0.02686556  0.07128629  0.          0.          0.        ]
 [ 0.          1.00795765  0.          0.          0.          0.16017093  0.02686556 -0.07128629]
 [ 0.01847962  0.         -0.90587007 -0.04700027 -0.31161771  0.          0.          0.        ]
 [-0.00828233  0.          0.26880398 -0.48794879 -0.80174371  0.          0.          0.        ]
 [ 0.0172426   0.         -0.00034313 -0.85121809  0.49599895  0.          0.          0.        ]
 [ 0.         -0.01780692  0.          0.          0.          0.90141404  0.02733079  0.33864602]
 [ 0.          0.00793342  0.          0.          0.         -0.28078538  0.51619487  0.77999059]
 [ 0.          0.01809352  0.          0.          0.         -0.03832218 -0.83526713  0.51268615]]
detC -1.0159786199742669
detNg [1.00077225 1.02047807 1.11755703 1.3967061  2.03888388 3.20897758 4.41497617 4.82610773]
xg [0.96804513 0.94935182 0.86688436 0.69362675 0.47515836 0.30190074 0.21943328 0.20073997]
ciS 1.1687851018638056
[[-0.8387574   0.         -0.09098307 -0.03059298  0.01011884  0.          0.          0.        ]
 [ 0.         -0.8387574   0.          0.          0.         -0.09169054 -0.02900208 -0.00824407]
 [-0.09098307  0.         -0.73341525  0.1233099   0.06130078  0.          0.          0.        ]
 [-0.03059298  0.          0.1233099   0.31270601 -0.00631388  0.          0.          0.        ]
 [ 0.01011884  0.          0.06130078 -0.00631388  0.32372529  0.          0.          0.        ]
 [ 0.         -0.09169054  0.          0.          0.         -0.73241507  0.139492   -0.02325036]
 [ 0.         -0.02900208  0.          0.          0.          0.139492    0.30872786  0.00224157]
 [ 0.         -0.00824407  0.          0.          0.         -0.02325036  0.00224157  0.32670326]]
ciH -1.6007782098057104
S2 = 0.000000
X(g)
[[ 2.         -0.          0.00038921 -0.0000487  -0.00003584 -0.02747038  0.00388891 -0.00153389]
 [ 0.          2.          0.02745732 -0.00343544 -0.00252819  0.00038939 -0.00005513  0.00002174]
 [ 0.00038921 -0.02745732  0.          0.          0.          0.          0.          0.        ]
 [-0.0000487   0.00343544  0.          0.          0.          0.          0.          0.        ]
 [-0.00003584  0.00252819  0.          0.          0.          0.          0.          0.        ]
 [ 0.02747038  0.00038939  0.          0.          0.          0.          0.          0.        ]
 [-0.00388891 -0.00005513  0.          0.          0.          0.          0.          0.        ]
 [ 0.00153389  0.00002174  0.          0.          0.          0.          0.          0.        ]]
X(g) int
[[ 2.         -0.          0.33151309 -0.04147862 -0.03052472 -0.57333152  0.08116501 -0.03201361]
 [ 0.          2.          0.57305889 -0.07170062 -0.05276553  0.33167081 -0.04695375  0.01851979]
 [ 0.33151309 -0.57305889  0.          0.          0.          0.          0.          0.        ]
 [-0.04147862  0.07170062  0.          0.          0.          0.          0.          0.        ]
 [-0.03052472  0.05276553  0.          0.          0.          0.          0.          0.        ]
 [ 0.57333152  0.33167081  0.          0.          0.          0.          0.          0.        ]
 [-0.08116501 -0.04695375  0.          0.          0.          0.          0.          0.        ]
 [ 0.03201361  0.01851979  0.          0.          0.          0.          0.          0.        ]]
Hsp + Hph =  -1.3696086707924546
Feff (mod,ortho)
[[-0.29266133  0.32569083  0.1778167   0.04262763  0.          0.          0.          0.        ]
 [ 0.32569083  0.10923868  0.08078208  0.37605223  0.          0.          0.          0.        ]
 [ 0.1778167   0.08078208  1.1955024   0.04401371  0.          0.          0.          0.        ]
 [ 0.04262763  0.37605223  0.04401371  1.02914593  0.          0.          0.          0.        ]
 [ 0.          0.          0.          0.         -0.29266133 -0.32569083  0.1778167  -0.04262763]
 [ 0.          0.          0.          0.         -0.32569083  0.10923868 -0.08078208  0.37605223]
 [ 0.          0.          0.          0.          0.1778167  -0.08078208  1.1955024  -0.04401371]
 [ 0.          0.          0.          0.         -0.04262763  0.37605223 -0.04401371  1.02914593]]
E(SUHF) =     -1.03887291
e_a, e_b
[-0.49765695  0.13816632  1.11020115  1.29051517] [-0.49765695  0.13816632  1.11020115  1.29051517]
P_a, P_b
[[ 0.72261608 -0.43507051 -0.05743619  0.08863869]
 [-0.43507051  0.26194594  0.03458101 -0.05336731]
 [-0.05743619  0.03458101  0.00456524 -0.00704533]
 [ 0.08863869 -0.05336731 -0.00704533  0.01087274]] 
 [[ 0.72261608  0.43507051 -0.05743619 -0.08863869]
 [ 0.43507051  0.26194594 -0.03458101 -0.05336731]
 [-0.05743619 -0.03458101  0.00456524  0.00704533]
 [-0.08863869 -0.05336731  0.00704533  0.01087274]]
**** Start Cycle 13 ****
dm (ortho)
[array([[ 0.72261608, -0.43507051, -0.05743619,  0.08863869],
       [-0.43507051,  0.26194594,  0.03458101, -0.05336731],
       [-0.05743619,  0.03458101,  0.00456524, -0.00704533],
       [ 0.08863869, -0.05336731, -0.00704533,  0.01087274]]), array([[ 0.72261608,  0.43507051, -0.05743619, -0.08863869],
       [ 0.43507051,  0.26194594, -0.03458101, -0.05336731],
       [-0.05743619, -0.03458101,  0.00456524,  0.00704533],
       [-0.08863869, -0.05336731,  0.00704533,  0.01087274]])]
Fock (ortho)
 (array([[-0.30916329,  0.31315581,  0.16951724,  0.01716697],
       [ 0.31315581,  0.13032905,  0.08757375,  0.38862814],
       [ 0.16951724,  0.08757375,  1.19693197,  0.04486125],
       [ 0.01716697,  0.38862814,  0.04486125,  1.0231486 ]]), array([[-0.30916329, -0.31315581,  0.16951724, -0.01716697],
       [-0.31315581,  0.13032905, -0.08757375,  0.38862814],
       [ 0.16951724, -0.08757375,  1.19693197, -0.04486125],
       [-0.01716697,  0.38862814, -0.04486125,  1.0231486 ]]))
E(UHF) =    -1.336411
NO eigenvalue
[-1. -0. -0.  0.] [-1. -0.  0.  0.]
NO vec
[[ 0.85006828  0.         -0.0253238  -0.01033064 -0.52596189  0.          0.          0.        ]
 [-0.51180655  0.         -0.27093321  0.02952708 -0.81472536  0.          0.          0.        ]
 [-0.06756656  0.          0.35093028 -0.92770967 -0.10787711  0.          0.          0.        ]
 [ 0.10427243  0.         -0.8959921  -0.37198952  0.2189731   0.          0.          0.        ]
 [ 0.          0.85006828  0.          0.          0.         -0.01180902 -0.04000146 -0.52501843]
 [ 0.          0.51180655  0.          0.          0.          0.17891839 -0.10999376  0.8330328 ]
 [ 0.         -0.06756656  0.          0.          0.          0.97196247  0.17281354 -0.14442713]
 [ 0.         -0.10427243  0.          0.          0.          0.15211086 -0.97797584 -0.09773848]]
dm(NO)
[[ 1.  0. -0. -0. -0.  0.  0.  0.]
 [ 0.  1.  0.  0.  0. -0.  0. -0.]
 [-0.  0. -0.  0. -0.  0.  0.  0.]
 [-0.  0.  0.  0.  0.  0.  0.  0.]
 [-0.  0. -0.  0.  0.  0.  0.  0.]
 [ 0. -0.  0.  0.  0. -0.  0. -0.]
 [ 0.  0.  0.  0.  0.  0. -0.  0.]
 [ 0. -0.  0.  0.  0. -0.  0. -0.]]
D(g) (NO)
[[ 0.99951369  0.01416849 -0.          0.         -0.         -0.0047218  -0.00284892 -0.02722564]
 [-0.01416849  0.99951369  0.00282134 -0.00336158  0.02742967  0.          0.         -0.        ]
 [ 0.         -0.00282134  0.99951369 -0.          0.          0.00488407  0.03017656 -0.00547302]
 [-0.          0.00336158 -0.          0.99951369  0.         -0.02971379  0.00625664  0.00624802]
 [-0.         -0.02742967 -0.          0.          0.99951369 -0.00658286 -0.00380869 -0.01273445]
 [ 0.0047218   0.         -0.00488407  0.02971379  0.00658286  0.99951369  0.         -0.        ]
 [ 0.00284892  0.         -0.03017656 -0.00625664  0.00380869  0.          0.99951369  0.        ]
 [ 0.02722564 -0.          0.00547302 -0.00624802  0.01273445 -0.          0.          0.99951369]]
...
N(g) (NO)
[[ 1.00028555 -0.01417943]
 [ 0.01417943  1.00028555]]
...
P(g) (NO)
[[ 1.         -0.         -0.         -0.         -0.          0.         -0.          0.        ]
 [ 0.          1.         -0.         -0.         -0.         -0.          0.         -0.        ]
 [-0.00004    -0.00282215  0.          0.          0.          0.         -0.          0.        ]
 [ 0.00004767  0.00336254 -0.         -0.         -0.         -0.          0.         -0.        ]
 [-0.00038894 -0.0274375   0.          0.          0.          0.         -0.          0.        ]
 [ 0.00472315 -0.00006695 -0.         -0.         -0.          0.         -0.          0.        ]
 [ 0.00284974 -0.0000404  -0.         -0.         -0.          0.         -0.          0.        ]
 [ 0.02723341 -0.00038604 -0.         -0.         -0.          0.         -0.          0.        ]]
...
Pg_ortho
[[ 0.72279042 -0.43517547 -0.05745005  0.08866007  0.01229863  0.00740472 -0.00097754 -0.00150859]
 [-0.43479073  0.26177749  0.03455877 -0.053333    0.01973682  0.01188309 -0.00156876 -0.00242099]
 [-0.05745005  0.03458935  0.00456634 -0.00704703 -0.00097754 -0.00058855  0.0000777   0.00011991]
 [ 0.08858169 -0.053333   -0.0070408   0.01086575 -0.00402106 -0.00242099  0.00031961  0.00049324]
 [-0.01229863  0.00740472  0.00097754 -0.00150859  0.72279042  0.43517547 -0.05745005 -0.08866007]
 [ 0.01973682 -0.01188309 -0.00156876  0.00242099  0.43479073  0.26177749 -0.03455877 -0.053333  ]
 [ 0.00097754 -0.00058855 -0.0000777   0.00011991 -0.05745005 -0.03458935  0.00456634  0.00704703]
 [-0.00402106  0.00242099  0.00031961 -0.00049324 -0.08858169 -0.053333    0.0070408   0.01086575]]
G(g) (NO)
[[ 0.34113213 -0.00194817  0.01500607 -0.01076542 -0.07385363 -0.00075357  0.00035886 -0.00084806]
 [ 0.00194817  0.34113213  0.00078495 -0.00038744  0.00080598  0.01602847 -0.01644262 -0.07258212]
 [ 0.01503415  0.00363222  0.80187977  0.03040055  0.12581092  0.00179121 -0.00095655  0.00001401]
 [-0.0107747   0.00260169  0.03040028  0.87884234  0.17553744  0.00299363 -0.00164576  0.0008777 ]
 [-0.07373688  0.01773575  0.12582006  0.17554256  0.95512729  0.0050016  -0.00209905  0.00180436]
 [ 0.00005594  0.01605274  0.0016111  -0.00079691  0.00061927  0.82805403  0.03455516 -0.08639644]
 [ 0.00216987 -0.01644668  0.00248601 -0.00132471  0.00009387  0.03455563  0.80175292 -0.18007779]
 [-0.01816059 -0.07246422 -0.00496427  0.00322427 -0.00162606 -0.08639605 -0.18008825  1.00604245]]
...
C(NO)
[[-1.00795689  0.         -0.1601811  -0.02688683  0.07130674  0.          0.          0.        ]
 [ 0.         -1.00795689  0.          0.          0.         -0.1601811  -0.02688683  0.07130674]
 [ 0.01731017  0.          0.00280796 -0.82888646  0.53450267  0.          0.          0.        ]
 [ 0.00743118  0.         -0.2627116   0.52400196  0.78191099  0.          0.          0.        ]
 [-0.01881658  0.          0.90764958  0.05695022  0.29804817  0.          0.          0.        ]
 [ 0.          0.00252924  0.          0.          0.          0.23739836 -0.8808823  -0.37949007]
 [ 0.         -0.02087276  0.          0.          0.          0.24956898  0.43442122 -0.82045337]
 [ 0.         -0.01633581  0.          0.          0.          0.87989225  0.01409709  0.410797  ]]
detC 1.015977092725107
detNg [1.00077224 1.02047778 1.11755525 1.3966986  2.03885519 3.20888158 4.41477198 4.82585766]
xg [0.96804805 0.94935494 0.86688835 0.69363256 0.47516647 0.30191068 0.21944409 0.20075097]
ciS 1.1687990282089353
[[-0.83875768  0.          0.01290364  0.03072877  0.09059021  0.          0.          0.        ]
 [ 0.         -0.83875768  0.          0.          0.         -0.01808669 -0.01539001  0.09355943]
 [ 0.01290364  0.          0.3221681   0.00737306 -0.07302125  0.          0.          0.        ]
 [ 0.03072877  0.          0.00737306  0.31376417  0.11896506  0.          0.          0.        ]
 [ 0.09059021  0.         -0.07302125  0.11896506 -0.73291594  0.          0.          0.        ]
 [ 0.         -0.01808669  0.          0.          0.          0.30543599 -0.02001514 -0.15263216]
 [ 0.         -0.01539001  0.          0.          0.         -0.02001514  0.30930768 -0.13336373]
 [ 0.          0.09355943  0.          0.          0.         -0.15263216 -0.13336373 -0.71172734]]
ciH -1.6007972896294596
S2 = -0.000000
X(g)
[[ 2.         -0.         -0.00004     0.00004767 -0.00038894 -0.00472315 -0.00284974 -0.02723341]
 [ 0.          2.          0.00282215 -0.00336254  0.0274375  -0.00006695 -0.0000404  -0.00038604]
 [-0.00004    -0.00282215  0.          0.          0.          0.          0.          0.        ]
 [ 0.00004767  0.00336254  0.          0.          0.          0.          0.          0.        ]
 [-0.00038894 -0.0274375   0.          0.          0.          0.          0.          0.        ]
 [ 0.00472315 -0.00006695  0.          0.          0.          0.          0.          0.        ]
 [ 0.00284974 -0.0000404   0.          0.          0.          0.          0.          0.        ]
 [ 0.02723341 -0.00038604  0.          0.          0.          0.          0.          0.        ]]
X(g) int
[[ 2.         -0.         -0.03407449  0.04059915 -0.33127953 -0.09857552 -0.05947604 -0.56838067]
 [ 0.          2.          0.05890019 -0.07017853  0.57264025 -0.05702717 -0.03440763 -0.32881531]
 [-0.03407449 -0.05890019  0.          0.          0.          0.          0.          0.        ]
 [ 0.04059915  0.07017853  0.          0.          0.          0.          0.          0.        ]
 [-0.33127953 -0.57264025  0.          0.          0.          0.          0.          0.        ]
 [ 0.09857552 -0.05702717  0.          0.          0.          0.          0.          0.        ]
 [ 0.05947604 -0.03440763  0.          0.          0.          0.          0.          0.        ]
 [ 0.56838067 -0.32881531  0.          0.          0.          0.          0.          0.        ]]
Hsp + Hph =  -1.3696086760805384
Feff (mod,ortho)
[[-0.29265542  0.32569968  0.17781736  0.04265557  0.          0.          0.          0.        ]
 [ 0.32569968  0.10924026  0.08078942  0.37603987  0.          0.          0.          0.        ]
 [ 0.17781736  0.08078942  1.19550824  0.0440144   0.          0.          0.          0.        ]
 [ 0.04265557  0.37603987  0.0440144   1.02915326  0.          0.          0.          0.        ]
 [ 0.          0.          0.          0.         -0.29265542 -0.32569968  0.17781736 -0.04265557]
 [ 0.          0.          0.          0.         -0.32569968  0.10924026 -0.08078942  0.37603987]
 [ 0.          0.          0.          0.          0.17781736 -0.08078942  1.19550824 -0.0440144 ]
 [ 0.          0.          0.          0.         -0.04265557  0.37603987 -0.0440144   1.02915326]]
E(SUHF) =     -1.03887292
e_a, e_b
[-0.49765317  0.13817214  1.11020049  1.29052688] [-0.49765317  0.13817214  1.11020049  1.29052688]
P_a, P_b
[[ 0.72262001 -0.43507213 -0.05743445  0.088622  ]
 [-0.43507213  0.26194646  0.0345799  -0.05335717]
 [-0.05743445  0.0345799   0.00456494 -0.00704375]
 [ 0.088622   -0.05335717 -0.00704375  0.01086859]] 
 [[ 0.72262001  0.43507213 -0.05743445 -0.088622  ]
 [ 0.43507213  0.26194646 -0.0345799  -0.05335717]
 [-0.05743445 -0.0345799   0.00456494  0.00704375]
 [-0.088622   -0.05335717  0.00704375  0.01086859]]

***************
SCF converged at cycle 12
Final E(SUHF) =     -1.03887292, delta E = -5.28808e-09
***** Start DFT Correlation for SUHF+DFT **********
tot grids = 20048
E(SUHF) =     -1.03887292
E_c(TPSS) =     -0.01565600
E(SUHF+DFT) =     -1.05452892
