

#INFO: **** input file is /share/home/srwang/ExSCF/test/pytest/scan_h2/scan_dft.py ****
#import phf
from pyscf import gto, scf
#import scipy
import numpy as np
import sys, os, contextlib

from pyphf import util, sudft

#xyz = 'h2.xyz' #sys.argv[1]
fch = 'test_uhf.fchk' #sys.argv[2]
#bas = '../h2.bas'
bas = 'cc-pvtz'

for r in np.arange(0.5, 2.6, 0.1):
    output = 'sudft_%.1f.out' % r
    os.system("echo '\n' > %s" % output)
    with open(output, 'a', encoding='utf-8') as f:
        with contextlib.redirect_stdout(f):
            xyz = '''H 0.0 0.0 0.0; H 0.0 0.0 %f'''%r
            mf = util.guess_from_fchk(xyz, bas, fch)
            #mf = util.guess(xyz, bas)
            #f.flush()
            mf2 = util.SUHF(mf)
            mf2.cut_no = False
            mf2.debug = False
            mf2.max_cycle = 50
            #mf2.output = 'sudft_%.1f.out'%r
            #mf2.kernel()
            
            mf3 = sudft.SUDFT(mf2)
            mf3.kernel()
                    #INFO: ******************** input file end ********************


System: uname_result(system='Linux', node='xc02n18', release='3.10.0-693.el7.x86_64', version='#1 SMP Thu Jul 6 19:56:57 EDT 2017', machine='x86_64', processor='x86_64')  Threads 24
Python 3.7.4 (default, Aug 13 2019, 20:35:49) 
[GCC 7.3.0]
numpy 1.17.2  scipy 1.4.1
Date: Fri Nov 20 22:48:52 2020
PySCF version 1.7.3
PySCF path  /share/apps/Python/Anaconda3-2019/lib/python3.7/site-packages/pyscf

[CONFIG] conf_file None
[INPUT] verbose = 4
[INPUT] num. atoms = 2
[INPUT] num. electrons = 2
[INPUT] charge = 0
[INPUT] spin (= nelec alpha-beta = 2S) = 0
[INPUT] symmetry False subgroup None
[INPUT] Mole.unit = angstrom
[INPUT]  1 H      0.000000000000   0.000000000000   0.000000000000 AA    0.000000000000   0.000000000000   0.000000000000 Bohr
[INPUT]  2 H      0.000000000000   0.000000000000   1.000000000000 AA    0.000000000000   0.000000000000   1.889726124565 Bohr

nuclear repulsion = 0.52917721092
number of shells = 12
number of NR pGTOs = 32
number of NR cGTOs = 28
basis = cc-pvtz
ecp = {}
CPU time:      1312.15


******** <class 'pyscf.scf.uhf.UHF'> ********
method = UHF
initial guess = minao
damping factor = 0
level_shift factor = 0
DIIS = <class 'pyscf.scf.diis.CDIIS'>
diis_start_cycle = 1
diis_space = 8
SCF conv_tol = 1e-09
SCF conv_tol_grad = None
SCF max_cycles = 1
direct_scf = True
direct_scf_tol = 1e-13
chkfile to save SCF result = /share/home/srwang/ExSCF/test/pytest/scan_h2/tmp3udghuif
max_memory 4000 MB (current use 145 MB)
number electrons alpha = 1  beta = 1
Set gradient conv threshold to 3.16228e-05
init E= -0.753847083746816
  alpha nocc = 1  HOMO = -0.449035299313777  LUMO = 0.0782140344719801
  beta  nocc = 1  HOMO = -0.445259135077179  LUMO = 0.0789212455995774
cycle= 1 E= -1.10117863940732  delta_E= -0.347  |g|= 0.0314  |ddm|= 0.327
SCF not converged.
SCF energy = -1.10117863940732 after 1 cycles  <S^2> = 2.4987993e-07  2S+1 = 1.0000005


******** <class 'pyscf.scf.uhf.UHF'> ********
method = UHF
initial guess = minao
damping factor = 0
level_shift factor = 0
DIIS = <class 'pyscf.scf.diis.CDIIS'>
diis_start_cycle = 1
diis_space = 8
SCF conv_tol = 1e-09
SCF conv_tol_grad = None
SCF max_cycles = 1
direct_scf = True
direct_scf_tol = 1e-13
chkfile to save SCF result = /share/home/srwang/ExSCF/test/pytest/scan_h2/tmp3udghuif
max_memory 4000 MB (current use 146 MB)
number electrons alpha = 1  beta = 1
Set gradient conv threshold to 3.16228e-05
init E= -1.16157987233707
  alpha nocc = 1  HOMO = -0.512402562789846  LUMO = 0.176733594154165
  beta  nocc = 1  HOMO = -0.512402562789846  LUMO = 0.176733594154164
cycle= 1 E= -1.08773944078048  delta_E= 0.0738  |g|= 0.0555  |ddm|= 0.0897
SCF not converged.
SCF energy = -1.08773944078048 after 1 cycles  <S^2> = 0.20893904  2S+1 = 1.3549008

******** <class 'pyphf.util.SUHF'> ********
SVD: S^(-1/2)
[[-0.14617541  0.         -0.         -0.2784682   0.00330328 -0.          0.          0.          0.         -0.1673554  -0.16637221 -0.          0.
   0.          0.          0.5458093   0.          0.          0.          0.         -0.77503289  0.52976356 -0.61951449 -0.         -0.          0.86020288
  -0.40536716  0.42766631]
 [-0.21243221  0.         -0.         -0.22880618 -0.09213069 -0.          0.          0.          0.         -0.01399236 -0.00136771  0.          0.
   0.         -0.          0.10356017 -0.         -0.         -0.         -0.          0.30476849 -0.02548063 -0.00598712 -0.         -0.         -1.56578287
   0.53337152 -7.04276703]
 [-0.20033735  0.          0.         -0.09278292 -0.20513688 -0.          0.          0.         -0.          0.02226298  0.07392054  0.          0.
   0.          0.         -0.46132955  0.         -0.          0.         -0.          0.41163684  0.11903992  0.1169417   0.          0.          0.90129456
  -2.71162582  0.16885175]
 [ 0.         -0.02563452 -0.26397023  0.         -0.         -0.155066   -0.42874149  0.0709503   0.11734978  0.         -0.          0.         -0.
   0.          0.         -0.         -0.16720772  0.57449678 -0.09253224  0.83935459  0.          0.         -0.         -0.04492536  0.53455772  0.
   0.         -0.        ]
 [ 0.         -0.26397023  0.02563452 -0.         -0.          0.42874149 -0.155066   -0.11734978  0.0709503  -0.          0.          0.          0.
   0.         -0.         -0.          0.57449678  0.16720772  0.83935459  0.09253224  0.         -0.         -0.          0.53455772  0.04492536 -0.
   0.          0.        ]
 [-0.07612827 -0.          0.          0.15319047  0.35274654 -0.          0.          0.         -0.         -0.33019662  0.06267651  0.          0.
  -0.         -0.         -0.33754699 -0.          0.          0.          0.          0.36280684  1.03298179 -0.82469768 -0.         -0.         -0.12447543
   0.33563256 -0.34376411]
 [ 0.         -0.03258101 -0.33550135  0.          0.         -0.10510352 -0.2906004   0.10678001  0.1766111  -0.         -0.         -0.         -0.
  -0.         -0.         -0.          0.04496089 -0.15447784  0.0709679  -0.64374568 -0.         -0.          0.          0.11163842 -1.32836279  0.
  -0.         -0.        ]
 [-0.         -0.33550135  0.03258101 -0.         -0.          0.2906004  -0.10510352 -0.1766111   0.10678001 -0.          0.          0.          0.
   0.          0.         -0.         -0.15447784 -0.04496089 -0.64374568 -0.0709679   0.          0.          0.         -1.32836279 -0.11163842  0.
   0.          0.        ]
 [-0.11210448 -0.          0.          0.29571922  0.2565245  -0.          0.          0.          0.         -0.10761651  0.24327419  0.          0.
   0.          0.          0.20301958  0.          0.         -0.          0.         -0.52113729 -0.19964384  0.99184375  0.          0.          0.32161697
  -0.99533743 -4.53306513]
 [ 0.          0.         -0.          0.          0.          0.         -0.         -0.          0.          0.          0.         -0.65354045 -0.08431498
  -0.76760385 -0.00670763  0.          0.          0.         -0.          0.          0.          0.          0.         -0.          0.         -0.
  -0.          0.        ]
 [-0.         -0.18214791  0.01768864 -0.         -0.         -0.24831843  0.0898111   0.49536724 -0.29950169  0.         -0.         -0.         -0.
   0.         -0.          0.          0.81113302  0.23608087 -0.03067331 -0.00338149  0.          0.          0.         -0.63159099 -0.05308024  0.
   0.         -0.        ]
 [-0.03841771 -0.          0.          0.0676723   0.11905241  0.         -0.         -0.         -0.          0.51229494 -0.57896618  0.          0.
  -0.         -0.         -0.16722516 -0.         -0.         -0.         -0.         -0.13837957  0.79105641  0.52045075  0.          0.         -0.00675121
   0.00722554 -1.23380926]
 [ 0.         -0.01768864 -0.18214791  0.          0.          0.0898111   0.24831843 -0.29950169 -0.49536724 -0.          0.         -0.          0.
  -0.          0.          0.         -0.23608087  0.81113302  0.00338149 -0.03067331  0.         -0.          0.          0.05308024 -0.63159099  0.
  -0.          0.        ]
 [ 0.          0.          0.          0.          0.          0.          0.         -0.          0.          0.          0.          0.08431498 -0.65354045
   0.00670763 -0.76760385  0.          0.          0.         -0.         -0.          0.          0.          0.         -0.          0.          0.
   0.          0.        ]
 [-0.14617541  0.          0.          0.2784682   0.00330328  0.          0.         -0.          0.          0.1673554  -0.16637221 -0.         -0.
  -0.         -0.          0.5458093   0.         -0.          0.         -0.          0.77503289 -0.52976356 -0.61951449 -0.         -0.          0.86020288
   0.40536716 -0.42766631]
 [-0.21243221  0.         -0.          0.22880618 -0.09213069  0.         -0.          0.          0.          0.01399236 -0.00136771 -0.         -0.
  -0.          0.          0.10356017  0.          0.          0.          0.         -0.30476849  0.02548063 -0.00598712 -0.         -0.         -1.56578287
  -0.53337152  7.04276703]
 [-0.20033735  0.         -0.          0.09278292 -0.20513688 -0.         -0.          0.         -0.         -0.02226298  0.07392054 -0.         -0.
  -0.         -0.         -0.46132955 -0.         -0.         -0.         -0.         -0.41163684 -0.11903992  0.1169417   0.          0.          0.90129456
   2.71162582 -0.16885175]
 [ 0.         -0.02563452 -0.26397023  0.          0.          0.155066    0.42874149  0.0709503   0.11734978  0.         -0.         -0.          0.
   0.         -0.         -0.          0.16720772 -0.57449678 -0.09253224  0.83935459  0.         -0.          0.          0.04492536 -0.53455772  0.
  -0.          0.        ]
 [-0.         -0.26397023  0.02563452 -0.         -0.         -0.42874149  0.155066   -0.11734978  0.0709503   0.         -0.         -0.         -0.
  -0.         -0.         -0.         -0.57449678 -0.16720772  0.83935459  0.09253224 -0.          0.          0.         -0.53455772 -0.04492536  0.
   0.         -0.        ]
 [ 0.07612827  0.         -0.          0.15319047 -0.35274654 -0.          0.          0.          0.         -0.33019662 -0.06267651  0.          0.
  -0.         -0.          0.33754699  0.         -0.          0.          0.          0.36280684  1.03298179  0.82469768  0.          0.          0.12447543
   0.33563256 -0.34376411]
 [ 0.         -0.03258101 -0.33550135  0.          0.          0.10510352  0.2906004   0.10678001  0.1766111   0.         -0.          0.          0.
  -0.          0.         -0.         -0.04496089  0.15447784  0.0709679  -0.64374568 -0.          0.         -0.         -0.11163842  1.32836279 -0.
   0.         -0.        ]
 [-0.         -0.33550135  0.03258101 -0.         -0.         -0.2906004   0.10510352 -0.1766111   0.10678001  0.         -0.         -0.         -0.
   0.          0.         -0.          0.15447784  0.04496089 -0.64374568 -0.0709679   0.         -0.         -0.          1.32836279  0.11163842 -0.
  -0.          0.        ]
 [ 0.11210448  0.         -0.          0.29571922 -0.2565245   0.          0.         -0.         -0.         -0.10761651 -0.24327419  0.          0.
   0.          0.         -0.20301958 -0.          0.          0.          0.         -0.52113729 -0.19964384 -0.99184375 -0.         -0.         -0.32161697
  -0.99533743 -4.53306513]
 [ 0.          0.         -0.         -0.         -0.          0.         -0.         -0.          0.          0.         -0.         -0.65354045 -0.08431498
   0.76760385  0.00670763  0.         -0.          0.          0.         -0.          0.          0.          0.         -0.          0.          0.
   0.         -0.        ]
 [ 0.          0.18214791 -0.01768864  0.          0.         -0.24831843  0.0898111  -0.49536724  0.29950169  0.         -0.          0.          0.
  -0.         -0.         -0.          0.81113302  0.23608087  0.03067331  0.00338149  0.         -0.          0.         -0.63159099 -0.05308024  0.
   0.         -0.        ]
 [-0.03841771 -0.          0.         -0.0676723   0.11905241  0.          0.         -0.         -0.         -0.51229494 -0.57896618 -0.         -0.
  -0.          0.         -0.16722516 -0.         -0.         -0.         -0.          0.13837957 -0.79105641  0.52045075  0.          0.         -0.00675121
  -0.00722554  1.23380926]
 [-0.          0.01768864  0.18214791 -0.         -0.          0.0898111   0.24831843  0.29950169  0.49536724  0.         -0.          0.          0.
  -0.          0.         -0.         -0.23608087  0.81113302 -0.00338149  0.03067331  0.         -0.          0.          0.05308024 -0.63159099  0.
  -0.          0.        ]
 [ 0.          0.         -0.          0.          0.          0.          0.         -0.          0.          0.          0.          0.08431498 -0.65354045
  -0.00670763  0.76760385  0.          0.         -0.          0.          0.         -0.         -0.         -0.         -0.          0.         -0.
  -0.         -0.        ]]
C (ortho)
[[-0.94536658 -0.19232994  0.04360337  0.13502565  0.         -0.         -0.17607837  0.         -0.         -0.02170475  0.02917406  0.03178816 -0.
  -0.          0.          0.         -0.12315874 -0.          0.         -0.          0.          0.          0.         -0.00445899  0.         -0.
  -0.02508798  0.00209436]
 [ 0.          0.          0.          0.         -0.84706147 -0.14725567 -0.         -0.02995505 -0.05080296 -0.          0.          0.         -0.
   0.          0.27379034 -0.38132105 -0.         -0.         -0.         -0.14457742  0.10152777 -0.04877214 -0.05778032 -0.          0.00496411  0.00224751
  -0.         -0.        ]
 [-0.          0.         -0.          0.          0.14725567 -0.84706147  0.         -0.05080296  0.02995505  0.         -0.          0.         -0.
   0.         -0.38132105 -0.27379034 -0.          0.          0.         -0.10152777 -0.14457742  0.05778032 -0.04877214  0.         -0.00224751  0.00496411
   0.          0.        ]
 [-0.22843336  0.69824397  0.03125866 -0.65421166  0.          0.         -0.03803516  0.         -0.          0.00159067  0.03232808 -0.11569837  0.
   0.         -0.         -0.         -0.0065456   0.         -0.         -0.         -0.         -0.          0.         -0.08336605  0.         -0.
  -0.00056658  0.09181548]
 [-0.21730594 -0.06957662 -0.41332745 -0.05887778 -0.          0.          0.65740146  0.          0.          0.01986457 -0.17532531 -0.08184664  0.
   0.          0.         -0.          0.54808274 -0.         -0.          0.         -0.         -0.         -0.          0.01719736 -0.          0.
   0.05393663 -0.00472678]
 [-0.         -0.         -0.         -0.          0.05436545 -0.01514707  0.         -0.06807344 -0.76359295  0.          0.          0.          0.
   0.         -0.00515412  0.00284416  0.          0.         -0.          0.10814065 -0.19120471 -0.5443916  -0.24696802  0.         -0.05883743  0.00110085
   0.          0.        ]
 [ 0.          0.          0.          0.         -0.01514707 -0.05436545  0.          0.76359295 -0.06807344 -0.          0.          0.         -0.
  -0.         -0.00284416 -0.00515412  0.         -0.          0.         -0.19120471 -0.10814065 -0.24696802  0.5443916   0.          0.00110085  0.05883743
  -0.          0.        ]
 [ 0.          0.          0.          0.         -0.28309082  0.14326099 -0.          0.00205892 -0.01901733 -0.         -0.         -0.          0.
  -0.         -0.75745757  0.240533   -0.         -0.         -0.         -0.15202575  0.46190141 -0.17111326 -0.03990858 -0.         -0.00575469  0.0012595
  -0.         -0.        ]
 [ 0.         -0.         -0.         -0.          0.14326099  0.28309082  0.          0.01901733  0.00205892 -0.          0.          0.         -0.
   0.         -0.240533   -0.75745757 -0.         -0.         -0.          0.46190141  0.15202575 -0.03990858  0.17111326 -0.          0.0012595   0.00575469
  -0.          0.        ]
 [-0.01842169 -0.0510924   0.0325221  -0.11378168 -0.          0.         -0.02559088  0.          0.          0.63948852  0.05802468 -0.16804974  0.
   0.          0.         -0.         -0.02277646 -0.         -0.         -0.          0.          0.          0.          0.73231112  0.          0.
  -0.013271   -0.0697406 ]
 [-0.02191062  0.02547329  0.15813942  0.00459262 -0.         -0.          0.49758277 -0.          0.          0.01568407  0.5340506   0.22362884 -0.
  -0.         -0.          0.         -0.22100862  0.          0.         -0.          0.         -0.         -0.         -0.00965454  0.         -0.
  -0.58467494  0.00213713]
 [ 0.         -0.          0.         -0.         -0.          0.          0.         -0.         -0.          0.         -0.         -0.          0.10775617
  -0.9938059   0.         -0.          0.          0.00327406 -0.0269763   0.          0.         -0.         -0.          0.         -0.          0.
   0.          0.        ]
 [ 0.         -0.          0.         -0.         -0.          0.          0.          0.         -0.          0.         -0.         -0.         -0.9938059
  -0.10775617 -0.          0.          0.         -0.0269763  -0.00327406 -0.          0.          0.         -0.          0.          0.         -0.
   0.          0.        ]
 [ 0.         -0.         -0.         -0.          0.         -0.          0.         -0.         -0.          0.         -0.         -0.         -0.00031413
  -0.02717244 -0.         -0.          0.         -0.00121094  0.99962998  0.          0.         -0.         -0.          0.          0.          0.
   0.         -0.        ]
 [-0.         -0.          0.          0.          0.          0.          0.          0.         -0.         -0.         -0.         -0.         -0.02717244
   0.00031413  0.          0.         -0.          0.99962998  0.00121094 -0.          0.          0.          0.          0.         -0.          0.
  -0.          0.        ]
 [ 0.04029832 -0.06900506 -0.72451341 -0.10880006 -0.         -0.          0.00117582 -0.          0.          0.00603484 -0.20356268 -0.08295165 -0.
   0.          0.          0.         -0.61101519 -0.         -0.         -0.         -0.         -0.         -0.         -0.01884236  0.         -0.
  -0.18655119  0.00217249]
 [ 0.         -0.          0.          0.         -0.01008142  0.00212678 -0.          0.02860912  0.18586329 -0.          0.          0.          0.
   0.         -0.0093357   0.0059583  -0.          0.         -0.          0.06116263 -0.09365295 -0.25816553 -0.1376048   0.          0.92981179  0.04196793
   0.          0.        ]
 [-0.          0.         -0.          0.         -0.00212678 -0.01008142  0.          0.18586329 -0.02860912 -0.         -0.         -0.          0.
   0.          0.0059583   0.0093357  -0.         -0.         -0.          0.09365295  0.06116263  0.1376048  -0.25816553 -0.         -0.04196793  0.92981179
  -0.          0.        ]
 [ 0.          0.          0.          0.         -0.39383342  0.01358627 -0.         -0.01016672 -0.03005826 -0.          0.          0.          0.
  -0.         -0.28358067  0.25970619 -0.          0.          0.          0.53311654 -0.57001338  0.23203966  0.18125489  0.         -0.00368489 -0.00081834
   0.          0.        ]
 [-0.          0.         -0.          0.         -0.01358627 -0.39383342  0.         -0.03005826  0.01016672 -0.         -0.         -0.          0.
   0.          0.25970619  0.28358067  0.         -0.         -0.          0.57001338  0.53311654 -0.18125489  0.23203966 -0.          0.00081834 -0.00368489
  -0.          0.        ]
 [ 0.03846055 -0.45074334  0.10128207 -0.29739026 -0.          0.         -0.00548994 -0.          0.          0.22187764  0.25159928 -0.62478172  0.
   0.          0.         -0.          0.00223292  0.         -0.          0.         -0.         -0.         -0.         -0.42891408 -0.          0.
   0.00270346  0.09878461]
 [ 0.01743808 -0.10860332  0.01782375 -0.05545952  0.          0.         -0.00498281  0.         -0.          0.27854719 -0.14546696  0.34573425 -0.
  -0.         -0.          0.          0.01161299  0.          0.         -0.          0.          0.         -0.         -0.0857507   0.         -0.
   0.00180789  0.87103978]
 [-0.02816251  0.01028255  0.06408478 -0.00149064 -0.          0.          0.39046684 -0.          0.          0.01450645  0.24931334  0.10396131 -0.
  -0.          0.          0.         -0.41159855  0.          0.         -0.          0.          0.          0.          0.00349643 -0.          0.
   0.77454481  0.00263031]
 [-0.          0.          0.          0.         -0.03946964  0.00033669 -0.          0.2103688   0.57255753 -0.          0.          0.         -0.
  -0.         -0.00253471  0.00244525 -0.          0.         -0.          0.17535218 -0.17799572 -0.50833733 -0.41876933  0.         -0.3500306  -0.08732468
   0.          0.        ]
 [-0.          0.          0.         -0.         -0.00033669 -0.03946964  0.          0.57255753 -0.2103688  -0.          0.         -0.          0.
   0.          0.00244525  0.00253471 -0.         -0.         -0.          0.17799572  0.17535218  0.41876933 -0.50833733 -0.          0.08732468 -0.3500306
   0.         -0.        ]
 [-0.0295135   0.04628101  0.4901624   0.0792779  -0.          0.          0.36644963 -0.          0.         -0.00247061 -0.66160757 -0.25830753  0.
   0.          0.         -0.         -0.30319159 -0.         -0.         -0.         -0.         -0.          0.         -0.01086671  0.          0.
  -0.14021645 -0.00043444]
 [-0.02862393  0.49536619 -0.14189476  0.64874415 -0.         -0.          0.00102794 -0.         -0.          0.32311794  0.14434575 -0.34565789 -0.
   0.         -0.         -0.          0.00378849  0.          0.          0.         -0.         -0.         -0.         -0.21818562  0.          0.
   0.00124684  0.14299544]
 [-0.01296822 -0.00175147  0.01485658 -0.082649    0.         -0.         -0.01795738  0.         -0.          0.59871849 -0.17935966  0.43229445  0.
   0.          0.          0.          0.01409054 -0.         -0.          0.         -0.         -0.         -0.         -0.46577989 -0.         -0.
   0.00681268 -0.44468714]]
[[-0.94536658 -0.19232994  0.04360337  0.13502565  0.          0.          0.17607837 -0.         -0.         -0.02170475  0.02917406  0.03178816  0.
   0.          0.          0.          0.12315874 -0.         -0.         -0.         -0.         -0.          0.         -0.00445899 -0.         -0.
  -0.02508798  0.00209436]
 [ 0.          0.          0.         -0.         -0.66258436 -0.54788624 -0.          0.03675493 -0.04612289 -0.         -0.         -0.         -0.
  -0.          0.46814678  0.03472001  0.         -0.          0.         -0.12237691 -0.12741432 -0.07557538  0.00237667 -0.         -0.00540149 -0.00071942
  -0.          0.        ]
 [ 0.         -0.          0.          0.         -0.54788624  0.66258436 -0.         -0.04612289 -0.03675493 -0.         -0.         -0.          0.
  -0.         -0.03472001  0.46814678 -0.          0.         -0.          0.12741432 -0.12237691 -0.00237667 -0.07557538  0.          0.00071942 -0.00540149
   0.         -0.        ]
 [ 0.22843336 -0.69824397 -0.03125866  0.65421166 -0.         -0.         -0.03803516  0.          0.         -0.00159067 -0.03232808  0.11569837 -0.
   0.         -0.         -0.         -0.0065456   0.          0.         -0.          0.          0.          0.          0.08336605  0.          0.
   0.00056658 -0.09181548]
 [-0.21730594 -0.06957662 -0.41332745 -0.05887778 -0.         -0.         -0.65740146  0.          0.          0.01986457 -0.17532531 -0.08184664 -0.
   0.          0.         -0.         -0.54808274  0.         -0.          0.          0.          0.         -0.          0.01719736 -0.          0.
   0.05393663 -0.00472678]
 [ 0.          0.          0.         -0.         -0.02383515 -0.05115586  0.         -0.68892679  0.3362857   0.         -0.          0.          0.
   0.          0.0054888  -0.00212775  0.          0.          0.         -0.20545277 -0.07773543  0.53153435 -0.27354462  0.         -0.05601679  0.01803259
   0.         -0.        ]
 [ 0.         -0.         -0.          0.          0.05115586 -0.02383515 -0.         -0.3362857  -0.68892679  0.          0.         -0.          0.
  -0.         -0.00212775 -0.0054888   0.         -0.         -0.         -0.07773543  0.20545277 -0.27354462 -0.53153435  0.          0.01803259  0.05601679
  -0.         -0.        ]
 [-0.          0.          0.         -0.         -0.07519061 -0.30823773 -0.          0.01849854 -0.0048685   0.          0.         -0.          0.
  -0.         -0.67054905  0.42657012 -0.         -0.          0.         -0.47967555 -0.07985051 -0.13749851  0.10939197 -0.          0.00514643 -0.00286654
  -0.          0.        ]
 [-0.         -0.         -0.         -0.          0.30823773 -0.07519061  0.          0.0048685   0.01849854  0.         -0.          0.          0.
  -0.          0.42657012  0.67054905  0.         -0.          0.         -0.07985051  0.47967555  0.10939197  0.13749851 -0.         -0.00286654 -0.00514643
  -0.          0.        ]
 [ 0.01842169  0.0510924  -0.0325221   0.11378168  0.          0.         -0.02559088 -0.          0.         -0.63948852 -0.05802468  0.16804974 -0.
  -0.         -0.          0.         -0.02277646 -0.          0.          0.         -0.          0.         -0.         -0.73231112 -0.          0.
   0.013271    0.0697406 ]
 [-0.02191062  0.02547329  0.15813942  0.00459262 -0.          0.         -0.49758277  0.          0.          0.01568407  0.5340506   0.22362884  0.
  -0.          0.         -0.          0.22100862 -0.          0.          0.         -0.          0.         -0.         -0.00965454 -0.          0.
  -0.58467494  0.00213713]
 [ 0.          0.         -0.          0.          0.         -0.          0.         -0.          0.         -0.          0.          0.          0.29416668
  -0.95536774  0.         -0.         -0.         -0.02692811  0.0036493  -0.         -0.          0.         -0.         -0.          0.          0.
   0.         -0.        ]
 [-0.          0.         -0.          0.          0.          0.          0.         -0.          0.         -0.          0.         -0.         -0.95536774
  -0.29416668 -0.          0.          0.         -0.0036493  -0.02692811 -0.          0.          0.         -0.          0.          0.          0.
   0.         -0.        ]
 [ 0.          0.         -0.          0.          0.          0.          0.         -0.          0.         -0.          0.          0.         -0.00484177
   0.02673944 -0.          0.         -0.         -0.99951624  0.01512757  0.         -0.          0.         -0.          0.          0.         -0.
  -0.          0.        ]
 [ 0.         -0.         -0.          0.          0.          0.          0.         -0.          0.         -0.         -0.          0.          0.02673944
   0.00484177  0.         -0.          0.         -0.01512757 -0.99951624 -0.          0.          0.          0.          0.         -0.          0.
   0.          0.        ]
 [ 0.04029832 -0.06900506 -0.72451341 -0.10880006 -0.         -0.         -0.00117582  0.          0.          0.00603484 -0.20356268 -0.08295165 -0.
   0.         -0.         -0.          0.61101519  0.          0.         -0.         -0.         -0.          0.         -0.01884236 -0.          0.
  -0.18655119  0.00217249]
 [ 0.          0.          0.          0.          0.00493819  0.00904281 -0.          0.16338938 -0.0930997   0.          0.          0.         -0.
   0.          0.01056055 -0.00333637  0.          0.          0.         -0.1018807  -0.04617428  0.26813027 -0.11700717  0.          0.90236775 -0.22813095
  -0.         -0.        ]
 [-0.         -0.          0.         -0.          0.00904281 -0.00493819 -0.         -0.0930997  -0.16338938  0.         -0.          0.          0.
   0.          0.00333637  0.01056055 -0.          0.          0.          0.04617428 -0.1018807   0.11700717  0.26813027 -0.          0.22813095  0.90236775
   0.          0.        ]
 [ 0.          0.          0.         -0.         -0.24571753 -0.30807831 -0.          0.02444523 -0.02023096  0.         -0.          0.          0.
   0.         -0.38115811  0.0508311   0.          0.         -0.          0.64460712  0.44001154  0.28613847 -0.0694299   0.          0.00376428 -0.00027981
  -0.         -0.        ]
 [-0.         -0.          0.         -0.         -0.30807831  0.24571753 -0.         -0.02023096 -0.02444523  0.         -0.         -0.         -0.
   0.         -0.0508311  -0.38115811 -0.         -0.          0.         -0.44001154  0.64460712  0.0694299   0.28613847 -0.          0.00027981  0.00376428
  -0.         -0.        ]
 [-0.03846055  0.45074334 -0.10128207  0.29739026  0.          0.         -0.00548994 -0.          0.         -0.22187764 -0.25159928  0.62478172 -0.
   0.          0.         -0.          0.00223292  0.          0.         -0.          0.         -0.          0.          0.42891408  0.          0.
  -0.00270346 -0.09878461]
 [-0.01743808  0.10860332 -0.01782375  0.05545952  0.         -0.         -0.00498281 -0.          0.         -0.27854719  0.14546696 -0.34573425  0.
  -0.         -0.         -0.          0.01161299 -0.         -0.          0.         -0.          0.          0.          0.0857507  -0.         -0.
  -0.00180789 -0.87103978]
 [-0.02816251  0.01028255  0.06408478 -0.00149064 -0.         -0.         -0.39046684  0.          0.          0.01450645  0.24931334  0.10396131  0.
  -0.          0.         -0.          0.41159855  0.          0.         -0.          0.         -0.         -0.          0.00349643  0.          0.
   0.77454481  0.00263031]
 [-0.         -0.          0.         -0.          0.02540435  0.03020901 -0.          0.45967137 -0.40097305  0.         -0.          0.         -0.
  -0.          0.00350193 -0.00037481  0.         -0.          0.         -0.20264192 -0.14617494  0.6438581  -0.13864105  0.         -0.36033921  0.01739764
   0.         -0.        ]
 [-0.         -0.          0.          0.          0.03020901 -0.02540435 -0.         -0.40097305 -0.45967137  0.          0.          0.          0.
   0.          0.00037481  0.00350193  0.          0.         -0.          0.14617494 -0.20264192  0.13864105  0.6438581  -0.         -0.01739764 -0.36033921
   0.          0.        ]
 [-0.0295135   0.04628101  0.4901624   0.0792779   0.          0.         -0.36644963  0.          0.         -0.00247061 -0.66160757 -0.25830753 -0.
  -0.         -0.         -0.          0.30319159 -0.          0.         -0.         -0.         -0.          0.         -0.01086671  0.          0.
  -0.14021645 -0.00043444]
 [ 0.02862393 -0.49536619  0.14189476 -0.64874415  0.          0.          0.00102794 -0.         -0.         -0.32311794 -0.14434575  0.34565789  0.
  -0.         -0.          0.          0.00378849 -0.          0.          0.          0.         -0.          0.          0.21818562  0.         -0.
  -0.00124684 -0.14299544]
 [ 0.01296822  0.00175147 -0.01485658  0.082649    0.          0.         -0.01795738 -0.          0.         -0.59871849  0.17935966 -0.43229445 -0.
   0.          0.         -0.          0.01409054  0.         -0.         -0.          0.          0.          0.          0.46577989 -0.          0.
  -0.00681268  0.44468714]]
grids:  [0.06237655 0.31939555 0.74529195 1.28265786 1.85893479 2.39630071 2.8221971  3.07921611] 
weights:  [0.15900941 0.34931531 0.49276925 0.56970235 0.56970235 0.49276925 0.34931531 0.15900941]
S = 0.0, Sz = 0.0
Wigner small d:  1
value : [1. 1. 1. 1. 1. 1. 1. 1.]
**** Start Cycle 1 ****
dm (ortho)
[[[ 0.89371797 -0.          0.         ...  0.02790108  0.0270601   0.01225973]
  [-0.          0.         -0.         ... -0.         -0.         -0.        ]
  [ 0.         -0.          0.         ...  0.          0.          0.        ]
  ...
  [ 0.02790108 -0.          0.         ...  0.00087105  0.00084479  0.00038274]
  [ 0.0270601  -0.          0.         ...  0.00084479  0.00081933  0.0003712 ]
  [ 0.01225973 -0.          0.         ...  0.00038274  0.0003712   0.00016817]]

 [[ 0.89371797 -0.         -0.         ...  0.02790108 -0.0270601  -0.01225973]
  [-0.          0.          0.         ... -0.          0.          0.        ]
  [-0.          0.          0.         ... -0.          0.          0.        ]
  ...
  [ 0.02790108 -0.         -0.         ...  0.00087105 -0.00084479 -0.00038274]
  [-0.0270601   0.          0.         ... -0.00084479  0.00081933  0.0003712 ]
  [-0.01225973  0.          0.         ... -0.00038274  0.0003712   0.00016817]]]
Fock (ortho)
 (array([[-0.39592389,  0.        , -0.        , -0.14627952, -0.4850632 , -0.        ,  0.        ,  0.        ,  0.        , -0.03552671,  0.12006296,
         0.        ,  0.        ,  0.        , -0.        ,  0.27898894,  0.        , -0.        ,  0.        , -0.        , -0.01568523,  0.01955328,
         0.01602872,  0.        , -0.        ,  0.00853215, -0.00410971, -0.00833491],
       [ 0.        ,  1.34127493, -0.        ,  0.        , -0.        ,  0.02462016, -0.01170662, -0.50096217,  0.37346098, -0.        ,  0.        ,
         0.        ,  0.        , -0.        ,  0.        ,  0.        ,  0.00981823,  0.00392192, -0.95936181, -0.20107979, -0.        ,  0.        ,
        -0.        , -0.00346803, -0.00063341,  0.        , -0.        ,  0.        ],
       [-0.        , -0.        ,  1.34127493,  0.        ,  0.        , -0.01170662, -0.02462016,  0.37346098,  0.50096217, -0.        , -0.        ,
         0.        ,  0.        , -0.        , -0.        , -0.        , -0.00392192,  0.00981823,  0.20107979, -0.95936181, -0.        ,  0.        ,
        -0.        ,  0.00063341, -0.00346803, -0.        ,  0.        , -0.        ],
       [-0.14627952,  0.        ,  0.        ,  0.38730217, -0.04086536, -0.        ,  0.        ,  0.        ,  0.        , -0.19784967, -0.02761693,
         0.        ,  0.        , -0.        ,  0.        ,  0.05163945,  0.        , -0.        ,  0.        ,  0.        ,  0.47938641,  0.42266243,
        -0.01725502,  0.        , -0.        , -0.00162006,  0.07826594, -0.20963442],
       [-0.4850632 , -0.        ,  0.        , -0.04086536,  1.6071183 ,  0.        , -0.        , -0.        , -0.        ,  0.01364223, -0.55065439,
        -0.        , -0.        ,  0.        , -0.        , -0.99060185, -0.        ,  0.        , -0.        ,  0.        ,  0.00179592, -0.00944553,
        -0.45279968, -0.        , -0.        , -0.0973045 , -0.00116516,  0.00009343],
       [-0.        ,  0.02462016, -0.01170662, -0.        ,  0.        ,  2.25665563,  0.        ,  0.01708674, -0.00340605,  0.        , -0.        ,
        -0.        , -0.        ,  0.        , -0.        , -0.        ,  0.3729005 , -0.0238283 , -0.0100023 ,  0.0024185 , -0.        , -0.        ,
        -0.        ,  1.35056534, -0.36390301, -0.        , -0.        ,  0.        ],
       [ 0.        , -0.01170662, -0.02462016,  0.        , -0.        ,  0.        ,  2.25665563,  0.00340605,  0.01708674, -0.        ,  0.        ,
         0.        , -0.        ,  0.        ,  0.        ,  0.        , -0.0238283 , -0.3729005 ,  0.0024185 ,  0.0100023 ,  0.        , -0.        ,
         0.        , -0.36390301, -1.35056534,  0.        , -0.        ,  0.        ],
       [ 0.        , -0.50096217,  0.37346098,  0.        , -0.        ,  0.01708674,  0.00340605,  3.14632266, -0.        , -0.        ,  0.        ,
        -0.        , -0.        ,  0.        , -0.        ,  0.        , -0.00608259,  0.00162183, -0.57143209,  0.26484247,  0.        , -0.        ,
        -0.        ,  0.00138857, -0.00068789,  0.        ,  0.        , -0.        ],
       [ 0.        ,  0.37346098,  0.50096217,  0.        , -0.        , -0.00340605,  0.01708674, -0.        ,  3.14632266,  0.        ,  0.        ,
         0.        ,  0.        , -0.        , -0.        , -0.        ,  0.00162183,  0.00608259,  0.26484247,  0.57143209,  0.        , -0.        ,
        -0.        , -0.00068789, -0.00138857,  0.        , -0.        ,  0.        ],
       [-0.03552671, -0.        , -0.        , -0.19784967,  0.01364223,  0.        , -0.        , -0.        ,  0.        ,  2.91164456,  0.00664398,
         0.        , -0.        ,  0.        ,  0.        ,  0.01262117, -0.        , -0.        , -0.        , -0.        , -0.7866885 , -0.5389062 ,
        -0.01211948, -0.        , -0.        ,  0.00459689, -0.28525125, -0.8501707 ],
       [ 0.12006296,  0.        , -0.        , -0.02761693, -0.55065439, -0.        ,  0.        ,  0.        ,  0.        ,  0.00664398,  2.96228822,
        -0.        , -0.        ,  0.        ,  0.        ,  0.65547376,  0.        ,  0.        ,  0.        ,  0.        , -0.01106942,  0.01016086,
        -1.34551893, -0.        , -0.        , -0.18456307, -0.00079257, -0.00045893],
       [ 0.        ,  0.        ,  0.        ,  0.        , -0.        , -0.        ,  0.        , -0.        ,  0.        ,  0.        , -0.        ,
         3.19363853,  0.        , -0.01340386,  0.00161032, -0.        ,  0.        , -0.        ,  0.        , -0.        , -0.        ,  0.        ,
         0.        ,  0.        , -0.        ,  0.        ,  0.        , -0.        ],
       [ 0.        ,  0.        ,  0.        ,  0.        , -0.        , -0.        , -0.        , -0.        ,  0.        , -0.        , -0.        ,
         0.        ,  3.19363853, -0.00161032, -0.01340386,  0.        , -0.        ,  0.        ,  0.        ,  0.        , -0.        ,  0.        ,
         0.        ,  0.        , -0.        ,  0.        ,  0.        , -0.        ],
       [ 0.        , -0.        , -0.        , -0.        ,  0.        ,  0.        ,  0.        ,  0.        , -0.        ,  0.        ,  0.        ,
        -0.01340386, -0.00161032,  3.81147235,  0.        , -0.        ,  0.        , -0.        ,  0.        , -0.        , -0.        , -0.        ,
         0.        ,  0.        ,  0.        ,  0.        ,  0.        , -0.        ],
       [-0.        ,  0.        , -0.        ,  0.        , -0.        , -0.        ,  0.        , -0.        , -0.        ,  0.        ,  0.        ,
         0.00161032, -0.01340386,  0.        ,  3.81147235,  0.        , -0.        , -0.        ,  0.        ,  0.        , -0.        , -0.        ,
        -0.        , -0.        , -0.        ,  0.        ,  0.        , -0.        ],
       [ 0.27898894,  0.        , -0.        ,  0.05163945, -0.99060185, -0.        ,  0.        ,  0.        , -0.        ,  0.01262117,  0.65547376,
        -0.        ,  0.        , -0.        ,  0.        ,  1.75289604,  0.        , -0.        ,  0.        , -0.        ,  0.02684724, -0.00509483,
        -0.01093671,  0.        ,  0.        ,  1.03845925,  0.00340064, -0.00080852],
       [ 0.        ,  0.00981823, -0.00392192,  0.        , -0.        ,  0.3729005 , -0.0238283 , -0.00608259,  0.00162183, -0.        ,  0.        ,
         0.        , -0.        ,  0.        , -0.        ,  0.        ,  4.67189793, -0.        , -0.00746743,  0.0013082 ,  0.        ,  0.        ,
         0.        , -0.62796487,  0.12689034, -0.        ,  0.        , -0.        ],
       [-0.        ,  0.00392192,  0.00981823, -0.        ,  0.        , -0.0238283 , -0.3729005 ,  0.00162183,  0.00608259, -0.        ,  0.        ,
        -0.        ,  0.        , -0.        , -0.        , -0.        , -0.        ,  4.67189793, -0.0013082 , -0.00746743,  0.        , -0.        ,
         0.        , -0.12689034, -0.62796487,  0.        ,  0.        , -0.        ],
       [ 0.        , -0.95936181,  0.20107979,  0.        , -0.        , -0.0100023 ,  0.0024185 , -0.57143209,  0.26484247, -0.        ,  0.        ,
         0.        ,  0.        ,  0.        ,  0.        ,  0.        , -0.00746743, -0.0013082 ,  3.31815431,  0.        ,  0.        ,  0.        ,
        -0.        , -0.00814685,  0.00021149, -0.        ,  0.        ,  0.        ],
       [-0.        , -0.20107979, -0.95936181,  0.        ,  0.        ,  0.0024185 ,  0.0100023 ,  0.26484247,  0.57143209, -0.        ,  0.        ,
        -0.        ,  0.        , -0.        ,  0.        , -0.        ,  0.0013082 , -0.00746743,  0.        ,  3.31815431,  0.        ,  0.        ,
         0.        , -0.00021149, -0.00814685,  0.        ,  0.        , -0.        ],
       [-0.01568523, -0.        , -0.        ,  0.47938641,  0.00179592, -0.        ,  0.        ,  0.        ,  0.        , -0.7866885 , -0.01106942,
        -0.        , -0.        , -0.        , -0.        ,  0.02684724,  0.        ,  0.        ,  0.        ,  0.        ,  2.13404246,  0.1399717 ,
        -0.00392454,  0.        ,  0.        ,  0.0138453 ,  1.0874756 , -0.05992997],
       [ 0.01955328,  0.        ,  0.        ,  0.42266243, -0.00944553, -0.        , -0.        , -0.        , -0.        , -0.5389062 ,  0.01016086,
         0.        ,  0.        , -0.        , -0.        , -0.00509483,  0.        , -0.        ,  0.        ,  0.        ,  0.1399717 ,  5.21952229,
         0.00889063,  0.        , -0.        , -0.00561157,  0.59161447, -1.53814615],
       [ 0.01602872, -0.        , -0.        , -0.01725502, -0.45279968, -0.        ,  0.        , -0.        , -0.        , -0.01211948, -1.34551893,
         0.        ,  0.        ,  0.        , -0.        , -0.01093671,  0.        ,  0.        , -0.        ,  0.        , -0.00392454,  0.00889063,
         3.90249263,  0.        ,  0.        , -0.43579243, -0.00076188,  0.00273034],
       [ 0.        , -0.00346803,  0.00063341,  0.        , -0.        ,  1.35056534, -0.36390301,  0.00138857, -0.00068789, -0.        , -0.        ,
         0.        ,  0.        ,  0.        , -0.        ,  0.        , -0.62796487, -0.12689034, -0.00814685, -0.00021149,  0.        ,  0.        ,
         0.        ,  3.01822674, -0.        , -0.        , -0.        ,  0.        ],
       [-0.        , -0.00063341, -0.00346803, -0.        , -0.        , -0.36390301, -1.35056534, -0.00068789, -0.00138857, -0.        , -0.        ,
        -0.        , -0.        ,  0.        , -0.        ,  0.        ,  0.12689034, -0.62796487,  0.00021149, -0.00814685,  0.        , -0.        ,
         0.        , -0.        ,  3.01822674, -0.        ,  0.        ,  0.        ],
       [ 0.00853215,  0.        , -0.        , -0.00162006, -0.0973045 , -0.        ,  0.        ,  0.        ,  0.        ,  0.00459689, -0.18456307,
         0.        ,  0.        ,  0.        ,  0.        ,  1.03845925, -0.        ,  0.        , -0.        ,  0.        ,  0.0138453 , -0.00561157,
        -0.43579243, -0.        , -0.        ,  1.90361821,  0.00483402, -0.00170033],
       [-0.00410971, -0.        ,  0.        ,  0.07826594, -0.00116516, -0.        , -0.        ,  0.        , -0.        , -0.28525125, -0.00079257,
         0.        ,  0.        ,  0.        ,  0.        ,  0.00340064,  0.        ,  0.        ,  0.        ,  0.        ,  1.0874756 ,  0.59161447,
        -0.00076188, -0.        ,  0.        ,  0.00483402,  1.120855  , -0.17867282],
       [-0.00833491,  0.        , -0.        , -0.20963442,  0.00009343,  0.        ,  0.        , -0.        ,  0.        , -0.8501707 , -0.00045893,
        -0.        , -0.        , -0.        , -0.        , -0.00080852, -0.        , -0.        ,  0.        , -0.        , -0.05992997, -1.53814615,
         0.00273034,  0.        ,  0.        , -0.00170033, -0.17867282,  3.22087043]]), array([[-0.39592389,  0.        , -0.        ,  0.14627952, -0.4850632 , -0.        ,  0.        ,  0.        ,  0.        ,  0.03552671,  0.12006296,
        -0.        , -0.        , -0.        ,  0.        ,  0.27898894,  0.        , -0.        ,  0.        , -0.        ,  0.01568523, -0.01955328,
         0.01602872,  0.        , -0.        ,  0.00853215,  0.00410971,  0.00833491],
       [ 0.        ,  1.34127493, -0.        ,  0.        , -0.        , -0.02462016,  0.01170662, -0.50096217,  0.37346098, -0.        ,  0.        ,
         0.        ,  0.        , -0.        ,  0.        ,  0.        , -0.00981823, -0.00392192, -0.95936181, -0.20107979, -0.        ,  0.        ,
        -0.        ,  0.00346803,  0.00063341,  0.        , -0.        ,  0.        ],
       [-0.        , -0.        ,  1.34127493,  0.        ,  0.        ,  0.01170662,  0.02462016,  0.37346098,  0.50096217, -0.        , -0.        ,
         0.        ,  0.        , -0.        ,  0.        , -0.        ,  0.00392192, -0.00981823,  0.20107979, -0.95936181, -0.        ,  0.        ,
        -0.        , -0.00063341,  0.00346803, -0.        ,  0.        ,  0.        ],
       [ 0.14627952,  0.        ,  0.        ,  0.38730217,  0.04086536, -0.        ,  0.        ,  0.        , -0.        , -0.19784967,  0.02761693,
         0.        ,  0.        , -0.        , -0.        , -0.05163945,  0.        , -0.        ,  0.        ,  0.        ,  0.47938641,  0.42266243,
         0.01725502,  0.        , -0.        ,  0.00162006,  0.07826594, -0.20963442],
       [-0.4850632 , -0.        ,  0.        ,  0.04086536,  1.6071183 ,  0.        , -0.        , -0.        , -0.        , -0.01364223, -0.55065439,
        -0.        , -0.        ,  0.        ,  0.        , -0.99060185, -0.        ,  0.        , -0.        ,  0.        , -0.00179592,  0.00944553,
        -0.45279968, -0.        , -0.        , -0.0973045 ,  0.00116516, -0.00009343],
       [-0.        , -0.02462016,  0.01170662, -0.        ,  0.        ,  2.25665563,  0.        , -0.01708674,  0.00340605,  0.        , -0.        ,
        -0.        , -0.        ,  0.        , -0.        , -0.        ,  0.3729005 , -0.0238283 ,  0.0100023 , -0.0024185 , -0.        , -0.        ,
        -0.        ,  1.35056534, -0.36390301, -0.        , -0.        ,  0.        ],
       [ 0.        ,  0.01170662,  0.02462016,  0.        , -0.        ,  0.        ,  2.25665563, -0.00340605, -0.01708674, -0.        ,  0.        ,
        -0.        , -0.        ,  0.        ,  0.        ,  0.        , -0.0238283 , -0.3729005 , -0.0024185 , -0.0100023 ,  0.        , -0.        ,
         0.        , -0.36390301, -1.35056534,  0.        , -0.        ,  0.        ],
       [ 0.        , -0.50096217,  0.37346098,  0.        , -0.        , -0.01708674, -0.00340605,  3.14632266,  0.        ,  0.        ,  0.        ,
        -0.        , -0.        ,  0.        , -0.        ,  0.        ,  0.00608259, -0.00162183, -0.57143209,  0.26484247,  0.        , -0.        ,
        -0.        , -0.00138857,  0.00068789,  0.        ,  0.        , -0.        ],
       [ 0.        ,  0.37346098,  0.50096217, -0.        , -0.        ,  0.00340605, -0.01708674,  0.        ,  3.14632266,  0.        ,  0.        ,
         0.        ,  0.        , -0.        , -0.        , -0.        , -0.00162183, -0.00608259,  0.26484247,  0.57143209,  0.        , -0.        ,
        -0.        ,  0.00068789,  0.00138857,  0.        , -0.        ,  0.        ],
       [ 0.03552671, -0.        , -0.        , -0.19784967, -0.01364223,  0.        , -0.        ,  0.        ,  0.        ,  2.91164456, -0.00664398,
         0.        , -0.        ,  0.        , -0.        , -0.01262117, -0.        , -0.        , -0.        , -0.        , -0.7866885 , -0.5389062 ,
         0.01211948, -0.        , -0.        , -0.00459689, -0.28525125, -0.8501707 ],
       [ 0.12006296,  0.        , -0.        ,  0.02761693, -0.55065439, -0.        ,  0.        ,  0.        ,  0.        , -0.00664398,  2.96228822,
        -0.        , -0.        ,  0.        ,  0.        ,  0.65547376,  0.        ,  0.        ,  0.        ,  0.        ,  0.01106942, -0.01016086,
        -1.34551893, -0.        , -0.        , -0.18456307,  0.00079257,  0.00045893],
       [-0.        ,  0.        ,  0.        ,  0.        , -0.        , -0.        , -0.        , -0.        ,  0.        ,  0.        , -0.        ,
         3.19363853,  0.        ,  0.01340386, -0.00161032, -0.        ,  0.        , -0.        ,  0.        , -0.        , -0.        ,  0.        ,
         0.        ,  0.        , -0.        ,  0.        ,  0.        , -0.        ],
       [-0.        ,  0.        ,  0.        ,  0.        , -0.        , -0.        , -0.        , -0.        ,  0.        , -0.        , -0.        ,
         0.        ,  3.19363853,  0.00161032,  0.01340386,  0.        , -0.        ,  0.        ,  0.        ,  0.        , -0.        ,  0.        ,
         0.        ,  0.        , -0.        ,  0.        ,  0.        , -0.        ],
       [-0.        , -0.        , -0.        , -0.        ,  0.        ,  0.        ,  0.        ,  0.        , -0.        ,  0.        ,  0.        ,
         0.01340386,  0.00161032,  3.81147235,  0.        , -0.        ,  0.        , -0.        ,  0.        , -0.        , -0.        , -0.        ,
         0.        ,  0.        ,  0.        ,  0.        ,  0.        , -0.        ],
       [ 0.        ,  0.        ,  0.        , -0.        ,  0.        , -0.        ,  0.        , -0.        , -0.        , -0.        ,  0.        ,
        -0.00161032,  0.01340386,  0.        ,  3.81147235, -0.        , -0.        , -0.        ,  0.        ,  0.        , -0.        , -0.        ,
         0.        , -0.        , -0.        ,  0.        ,  0.        , -0.        ],
       [ 0.27898894,  0.        , -0.        , -0.05163945, -0.99060185, -0.        ,  0.        ,  0.        , -0.        , -0.01262117,  0.65547376,
        -0.        ,  0.        , -0.        , -0.        ,  1.75289604,  0.        , -0.        ,  0.        , -0.        , -0.02684724,  0.00509483,
        -0.01093671,  0.        ,  0.        ,  1.03845925, -0.00340064,  0.00080852],
       [ 0.        , -0.00981823,  0.00392192,  0.        , -0.        ,  0.3729005 , -0.0238283 ,  0.00608259, -0.00162183, -0.        ,  0.        ,
         0.        , -0.        ,  0.        , -0.        ,  0.        ,  4.67189793, -0.        ,  0.00746743, -0.0013082 ,  0.        ,  0.        ,
         0.        , -0.62796487,  0.12689034, -0.        ,  0.        , -0.        ],
       [-0.        , -0.00392192, -0.00981823, -0.        ,  0.        , -0.0238283 , -0.3729005 , -0.00162183, -0.00608259, -0.        ,  0.        ,
        -0.        ,  0.        , -0.        , -0.        , -0.        , -0.        ,  4.67189793,  0.0013082 ,  0.00746743,  0.        , -0.        ,
         0.        , -0.12689034, -0.62796487,  0.        ,  0.        , -0.        ],
       [ 0.        , -0.95936181,  0.20107979,  0.        , -0.        ,  0.0100023 , -0.0024185 , -0.57143209,  0.26484247, -0.        ,  0.        ,
         0.        ,  0.        ,  0.        ,  0.        ,  0.        ,  0.00746743,  0.0013082 ,  3.31815431,  0.        ,  0.        ,  0.        ,
        -0.        ,  0.00814685, -0.00021149, -0.        ,  0.        ,  0.        ],
       [-0.        , -0.20107979, -0.95936181,  0.        ,  0.        , -0.0024185 , -0.0100023 ,  0.26484247,  0.57143209, -0.        ,  0.        ,
        -0.        ,  0.        , -0.        ,  0.        , -0.        , -0.0013082 ,  0.00746743,  0.        ,  3.31815431,  0.        ,  0.        ,
         0.        ,  0.00021149,  0.00814685,  0.        ,  0.        , -0.        ],
       [ 0.01568523, -0.        , -0.        ,  0.47938641, -0.00179592, -0.        ,  0.        ,  0.        ,  0.        , -0.7866885 ,  0.01106942,
        -0.        , -0.        , -0.        , -0.        , -0.02684724,  0.        ,  0.        ,  0.        ,  0.        ,  2.13404246,  0.1399717 ,
         0.00392454,  0.        ,  0.        , -0.0138453 ,  1.0874756 , -0.05992997],
       [-0.01955328,  0.        ,  0.        ,  0.42266243,  0.00944553, -0.        , -0.        , -0.        , -0.        , -0.5389062 , -0.01016086,
         0.        ,  0.        , -0.        , -0.        ,  0.00509483,  0.        , -0.        ,  0.        ,  0.        ,  0.1399717 ,  5.21952229,
        -0.00889063,  0.        , -0.        ,  0.00561157,  0.59161447, -1.53814615],
       [ 0.01602872, -0.        , -0.        ,  0.01725502, -0.45279968, -0.        ,  0.        , -0.        , -0.        ,  0.01211948, -1.34551893,
         0.        ,  0.        ,  0.        ,  0.        , -0.01093671,  0.        ,  0.        , -0.        ,  0.        ,  0.00392454, -0.00889063,
         3.90249263,  0.        ,  0.        , -0.43579243,  0.00076188, -0.00273034],
       [ 0.        ,  0.00346803, -0.00063341,  0.        , -0.        ,  1.35056534, -0.36390301, -0.00138857,  0.00068789, -0.        , -0.        ,
         0.        ,  0.        ,  0.        , -0.        ,  0.        , -0.62796487, -0.12689034,  0.00814685,  0.00021149,  0.        ,  0.        ,
         0.        ,  3.01822674, -0.        , -0.        , -0.        ,  0.        ],
       [-0.        ,  0.00063341,  0.00346803, -0.        , -0.        , -0.36390301, -1.35056534,  0.00068789,  0.00138857, -0.        , -0.        ,
        -0.        , -0.        ,  0.        , -0.        ,  0.        ,  0.12689034, -0.62796487, -0.00021149,  0.00814685,  0.        , -0.        ,
         0.        , -0.        ,  3.01822674, -0.        ,  0.        ,  0.        ],
       [ 0.00853215,  0.        , -0.        ,  0.00162006, -0.0973045 , -0.        ,  0.        ,  0.        ,  0.        , -0.00459689, -0.18456307,
         0.        ,  0.        ,  0.        ,  0.        ,  1.03845925, -0.        ,  0.        , -0.        ,  0.        , -0.0138453 ,  0.00561157,
        -0.43579243, -0.        , -0.        ,  1.90361821, -0.00483402,  0.00170033],
       [ 0.00410971, -0.        ,  0.        ,  0.07826594,  0.00116516, -0.        , -0.        ,  0.        , -0.        , -0.28525125,  0.00079257,
         0.        ,  0.        ,  0.        ,  0.        , -0.00340064,  0.        ,  0.        ,  0.        ,  0.        ,  1.0874756 ,  0.59161447,
         0.00076188, -0.        ,  0.        , -0.00483402,  1.120855  , -0.17867282],
       [ 0.00833491,  0.        ,  0.        , -0.20963442, -0.00009343,  0.        ,  0.        , -0.        ,  0.        , -0.8501707 ,  0.00045893,
        -0.        , -0.        , -0.        , -0.        ,  0.00080852, -0.        , -0.        ,  0.        , -0.        , -0.05992997, -1.53814615,
        -0.00273034,  0.        ,  0.        ,  0.00170033, -0.17867282,  3.22087043]]))
E(UHF) =    -1.616917
NO eigenvalue
[-1. -0. -0. -0. -0. -0. -0. -0. -0. -0. -0. -0. -0. -0.  0.  0.  0.  0.  0.  0.  0.  0.  0.  0.  0.  0.  0.  0.] [-1. -0. -0. -0. -0. -0. -0. -0. -0. -0. -0. -0. -0.  0.  0.  0.  0.  0.  0.  0.  0.  0.  0.  0.  0.  0.  0.  0.]
NO vec
[[ 0.94536658  0.          0.1242042  ...  0.          0.          0.        ]
 [-0.          0.          0.5947147  ...  0.          0.          0.        ]
 [ 0.          0.          0.         ...  0.          0.          0.        ]
 ...
 [ 0.          0.0295135   0.         ... -0.73908582 -0.13767177  0.01488394]
 [ 0.         -0.02862393  0.         ... -0.29722075  0.15516595 -0.12556439]
 [ 0.         -0.01296822  0.         ... -0.16658693  0.10735442 -0.03696435]]
dm(NO)
[[ 1.  0. -0. ...  0.  0.  0.]
 [ 0.  1.  0. ...  0.  0. -0.]
 [-0.  0. -0. ...  0.  0.  0.]
 ...
 [ 0. -0.  0. ... -0.  0. -0.]
 [ 0. -0.  0. ...  0. -0. -0.]
 [ 0. -0.  0. ...  0. -0. -0.]]
D(g) (NO)
[[ 0.99951369  0.02773486 -0.         ... -0.00281253  0.00783362 -0.00245831]
 [-0.02773486  0.99951369  0.00294528 ... -0.         -0.         -0.        ]
 [-0.         -0.00294528  0.99951369 ...  0.00019398 -0.003506   -0.02921692]
 ...
 [ 0.00281253 -0.         -0.00019398 ...  0.99951369 -0.          0.        ]
 [-0.00783362  0.          0.003506   ...  0.          0.99951369  0.        ]
 [ 0.00245831 -0.          0.02921692 ...  0.          0.          0.99951369]]
...
N(g) (NO)
[[ 0.9997168  -0.02774049]
 [ 0.02774049  0.9997168 ]]
...
P(g) (NO)
[[ 1.          0.         -0.         ...  0.          0.         -0.        ]
 [-0.          1.          0.         ...  0.          0.         -0.        ]
 [-0.0000817  -0.00294444  0.         ... -0.         -0.          0.        ]
 ...
 [ 0.00281174 -0.00007802 -0.         ... -0.         -0.          0.        ]
 [-0.0078314   0.00021731  0.         ...  0.          0.         -0.        ]
 [ 0.00245762 -0.00006819 -0.         ... -0.         -0.          0.        ]]
...
Pg_ortho
[[ 0.89380346 -0.          0.         ...  0.00009619 -0.00009329 -0.00004226]
 [-0.          0.         -0.         ...  0.         -0.         -0.        ]
 [ 0.         -0.          0.         ... -0.          0.          0.        ]
 ...
 [-0.00009619  0.         -0.         ...  0.00087113 -0.00084487 -0.00038277]
 [-0.00159388  0.         -0.         ... -0.00084341  0.00081799  0.00037059]
 [-0.00072211  0.         -0.         ... -0.00038211  0.00037059  0.0001679 ]]
G(g) (NO)
[[ 0.53397496 -0.00097645  0.05604245 ... -0.0000774   0.00085703 -0.00023411]
 [ 0.00097645  0.53397496  0.00039467 ... -0.00531208  0.02277633 -0.08398107]
 [ 0.05606977  0.00206162  1.12668728 ...  0.00015182 -0.00052792  0.00056604]
 ...
 [-0.00085164 -0.00529423  0.000234   ...  0.89459683 -0.00345896  0.01053881]
 [ 0.00364406  0.02269671  0.00011034 ... -0.00345763  0.9443743   0.00413038]
 [-0.00100576 -0.08395029 -0.00038466 ...  0.01053776  0.00411468  1.12730524]]
...
C(NO)
[[-1.          0.         -0.         ...  0.          0.          0.        ]
 [ 0.         -1.          0.         ...  0.          0.          0.        ]
 [ 0.          0.          0.10192146 ...  0.          0.          0.        ]
 ...
 [ 0.          0.          0.         ...  0.00002446  0.4510056   0.02701403]
 [ 0.         -0.          0.         ...  0.00044508 -0.04840989  0.16464279]
 [ 0.          0.          0.         ...  0.00041214  0.08565751 -0.04859673]]
detC 0.9999999999999991
detNg [1.00020321 1.00531157 1.02848483 1.0808271  1.154943   1.22136378 1.25573799 1.2638005 ]
xg [0.99979683 0.99471649 0.97230408 0.92521737 0.86584359 0.81875688 0.79634446 0.79126413]
ciS 1.7910609580636185
[[-1.07543226  0.         -0.05647023 ...  0.          0.          0.        ]
 [ 0.         -1.07543226  0.         ...  0.00576731 -0.03682333  0.09749669]
 [-0.05647023  0.          0.52007295 ...  0.          0.          0.        ]
 ...
 [ 0.          0.00576731  0.         ...  1.57060456 -0.02537274  0.25898478]
 [ 0.         -0.03682333  0.         ... -0.02537274  0.17703782 -0.16540672]
 [ 0.          0.09749669  0.         ...  0.25898478 -0.16540672  0.5199418 ]]
ciH -2.9456394045450556
S2 = -0.000000
X(g)
[[ 2.          0.         -0.0000817  ... -0.00281174  0.0078314  -0.00245762]
 [-0.          2.          0.00294444 ... -0.00007802  0.00021731 -0.00006819]
 [-0.0000817  -0.00294444  0.         ...  0.          0.          0.        ]
 ...
 [ 0.00281174 -0.00007802  0.         ...  0.          0.          0.        ]
 [-0.0078314   0.00021731  0.         ...  0.          0.          0.        ]
 [ 0.00245762 -0.00006819  0.         ...  0.          0.          0.        ]]
X(g) int
[[ 2.          0.         -0.04690295 ... -0.03955089  0.1101593  -0.03456969]
 [-0.          2.          0.04141761 ... -0.044789    0.12474877 -0.03914809]
 [-0.04690295 -0.04141761  0.         ...  0.          0.          0.        ]
 ...
 [ 0.03955089 -0.044789    0.         ...  0.          0.          0.        ]
 [-0.1101593   0.12474877  0.         ...  0.          0.          0.        ]
 [ 0.03456969 -0.03914809  0.         ...  0.          0.          0.        ]]
Hsp + Hph =  -1.6446338084046532
Feff (mod,ortho)
[[-0.37215935  0.         -0.         ...  0.          0.          0.        ]
 [ 0.          1.34127493 -0.         ...  0.          0.          0.        ]
 [-0.         -0.          1.34127493 ...  0.          0.          0.        ]
 ...
 [ 0.          0.          0.         ...  1.90362378 -0.00480519  0.00176675]
 [ 0.          0.          0.         ... -0.00480519  1.12079385 -0.17875228]
 [ 0.          0.          0.         ...  0.00176675 -0.17875228  3.22081098]]
E(SUHF) =     -1.11545660
e_a, e_b
[-0.54250927  0.12625605  0.32398879  0.54643977  0.66280437  0.66280437  1.00269921  1.05789287  1.05789287  1.47244165  2.49739685  2.59482658  3.19334368
  3.19334368  3.20900578  3.20900578  3.44284775  3.81176721  3.81176721  3.92602487  3.92602487  3.99968815  3.99968815  4.08802768  4.89711616  4.89711616
  4.96673456  6.2075768 ] [-0.54250927  0.12625605  0.32398879  0.54643977  0.66280437  0.66280437  1.00269921  1.05789287  1.05789287  1.47244165  2.49739685  2.59482658  3.19334368
  3.19334368  3.20900578  3.20900578  3.44284775  3.81176721  3.81176721  3.92602487  3.92602487  3.99968815  3.99968815  4.08802768  4.89711616  4.89711616
  4.96673456  6.2075768 ]
P_a, P_b
[[ 0.88327143  0.          0.          0.24139495  0.19281041  0.          0.         -0.         -0.          0.02088822  0.02226261  0.         -0.
  -0.          0.         -0.04848938 -0.          0.         -0.          0.         -0.0369594  -0.01817538  0.02681927  0.          0.          0.03185926
   0.02732951  0.01396214]
 [ 0.          0.          0.          0.          0.          0.          0.         -0.         -0.          0.          0.          0.         -0.
  -0.          0.         -0.         -0.          0.         -0.          0.         -0.         -0.          0.          0.          0.          0.
   0.          0.        ]
 [ 0.          0.          0.          0.          0.          0.          0.         -0.         -0.          0.          0.          0.         -0.
  -0.          0.         -0.         -0.          0.         -0.          0.         -0.         -0.          0.          0.          0.          0.
   0.          0.        ]
 [ 0.24139495  0.          0.          0.06597238  0.0526944   0.          0.         -0.         -0.          0.00570868  0.00608429  0.         -0.
  -0.          0.         -0.01325198 -0.          0.         -0.          0.         -0.01010087 -0.00496727  0.00732961  0.          0.          0.00870702
   0.00746906  0.0038158 ]
 [ 0.19281041  0.          0.          0.0526944   0.04208882  0.          0.         -0.         -0.          0.00455971  0.00485973  0.         -0.
  -0.          0.         -0.01058481 -0.          0.         -0.          0.         -0.00806791 -0.00396753  0.00585441  0.          0.          0.0069546
   0.00596579  0.00304781]
 [ 0.          0.          0.          0.          0.          0.          0.         -0.         -0.          0.          0.          0.         -0.
  -0.          0.         -0.         -0.          0.         -0.          0.         -0.         -0.          0.          0.          0.          0.
   0.          0.        ]
 [ 0.          0.          0.          0.          0.          0.          0.         -0.         -0.          0.          0.          0.         -0.
  -0.          0.         -0.         -0.          0.         -0.          0.         -0.         -0.          0.          0.          0.          0.
   0.          0.        ]
 [-0.         -0.         -0.         -0.         -0.         -0.         -0.          0.          0.         -0.         -0.         -0.          0.
   0.         -0.          0.          0.         -0.          0.         -0.          0.          0.         -0.         -0.         -0.         -0.
  -0.         -0.        ]
 [-0.         -0.         -0.         -0.         -0.         -0.         -0.          0.          0.         -0.         -0.         -0.          0.
   0.         -0.          0.          0.         -0.          0.         -0.          0.          0.         -0.         -0.         -0.         -0.
  -0.         -0.        ]
 [ 0.02088822  0.          0.          0.00570868  0.00455971  0.          0.         -0.         -0.          0.00049398  0.00052648  0.         -0.
  -0.          0.         -0.00114671 -0.          0.         -0.          0.         -0.00087404 -0.00042982  0.00063424  0.          0.          0.00075343
   0.00064631  0.00033019]
 [ 0.02226261  0.          0.          0.00608429  0.00485973  0.          0.         -0.         -0.          0.00052648  0.00056112  0.         -0.
  -0.          0.         -0.00122216 -0.          0.         -0.          0.         -0.00093155 -0.00045811  0.00067597  0.          0.          0.000803
   0.00068883  0.00035191]
 [ 0.          0.          0.          0.          0.          0.          0.         -0.         -0.          0.          0.          0.         -0.
  -0.          0.         -0.         -0.          0.         -0.          0.         -0.         -0.          0.          0.          0.          0.
   0.          0.        ]
 [-0.         -0.         -0.         -0.         -0.         -0.         -0.          0.          0.         -0.         -0.         -0.          0.
   0.         -0.          0.          0.         -0.          0.         -0.          0.          0.         -0.         -0.         -0.         -0.
  -0.         -0.        ]
 [-0.         -0.         -0.         -0.         -0.         -0.         -0.          0.          0.         -0.         -0.         -0.          0.
   0.         -0.          0.          0.         -0.          0.         -0.          0.          0.         -0.         -0.         -0.         -0.
  -0.         -0.        ]
 [ 0.          0.          0.          0.          0.          0.          0.         -0.         -0.          0.          0.          0.         -0.
  -0.          0.         -0.         -0.          0.         -0.          0.         -0.         -0.          0.          0.          0.          0.
   0.          0.        ]
 [-0.04848938 -0.         -0.         -0.01325198 -0.01058481 -0.         -0.          0.          0.         -0.00114671 -0.00122216 -0.          0.
   0.         -0.          0.00266195  0.         -0.          0.         -0.          0.00202898  0.00099778 -0.00147231 -0.         -0.         -0.00174899
  -0.00150032 -0.00076649]
 [-0.         -0.         -0.         -0.         -0.         -0.         -0.          0.          0.         -0.         -0.         -0.          0.
   0.         -0.          0.          0.         -0.          0.         -0.          0.          0.         -0.         -0.         -0.         -0.
  -0.         -0.        ]
 [ 0.          0.          0.          0.          0.          0.          0.         -0.         -0.          0.          0.          0.         -0.
  -0.          0.         -0.         -0.          0.         -0.          0.         -0.         -0.          0.          0.          0.          0.
   0.          0.        ]
 [-0.         -0.         -0.         -0.         -0.         -0.         -0.          0.          0.         -0.         -0.         -0.          0.
   0.         -0.          0.          0.         -0.          0.         -0.          0.          0.         -0.         -0.         -0.         -0.
  -0.         -0.        ]
 [ 0.          0.          0.          0.          0.          0.          0.         -0.         -0.          0.          0.          0.         -0.
  -0.          0.         -0.         -0.          0.         -0.          0.         -0.         -0.          0.          0.          0.          0.
   0.          0.        ]
 [-0.0369594  -0.         -0.         -0.01010087 -0.00806791 -0.         -0.          0.          0.         -0.00087404 -0.00093155 -0.          0.
   0.         -0.          0.00202898  0.         -0.          0.         -0.          0.00154652  0.00076053 -0.00112222 -0.         -0.         -0.00133311
  -0.00114357 -0.00058423]
 [-0.01817538 -0.         -0.         -0.00496727 -0.00396753 -0.         -0.          0.          0.         -0.00042982 -0.00045811 -0.          0.
   0.         -0.          0.00099778  0.         -0.          0.         -0.          0.00076053  0.000374   -0.00055187 -0.         -0.         -0.00065558
  -0.00056237 -0.0002873 ]
 [ 0.02681927  0.          0.          0.00732961  0.00585441  0.          0.         -0.         -0.          0.00063424  0.00067597  0.         -0.
  -0.          0.         -0.00147231 -0.          0.         -0.          0.         -0.00112222 -0.00055187  0.00081433  0.          0.          0.00096736
   0.00082982  0.00042394]
 [ 0.          0.          0.          0.          0.          0.          0.         -0.         -0.          0.          0.          0.         -0.
  -0.          0.         -0.         -0.          0.         -0.          0.         -0.         -0.          0.          0.          0.          0.
   0.          0.        ]
 [ 0.          0.          0.          0.          0.          0.          0.         -0.         -0.          0.          0.          0.         -0.
  -0.          0.         -0.         -0.          0.         -0.          0.         -0.         -0.          0.          0.          0.          0.
   0.          0.        ]
 [ 0.03185926  0.          0.          0.00870702  0.0069546   0.          0.         -0.         -0.          0.00075343  0.000803    0.         -0.
  -0.          0.         -0.00174899 -0.          0.         -0.          0.         -0.00133311 -0.00065558  0.00096736  0.          0.          0.00114915
   0.00098576  0.00050361]
 [ 0.02732951  0.          0.          0.00746906  0.00596579  0.          0.         -0.         -0.          0.00064631  0.00068883  0.         -0.
  -0.          0.         -0.00150032 -0.          0.         -0.          0.         -0.00114357 -0.00056237  0.00082982  0.          0.          0.00098576
   0.00084561  0.00043201]
 [ 0.01396214  0.          0.          0.0038158   0.00304781  0.          0.         -0.         -0.          0.00033019  0.00035191  0.         -0.
  -0.          0.         -0.00076649 -0.          0.         -0.          0.         -0.00058423 -0.0002873   0.00042394  0.          0.          0.00050361
   0.00043201  0.0002207 ]] 
 [[ 0.88327143 -0.         -0.         -0.24139495  0.19281041 -0.         -0.          0.         -0.         -0.02088822  0.02226261 -0.          0.
  -0.         -0.         -0.04848938  0.          0.          0.         -0.          0.0369594   0.01817538  0.02681927  0.          0.          0.03185926
  -0.02732951 -0.01396214]
 [-0.          0.          0.          0.         -0.          0.          0.         -0.          0.          0.         -0.          0.         -0.
   0.          0.          0.         -0.         -0.         -0.          0.         -0.         -0.         -0.         -0.         -0.         -0.
   0.          0.        ]
 [-0.          0.          0.          0.         -0.          0.          0.         -0.          0.          0.         -0.          0.         -0.
   0.          0.          0.         -0.         -0.         -0.          0.         -0.         -0.         -0.         -0.         -0.         -0.
   0.          0.        ]
 [-0.24139495  0.          0.          0.06597238 -0.0526944   0.          0.         -0.          0.          0.00570868 -0.00608429  0.         -0.
   0.          0.          0.01325198 -0.         -0.         -0.          0.         -0.01010087 -0.00496727 -0.00732961 -0.         -0.         -0.00870702
   0.00746906  0.0038158 ]
 [ 0.19281041 -0.         -0.         -0.0526944   0.04208882 -0.         -0.          0.         -0.         -0.00455971  0.00485973 -0.          0.
  -0.         -0.         -0.01058481  0.          0.          0.         -0.          0.00806791  0.00396753  0.00585441  0.          0.          0.0069546
  -0.00596579 -0.00304781]
 [-0.          0.          0.          0.         -0.          0.          0.         -0.          0.          0.         -0.          0.         -0.
   0.          0.          0.         -0.         -0.         -0.          0.         -0.         -0.         -0.         -0.         -0.         -0.
   0.          0.        ]
 [-0.          0.          0.          0.         -0.          0.          0.         -0.          0.          0.         -0.          0.         -0.
   0.          0.          0.         -0.         -0.         -0.          0.         -0.         -0.         -0.         -0.         -0.         -0.
   0.          0.        ]
 [ 0.         -0.         -0.         -0.          0.         -0.         -0.          0.         -0.         -0.          0.         -0.          0.
  -0.         -0.         -0.          0.          0.          0.         -0.          0.          0.          0.          0.          0.          0.
  -0.         -0.        ]
 [-0.          0.          0.          0.         -0.          0.          0.         -0.          0.          0.         -0.          0.         -0.
   0.          0.          0.         -0.         -0.         -0.          0.         -0.         -0.         -0.         -0.         -0.         -0.
   0.          0.        ]
 [-0.02088822  0.          0.          0.00570868 -0.00455971  0.          0.         -0.          0.          0.00049398 -0.00052648  0.         -0.
   0.          0.          0.00114671 -0.         -0.         -0.          0.         -0.00087404 -0.00042982 -0.00063424 -0.         -0.         -0.00075343
   0.00064631  0.00033019]
 [ 0.02226261 -0.         -0.         -0.00608429  0.00485973 -0.         -0.          0.         -0.         -0.00052648  0.00056112 -0.          0.
  -0.         -0.         -0.00122216  0.          0.          0.         -0.          0.00093155  0.00045811  0.00067597  0.          0.          0.000803
  -0.00068883 -0.00035191]
 [-0.          0.          0.          0.         -0.          0.          0.         -0.          0.          0.         -0.          0.         -0.
   0.          0.          0.         -0.         -0.         -0.          0.         -0.         -0.         -0.         -0.         -0.         -0.
   0.          0.        ]
 [ 0.         -0.         -0.         -0.          0.         -0.         -0.          0.         -0.         -0.          0.         -0.          0.
  -0.         -0.         -0.          0.          0.          0.         -0.          0.          0.          0.          0.          0.          0.
  -0.         -0.        ]
 [-0.          0.          0.          0.         -0.          0.          0.         -0.          0.          0.         -0.          0.         -0.
   0.          0.          0.         -0.         -0.         -0.          0.         -0.         -0.         -0.         -0.         -0.         -0.
   0.          0.        ]
 [-0.          0.          0.          0.         -0.          0.          0.         -0.          0.          0.         -0.          0.         -0.
   0.          0.          0.         -0.         -0.         -0.          0.         -0.         -0.         -0.         -0.         -0.         -0.
   0.          0.        ]
 [-0.04848938  0.          0.          0.01325198 -0.01058481  0.          0.         -0.          0.          0.00114671 -0.00122216  0.         -0.
   0.          0.          0.00266195 -0.         -0.         -0.          0.         -0.00202898 -0.00099778 -0.00147231 -0.         -0.         -0.00174899
   0.00150032  0.00076649]
 [ 0.         -0.         -0.         -0.          0.         -0.         -0.          0.         -0.         -0.          0.         -0.          0.
  -0.         -0.         -0.          0.          0.          0.         -0.          0.          0.          0.          0.          0.          0.
  -0.         -0.        ]
 [ 0.         -0.         -0.         -0.          0.         -0.         -0.          0.         -0.         -0.          0.         -0.          0.
  -0.         -0.         -0.          0.          0.          0.         -0.          0.          0.          0.          0.          0.          0.
  -0.         -0.        ]
 [ 0.         -0.         -0.         -0.          0.         -0.         -0.          0.         -0.         -0.          0.         -0.          0.
  -0.         -0.         -0.          0.          0.          0.         -0.          0.          0.          0.          0.          0.          0.
  -0.         -0.        ]
 [-0.          0.          0.          0.         -0.          0.          0.         -0.          0.          0.         -0.          0.         -0.
   0.          0.          0.         -0.         -0.         -0.          0.         -0.         -0.         -0.         -0.         -0.         -0.
   0.          0.        ]
 [ 0.0369594  -0.         -0.         -0.01010087  0.00806791 -0.         -0.          0.         -0.         -0.00087404  0.00093155 -0.          0.
  -0.         -0.         -0.00202898  0.          0.          0.         -0.          0.00154652  0.00076053  0.00112222  0.          0.          0.00133311
  -0.00114357 -0.00058423]
 [ 0.01817538 -0.         -0.         -0.00496727  0.00396753 -0.         -0.          0.         -0.         -0.00042982  0.00045811 -0.          0.
  -0.         -0.         -0.00099778  0.          0.          0.         -0.          0.00076053  0.000374    0.00055187  0.          0.          0.00065558
  -0.00056237 -0.0002873 ]
 [ 0.02681927 -0.         -0.         -0.00732961  0.00585441 -0.         -0.          0.         -0.         -0.00063424  0.00067597 -0.          0.
  -0.         -0.         -0.00147231  0.          0.          0.         -0.          0.00112222  0.00055187  0.00081433  0.          0.          0.00096736
  -0.00082982 -0.00042394]
 [ 0.         -0.         -0.         -0.          0.         -0.         -0.          0.         -0.         -0.          0.         -0.          0.
  -0.         -0.         -0.          0.          0.          0.         -0.          0.          0.          0.          0.          0.          0.
  -0.         -0.        ]
 [ 0.         -0.         -0.         -0.          0.         -0.         -0.          0.         -0.         -0.          0.         -0.          0.
  -0.         -0.         -0.          0.          0.          0.         -0.          0.          0.          0.          0.          0.          0.
  -0.         -0.        ]
 [ 0.03185926 -0.         -0.         -0.00870702  0.0069546  -0.         -0.          0.         -0.         -0.00075343  0.000803   -0.          0.
  -0.         -0.         -0.00174899  0.          0.          0.         -0.          0.00133311  0.00065558  0.00096736  0.          0.          0.00114915
  -0.00098576 -0.00050361]
 [-0.02732951  0.          0.          0.00746906 -0.00596579  0.          0.         -0.          0.          0.00064631 -0.00068883  0.         -0.
   0.          0.          0.00150032 -0.         -0.         -0.          0.         -0.00114357 -0.00056237 -0.00082982 -0.         -0.         -0.00098576
   0.00084561  0.00043201]
 [-0.01396214  0.          0.          0.0038158  -0.00304781  0.          0.         -0.          0.          0.00033019 -0.00035191  0.         -0.
   0.          0.          0.00076649 -0.         -0.         -0.          0.         -0.00058423 -0.0002873  -0.00042394 -0.         -0.         -0.00050361
   0.00043201  0.0002207 ]]
**** Start Cycle 2 ****
dm (ortho)
[array([[ 0.88327143,  0.        ,  0.        ,  0.24139495,  0.19281041,  0.        ,  0.        , -0.        , -0.        ,  0.02088822,  0.02226261,
[...]
Feff (mod,ortho)
[[-0.29293611  0.         -0.         ...  0.          0.          0.        ]
 [ 0.          1.36126449  0.         ...  0.          0.          0.        ]
 [-0.          0.          1.36126449 ...  0.          0.          0.        ]
 ...
 [ 0.          0.          0.         ...  1.91560991 -0.00836388  0.00316756]
 [ 0.          0.          0.         ... -0.00836388  1.12606639 -0.17974473]
 [ 0.          0.          0.         ...  0.00316756 -0.17974473  3.2298849 ]]
E(SUHF) =     -1.12906098
e_a, e_b
[-0.53690822  0.14060468  0.32488449  0.5619826   0.67516618  0.67516618  1.01498099  1.06850967  1.06850967  1.48144523  2.49867398  2.63165254  3.21014365
  3.21014365  3.22759543  3.22759543  3.46663498  3.82981444  3.82981444  3.93903289  3.93903289  4.03405775  4.03405775  4.1113628   4.91700392  4.91700392
  4.98995666  6.2316678 ] [-0.53690822  0.14060468  0.32488449  0.5619826   0.67516618  0.67516618  1.01498099  1.06850967  1.06850967  1.48144523  2.49867398  2.63165254  3.21014365
  3.21014365  3.22759543  3.22759543  3.46663498  3.82981444  3.82981444  3.93903289  3.93903289  4.03405775  4.03405775  4.1113628   4.91700392  4.91700392
  4.98995666  6.2316678 ]
P_a, P_b
[[ 0.8135091   0.          0.          0.33324805  0.17717989  0.         -0.          0.         -0.          0.05144475  0.02510409  0.         -0.
   0.         -0.         -0.05419265  0.          0.          0.         -0.         -0.00562461 -0.02394447  0.02736961  0.          0.          0.03339654
   0.00653493  0.02322378]
 [ 0.          0.          0.          0.          0.          0.         -0.          0.         -0.          0.          0.          0.         -0.
   0.         -0.         -0.          0.          0.          0.         -0.         -0.         -0.          0.          0.          0.          0.
   0.          0.        ]
 [ 0.          0.          0.          0.          0.          0.         -0.          0.         -0.          0.          0.          0.         -0.
   0.         -0.         -0.          0.          0.          0.         -0.         -0.         -0.          0.          0.          0.          0.
   0.          0.        ]
 [ 0.33324805  0.          0.          0.13651262  0.07258044  0.         -0.          0.         -0.          0.02107397  0.01028371  0.         -0.
   0.         -0.         -0.02219962  0.          0.          0.         -0.         -0.00230408 -0.00980868  0.01121176  0.          0.          0.01368065
   0.00267699  0.00951345]
 [ 0.17717989  0.          0.          0.07258044  0.03858926  0.         -0.          0.         -0.          0.01120452  0.0054676   0.         -0.
   0.         -0.         -0.011803    0.          0.          0.         -0.         -0.00122502 -0.00521504  0.00596102  0.          0.          0.00727367
   0.00142329  0.00505807]
 [ 0.          0.          0.          0.          0.          0.         -0.          0.         -0.          0.          0.          0.         -0.
   0.         -0.         -0.          0.          0.          0.         -0.         -0.         -0.          0.          0.          0.          0.
   0.          0.        ]
 [-0.         -0.         -0.         -0.         -0.         -0.          0.         -0.          0.         -0.         -0.         -0.          0.
  -0.          0.          0.         -0.         -0.         -0.          0.          0.          0.         -0.         -0.         -0.         -0.
  -0.         -0.        ]
 [ 0.          0.          0.          0.          0.          0.         -0.          0.         -0.          0.          0.          0.         -0.
   0.         -0.         -0.          0.          0.          0.         -0.         -0.         -0.          0.          0.          0.          0.
   0.          0.        ]
 [-0.         -0.         -0.         -0.         -0.         -0.          0.         -0.          0.         -0.         -0.         -0.          0.
  -0.          0.          0.         -0.         -0.         -0.          0.          0.          0.         -0.         -0.         -0.         -0.
  -0.         -0.        ]
 [ 0.05144475  0.          0.          0.02107397  0.01120452  0.         -0.          0.         -0.          0.00325327  0.00158753  0.         -0.
   0.         -0.         -0.00342704  0.          0.          0.         -0.         -0.00035569 -0.0015142   0.0017308   0.          0.          0.00211193
   0.00041326  0.00146863]
 [ 0.02510409  0.          0.          0.01028371  0.0054676   0.         -0.          0.         -0.          0.00158753  0.00077469  0.         -0.
   0.         -0.         -0.00167233  0.          0.          0.         -0.         -0.00017357 -0.0007389   0.0008446   0.          0.          0.00103058
   0.00020166  0.00071666]
 [ 0.          0.          0.          0.          0.          0.         -0.          0.         -0.          0.          0.          0.         -0.
   0.         -0.         -0.          0.          0.          0.         -0.         -0.         -0.          0.          0.          0.          0.
   0.          0.        ]
 [-0.         -0.         -0.         -0.         -0.         -0.          0.         -0.          0.         -0.         -0.         -0.          0.
  -0.          0.          0.         -0.         -0.         -0.          0.          0.          0.         -0.         -0.         -0.         -0.
  -0.         -0.        ]
 [ 0.          0.          0.          0.          0.          0.         -0.          0.         -0.          0.          0.          0.         -0.
   0.         -0.         -0.          0.          0.          0.         -0.         -0.         -0.          0.          0.          0.          0.
   0.          0.        ]
 [-0.         -0.         -0.         -0.         -0.         -0.          0.         -0.          0.         -0.         -0.         -0.          0.
  -0.          0.          0.         -0.         -0.         -0.          0.          0.          0.         -0.         -0.         -0.         -0.
  -0.         -0.        ]
 [-0.05419265 -0.         -0.         -0.02219962 -0.011803   -0.          0.         -0.          0.         -0.00342704 -0.00167233 -0.          0.
  -0.          0.          0.00361009 -0.         -0.         -0.          0.          0.00037469  0.00159508 -0.00182325 -0.         -0.         -0.00222474
  -0.00043533 -0.00154707]
 [ 0.          0.          0.          0.          0.          0.         -0.          0.         -0.          0.          0.          0.         -0.
   0.         -0.         -0.          0.          0.          0.         -0.         -0.         -0.          0.          0.          0.          0.
   0.          0.        ]
 [ 0.          0.          0.          0.          0.          0.         -0.          0.         -0.          0.          0.          0.         -0.
   0.         -0.         -0.          0.          0.          0.         -0.         -0.         -0.          0.          0.          0.          0.
   0.          0.        ]
 [ 0.          0.          0.          0.          0.          0.         -0.          0.         -0.          0.          0.          0.         -0.
   0.         -0.         -0.          0.          0.          0.         -0.         -0.         -0.          0.          0.          0.          0.
   0.          0.        ]
 [-0.         -0.         -0.         -0.         -0.         -0.          0.         -0.          0.         -0.         -0.         -0.          0.
  -0.          0.          0.         -0.         -0.         -0.          0.          0.          0.         -0.         -0.         -0.         -0.
  -0.         -0.        ]
 [-0.00562461 -0.         -0.         -0.00230408 -0.00122502 -0.          0.         -0.          0.         -0.00035569 -0.00017357 -0.          0.
  -0.          0.          0.00037469 -0.         -0.         -0.          0.          0.00003889  0.00016555 -0.00018923 -0.         -0.         -0.0002309
  -0.00004518 -0.00016057]
 [-0.02394447 -0.         -0.         -0.00980868 -0.00521504 -0.          0.         -0.          0.         -0.0015142  -0.0007389  -0.          0.
  -0.          0.          0.00159508 -0.         -0.         -0.          0.          0.00016555  0.00070477 -0.00080559 -0.         -0.         -0.00098298
  -0.00019235 -0.00068356]
 [ 0.02736961  0.          0.          0.01121176  0.00596102  0.         -0.          0.         -0.          0.0017308   0.0008446   0.         -0.
   0.         -0.         -0.00182325  0.          0.          0.         -0.         -0.00018923 -0.00080559  0.00092082  0.          0.          0.00112359
   0.00021986  0.00078134]
 [ 0.          0.          0.          0.          0.          0.         -0.          0.         -0.          0.          0.          0.         -0.
   0.         -0.         -0.          0.          0.          0.         -0.         -0.         -0.          0.          0.          0.          0.
   0.          0.        ]
 [ 0.          0.          0.          0.          0.          0.         -0.          0.         -0.          0.          0.          0.         -0.
   0.         -0.         -0.          0.          0.          0.         -0.         -0.         -0.          0.          0.          0.          0.
   0.          0.        ]
 [ 0.03339654  0.          0.          0.01368065  0.00727367  0.         -0.          0.         -0.          0.00211193  0.00103058  0.         -0.
   0.         -0.         -0.00222474  0.          0.          0.         -0.         -0.0002309  -0.00098298  0.00112359  0.          0.          0.00137101
   0.00026827  0.00095339]
 [ 0.00653493  0.          0.          0.00267699  0.00142329  0.         -0.          0.         -0.          0.00041326  0.00020166  0.         -0.
   0.         -0.         -0.00043533  0.          0.          0.         -0.         -0.00004518 -0.00019235  0.00021986  0.          0.          0.00026827
   0.0000525   0.00018656]
 [ 0.02322378  0.          0.          0.00951345  0.00505807  0.         -0.          0.         -0.          0.00146863  0.00071666  0.         -0.
   0.         -0.         -0.00154707  0.          0.          0.         -0.         -0.00016057 -0.00068356  0.00078134  0.          0.          0.00095339
   0.00018656  0.00066298]] 
 [[ 0.8135091  -0.          0.         -0.33324805  0.17717989 -0.          0.         -0.         -0.         -0.05144475  0.02510409 -0.          0.
  -0.          0.         -0.05419265  0.          0.         -0.          0.          0.00562461  0.02394447  0.02736961  0.          0.          0.03339654
  -0.00653493 -0.02322378]
 [-0.          0.         -0.          0.         -0.          0.         -0.          0.          0.          0.         -0.          0.         -0.
   0.         -0.          0.         -0.         -0.          0.         -0.         -0.         -0.         -0.         -0.         -0.         -0.
   0.          0.        ]
 [ 0.         -0.          0.         -0.          0.         -0.          0.         -0.         -0.         -0.          0.         -0.          0.
  -0.          0.         -0.          0.          0.         -0.          0.          0.          0.          0.          0.          0.          0.
  -0.         -0.        ]
 [-0.33324805  0.         -0.          0.13651262 -0.07258044  0.         -0.          0.          0.          0.02107397 -0.01028371  0.         -0.
   0.         -0.          0.02219962 -0.         -0.          0.         -0.         -0.00230408 -0.00980868 -0.01121176 -0.         -0.         -0.01368065
   0.00267699  0.00951345]
 [ 0.17717989 -0.          0.         -0.07258044  0.03858926 -0.          0.         -0.         -0.         -0.01120452  0.0054676  -0.          0.
  -0.          0.         -0.011803    0.          0.         -0.          0.          0.00122502  0.00521504  0.00596102  0.          0.          0.00727367
  -0.00142329 -0.00505807]
 [-0.          0.         -0.          0.         -0.          0.         -0.          0.          0.          0.         -0.          0.         -0.
   0.         -0.          0.         -0.         -0.          0.         -0.         -0.         -0.         -0.         -0.         -0.         -0.
   0.          0.        ]
 [ 0.         -0.          0.         -0.          0.         -0.          0.         -0.         -0.         -0.          0.         -0.          0.
  -0.          0.         -0.          0.          0.         -0.          0.          0.          0.          0.          0.          0.          0.
  -0.         -0.        ]
 [-0.          0.         -0.          0.         -0.          0.         -0.          0.          0.          0.         -0.          0.         -0.
   0.         -0.          0.         -0.         -0.          0.         -0.         -0.         -0.         -0.         -0.         -0.         -0.
   0.          0.        ]
 [-0.          0.         -0.          0.         -0.          0.         -0.          0.          0.          0.         -0.          0.         -0.
   0.         -0.          0.         -0.         -0.          0.         -0.         -0.         -0.         -0.         -0.         -0.         -0.
   0.          0.        ]
 [-0.05144475  0.         -0.          0.02107397 -0.01120452  0.         -0.          0.          0.          0.00325327 -0.00158753  0.         -0.
   0.         -0.          0.00342704 -0.         -0.          0.         -0.         -0.00035569 -0.0015142  -0.0017308  -0.         -0.         -0.00211193
   0.00041326  0.00146863]
 [ 0.02510409 -0.          0.         -0.01028371  0.0054676  -0.          0.         -0.         -0.         -0.00158753  0.00077469 -0.          0.
  -0.          0.         -0.00167233  0.          0.         -0.          0.          0.00017357  0.0007389   0.0008446   0.          0.          0.00103058
  -0.00020166 -0.00071666]
 [-0.          0.         -0.          0.         -0.          0.         -0.          0.          0.          0.         -0.          0.         -0.
   0.         -0.          0.         -0.         -0.          0.         -0.         -0.         -0.         -0.         -0.         -0.         -0.
   0.          0.        ]
 [ 0.         -0.          0.         -0.          0.         -0.          0.         -0.         -0.         -0.          0.         -0.          0.
  -0.          0.         -0.          0.          0.         -0.          0.          0.          0.          0.          0.          0.          0.
  -0.         -0.        ]
 [-0.          0.         -0.          0.         -0.          0.         -0.          0.          0.          0.         -0.          0.         -0.
   0.         -0.          0.         -0.         -0.          0.         -0.         -0.         -0.         -0.         -0.         -0.         -0.
   0.          0.        ]
 [ 0.         -0.          0.         -0.          0.         -0.          0.         -0.         -0.         -0.          0.         -0.          0.
  -0.          0.         -0.          0.          0.         -0.          0.          0.          0.          0.          0.          0.          0.
  -0.         -0.        ]
 [-0.05419265  0.         -0.          0.02219962 -0.011803    0.         -0.          0.          0.          0.00342704 -0.00167233  0.         -0.
   0.         -0.          0.00361009 -0.         -0.          0.         -0.         -0.00037469 -0.00159508 -0.00182325 -0.         -0.         -0.00222474
   0.00043533  0.00154707]
 [ 0.         -0.          0.         -0.          0.         -0.          0.         -0.         -0.         -0.          0.         -0.          0.
  -0.          0.         -0.          0.          0.         -0.          0.          0.          0.          0.          0.          0.          0.
  -0.         -0.        ]
 [ 0.         -0.          0.         -0.          0.         -0.          0.         -0.         -0.         -0.          0.         -0.          0.
  -0.          0.         -0.          0.          0.         -0.          0.          0.          0.          0.          0.          0.          0.
  -0.         -0.        ]
 [-0.          0.         -0.          0.         -0.          0.         -0.          0.          0.          0.         -0.          0.         -0.
   0.         -0.          0.         -0.         -0.          0.         -0.         -0.         -0.         -0.         -0.         -0.         -0.
   0.          0.        ]
 [ 0.         -0.          0.         -0.          0.         -0.          0.         -0.         -0.         -0.          0.         -0.          0.
  -0.          0.         -0.          0.          0.         -0.          0.          0.          0.          0.          0.          0.          0.
  -0.         -0.        ]
 [ 0.00562461 -0.          0.         -0.00230408  0.00122502 -0.          0.         -0.         -0.         -0.00035569  0.00017357 -0.          0.
  -0.          0.         -0.00037469  0.          0.         -0.          0.          0.00003889  0.00016555  0.00018923  0.          0.          0.0002309
  -0.00004518 -0.00016057]
 [ 0.02394447 -0.          0.         -0.00980868  0.00521504 -0.          0.         -0.         -0.         -0.0015142   0.0007389  -0.          0.
  -0.          0.         -0.00159508  0.          0.         -0.          0.          0.00016555  0.00070477  0.00080559  0.          0.          0.00098298
  -0.00019235 -0.00068356]
 [ 0.02736961 -0.          0.         -0.01121176  0.00596102 -0.          0.         -0.         -0.         -0.0017308   0.0008446  -0.          0.
  -0.          0.         -0.00182325  0.          0.         -0.          0.          0.00018923  0.00080559  0.00092082  0.          0.          0.00112359
  -0.00021986 -0.00078134]
 [ 0.         -0.          0.         -0.          0.         -0.          0.         -0.         -0.         -0.          0.         -0.          0.
  -0.          0.         -0.          0.          0.         -0.          0.          0.          0.          0.          0.          0.          0.
  -0.         -0.        ]
 [ 0.         -0.          0.         -0.          0.         -0.          0.         -0.         -0.         -0.          0.         -0.          0.
  -0.          0.         -0.          0.          0.         -0.          0.          0.          0.          0.          0.          0.          0.
  -0.         -0.        ]
 [ 0.03339654 -0.          0.         -0.01368065  0.00727367 -0.          0.         -0.         -0.         -0.00211193  0.00103058 -0.          0.
  -0.          0.         -0.00222474  0.          0.         -0.          0.          0.0002309   0.00098298  0.00112359  0.          0.          0.00137101
  -0.00026827 -0.00095339]
 [-0.00653493  0.         -0.          0.00267699 -0.00142329  0.         -0.          0.          0.          0.00041326 -0.00020166  0.         -0.
   0.         -0.          0.00043533 -0.         -0.          0.         -0.         -0.00004518 -0.00019235 -0.00021986 -0.         -0.         -0.00026827
   0.0000525   0.00018656]
 [-0.02322378  0.         -0.          0.00951345 -0.00505807  0.         -0.          0.          0.          0.00146863 -0.00071666  0.         -0.
   0.         -0.          0.00154707 -0.         -0.          0.         -0.         -0.00016057 -0.00068356 -0.00078134 -0.         -0.         -0.00095339
   0.00018656  0.00066298]]

***************
SCF converged at cycle 33
Final E(SUHF) =     -1.12906098, delta E = -8.86003e-09
***** Start DFT Correlation for SUHF+DFT **********
tot grids = 20048
E(SUHF) =     -1.12906098
E_c(TPSS) =     -0.03211309
E(SUHF+DFT) =     -1.16117407
