

#INFO: **** input file is /share/home/srwang/ExSCF/test/pytest/scan_h2/scan_dft.py ****
#import phf
from pyscf import gto, scf
#import scipy
import numpy as np
import sys, os, contextlib

from pyphf import util, sudft

#xyz = 'h2.xyz' #sys.argv[1]
fch = 'test_uhf.fchk' #sys.argv[2]
#bas = '../h2.bas'
bas = 'cc-pvtz'

for r in np.arange(0.5, 2.6, 0.1):
    output = 'sudft_%.1f.out' % r
    os.system("echo '\n' > %s" % output)
    with open(output, 'a', encoding='utf-8') as f:
        with contextlib.redirect_stdout(f):
            xyz = '''H 0.0 0.0 0.0; H 0.0 0.0 %f'''%r
            mf = util.guess_from_fchk(xyz, bas, fch)
            #mf = util.guess(xyz, bas)
            #f.flush()
            mf2 = util.SUHF(mf)
            mf2.cut_no = False
            mf2.debug = False
            mf2.max_cycle = 50
            #mf2.output = 'sudft_%.1f.out'%r
            #mf2.kernel()
            
            mf3 = sudft.SUDFT(mf2)
            mf3.kernel()
                    #INFO: ******************** input file end ********************


System: uname_result(system='Linux', node='xc02n18', release='3.10.0-693.el7.x86_64', version='#1 SMP Thu Jul 6 19:56:57 EDT 2017', machine='x86_64', processor='x86_64')  Threads 24
Python 3.7.4 (default, Aug 13 2019, 20:35:49) 
[GCC 7.3.0]
numpy 1.17.2  scipy 1.4.1
Date: Fri Nov 20 22:47:58 2020
PySCF version 1.7.3
PySCF path  /share/apps/Python/Anaconda3-2019/lib/python3.7/site-packages/pyscf

[CONFIG] conf_file None
[INPUT] verbose = 4
[INPUT] num. atoms = 2
[INPUT] num. electrons = 2
[INPUT] charge = 0
[INPUT] spin (= nelec alpha-beta = 2S) = 0
[INPUT] symmetry False subgroup None
[INPUT] Mole.unit = angstrom
[INPUT]  1 H      0.000000000000   0.000000000000   0.000000000000 AA    0.000000000000   0.000000000000   0.000000000000 Bohr
[INPUT]  2 H      0.000000000000   0.000000000000   0.500000000000 AA    0.000000000000   0.000000000000   0.944863062283 Bohr

nuclear repulsion = 1.05835442184
number of shells = 12
number of NR pGTOs = 32
number of NR cGTOs = 28
basis = cc-pvtz
ecp = {}
CPU time:         1.15


******** <class 'pyscf.scf.uhf.UHF'> ********
method = UHF
initial guess = minao
damping factor = 0
level_shift factor = 0
DIIS = <class 'pyscf.scf.diis.CDIIS'>
diis_start_cycle = 1
diis_space = 8
SCF conv_tol = 1e-09
SCF conv_tol_grad = None
SCF max_cycles = 1
direct_scf = True
direct_scf_tol = 1e-13
chkfile to save SCF result = /share/home/srwang/ExSCF/test/pytest/scan_h2/tmplws3fba3
max_memory 4000 MB (current use 98 MB)
number electrons alpha = 1  beta = 1
Set gradient conv threshold to 3.16228e-05
init E= -0.778367426554207
  alpha nocc = 1  HOMO = -0.705289662305322  LUMO = 0.163386946040725
  beta  nocc = 1  HOMO = -0.697577488386256  LUMO = 0.16406112918995
cycle= 1 E= -1.06223413443537  delta_E= -0.284  |g|= 0.0333  |ddm|= 0.331
SCF not converged.
SCF energy = -1.06223413443537 after 1 cycles  <S^2> = 2.3214814e-06  2S+1 = 1.0000046


******** <class 'pyscf.scf.uhf.UHF'> ********
method = UHF
initial guess = minao
damping factor = 0
level_shift factor = 0
DIIS = <class 'pyscf.scf.diis.CDIIS'>
diis_start_cycle = 1
diis_space = 8
SCF conv_tol = 1e-09
SCF conv_tol_grad = None
SCF max_cycles = 1
direct_scf = True
direct_scf_tol = 1e-13
chkfile to save SCF result = /share/home/srwang/ExSCF/test/pytest/scan_h2/tmplws3fba3
max_memory 4000 MB (current use 119 MB)
number electrons alpha = 1  beta = 1
Set gradient conv threshold to 3.16228e-05
init E= -1.18452871429633
  alpha nocc = 1  HOMO = -0.630087264703209  LUMO = 0.279420177478479
  beta  nocc = 1  HOMO = -0.630087264703209  LUMO = 0.279420177478484
cycle= 1 E= -1.04603968404656  delta_E= 0.138  |g|= 0.122  |ddm|= 0.253
SCF not converged.
SCF energy = -1.04603968404656 after 1 cycles  <S^2> = 0.039484129  2S+1 = 1.0760746

******** <class 'pyphf.util.SUHF'> ********
SVD: S^(-1/2)
[[-1.65351356e-01 -4.83556295e-18 -4.76791326e-16  1.56295463e-01
   1.45002068e-01 -9.79139285e-18 -1.36201282e-19  2.87489078e-17
  -2.56229081e-17 -3.14029670e-01 -1.26008394e-15 -3.49063119e-17
  -1.52159881e-01 -1.49824533e-01  7.76085504e-16  2.13033243e-16
   7.53484873e-18  9.73590267e-19  4.53903305e-01 -4.86496442e-01
   5.60553968e-15 -3.17043527e-16  2.10828979e+00 -8.60365518e-14
  -5.56055791e-15 -2.88462884e+00  2.45264135e+00 -2.40910588e-01]
 [-2.12299108e-01 -1.56418702e-17 -2.75490971e-16  8.59668175e-02
  -5.76667323e-02  1.99594514e-17 -2.15191545e-17 -4.50633256e-18
  -3.29929365e-17  3.61472497e-02  9.63455964e-16 -7.90384412e-16
   9.87568127e-02 -3.77589001e-01 -1.13517507e-15 -1.27350725e-16
   1.34276543e-16  1.53815203e-16 -2.03853129e-01  1.30274423e+00
  -1.53061335e-14 -7.73601224e-16 -9.29581078e-01 -1.05174376e-15
   5.81395322e-15 -1.85642591e-01 -1.31144366e-01 -3.71312488e+01]
 [-1.87172838e-01  5.56619233e-18 -6.05734872e-17  2.68576453e-02
  -2.17303535e-01  5.54248313e-17  2.19991487e-18 -4.84748968e-17
   1.54119789e-16  2.61195270e-01  3.74103277e-16  2.09208016e-16
   5.69466821e-02  4.80269593e-01  3.36942688e-16  2.97727242e-17
   2.00264818e-16 -1.57253261e-17 -1.67175326e-01 -7.88766303e-01
   8.77960788e-15  6.22504112e-16  1.55252818e-01 -1.06221790e-13
   3.26625734e-14 -2.70732658e+00 -3.81812070e+00  3.82125531e+00]
 [ 0.00000000e+00 -1.29093325e-02  2.65905594e-01  8.96094533e-16
   0.00000000e+00  2.06015561e-16  3.36995568e-16  1.73370331e-01
  -2.43706394e-01 -7.27238150e-17  1.94122321e-01 -7.20972081e-03
  -1.49285537e-15 -1.06175292e-15  7.40664686e-01  2.98226909e-01
   1.11700537e-15  2.23184614e-15 -1.48614770e-15 -4.67267636e-15
  -3.90581249e-01 -1.26477902e+00 -6.57804708e-15  4.65033204e-01
  -2.41092687e+00 -2.89438178e-14 -2.38027825e-14  7.64037999e-16]
 [ 0.00000000e+00  2.65905594e-01  1.29093325e-02  5.28357626e-17
   0.00000000e+00  2.22560391e-16  1.96074991e-16  2.43706394e-01
   1.73370331e-01  0.00000000e+00  7.20972081e-03  1.94122321e-01
   0.00000000e+00  2.85856555e-16 -2.98226909e-01  7.40664686e-01
  -6.72161918e-16  2.81108310e-15  5.57305386e-16  1.26244238e-14
   1.26477902e+00 -3.90581249e-01  7.61668609e-15 -2.41092687e+00
  -4.65033204e-01  9.21094436e-14  3.76877390e-15 -8.55722558e-14]
 [-5.33368722e-02  7.80412298e-18  6.72552450e-16 -2.19413511e-01
   3.93477583e-01 -1.87762919e-17  5.12823946e-19 -6.72494153e-17
  -9.24602970e-17  1.54450759e-02  4.71058781e-17 -4.75173548e-17
   1.80319366e-02  6.35094708e-01 -7.47875815e-16  8.06828483e-17
   3.03629766e-17 -3.66552820e-18 -7.83438500e-01  4.92511649e-01
  -4.87629590e-15 -6.50841797e-16 -6.52181058e-01 -5.76762097e-14
  -3.51786118e-15 -1.63483341e+00  2.01439066e+00  8.78988076e-01]
 [ 2.68171013e-20 -1.37864680e-02  2.83972775e-01  9.64031628e-16
   2.24125673e-18  1.23293734e-16  7.77047298e-17  7.83490087e-02
  -1.10135075e-01 -2.83790785e-17 -4.24534338e-01  1.57672443e-02
   3.54829257e-15  4.40106838e-16 -4.32307135e-01 -1.74067460e-01
  -1.32576755e-16 -8.15238958e-16  9.77135773e-16  4.16169862e-15
   4.86307645e-01  1.57475995e+00 -7.16394402e-15  4.70002884e-01
  -2.43669177e+00 -3.19456100e-14 -1.89517167e-14 -1.56749533e-14]
 [ 5.74529542e-22  2.83972775e-01  1.37864680e-02  5.56998578e-17
   1.21827382e-17  2.60782977e-16  3.45260103e-17  1.10135075e-01
   7.83490087e-02 -1.32826044e-17 -1.57672443e-02 -4.24534338e-01
   1.47326425e-16 -7.03087838e-18  1.74067460e-01 -4.32307135e-01
   3.60222268e-16 -1.75022512e-15 -4.43022219e-16 -1.49714509e-14
  -1.57475995e+00  4.86307645e-01  1.06700803e-14 -2.43669177e+00
  -4.70002884e-01  9.22248632e-14  5.14103065e-15 -2.07545991e-14]
 [-5.91336176e-02  1.86817049e-17  8.55980758e-16 -2.97539015e-01
   1.85861970e-01  9.36125307e-18 -6.38393291e-18 -4.29825593e-17
   9.85955415e-17  2.39359871e-02 -2.69685882e-15 -1.90789454e-16
  -3.28008512e-01 -4.05470641e-01  7.07676819e-16 -3.70943006e-17
   1.22102233e-16  4.56310858e-17  5.42461781e-01 -1.24872158e+00
   1.20493995e-14  5.07696533e-16 -2.06985010e+00 -2.54198240e-14
   1.45309836e-14 -3.63172367e-01 -7.91038932e-01 -1.10105392e+01]
 [ 0.00000000e+00 -8.43055406e-17 -2.40872973e-17  0.00000000e+00
   0.00000000e+00  5.54894619e-01  2.35995429e-09 -7.22464119e-16
   3.58816232e-16  0.00000000e+00  1.98669076e-16  2.55431669e-16
  -1.09515217e-22  0.00000000e+00 -5.93010186e-16  1.21360224e-16
   1.15295164e+00 -1.58346914e-08 -1.81414514e-19  0.00000000e+00
   1.03179356e-15  8.63337471e-16  0.00000000e+00 -1.49305902e-15
   1.57487047e-15  0.00000000e+00  0.00000000e+00 -2.86514249e-16]
 [ 1.42378244e-22  1.24998243e-01  6.06848415e-03  2.45124457e-17
  -2.81668324e-17 -1.80201271e-16 -3.34186275e-16 -3.82666325e-01
  -2.72225058e-01  5.03362633e-17  2.04831920e-02  5.51511614e-01
  -2.66482752e-16 -4.75398002e-16  2.38961629e-01 -5.93475754e-01
  -5.62292639e-16 -2.73657242e-15 -7.66642608e-16  3.52218867e-15
   3.52261019e-01 -1.08783073e-01  9.33879292e-15 -2.23673595e+00
  -4.31434274e-01  8.48698396e-14  3.57143882e-15 -9.38138431e-14]
 [-1.49195599e-02 -1.20272188e-17  4.09436666e-16 -1.27762178e-01
  -2.03620463e-01 -8.05834026e-18 -1.98627521e-19 -2.68863037e-17
  -2.09098135e-16 -4.60916447e-01  5.27101852e-15  1.29696794e-17
   6.25194747e-01  3.44853038e-01  1.46168455e-15 -2.60160679e-16
   5.21151758e-17  1.41971450e-18  4.65098011e-01 -6.17022745e-02
   6.87857691e-16 -7.57202953e-16 -1.55067787e+00 -2.90256126e-14
   3.78214760e-15 -5.69522475e-01  4.92300125e-01 -3.43415225e-01]
 [ 4.40333315e-21 -6.06848415e-03  1.24998243e-01  4.23722322e-16
   3.49413695e-17 -3.73094282e-16 -4.45067355e-16 -2.72225058e-01
   3.82666325e-01 -7.59988118e-17  5.51511614e-01 -2.04831920e-02
  -4.75813496e-15  6.55496134e-16 -5.93475754e-01 -2.38961629e-01
  -5.56446670e-16 -1.90037300e-15  1.29987348e-15 -2.13918402e-15
  -1.08783073e-01 -3.52261019e-01 -6.27457317e-15  4.31434274e-01
  -2.23673595e+00 -2.75205603e-14 -1.90457815e-14  4.82263553e-15]
 [ 0.00000000e+00  6.02182433e-17 -8.15455378e-19  0.00000000e+00
   0.00000000e+00 -2.35995422e-09  5.54894619e-01 -4.04804798e-16
   2.02402399e-16  0.00000000e+00  0.00000000e+00 -1.13525186e-16
   0.00000000e+00 -1.48562870e-28  1.47838818e-15  5.07506392e-15
  -1.58346914e-08 -1.15295164e+00  2.36537605e-27 -7.32929511e-24
  -2.52684138e-16  1.60033287e-15 -1.47918154e-20  1.47260615e-15
  -4.90868718e-16 -2.07834169e-19 -5.81122620e-19 -6.11230399e-15]
 [-1.65351356e-01 -2.59076534e-18  5.17751177e-16 -1.56295463e-01
   1.45002068e-01  2.23907603e-17  1.36860140e-19  7.45624485e-17
   3.28257027e-17 -3.14029670e-01  1.26736019e-15  6.30812554e-17
   1.52159881e-01 -1.49824533e-01 -1.14092886e-15  1.85782077e-16
  -1.12410879e-16 -9.78189735e-19 -4.53903305e-01 -4.86496442e-01
   4.94397468e-15  1.08491924e-15  2.10828979e+00  1.11139300e-13
  -5.03516331e-15  2.88462884e+00 -2.45264135e+00  2.40910588e-01]
 [-2.12299108e-01  1.78274428e-17  2.27141791e-16 -8.59668175e-02
  -5.76667323e-02 -2.39020591e-17  2.15188646e-17  5.95869058e-18
  -5.10383950e-18  3.61472497e-02 -8.81786598e-16  7.63748428e-16
  -9.87568127e-02 -3.77589001e-01 -1.39492373e-16 -2.22318902e-16
  -9.35225691e-17 -1.53813179e-16  2.03853129e-01  1.30274423e+00
  -1.24268728e-14 -3.84751766e-16 -9.29581078e-01 -8.71376627e-15
  -2.37091999e-15  1.85642591e-01  1.31144366e-01  3.71312488e+01]
 [-1.87172838e-01 -6.43110527e-18  1.04839317e-16 -2.68576453e-02
  -2.17303535e-01 -5.56111636e-17 -2.19986676e-18  2.08157614e-17
  -6.67242738e-17  2.61195270e-01 -4.48548803e-16 -2.07962489e-16
  -5.69466821e-02  4.80269593e-01  1.12321070e-15  8.93914526e-17
  -2.04205654e-16  1.57249899e-17  1.67175326e-01 -7.88766303e-01
   8.24193651e-15 -5.10785265e-17  1.55252818e-01  1.07161498e-13
  -3.29045740e-14  2.70732658e+00  3.81812070e+00 -3.82125531e+00]
 [ 2.33761312e-20 -1.29093325e-02  2.65905594e-01  9.02523503e-16
   1.96779560e-17 -3.70946101e-16 -3.01185002e-16 -1.73370331e-01
   2.43706394e-01 -9.15474404e-17  1.94122321e-01 -7.20972081e-03
  -1.62371139e-15 -6.21492967e-16  7.40664686e-01  2.98226909e-01
  -4.83272966e-17  2.42531583e-15 -1.68850470e-15  5.43598238e-15
   3.90581249e-01  1.26477902e+00  5.87533996e-15 -4.65033204e-01
   2.41092687e+00  2.86885747e-14  2.14487853e-14 -3.23728487e-16]
 [ 1.03336400e-21  2.65905594e-01  1.29093325e-02  5.22959712e-17
  -3.05570206e-17  1.14941433e-17 -2.94768912e-16 -2.43706394e-01
  -1.73370331e-01  3.33934510e-18  7.20972081e-03  1.94122321e-01
  -3.50198182e-17  5.59567856e-16 -2.98226909e-01  7.40664686e-01
   4.17027647e-16  3.29351011e-15  9.96968307e-16 -1.22415058e-14
  -1.26477902e+00  3.90581249e-01 -9.26954371e-15  2.41092687e+00
   4.65033204e-01 -9.18962473e-14 -3.82052774e-15  6.58902395e-14]
 [ 5.33368722e-02  6.06592471e-18  6.66731029e-16 -2.19413511e-01
  -3.93477583e-01 -1.53921360e-17  5.13027573e-19  9.81500012e-17
   1.05097444e-16 -1.54450759e-02  1.61371053e-16  9.54411187e-18
   1.80319366e-02 -6.35094708e-01 -2.24979212e-15  3.21489843e-16
  -2.96743366e-19 -3.66694991e-18 -7.83438500e-01 -4.92511649e-01
   4.60964079e-15  7.39879264e-19  6.52181058e-01 -5.02912343e-14
  -4.77849719e-15 -1.63483341e+00  2.01439066e+00  8.78988076e-01]
 [ 2.14445345e-20 -1.37864680e-02  2.83972775e-01  9.63634162e-16
   1.90037599e-17 -1.54640183e-18 -1.00809245e-16 -7.83490087e-02
   1.10135075e-01 -5.14017805e-17 -4.24534338e-01  1.57672443e-02
   3.61661652e-15  5.87989779e-16 -4.32307135e-01 -1.74067460e-01
  -1.92456802e-16 -1.85563268e-15  8.78043164e-16 -4.85640285e-15
  -4.86307645e-01 -1.57475995e+00  6.82925539e-15 -4.70002884e-01
   2.43669177e+00  3.05979993e-14  1.95727974e-14  7.96553080e-15]
 [ 3.06739574e-22  2.83972775e-01  1.37864680e-02  5.56497220e-17
  -1.29604406e-18  1.94794478e-16 -1.06961290e-16 -1.10135075e-01
  -7.83490087e-02  2.01639717e-17 -1.57672443e-02 -4.24534338e-01
   1.18152782e-16 -5.71097803e-16  1.74067460e-01 -4.32307135e-01
   1.75570422e-16 -1.60698140e-15 -4.85925899e-16  1.47526893e-14
   1.57475995e+00 -4.86307645e-01 -9.98775780e-15  2.43669177e+00
   4.70002884e-01 -9.22835068e-14 -5.15513074e-15  6.73972567e-14]
 [ 5.91336176e-02  7.99636173e-19  8.76997818e-16 -2.97539015e-01
  -1.85861970e-01  2.43004184e-17 -6.38328513e-18 -2.48483076e-17
   2.18208772e-18 -2.39359871e-02 -2.76509500e-15 -2.53896781e-16
  -3.28008512e-01  4.05470641e-01  1.37553136e-15 -7.66798359e-17
   1.03327248e-17  4.56265646e-17  5.42461781e-01  1.24872158e+00
  -1.24074670e-14 -4.38368251e-16  2.06985010e+00  1.28675331e-15
  -4.01053130e-16 -3.63172367e-01 -7.91038932e-01 -1.10105392e+01]
 [-3.80905074e-36 -1.20101033e-16  3.00556416e-18 -2.81178293e-31
   1.57740241e-26  5.54894619e-01  2.35995418e-09 -3.41095743e-16
   1.54454325e-16 -2.20857267e-25 -8.66194607e-17  3.22524669e-17
  -1.13095957e-22 -1.76355386e-20  1.03896436e-15  1.37047908e-16
  -1.15295164e+00  1.58346915e-08  1.70464313e-19  4.71587544e-18
  -9.70065228e-16 -4.30085597e-16  5.89823608e-17  5.52285102e-16
  -1.65177779e-15 -6.17628581e-17 -3.16579668e-16  1.59070159e-15]
 [ 4.15595750e-22 -1.24998243e-01 -6.06848415e-03 -2.43409515e-17
  -4.87084598e-17 -2.75295418e-16 -2.42587242e-16 -3.82666325e-01
  -2.72225058e-01  1.88983200e-17 -2.04831920e-02 -5.51511614e-01
   1.91040542e-16  2.56247065e-17 -2.38961629e-01  5.93475754e-01
  -3.96080113e-16  2.30653751e-15  3.71290463e-16  3.56118752e-15
   3.52261019e-01 -1.08783073e-01  8.66506236e-15 -2.23673595e+00
  -4.31434274e-01  8.47304291e-14  2.52102555e-15 -2.78546302e-14]
 [-1.49195599e-02 -2.35568004e-18 -5.53239546e-16  1.27762178e-01
  -2.03620463e-01 -1.82981053e-18  1.98142695e-19 -7.09671810e-17
   5.42040238e-17 -4.60916447e-01 -5.41764386e-15 -8.35081006e-18
  -6.25194747e-01  3.44853038e-01 -3.25085427e-16  3.96423320e-17
   2.71331520e-17 -1.41633018e-18 -4.65098011e-01 -6.17022745e-02
   4.43879362e-16  1.32480521e-16 -1.55067787e+00  1.02464342e-14
   3.94835638e-15  5.69522475e-01 -4.92300125e-01  3.43415225e-01]
 [-2.14123964e-20  6.06848415e-03 -1.24998243e-01 -4.25221005e-16
   5.31914662e-17 -4.08142520e-16 -4.48351470e-16 -2.72225058e-01
   3.82666325e-01  4.55454877e-17 -5.51511614e-01  2.04831920e-02
   4.94603271e-15 -9.40699823e-16  5.93475754e-01  2.38961629e-01
   7.32838470e-16  1.95725777e-15 -1.00540268e-15 -1.41393101e-15
  -1.08783073e-01 -3.52261019e-01 -6.00512819e-15  4.31434274e-01
  -2.23673595e+00 -2.65503707e-14 -1.89045734e-14 -1.04004037e-14]
 [ 0.00000000e+00  3.91045286e-17 -3.63506736e-19  0.00000000e+00
   0.00000000e+00 -2.35995421e-09  5.54894619e-01 -6.74030753e-16
   2.46204736e-16  0.00000000e+00  7.28147705e-17  9.79880756e-17
   0.00000000e+00  2.24080984e-28 -1.47682821e-15 -5.12772786e-15
   1.58346914e-08  1.15295164e+00 -2.33551877e-27  3.90609212e-24
   1.50688416e-16 -7.57959588e-16  7.82440285e-21 -1.24822301e-15
   1.98715921e-15  1.04635002e-19  2.99478565e-19  3.62297368e-15]]
C (ortho)
[[-9.91541059e-01 -6.95816107e-02 -5.49297176e-02 -6.71264024e-02
   9.97587017e-17 -7.22804484e-17  2.59194953e-17 -4.14680450e-17
  -4.05960278e-02 -2.14951473e-02  1.07191546e-03  1.48332087e-02
   5.79921368e-17 -2.30250255e-18  1.75741832e-17 -3.59920925e-17
  -5.84748722e-18  3.08458154e-17  3.70285076e-02 -1.08690482e-16
   3.50975467e-20  6.24044737e-18  1.19410756e-17  6.42656312e-04
   2.78499787e-02  1.19104534e-17  1.57572193e-17 -1.76188449e-03]
 [ 2.21865123e-17 -5.41653480e-16  3.80230622e-16  1.55215813e-16
   7.86039571e-01  3.35566091e-01 -3.55912181e-03  3.05923838e-02
   1.22714771e-15  1.91340415e-16  2.49477608e-16  1.51832553e-16
  -4.29193318e-17  4.02315202e-15  4.22595541e-01 -2.80980975e-01
   2.44372176e-02 -3.77261688e-02 -4.68019072e-16 -1.63760414e-14
  -1.46675017e-15 -8.03671574e-02 -5.06374624e-02  9.74837262e-17
  -6.12774487e-17  2.25399372e-03 -1.66583088e-03 -4.03751117e-18]
 [-3.54435236e-16  8.81203919e-16 -5.04387444e-16  2.82082325e-15
  -3.35566091e-01  7.86039571e-01  3.05923838e-02  3.55912181e-03
  -1.85893463e-16  9.20883822e-16  3.67212240e-16 -9.00560779e-16
  -3.97388987e-16  2.07388430e-15  2.80980975e-01  4.22595541e-01
  -3.77261688e-02 -2.44372176e-02 -2.19843827e-16  8.20368650e-15
  -1.63878934e-15  5.06374624e-02 -8.03671574e-02  3.49899405e-16
   1.24326839e-16  1.66583088e-03  2.25399372e-03  1.44214234e-17]
 [ 9.46422555e-02 -4.48426800e-01 -1.98153962e-02 -7.58847075e-01
  -1.25904817e-15  2.81551468e-15  1.19234974e-16 -2.39973166e-16
   2.17990489e-02 -3.43387945e-01  1.79916226e-03  3.07045463e-01
   3.63824607e-16 -6.44678314e-19  9.10478601e-16  1.68561548e-15
   6.00438028e-17 -1.65338685e-16 -9.17358886e-03 -7.44842702e-16
  -6.11597594e-19  1.55721772e-16 -1.96979521e-16 -2.95175337e-02
  -2.35576482e-03 -1.90031857e-17 -1.98960517e-17  9.11562720e-03]
 [-2.80136906e-02 -2.15181486e-03 -4.69991074e-01  2.93507544e-02
  -7.13057176e-16 -4.84606558e-16 -5.12218743e-17  1.96551944e-16
   6.14698642e-01 -3.61875325e-04 -1.32299836e-01 -1.41619914e-02
  -6.38117391e-16  6.98698192e-18 -5.24405518e-16 -1.16096112e-16
  -2.87717810e-16 -4.70820904e-16 -5.98090519e-01  8.67183835e-16
  -7.44466951e-18 -3.21587094e-17 -1.64168865e-16  5.41870307e-03
  -1.55417647e-01 -5.62790665e-19  5.96751835e-17  1.70034110e-03]
 [ 3.44683902e-19  1.02454898e-16 -1.46018352e-17 -4.05723341e-17
   3.00515879e-16 -6.66651775e-16 -2.18513840e-16 -3.95284022e-16
  -7.35491351e-17  1.83828240e-16 -3.03827667e-16 -1.02827995e-15
   9.99894341e-01 -1.12042544e-02  1.75555040e-15  8.73748173e-16
   1.31957624e-15 -2.21634084e-15 -1.22923191e-15  9.25991751e-03
   1.59980879e-04 -9.44006777e-16  1.45026783e-17  2.06293654e-17
  -5.82562689e-19 -1.97496541e-16  8.94130834e-18  4.48420302e-18]
 [-1.89817376e-18  1.26460579e-18 -2.06809358e-20  7.94748685e-19
   3.23026642e-17  3.05259333e-16 -7.20978940e-17 -2.50739684e-16
   1.62981018e-18  1.08912404e-18 -2.28726735e-18 -6.28139008e-18
   1.12042544e-02  9.99894341e-01 -8.24476164e-15  1.14857503e-15
   2.80252311e-15  3.27010718e-15  1.23207106e-18 -1.59980879e-04
   9.25991751e-03  9.25678898e-16  8.81891966e-16 -9.88423421e-20
   1.48163988e-19 -3.88457145e-16 -1.21002705e-16 -4.33194478e-20]
 [ 4.32638260e-18  1.53247081e-16 -1.03329545e-16  1.18524233e-16
   1.23004917e-02  2.24907028e-02 -3.12439720e-01 -5.08436953e-01
   1.15608240e-16 -1.04622516e-16  2.09030084e-16  6.30192754e-17
   1.14022745e-15 -2.26963326e-15  5.98208323e-02  4.79987964e-03
   7.08864589e-02  7.67940292e-01 -6.77313860e-16 -3.50465297e-15
  -1.23483631e-15 -4.48884982e-03 -1.26209202e-02  1.87700956e-16
   1.12269595e-16 -2.11274094e-01 -6.42026598e-03  1.79760421e-17]
 [ 1.77196936e-17  1.26155487e-16  2.52795540e-16  4.08442846e-17
   2.24907028e-02 -1.23004917e-02  5.08436953e-01 -3.12439720e-01
   2.32930761e-16  2.69919255e-18  9.35817998e-17  2.96449703e-16
   1.21262073e-15  2.11365571e-15  4.79987964e-03 -5.98208323e-02
  -7.67940292e-01  7.08864589e-02  8.51515380e-18 -3.13430782e-15
   6.14050309e-16 -1.26209202e-02  4.48884982e-03 -1.54468373e-16
  -2.64348995e-18 -6.42026598e-03  2.11274094e-01 -2.69160061e-17]
 [-5.08447679e-02  9.45776945e-03  5.66474904e-01 -1.12314653e-02
  -6.21761274e-16 -2.53058121e-16 -8.88637141e-17  1.67266436e-16
   1.73458834e-01  6.00353242e-03  6.62121717e-01  1.71176938e-02
  -2.01506767e-16  4.32462134e-18 -4.63158753e-16  2.61673264e-18
   9.73754703e-17 -4.67157409e-16 -4.41240026e-01  8.60816032e-17
  -5.87021739e-18 -6.96915546e-17 -4.01001909e-17  6.09297811e-03
   1.12920712e-01  5.34648388e-17 -2.33271800e-17 -1.49423810e-03]
 [ 1.89506669e-16 -2.36008365e-15  1.67690837e-16 -1.58975483e-15
   1.85712835e-01 -4.21656294e-01 -1.67321116e-02 -1.75374836e-03
   1.16261206e-16 -2.55680962e-17  2.48251947e-16 -6.97834368e-15
  -1.63222580e-15  2.95828622e-15  3.60023920e-01  5.55083262e-01
  -4.97391985e-02 -3.14204853e-02  6.06493935e-17  6.64716412e-14
  -8.58057131e-15  3.19323781e-01 -4.94232418e-01  4.38907141e-15
   1.26394049e-17  1.23132240e-03  1.70638671e-03  8.79090631e-16]
 [-4.76977707e-19  1.88979255e-16 -9.08309212e-17 -9.23301926e-17
  -4.21656294e-01 -1.85712835e-01  1.75374836e-03 -1.67321116e-02
  -7.02425592e-16 -1.19989957e-16 -1.95157229e-16 -2.21859984e-17
  -1.81573935e-16  5.77053015e-15  5.55083262e-01 -3.60023920e-01
   3.14204853e-02 -4.97391985e-02 -2.50928700e-16 -9.44720036e-14
  -6.40934054e-15 -4.94232418e-01 -3.19323781e-01  1.76382637e-16
  -5.26381893e-17  1.70638671e-03 -1.23132240e-03  1.35653319e-17]
 [ 2.04585447e-02 -3.12357100e-01  5.92604208e-03 -1.52342380e-01
  -1.69402347e-15  3.69757484e-15  1.71178886e-16 -2.88283749e-16
   1.70600486e-03 -2.21492924e-03  1.98522702e-02 -7.97863426e-01
  -8.21210114e-16  4.81169572e-18 -3.30591966e-15 -4.91952312e-15
   1.84686818e-16  2.32645735e-16  8.56801972e-03  4.53145697e-16
   9.46869427e-19 -2.77100959e-15  4.28995122e-15  4.80906071e-01
   1.41537633e-03 -1.19045697e-16 -7.18367681e-17  1.02162279e-01]
 [-5.03602125e-02  5.25709650e-03  5.57256736e-01 -2.29391897e-02
  -2.98996896e-16  7.07360963e-16 -5.75014246e-17 -5.25086185e-16
  -1.31818477e-01 -1.31715234e-02 -5.75257050e-01 -1.26785196e-02
  -5.63029243e-16  5.60837527e-18 -1.45991183e-16 -2.77649231e-16
   2.90683765e-17 -1.01736488e-16 -3.18231335e-01  2.79323896e-16
  -2.56934062e-18  7.81653507e-16 -6.94667372e-16  1.35898266e-03
  -4.86280877e-01 -1.32896341e-16 -4.79826820e-17  1.34032374e-03]
 [-9.83541983e-17  8.18770068e-16  7.60667355e-16  1.06786310e-16
   1.75197327e-01 -1.58694918e-01 -1.09000934e-02  3.55755097e-03
   7.98358682e-17 -1.04228710e-15 -7.64134441e-16  3.09146222e-16
   2.41000079e-16  5.76635955e-16  8.46231558e-02  5.39889174e-01
  -2.88410571e-02 -4.16722864e-03 -2.53311921e-16 -1.34878941e-13
   5.65730770e-15 -6.72721030e-01  4.38113490e-01  1.57008777e-15
  -6.15590347e-16  3.38832501e-04  1.62828460e-03  2.85194894e-17]
 [ 2.00547042e-18  2.03848535e-16 -1.45386953e-17 -9.82642691e-17
  -1.58694918e-01 -1.75197327e-01 -3.55755097e-03 -1.09000934e-02
  -2.18225049e-16  7.25437167e-17 -1.83022686e-16 -1.30565722e-16
  -1.11965985e-15  3.66598216e-15  5.39889174e-01 -8.46231558e-02
   4.16722864e-03 -2.88410571e-02 -5.31481336e-16  8.08721338e-14
   6.86354891e-15  4.38113490e-01  6.72721030e-01  8.89863128e-17
   3.31826532e-17  1.62828460e-03 -3.38832501e-04 -3.12123761e-17]
 [ 7.20559420e-19  4.36162378e-16 -1.35410574e-16  2.48704168e-16
   2.60290856e-16 -2.10373816e-15  6.94313155e-16 -1.43790446e-17
   5.41535651e-16  4.58181978e-16 -3.23836148e-16 -7.84479255e-16
   9.26071800e-03 -1.03770493e-04 -1.36699032e-15 -2.56544401e-16
   1.08709295e-15 -3.02428569e-15 -7.67317412e-16 -9.99807911e-01
  -1.72733786e-02  1.95923271e-13 -6.87562908e-15  1.96486860e-17
  -1.75367630e-17  3.20072436e-18 -1.95220374e-16 -1.46577188e-17]
 [-3.58969414e-19  8.30391024e-18 -2.43258029e-18  2.86391938e-18
  -3.97145640e-16 -7.73652891e-16 -3.49677499e-16 -1.19667076e-16
   1.06926578e-17  1.05127383e-17 -5.11515002e-18 -1.07080051e-17
  -1.03770493e-04 -9.26071800e-03  3.53200324e-15  2.30442512e-16
   4.15675226e-16  3.40967706e-16 -2.26111914e-17 -1.72733786e-02
   9.99807911e-01  4.61498572e-15 -1.36051013e-14  3.25595198e-18
   1.63466554e-19  9.60761887e-17  7.05956964e-18 -1.48899554e-20]
 [-1.48842873e-02  3.32959462e-01 -9.38370558e-03  1.30728585e-01
  -1.45138109e-16  3.97252940e-16  1.55348929e-16  1.85149946e-16
  -1.10421669e-02 -5.42871057e-01  4.86192688e-04  2.74622234e-01
   3.80434394e-16 -2.37529488e-18 -3.57579711e-16 -1.35113478e-15
   4.87110167e-17 -1.76808509e-16  2.48900405e-03 -2.96720500e-16
  -1.65738185e-18  1.44099649e-15 -8.31731460e-16  7.07954302e-01
  -1.42080654e-03 -5.95327485e-17 -1.80354677e-16  1.68050226e-02]
 [ 2.69027011e-02 -1.13544620e-02 -3.77319276e-01 -7.29924135e-04
   1.06191102e-15 -3.81063384e-16 -2.22459909e-15  6.04083460e-15
  -7.15733548e-01  1.89431435e-02  2.78054982e-01  4.69159099e-03
  -3.95079081e-16  6.91714957e-18  3.15740121e-16 -2.26406474e-16
  -2.88960869e-15  2.11566138e-15 -4.26089288e-01 -1.41931618e-16
  -3.98227506e-18 -2.85280133e-16  2.56306656e-16  3.30563984e-03
  -2.91965738e-01 -3.45955711e-15  4.82337089e-15 -1.14680395e-04]
 [-3.12119361e-16 -9.11461479e-17  4.37815041e-15 -7.41690461e-17
  -2.35829224e-02 -3.62387173e-03 -2.55039180e-01  6.63778750e-01
   6.79854223e-15 -4.38317924e-16 -3.41309643e-15  8.96483384e-17
   9.61408504e-16 -3.96888229e-17  2.25980058e-02 -2.50990694e-02
  -2.85242484e-01  2.63073997e-01  3.77530370e-15 -2.92696687e-15
  -8.17121326e-17 -4.34350003e-03 -1.39723022e-03  1.98507609e-16
   2.87645676e-15 -3.69259298e-01  4.53539874e-01 -5.05043998e-17]
 [-2.14895114e-17  2.22003302e-17  4.95487486e-17  1.61446522e-16
  -3.62387173e-03  2.35829224e-02 -6.63778750e-01 -2.55039180e-01
   3.74617299e-16  2.37081008e-17  1.52077747e-16  4.15634754e-16
  -1.37394893e-17  2.02369505e-15 -2.50990694e-02 -2.25980058e-02
  -2.63073997e-01 -2.85242484e-01  2.99534944e-16 -7.12936259e-16
  -5.77232557e-16 -1.39723022e-03  4.34350003e-03 -3.11167185e-16
   9.11180689e-17  4.53539874e-01  3.69259298e-01  1.20215447e-16]
 [ 1.56851404e-02 -8.90306326e-04  3.15843661e-02 -6.21440289e-03
   5.53297457e-16 -5.49883200e-16  1.10795107e-15 -1.37088786e-15
  -2.44824584e-01 -2.64223379e-03 -3.67271892e-01 -8.52252529e-03
  -5.28450966e-16  5.96577871e-18 -1.41418395e-15  2.09780926e-16
   2.76942031e-15 -1.87296831e-15 -4.03986913e-01  3.03559895e-16
  -3.32640320e-18 -4.28787398e-16 -3.12813718e-16  3.04696161e-03
   8.00371689e-01 -6.81055472e-16  3.08633667e-15  3.28415657e-04]
 [-4.58960689e-16  1.96983230e-14 -6.96345218e-16 -1.35163719e-14
  -1.18036880e-02 -3.15836882e-03 -9.43397071e-02  3.57719198e-01
  -2.16745436e-15 -6.82133355e-16 -1.89978308e-15 -6.07659423e-15
   6.62715331e-16  3.73568810e-16  2.73521939e-02 -2.44193562e-02
  -3.27406652e-01  3.75693561e-01 -2.96097513e-15 -2.07736479e-15
  -1.28319798e-15 -6.21492940e-03 -2.77695588e-03 -6.60907127e-15
   4.54721184e-15  5.57548786e-01 -5.49904985e-01  2.53470816e-14]
 [ 9.79695802e-17 -5.15979932e-15  4.49260641e-17  3.89755918e-15
   3.15836882e-03 -1.18036880e-02  3.57719198e-01  9.43397071e-02
   1.66772726e-15  2.04375317e-16  1.45137982e-15  2.46571047e-15
   2.95709700e-16 -1.19588721e-17  2.44193562e-02  2.73521939e-02
   3.75693561e-01  3.27406652e-01  1.47447190e-15 -1.12321980e-15
   6.16114940e-16  2.77695588e-03 -6.21492940e-03  1.70739188e-15
  -1.66986396e-15  5.49904985e-01  5.57548786e-01  2.35559793e-16]
 [-1.57313526e-02  5.24919021e-01 -1.78084004e-02 -3.40840839e-01
   1.43146055e-15 -6.76751694e-16  6.08018379e-15 -1.34113601e-14
   9.26924713e-04 -3.32923447e-02  7.27970458e-03 -1.47909605e-01
  -3.06588907e-16  2.03090068e-18 -1.04667120e-15  3.43038263e-16
   1.43299467e-14 -1.26463952e-14 -6.74458810e-04  2.52540493e-16
   7.00246720e-19 -7.35391814e-17  3.87879376e-16 -1.70338535e-01
   8.89834799e-04 -1.93726211e-14  2.39415219e-14  7.45430736e-01]
 [-1.10645110e-02  5.50621794e-01 -2.10178957e-02 -4.24133752e-01
   6.69510462e-16  1.52478127e-16  3.16012977e-15 -1.36953374e-15
   2.75456105e-03 -3.65228254e-02  7.54792469e-03 -2.72037140e-01
  -6.80765038e-16  5.26725986e-18 -4.29142663e-16 -1.53268106e-15
   2.50125674e-15  1.30899182e-15 -7.70150726e-04  2.35315576e-16
  -9.26931949e-19 -3.94530648e-16 -5.08975222e-16 -8.79725342e-02
  -1.29279483e-04  3.16695252e-15  6.98606794e-15 -6.58194171e-01]
 [-1.81452051e-03 -8.16521374e-02  4.48428408e-03  2.85888286e-01
   2.52476875e-14  6.25350587e-15  3.62018821e-15  2.79644618e-15
  -1.45392870e-02 -7.64127610e-01  2.14241934e-02 -3.11238201e-01
   1.02381677e-15 -2.29431038e-15 -2.82115758e-14  2.41277204e-14
  -4.22876006e-15  1.08979543e-14 -5.51014327e-03  6.46972038e-16
   4.21480175e-15  3.37074051e-14  1.32915933e-14 -4.79390687e-01
   5.85354473e-04  2.11045323e-14 -1.49107888e-14 -1.73398702e-02]]
[[-9.91541059e-01 -6.95816107e-02 -5.49297176e-02 -6.71264024e-02
  -4.74368320e-17  5.20203296e-17 -4.93118013e-17 -7.99710127e-18
   4.05960278e-02 -2.14951473e-02  1.07191546e-03  1.48332087e-02
  -7.15392098e-18  3.24698730e-18 -1.32567620e-16  3.51326878e-17
   1.72256630e-17  1.03958566e-16 -3.70285076e-02 -3.17938491e-18
  -7.22532782e-19  4.49064435e-17  1.07105272e-18  6.42656312e-04
   2.78499787e-02  5.23742490e-17  1.42844988e-17 -1.76188449e-03]
 [ 1.63658547e-17 -4.62842105e-17 -1.35732419e-18 -2.71881089e-18
   8.50617757e-01  8.31398854e-02  6.56649637e-03  3.00905703e-02
   5.45699097e-16  4.33097168e-16  1.60558347e-16 -2.08537614e-16
  -6.92633000e-16 -2.50144408e-15 -2.95035788e-01  4.12905780e-01
  -3.41600503e-02  2.92152764e-02  4.47249476e-16  1.87172998e-15
  -1.61767100e-16 -6.48601046e-02  6.93988431e-02 -1.05465498e-16
   1.02798280e-16  4.90192253e-04  2.75956369e-03 -4.64116189e-18]
 [ 2.66822390e-16 -4.73679517e-16  1.58822538e-17 -3.37404212e-15
  -8.31398854e-02  8.50617757e-01  3.00905703e-02 -6.56649637e-03
  -3.02907822e-15 -1.55099902e-15 -2.38126525e-16  1.58716895e-15
   1.64218281e-15 -2.30077058e-15  4.12905780e-01  2.95035788e-01
  -2.92152764e-02 -3.41600503e-02 -2.98892212e-16 -3.21072982e-15
   1.47680913e-15  6.93988431e-02  6.48601046e-02 -1.15715360e-16
   4.84353917e-17  2.75956369e-03 -4.90192253e-04  2.18528470e-17]
 [-9.46422555e-02  4.48426800e-01  1.98153962e-02  7.58847075e-01
  -2.24183255e-16  3.61076592e-15  3.07236972e-16  1.76176295e-16
   2.17990489e-02  3.43387945e-01 -1.79916226e-03 -3.07045463e-01
  -3.95837043e-16  5.64215272e-18  1.58916916e-15  8.63253598e-16
  -6.27252399e-17 -7.81606024e-17 -9.17358886e-03 -5.60980158e-16
   5.41180435e-20  1.00278460e-15  2.00220594e-16  2.95175337e-02
   2.35576482e-03  3.25967358e-18 -3.94337123e-17 -9.11562720e-03]
 [-2.80136906e-02 -2.15181486e-03 -4.69991074e-01  2.93507544e-02
   3.81046006e-16 -1.79269576e-15 -3.81277914e-16 -7.73095923e-17
  -6.14698642e-01 -3.61875325e-04 -1.32299836e-01 -1.41619914e-02
   8.52175378e-16 -1.03368465e-17  4.71953456e-16 -2.01682004e-16
   6.46037437e-17 -1.13892366e-15  5.98090519e-01  1.05868137e-15
   1.56640009e-18 -2.05664315e-15  8.14186116e-17  5.41870307e-03
  -1.55417647e-01 -3.65362647e-16  4.64571668e-17  1.70034110e-03]
 [-7.67680551e-19  8.96485697e-17  2.20273516e-18 -2.44549308e-17
   5.20466515e-16 -9.02356554e-17  4.54265244e-16  2.90240324e-17
  -7.25104125e-17  1.35948446e-16  2.75581601e-16 -4.91728814e-16
   9.99880973e-01 -1.23396793e-02 -3.83881818e-15 -8.27048578e-16
  -1.45547615e-15  1.09921363e-15 -1.31532140e-15  9.26104270e-03
  -6.89517563e-05  5.43103651e-16  1.98803435e-16  1.63908738e-17
   5.13346855e-18  1.69002990e-16  1.21495026e-16 -4.49824321e-18]
 [ 3.19302312e-18 -9.37765490e-20 -6.18465012e-19 -5.19308390e-19
  -2.42793651e-16 -5.13801481e-17  7.72506497e-16  2.22108460e-16
  -7.07977093e-19 -4.75734502e-20 -5.15284965e-20  2.43511986e-18
   1.23396793e-02  9.99880973e-01  8.32895870e-16  7.22567417e-15
  -9.64463780e-16  3.21515093e-15 -1.62694523e-18  6.89517563e-05
   9.26104270e-03 -3.29127158e-16 -6.83122088e-16  3.42248948e-19
  -3.63875327e-20  2.46413462e-16  1.48261871e-16  2.79316950e-20]
 [ 3.68143827e-18 -1.36376228e-16 -1.27345576e-16 -7.92257267e-17
  -1.85052984e-02 -1.77394403e-02  4.60593076e-01  3.79447931e-01
  -2.33176020e-16  4.20246237e-17  5.06678518e-17  5.24077530e-17
  -1.44238934e-15 -8.02815854e-16 -2.78511980e-03 -5.99484273e-02
  -7.70566603e-01  3.13734253e-02  3.47189009e-17  5.01231195e-16
   4.46939320e-16  1.13410629e-03 -1.33473294e-02 -1.67194457e-17
  -1.88896309e-16  1.57768364e-01  1.40666648e-01 -6.56896279e-18]
 [ 5.22034746e-17 -1.20091499e-16  5.97065692e-17  5.55121727e-18
  -1.77394403e-02  1.85052984e-02 -3.79447931e-01  4.60593076e-01
   1.45057943e-16 -8.79486582e-18  1.88910433e-16 -2.88340352e-16
  -2.96300050e-16 -2.11777834e-15  5.99484273e-02 -2.78511980e-03
   3.13734253e-02  7.70566603e-01  1.51061083e-15 -2.55563562e-16
   1.02586994e-15  1.33473294e-02  1.13410629e-03 -3.22854668e-17
   3.30434622e-16 -1.40666648e-01  1.57768364e-01  1.75619272e-18]
 [-5.08447679e-02  9.45776945e-03  5.66474904e-01 -1.12314653e-02
   2.77779873e-16 -5.50480076e-16  5.64003781e-17 -3.30976313e-18
  -1.73458834e-01  6.00353242e-03  6.62121717e-01  1.71176938e-02
   2.00571304e-16 -2.52858363e-18  4.40649958e-16 -4.28476935e-16
   1.24678950e-16 -9.13481972e-16  4.41240026e-01  1.40607102e-16
   2.03734088e-18 -7.24303956e-16  2.04696458e-17  6.09297811e-03
   1.12920712e-01  2.46716970e-16 -5.10681085e-17 -1.49423810e-03]
 [-1.56407859e-16  1.98192174e-15 -2.04131230e-16  1.73214782e-15
   5.00384004e-02 -4.58016862e-01 -1.63950305e-02  3.77387955e-03
   7.99484603e-16  8.85202342e-17 -2.27542837e-16  7.18533924e-15
   2.33851340e-15 -2.35868514e-15  5.42659970e-01  3.78490169e-01
  -3.77270286e-02 -4.51431731e-02  3.45290488e-16 -1.99568641e-14
   8.78049959e-15  4.34440296e-01  3.96856384e-01 -3.79899280e-15
   2.90968279e-16  2.06750177e-03 -3.91595265e-04 -8.69298263e-16]
 [ 2.19260746e-19  2.71584736e-16  2.43800747e-16  1.87494271e-16
  -4.58016862e-01 -5.00384004e-02 -3.77387955e-03 -1.63950305e-02
   2.14726423e-16  6.95037233e-17  8.90556247e-17 -3.69100443e-16
  -8.47025018e-16 -3.65414844e-15 -3.78490169e-01  5.42659970e-01
  -4.51431731e-02  3.77270286e-02 -6.77211139e-17  7.74922355e-15
  -1.77244254e-15 -3.96856384e-01  4.34440296e-01 -2.25110727e-16
  -1.24604764e-17  3.91595265e-04  2.06750177e-03 -1.69615916e-17]
 [-2.04585447e-02  3.12357100e-01 -5.92604208e-03  1.52342380e-01
  -3.64347938e-16  3.45637748e-15  5.88006964e-17  1.20200448e-16
   1.70600486e-03  2.21492924e-03 -1.98522702e-02  7.97863426e-01
   3.70530890e-16 -6.17879354e-18 -4.85649238e-15 -3.21787271e-15
   3.11168208e-16  5.94556709e-16  8.56801972e-03  2.42232298e-16
   3.40367170e-20 -4.13768210e-15 -3.60232837e-15 -4.80906071e-01
  -1.41537633e-03 -1.09404732e-16  1.14780893e-16 -1.02162279e-01]
 [-5.03602125e-02  5.25709650e-03  5.57256736e-01 -2.29391897e-02
  -1.11759877e-16  5.08771377e-16  2.57205192e-16  3.90053753e-16
   1.31818477e-01 -1.31715234e-02 -5.75257050e-01 -1.26785196e-02
   4.64926904e-16 -5.02120626e-18  2.51698609e-17 -7.52567905e-17
  -2.10405636e-16 -4.63116544e-16  3.18231335e-01  2.54733131e-16
   1.01385910e-18  3.71210609e-16  3.65627600e-16  1.35898266e-03
  -4.86280877e-01 -1.16309617e-15 -7.59513187e-19  1.34032374e-03]
 [-2.11639088e-17 -7.31694040e-16  9.65333796e-16  1.48718977e-16
   1.19241377e-01 -2.04107017e-01 -9.15448885e-03  6.90387854e-03
   1.50981577e-15  1.65841340e-15 -5.28863899e-16 -7.54772689e-16
   2.64892788e-15 -1.30298057e-15  5.36737447e-01  1.02734181e-01
  -7.94766186e-03 -2.80358171e-02 -1.95877643e-15  2.92756363e-14
  -1.03537449e-14 -7.61973814e-01 -2.52770491e-01 -8.87331476e-16
  -3.98482174e-16  1.36596971e-03 -9.48812382e-04 -4.63498029e-18]
 [ 1.15460744e-17 -1.38759288e-16  1.36506758e-18  9.29617809e-17
  -2.04107017e-01 -1.19241377e-01 -6.90387854e-03 -9.15448885e-03
  -1.87546445e-16 -2.60167632e-16 -1.71110290e-16 -5.60375902e-18
   1.61372407e-16 -3.99795992e-15 -1.02734181e-01  5.36737447e-01
  -2.80358171e-02  7.94766186e-03  9.43612337e-16  2.90187056e-15
   1.59915820e-15  2.52770491e-01 -7.61973814e-01  1.63470867e-16
   2.29185527e-16  9.48812382e-04  1.36596971e-03  3.56827904e-17]
 [-1.77902683e-18  2.50102286e-16  1.50945880e-16  1.38279908e-16
   8.01906027e-17  1.78756818e-16  2.52911598e-16 -4.83926168e-18
   6.53857419e-16  4.17688985e-16  3.34736507e-16 -4.11939838e-16
  -9.26059419e-03  1.14286454e-04  5.99760647e-16 -1.23630335e-15
   3.25703196e-16 -1.81192215e-16 -8.63711673e-16  9.99929399e-01
  -7.44483945e-03  3.43776440e-14  1.40063738e-14 -2.13194964e-18
  -2.15954611e-17  1.68212398e-16  1.04198984e-16  1.46357227e-17]
 [ 6.00727010e-19 -1.88275339e-18 -1.22974710e-18 -4.27237374e-19
  -4.24009170e-16 -7.44058596e-16  1.01357294e-16 -2.49250911e-17
  -5.00370650e-18 -6.26629323e-18 -1.81964249e-18  1.79890003e-18
   1.14286454e-04  9.26059419e-03  3.52536477e-16  2.71380374e-15
  -8.00934425e-16  1.11563166e-15  9.76674633e-18 -7.44483945e-03
  -9.99929399e-01  1.26985108e-14  4.30876126e-15 -1.86426785e-18
  -3.80945187e-20 -6.55386406e-17 -2.67130369e-16 -7.28140927e-20]
 [ 1.48842873e-02 -3.32959462e-01  9.38370558e-03 -1.30728585e-01
  -6.06418471e-16  8.77821671e-16 -3.97833267e-17 -4.45331955e-17
  -1.10421669e-02  5.42871057e-01 -4.86192688e-04 -2.74622234e-01
  -1.90115711e-16  2.88977161e-18 -7.92088597e-16 -7.07105185e-17
   3.33701595e-17 -1.26579950e-16  2.48900405e-03 -2.40506942e-16
  -9.98873489e-20  1.77861572e-15  3.65663537e-16 -7.07954302e-01
   1.42080654e-03 -8.50551148e-17  4.04176396e-17 -1.68050226e-02]
 [ 2.69027011e-02 -1.13544620e-02 -3.77319276e-01 -7.29924135e-04
  -3.24785030e-16  1.77531191e-15  6.16659314e-16 -6.71811985e-15
   7.15733548e-01  1.89431435e-02  2.78054982e-01  4.69159099e-03
   3.63883270e-16 -4.49441193e-18  1.08362122e-15  1.83541575e-16
  -2.12723580e-15  2.23669673e-15  4.26089288e-01 -2.00717335e-16
   1.95201224e-18 -3.74238491e-16 -3.43302967e-16  3.30563984e-03
  -2.91965738e-01 -1.47041972e-15  5.83298227e-15 -1.14680395e-04]
 [-3.11431080e-16  1.82732569e-16  4.38229028e-15 -5.88576413e-17
   2.35788887e-02 -3.65002540e-03  2.57049681e-02 -7.10623999e-01
  -7.24674397e-15 -1.98466083e-17 -3.29991389e-15 -2.98116008e-16
  -7.09794521e-16 -1.00779819e-15  2.58449411e-02 -2.17410251e-02
  -2.23008151e-01  3.17550889e-01 -3.44312036e-15  5.98900670e-16
   1.55196386e-16  3.84582135e-03 -2.45517881e-03 -2.10252628e-16
   2.90276033e-15 -4.39466217e-02  5.83197686e-01  4.46585832e-17]
 [-2.53077010e-17 -6.06503841e-17 -1.58071771e-17 -1.78834557e-16
  -3.65002540e-03 -2.35788887e-02  7.10623999e-01  2.57049681e-02
  -7.30374883e-16 -1.66304399e-16  1.03816683e-16 -2.70625618e-16
   3.96707416e-16 -3.25163981e-16  2.17410251e-02  2.58449411e-02
   3.17550889e-01  2.23008151e-01  3.44684240e-16  2.37805462e-16
   8.99884808e-16  2.45517881e-03  3.84582135e-03  2.90157172e-16
   1.49740690e-15 -5.83197686e-01 -4.39466217e-02 -1.45012128e-16]
 [ 1.56851404e-02 -8.90306326e-04  3.15843661e-02 -6.21440289e-03
  -2.34281533e-16 -1.85931752e-17 -4.98752526e-16  1.47868081e-15
   2.44824584e-01 -2.64223379e-03 -3.67271892e-01 -8.52252529e-03
   6.06051801e-16 -7.05482269e-18  1.88428520e-16 -1.25520194e-15
   1.49910675e-15 -3.76474434e-15  4.03986913e-01  2.48689286e-16
   1.47312237e-18 -1.11319322e-15  3.87026051e-16  3.04696161e-03
   8.00371689e-01  4.55489362e-16  2.80352393e-15  3.28415657e-04]
 [ 6.95598447e-16 -1.97842357e-14  6.47783903e-16  1.33282022e-14
   1.22067810e-02 -5.44832493e-04 -2.69162988e-02 -3.68969535e-01
   2.07694751e-15  6.29319606e-16 -2.39931765e-15  5.93168756e-15
  -1.56043925e-15 -9.52579883e-16  2.53255172e-02 -2.65153851e-02
  -3.29056622e-01  3.74249257e-01  3.36015719e-15 -6.35207303e-16
   2.18289825e-15  5.30517937e-03 -4.26519675e-03  6.50905863e-15
   4.66286799e-15 -2.64366605e-02 -7.82660363e-01 -2.53356982e-14]
 [-1.58053245e-16  5.21092173e-15 -3.47280904e-16 -3.79655107e-15
   5.44832493e-04  1.22067810e-02 -3.68969535e-01  2.69162988e-02
  -1.48944660e-15 -8.69998059e-17  1.66212309e-15 -2.43395547e-15
  -5.28642969e-17  2.70423372e-15 -2.65153851e-02 -2.53255172e-02
  -3.74249257e-01 -3.29056622e-01 -2.36273762e-15  1.73208278e-15
  -1.14744424e-15 -4.26519675e-03 -5.30517937e-03 -1.21919958e-15
   4.53006499e-16 -7.82660363e-01  2.64366605e-02 -2.66315712e-16]
 [ 1.57313526e-02 -5.24919021e-01  1.78084004e-02  3.40840839e-01
  -2.97447852e-16 -3.66468781e-16 -1.44069789e-15  1.47109872e-14
   9.26924713e-04  3.32923447e-02 -7.27970458e-03  1.47909605e-01
   1.43446057e-16 -1.72127465e-18 -1.98446672e-15  6.64441292e-16
   1.07444354e-14 -1.56792308e-14 -6.74458810e-04  1.50872087e-16
  -6.12459416e-19 -7.57106999e-16 -1.15494749e-16  1.70338535e-01
  -8.89834799e-04 -2.32040652e-15  3.06845717e-14 -7.45430736e-01]
 [ 1.10645110e-02 -5.50621794e-01  2.10178957e-02  4.24133752e-01
   9.01158528e-18  6.07930520e-16 -2.54610999e-15  2.34712134e-15
   2.75456105e-03  3.65228254e-02 -7.54792469e-03  2.72037140e-01
  -1.51860309e-17 -1.25087037e-19 -2.12445632e-15 -7.40025402e-16
  -1.46281513e-15 -1.94964922e-15 -7.70150726e-04  3.01163603e-16
  -1.70701711e-18 -4.98734630e-16  4.92459370e-16  8.79725342e-02
   1.29279483e-04 -7.11754873e-15  2.91148967e-15  6.58194171e-01]
 [ 1.81452051e-03  8.16521374e-02 -4.48428408e-03 -2.85888286e-01
   2.56647886e-14 -1.37345022e-15 -4.17132038e-15  4.19098706e-16
  -1.45392870e-02  7.64127610e-01 -2.14241934e-02  3.11238201e-01
   1.10612427e-15 -2.21856322e-15  2.47935255e-14 -2.88422351e-14
  -5.47339539e-15  9.02300912e-16 -5.51014327e-03 -1.01845862e-15
  -4.23600427e-15  2.96228250e-14 -2.16332262e-14  4.79390687e-01
  -5.85354473e-04 -4.92085643e-15 -2.56251465e-14  1.73398702e-02]]
grids:  [0.06237655 0.31939555 0.74529195 1.28265786 1.85893479 2.39630071
 2.8221971  3.07921611] 
weights:  [0.15900941 0.34931531 0.49276925 0.56970235 0.56970235 0.49276925
 0.34931531 0.15900941]
S = 0.0, Sz = 0.0
Wigner small d:  1
value : [1. 1. 1. 1. 1. 1. 1. 1.]
**** Start Cycle 1 ****
dm (ortho)
[[[ 0.98315367 -0.          0.         ...  0.01559828  0.01097092  0.00179917]
  [-0.          0.         -0.         ... -0.         -0.         -0.        ]
  [ 0.         -0.          0.         ...  0.          0.          0.        ]
  ...
  [ 0.01559828 -0.          0.         ...  0.00024748  0.00017406  0.00002854]
  [ 0.01097092 -0.          0.         ...  0.00017406  0.00012242  0.00002008]
  [ 0.00179917 -0.          0.         ...  0.00002854  0.00002008  0.00000329]]

 [[ 0.98315367 -0.         -0.         ... -0.01559828 -0.01097092 -0.00179917]
  [-0.          0.          0.         ...  0.          0.          0.        ]
  [-0.          0.          0.         ...  0.          0.          0.        ]
  ...
  [-0.01559828  0.          0.         ...  0.00024748  0.00017406  0.00002854]
  [-0.01097092  0.          0.         ...  0.00017406  0.00012242  0.00002008]
  [-0.00179917  0.          0.         ...  0.00002854  0.00002008  0.00000329]]]
Fock (ortho)
 (array([[-0.67670944,  0.        , -0.        ,  0.07347645, -0.11397295,  0.        ,  0.        ,  0.        , -0.        , -0.13653512, -0.        ,
         0.        , -0.00204817, -0.17859764, -0.        ,  0.        , -0.        , -0.        ,  0.00544106, -0.05856278,  0.        ,  0.        ,
         0.12361735,  0.        , -0.        , -0.00862631,  0.00156751, -0.00075786],
       [ 0.        ,  1.45489137, -0.        ,  0.        , -0.        ,  0.        , -0.        , -0.01048477, -0.00825281,  0.        , -0.01301056,
         1.14248651,  0.        ,  0.        , -0.20597393,  0.44758255, -0.        ,  0.        ,  0.        ,  0.        , -0.00139983,  0.00035894,
        -0.        ,  0.0036654 ,  0.00052414,  0.        ,  0.        , -0.        ],
       [-0.        , -0.        ,  1.45489137,  0.        ,  0.        , -0.        , -0.        , -0.00825281,  0.01048477, -0.        ,  1.14248651,
         0.01301056, -0.        , -0.        ,  0.44758255,  0.20597393,  0.        ,  0.        , -0.        ,  0.        ,  0.00035894,  0.00139983,
        -0.        , -0.00052414,  0.0036654 , -0.        , -0.        ,  0.        ],
       [ 0.07347645,  0.        ,  0.        ,  0.88603376,  0.00425624,  0.        , -0.        , -0.        ,  0.        ,  0.02486965, -0.        ,
         0.        , -0.66741269,  0.01157806,  0.        ,  0.        , -0.        ,  0.        ,  0.33809097, -0.00104277,  0.        ,  0.        ,
        -0.00669923,  0.        ,  0.        ,  0.1055586 , -0.08329855,  0.06775935],
       [-0.11397295, -0.        ,  0.        ,  0.00425624,  2.01311544,  0.        , -0.        , -0.        ,  0.        ,  0.71854282,  0.        ,
        -0.        ,  0.00971649,  1.22434896,  0.        , -0.        , -0.        ,  0.        ,  0.00105581,  0.72707876, -0.        , -0.        ,
        -0.01553003,  0.        , -0.        ,  0.00410277, -0.00331557, -0.00009373],
       [ 0.        ,  0.        , -0.        ,  0.        ,  0.        ,  3.21826385,  0.        , -0.        ,  0.        ,  0.        ,  0.        ,
         0.        ,  0.        , -0.        ,  0.        ,  0.        , -0.00562553,  0.        ,  0.        ,  0.        ,  0.        , -0.        ,
         0.        , -0.        , -0.        , -0.        , -0.        ,  0.        ],
       [ 0.        , -0.        , -0.        , -0.        , -0.        ,  0.        ,  3.21826385,  0.        ,  0.        ,  0.        ,  0.        ,
        -0.        ,  0.        ,  0.        ,  0.        , -0.        ,  0.        ,  0.00562553, -0.        , -0.        ,  0.        ,  0.        ,
        -0.        ,  0.        ,  0.        , -0.        , -0.        , -0.        ],
       [ 0.        , -0.01048477, -0.00825281, -0.        , -0.        , -0.        ,  0.        ,  2.86642886,  0.        , -0.        ,  0.00233708,
         0.00303973,  0.        ,  0.        , -0.00181867, -0.00757787,  0.        , -0.        , -0.        ,  0.        ,  0.88855633, -1.16172464,
        -0.        ,  0.00368216,  0.00385924,  0.        , -0.        , -0.        ],
       [-0.        , -0.00825281,  0.01048477,  0.        ,  0.        ,  0.        ,  0.        ,  0.        ,  2.86642886,  0.        , -0.00303973,
         0.00233708, -0.        ,  0.        ,  0.00757787, -0.00181867, -0.        ,  0.        , -0.        ,  0.        ,  1.16172464,  0.88855633,
        -0.        ,  0.00385924, -0.00368216,  0.        ,  0.        , -0.        ],
       [-0.13653512,  0.        , -0.        ,  0.02486965,  0.71854282,  0.        ,  0.        , -0.        ,  0.        ,  1.87507423, -0.        ,
         0.        , -0.00356388, -0.62757665, -0.        , -0.        , -0.        , -0.        ,  0.01176288,  0.6811762 , -0.        ,  0.        ,
         0.69377655,  0.        , -0.        , -0.00608124,  0.00297629, -0.00077983],
       [-0.        , -0.01301056,  1.14248651, -0.        ,  0.        ,  0.        ,  0.        ,  0.00233708, -0.00303973, -0.        ,  3.18216174,
        -0.        , -0.        ,  0.        , -0.64903418, -0.28977063, -0.        , -0.        ,  0.        , -0.        ,  0.00103754,  0.00386289,
        -0.        , -0.0003245 ,  0.00209848,  0.        , -0.        ,  0.        ],
       [ 0.        ,  1.14248651,  0.01301056,  0.        , -0.        ,  0.        , -0.        ,  0.00303973,  0.00233708,  0.        , -0.        ,
         3.18216174, -0.        , -0.        ,  0.28977063, -0.64903418, -0.        , -0.        , -0.        ,  0.        , -0.00386289,  0.00103754,
        -0.        ,  0.00209848,  0.0003245 ,  0.        ,  0.        , -0.        ],
       [-0.00204817,  0.        , -0.        , -0.66741269,  0.00971649,  0.        ,  0.        ,  0.        , -0.        , -0.00356388, -0.        ,
        -0.        ,  3.14377025, -0.00089518,  0.        ,  0.        , -0.        ,  0.        ,  1.10344401, -0.0046771 ,  0.        , -0.        ,
         0.00341411,  0.        , -0.        ,  0.67391198, -0.24130869, -0.51333785],
       [-0.17859764,  0.        , -0.        ,  0.01157806,  1.22434896, -0.        ,  0.        ,  0.        ,  0.        , -0.62757665,  0.        ,
        -0.        , -0.00089518,  2.79910348, -0.        , -0.        ,  0.        , -0.        ,  0.00274266,  1.14980659, -0.        , -0.        ,
        -1.62786685, -0.        ,  0.        ,  0.00313808, -0.00218393, -0.00030607],
       [-0.        , -0.20597393,  0.44758255,  0.        ,  0.        ,  0.        ,  0.        , -0.00181867,  0.00757787, -0.        , -0.64903418,
         0.28977063,  0.        , -0.        ,  3.87061867,  0.        , -0.        , -0.        , -0.        ,  0.        ,  0.0017241 ,  0.00212199,
        -0.        ,  0.00013317, -0.00020625, -0.        , -0.        , -0.        ],
       [ 0.        ,  0.44758255,  0.20597393,  0.        , -0.        ,  0.        , -0.        , -0.00757787, -0.00181867, -0.        , -0.28977063,
        -0.64903418,  0.        , -0.        ,  0.        ,  3.87061867,  0.        , -0.        , -0.        ,  0.        , -0.00212199,  0.0017241 ,
        -0.        , -0.00020625, -0.00013317,  0.        , -0.        ,  0.        ],
       [-0.        , -0.        ,  0.        , -0.        , -0.        , -0.00562553,  0.        ,  0.        , -0.        , -0.        , -0.        ,
        -0.        , -0.        ,  0.        , -0.        ,  0.        ,  4.30565401, -0.        ,  0.        ,  0.        ,  0.        ,  0.        ,
        -0.        , -0.        ,  0.        , -0.        ,  0.        , -0.        ],
       [-0.        ,  0.        ,  0.        ,  0.        ,  0.        ,  0.        ,  0.00562553, -0.        ,  0.        , -0.        , -0.        ,
        -0.        ,  0.        , -0.        , -0.        , -0.        , -0.        ,  4.30565401,  0.        ,  0.        ,  0.        , -0.        ,
         0.        , -0.        ,  0.        , -0.        , -0.        ,  0.        ],
       [ 0.00544106,  0.        , -0.        ,  0.33809097,  0.00105581,  0.        , -0.        , -0.        , -0.        ,  0.01176288,  0.        ,
        -0.        ,  1.10344401,  0.00274266, -0.        , -0.        ,  0.        ,  0.        ,  3.2827574 ,  0.00459591,  0.        , -0.        ,
        -0.00146788, -0.        ,  0.        , -0.5905914 , -0.60988927, -1.31715835],
       [-0.05856278,  0.        ,  0.        , -0.00104277,  0.72707876,  0.        , -0.        ,  0.        ,  0.        ,  0.6811762 , -0.        ,
         0.        , -0.0046771 ,  1.14980659,  0.        ,  0.        ,  0.        ,  0.        ,  0.00459591,  2.04359511,  0.        ,  0.        ,
        -0.96238185, -0.        ,  0.        , -0.00148305, -0.00002802, -0.00171706],
       [ 0.        , -0.00139983,  0.00035894,  0.        , -0.        ,  0.        ,  0.        ,  0.88855633,  1.16172464, -0.        ,  0.00103754,
        -0.00386289,  0.        , -0.        ,  0.0017241 , -0.00212199,  0.        ,  0.        ,  0.        ,  0.        ,  3.46469876, -0.        ,
         0.        , -2.12577588,  0.23258331,  0.        ,  0.        , -0.        ],
       [ 0.        ,  0.00035894,  0.00139983,  0.        , -0.        , -0.        ,  0.        , -1.16172464,  0.88855633,  0.        ,  0.00386289,
         0.00103754, -0.        , -0.        ,  0.00212199,  0.0017241 ,  0.        , -0.        , -0.        ,  0.        , -0.        ,  3.46469876,
         0.        ,  0.23258331,  2.12577588,  0.        ,  0.        ,  0.        ],
       [ 0.12361735, -0.        , -0.        , -0.00669923, -0.01553003,  0.        , -0.        , -0.        , -0.        ,  0.69377655, -0.        ,
        -0.        ,  0.00341411, -1.62786685, -0.        , -0.        , -0.        ,  0.        , -0.00146788, -0.96238185,  0.        ,  0.        ,
         5.27272811,  0.        , -0.        ,  0.002422  , -0.00076756,  0.00018603],
       [ 0.        ,  0.0036654 , -0.00052414,  0.        ,  0.        , -0.        ,  0.        ,  0.00368216,  0.00385924,  0.        , -0.0003245 ,
         0.00209848,  0.        , -0.        ,  0.00013317, -0.00020625, -0.        , -0.        , -0.        , -0.        , -2.12577588,  0.23258331,
         0.        ,  5.26262475, -0.        , -0.        , -0.        ,  0.        ],
       [-0.        ,  0.00052414,  0.0036654 ,  0.        , -0.        , -0.        ,  0.        ,  0.00385924, -0.00368216, -0.        ,  0.00209848,
         0.0003245 , -0.        ,  0.        , -0.00020625, -0.00013317,  0.        ,  0.        ,  0.        ,  0.        ,  0.23258331,  2.12577588,
        -0.        , -0.        ,  5.26262475,  0.        ,  0.        ,  0.        ],
       [-0.00862631,  0.        , -0.        ,  0.1055586 ,  0.00410277, -0.        , -0.        ,  0.        ,  0.        , -0.00608124,  0.        ,
         0.        ,  0.67391198,  0.00313808, -0.        ,  0.        , -0.        , -0.        , -0.5905914 , -0.00148305,  0.        ,  0.        ,
         0.002422  , -0.        ,  0.        ,  5.76166781, -4.42704045,  0.38979584],
       [ 0.00156751,  0.        , -0.        , -0.08329855, -0.00331557, -0.        , -0.        , -0.        ,  0.        ,  0.00297629, -0.        ,
         0.        , -0.24130869, -0.00218393, -0.        , -0.        ,  0.        , -0.        , -0.60988927, -0.00002802,  0.        ,  0.        ,
        -0.00076756, -0.        ,  0.        , -4.42704045,  4.66076095,  0.51510505],
       [-0.00075786, -0.        ,  0.        ,  0.06775935, -0.00009373,  0.        , -0.        , -0.        , -0.        , -0.00077983,  0.        ,
        -0.        , -0.51333785, -0.00030607, -0.        ,  0.        , -0.        ,  0.        , -1.31715835, -0.00171706, -0.        ,  0.        ,
         0.00018603,  0.        ,  0.        ,  0.38979584,  0.51510505,  2.44973706]]), array([[-0.67670944, -0.        ,  0.        , -0.07347645, -0.11397295, -0.        , -0.        ,  0.        ,  0.        , -0.13653512,  0.        ,
        -0.        ,  0.00204817, -0.17859764, -0.        ,  0.        , -0.        ,  0.        , -0.00544106, -0.05856278,  0.        ,  0.        ,
         0.12361735,  0.        , -0.        ,  0.00862631, -0.00156751,  0.00075786],
       [-0.        ,  1.45489137, -0.        ,  0.        ,  0.        ,  0.        , -0.        ,  0.01048477,  0.00825281,  0.        , -0.01301056,
         1.14248651,  0.        ,  0.        , -0.20597393,  0.44758255, -0.        ,  0.        ,  0.        ,  0.        ,  0.00139983, -0.00035894,
        -0.        , -0.0036654 , -0.00052414,  0.        ,  0.        , -0.        ],
       [ 0.        , -0.        ,  1.45489137,  0.        ,  0.        , -0.        ,  0.        ,  0.00825281, -0.01048477, -0.        ,  1.14248651,
         0.01301056, -0.        , -0.        ,  0.44758255,  0.20597393,  0.        ,  0.        , -0.        ,  0.        , -0.00035894, -0.00139983,
        -0.        ,  0.00052414, -0.0036654 , -0.        , -0.        ,  0.        ],
       [-0.07347645,  0.        ,  0.        ,  0.88603376, -0.00425624,  0.        ,  0.        , -0.        ,  0.        , -0.02486965, -0.        ,
         0.        , -0.66741269, -0.01157806,  0.        ,  0.        , -0.        , -0.        ,  0.33809097,  0.00104277,  0.        ,  0.        ,
         0.00669923,  0.        ,  0.        ,  0.1055586 , -0.08329855,  0.06775935],
       [-0.11397295,  0.        ,  0.        , -0.00425624,  2.01311544,  0.        ,  0.        , -0.        ,  0.        ,  0.71854282, -0.        ,
        -0.        , -0.00971649,  1.22434896,  0.        , -0.        , -0.        , -0.        , -0.00105581,  0.72707876, -0.        , -0.        ,
        -0.01553003, -0.        , -0.        , -0.00410277,  0.00331557,  0.00009373],
       [-0.        ,  0.        , -0.        ,  0.        ,  0.        ,  3.21826385,  0.        , -0.        ,  0.        ,  0.        ,  0.        ,
         0.        ,  0.        , -0.        ,  0.        ,  0.        ,  0.00562553, -0.        ,  0.        ,  0.        ,  0.        , -0.        ,
         0.        , -0.        , -0.        , -0.        , -0.        ,  0.        ],
       [-0.        , -0.        ,  0.        ,  0.        ,  0.        ,  0.        ,  3.21826385,  0.        ,  0.        ,  0.        ,  0.        ,
        -0.        , -0.        , -0.        ,  0.        , -0.        , -0.        , -0.00562553, -0.        ,  0.        ,  0.        ,  0.        ,
         0.        ,  0.        ,  0.        ,  0.        , -0.        , -0.        ],
       [ 0.        ,  0.01048477,  0.00825281, -0.        , -0.        , -0.        ,  0.        ,  2.86642886,  0.        , -0.        , -0.00233708,
        -0.00303973,  0.        ,  0.        ,  0.00181867,  0.00757787,  0.        , -0.        , -0.        ,  0.        ,  0.88855633, -1.16172464,
        -0.        ,  0.00368216,  0.00385924,  0.        , -0.        , -0.        ],
       [ 0.        ,  0.00825281, -0.01048477,  0.        ,  0.        ,  0.        ,  0.        ,  0.        ,  2.86642886,  0.        ,  0.00303973,
        -0.00233708, -0.        ,  0.        , -0.00757787,  0.00181867, -0.        ,  0.        , -0.        ,  0.        ,  1.16172464,  0.88855633,
        -0.        ,  0.00385924, -0.00368216,  0.        ,  0.        , -0.        ],
       [-0.13653512,  0.        , -0.        , -0.02486965,  0.71854282,  0.        ,  0.        , -0.        ,  0.        ,  1.87507423, -0.        ,
         0.        ,  0.00356388, -0.62757665, -0.        , -0.        , -0.        ,  0.        , -0.01176288,  0.6811762 , -0.        ,  0.        ,
         0.69377655,  0.        , -0.        ,  0.00608124, -0.00297629,  0.00077983],
       [ 0.        , -0.01301056,  1.14248651, -0.        , -0.        ,  0.        ,  0.        , -0.00233708,  0.00303973, -0.        ,  3.18216174,
        -0.        , -0.        ,  0.        , -0.64903418, -0.28977063, -0.        , -0.        ,  0.        , -0.        , -0.00103754, -0.00386289,
        -0.        ,  0.0003245 , -0.00209848,  0.        , -0.        ,  0.        ],
       [-0.        ,  1.14248651,  0.01301056,  0.        , -0.        ,  0.        , -0.        , -0.00303973, -0.00233708,  0.        , -0.        ,
         3.18216174,  0.        , -0.        ,  0.28977063, -0.64903418, -0.        , -0.        , -0.        ,  0.        ,  0.00386289, -0.00103754,
        -0.        , -0.00209848, -0.0003245 ,  0.        ,  0.        , -0.        ],
       [ 0.00204817,  0.        , -0.        , -0.66741269, -0.00971649,  0.        , -0.        ,  0.        , -0.        ,  0.00356388, -0.        ,
         0.        ,  3.14377025,  0.00089518,  0.        ,  0.        , -0.        ,  0.        ,  1.10344401,  0.0046771 ,  0.        , -0.        ,
        -0.00341411,  0.        , -0.        ,  0.67391198, -0.24130869, -0.51333785],
       [-0.17859764,  0.        , -0.        , -0.01157806,  1.22434896, -0.        , -0.        ,  0.        ,  0.        , -0.62757665,  0.        ,
        -0.        ,  0.00089518,  2.79910348, -0.        , -0.        ,  0.        ,  0.        , -0.00274266,  1.14980659, -0.        , -0.        ,
        -1.62786685, -0.        ,  0.        , -0.00313808,  0.00218393,  0.00030607],
       [-0.        , -0.20597393,  0.44758255,  0.        ,  0.        ,  0.        ,  0.        ,  0.00181867, -0.00757787, -0.        , -0.64903418,
         0.28977063,  0.        , -0.        ,  3.87061867,  0.        , -0.        , -0.        , -0.        ,  0.        , -0.0017241 , -0.00212199,
        -0.        , -0.00013317,  0.00020625, -0.        , -0.        , -0.        ],
       [ 0.        ,  0.44758255,  0.20597393,  0.        , -0.        ,  0.        , -0.        ,  0.00757787,  0.00181867, -0.        , -0.28977063,
        -0.64903418,  0.        , -0.        ,  0.        ,  3.87061867,  0.        , -0.        , -0.        ,  0.        ,  0.00212199, -0.0017241 ,
        -0.        ,  0.00020625,  0.00013317,  0.        , -0.        ,  0.        ],
       [-0.        , -0.        ,  0.        , -0.        , -0.        ,  0.00562553, -0.        ,  0.        , -0.        , -0.        , -0.        ,
        -0.        , -0.        ,  0.        , -0.        ,  0.        ,  4.30565401, -0.        ,  0.        ,  0.        ,  0.        ,  0.        ,
        -0.        , -0.        ,  0.        , -0.        ,  0.        , -0.        ],
       [ 0.        ,  0.        ,  0.        , -0.        , -0.        , -0.        , -0.00562553, -0.        ,  0.        ,  0.        , -0.        ,
        -0.        ,  0.        ,  0.        , -0.        , -0.        , -0.        ,  4.30565401,  0.        , -0.        ,  0.        , -0.        ,
        -0.        , -0.        ,  0.        , -0.        , -0.        ,  0.        ],
       [-0.00544106,  0.        , -0.        ,  0.33809097, -0.00105581,  0.        , -0.        , -0.        , -0.        , -0.01176288,  0.        ,
        -0.        ,  1.10344401, -0.00274266, -0.        , -0.        ,  0.        ,  0.        ,  3.2827574 , -0.00459591,  0.        , -0.        ,
         0.00146788, -0.        ,  0.        , -0.5905914 , -0.60988927, -1.31715835],
       [-0.05856278,  0.        ,  0.        ,  0.00104277,  0.72707876,  0.        ,  0.        ,  0.        ,  0.        ,  0.6811762 , -0.        ,
         0.        ,  0.0046771 ,  1.14980659,  0.        ,  0.        ,  0.        , -0.        , -0.00459591,  2.04359511,  0.        ,  0.        ,
        -0.96238185, -0.        ,  0.        ,  0.00148305,  0.00002802,  0.00171706],
       [ 0.        ,  0.00139983, -0.00035894,  0.        , -0.        ,  0.        ,  0.        ,  0.88855633,  1.16172464, -0.        , -0.00103754,
         0.00386289,  0.        , -0.        , -0.0017241 ,  0.00212199,  0.        ,  0.        ,  0.        ,  0.        ,  3.46469876, -0.        ,
         0.        , -2.12577588,  0.23258331,  0.        ,  0.        , -0.        ],
       [ 0.        , -0.00035894, -0.00139983,  0.        , -0.        , -0.        ,  0.        , -1.16172464,  0.88855633,  0.        , -0.00386289,
        -0.00103754, -0.        , -0.        , -0.00212199, -0.0017241 ,  0.        , -0.        , -0.        ,  0.        , -0.        ,  3.46469876,
         0.        ,  0.23258331,  2.12577588,  0.        ,  0.        ,  0.        ],
       [ 0.12361735, -0.        , -0.        ,  0.00669923, -0.01553003,  0.        ,  0.        , -0.        , -0.        ,  0.69377655, -0.        ,
        -0.        , -0.00341411, -1.62786685, -0.        , -0.        , -0.        , -0.        ,  0.00146788, -0.96238185,  0.        ,  0.        ,
         5.27272811,  0.        , -0.        , -0.002422  ,  0.00076756, -0.00018603],
       [ 0.        , -0.0036654 ,  0.00052414,  0.        , -0.        , -0.        ,  0.        ,  0.00368216,  0.00385924,  0.        ,  0.0003245 ,
        -0.00209848,  0.        , -0.        , -0.00013317,  0.00020625, -0.        , -0.        , -0.        , -0.        , -2.12577588,  0.23258331,
         0.        ,  5.26262475, -0.        , -0.        , -0.        ,  0.        ],
       [-0.        , -0.00052414, -0.0036654 ,  0.        , -0.        , -0.        ,  0.        ,  0.00385924, -0.00368216, -0.        , -0.00209848,
        -0.0003245 , -0.        ,  0.        ,  0.00020625,  0.00013317,  0.        ,  0.        ,  0.        ,  0.        ,  0.23258331,  2.12577588,
        -0.        , -0.        ,  5.26262475,  0.        ,  0.        ,  0.        ],
       [ 0.00862631,  0.        , -0.        ,  0.1055586 , -0.00410277, -0.        ,  0.        ,  0.        ,  0.        ,  0.00608124,  0.        ,
         0.        ,  0.67391198, -0.00313808, -0.        ,  0.        , -0.        , -0.        , -0.5905914 ,  0.00148305,  0.        ,  0.        ,
        -0.002422  , -0.        ,  0.        ,  5.76166781, -4.42704045,  0.38979584],
       [-0.00156751,  0.        , -0.        , -0.08329855,  0.00331557, -0.        , -0.        , -0.        ,  0.        , -0.00297629, -0.        ,
         0.        , -0.24130869,  0.00218393, -0.        , -0.        ,  0.        , -0.        , -0.60988927,  0.00002802,  0.        ,  0.        ,
         0.00076756, -0.        ,  0.        , -4.42704045,  4.66076095,  0.51510505],
       [ 0.00075786, -0.        ,  0.        ,  0.06775935,  0.00009373,  0.        , -0.        , -0.        , -0.        ,  0.00077983,  0.        ,
        -0.        , -0.51333785,  0.00030607, -0.        ,  0.        , -0.        ,  0.        , -1.31715835,  0.00171706, -0.        ,  0.        ,
        -0.00018603,  0.        ,  0.        ,  0.38979584,  0.51510505,  2.44973706]]))
E(UHF) =    -2.104394
NO eigenvalue
[-1. -0. -0. -0. -0. -0. -0. -0. -0. -0. -0. -0. -0. -0. -0.  0.  0.  0.  0.  0.  0.  0.  0.  0.  0.  0.  0.  0.] [-1. -0. -0. -0. -0. -0. -0. -0. -0. -0. -0. -0. -0. -0. -0. -0.  0.  0.  0.  0.  0.  0.  0.  0.  0.  0.  0.  0.]
NO vec
[[ 0.99154106  0.         -0.1284567  ...  0.          0.          0.        ]
 [-0.          0.         -0.08294258 ...  0.          0.          0.        ]
 [ 0.          0.          0.         ...  0.          0.          0.        ]
 ...
 [ 0.         -0.01573135  0.         ... -0.04004228  0.3394181   0.07502323]
 [ 0.         -0.01106451  0.         ...  0.11815385  0.13667121  0.10284423]
 [ 0.         -0.00181452  0.         ...  0.01035265  0.01103247  0.00735868]]
dm(NO)
[[ 1.  0.  0. ...  0.  0.  0.]
 [ 0.  1.  0. ... -0.  0.  0.]
 [ 0.  0.  0. ...  0.  0.  0.]
 ...
 [ 0. -0.  0. ... -0.  0.  0.]
 [ 0.  0.  0. ...  0. -0.  0.]
 [ 0.  0.  0. ... -0.  0. -0.]]
D(g) (NO)
[[ 0.99951369  0.0305614   0.         ... -0.00001675  0.00205076 -0.00441936]
 [-0.0305614   0.99951369  0.00453917 ... -0.          0.          0.        ]
 [ 0.         -0.00453917  0.99951369 ... -0.00160753  0.01885879 -0.01428753]
 ...
 [ 0.00001675 -0.          0.00160753 ...  0.99951369 -0.         -0.        ]
 [-0.00205076  0.         -0.01885879 ... -0.          0.99951369  0.        ]
 [ 0.00441936  0.          0.01428753 ... -0.          0.          0.99951369]]
...
N(g) (NO)
[[ 0.99955206 -0.03056257]
 [ 0.03056257  0.99955206]]
...
P(g) (NO)
[[ 1.          0.          0.         ... -0.         -0.          0.        ]
 [-0.          1.         -0.         ... -0.          0.          0.        ]
 [-0.00013873 -0.00453714 -0.         ...  0.         -0.         -0.        ]
 ...
 [ 0.00001674 -0.00000051  0.         ...  0.         -0.         -0.        ]
 [-0.00204984  0.00006268 -0.         ... -0.          0.          0.        ]
 [ 0.00441738 -0.00013507  0.         ...  0.         -0.         -0.        ]]
...
Pg_ortho
[[ 0.98317236 -0.          0.         ... -0.00000969 -0.00000682 -0.00000112]
 [-0.          0.         -0.         ... -0.         -0.         -0.        ]
 [ 0.         -0.          0.         ...  0.          0.          0.        ]
 ...
 [-0.00096268  0.         -0.         ...  0.00024701  0.00017373  0.00002849]
 [-0.00067709  0.         -0.         ...  0.00017373  0.00012219  0.00002004]
 [-0.00011104  0.         -0.         ...  0.00002849  0.00002004  0.00000329]]
G(g) (NO)
[[ 0.70505475 -0.00022682 -0.00188385 ... -0.00003845  0.00047704 -0.00056694]
 [ 0.00022682  0.70505475  0.00057021 ...  0.15678925  0.04867574 -0.03860699]
 [-0.00181933  0.00260467  1.05673355 ...  0.0003582   0.00034997 -0.00026321]
 ...
 [-0.00002147  0.15678808 -0.00021225 ...  1.05046217 -0.1485194  -0.04726563]
 [ 0.00191562  0.04863557  0.0004024  ... -0.14853452  1.28494859 -0.11606933]
 [-0.00280543 -0.03854108 -0.00035886 ... -0.04724775 -0.11607029  1.18731145]]
...
C(NO)
[[-1.          0.         -0.         ...  0.          0.          0.        ]
 [ 0.         -1.          0.         ...  0.          0.          0.        ]
 [-0.          0.          0.5295539  ...  0.          0.          0.        ]
 ...
 [ 0.          0.          0.         ... -0.00002376 -0.00013374  0.12686484]
 [ 0.         -0.          0.         ... -0.0000825  -0.00046444 -0.18885802]
 [ 0.         -0.          0.         ... -0.00024549 -0.00138202 -0.00746187]]
detC 1.0000000000000007
detNg [1.0000384  1.00099945 1.00526136 1.01433458 1.02601157 1.035465   1.04002611 1.0410656 ]
xg [0.99996161 0.99900155 0.99476618 0.985868   0.97464787 0.96574969 0.96151432 0.96055427]
ciS 1.960515871124782
[[-1.40472096  0.          0.03030196 ...  0.          0.          0.        ]
 [ 0.         -1.40472096  0.         ... -0.19946988 -0.09451794  0.08153456]
 [ 0.03030196  0.          0.29357465 ...  0.          0.          0.        ]
 ...
 [ 0.         -0.19946988  0.         ...  0.57951688 -0.72521662 -0.38192022]
 [ 0.         -0.09451794  0.         ... -0.72521662  1.48646137  0.72119974]
 [ 0.          0.08153456  0.         ... -0.38192022  0.72119974  0.45232562]]
ciH -4.150732759562089
S2 = 0.000000
X(g)
[[ 2.          0.         -0.00013873 ... -0.00001674  0.00204984 -0.00441738]
 [ 0.          2.          0.00453714 ... -0.00000051  0.00006268 -0.00013507]
 [-0.00013873 -0.00453714  0.         ...  0.          0.          0.        ]
 ...
 [ 0.00001674 -0.00000051  0.         ...  0.          0.          0.        ]
 [-0.00204984  0.00006268  0.         ...  0.          0.          0.        ]
 [ 0.00441738 -0.00013507  0.         ...  0.          0.          0.        ]]
X(g) int
[[ 2.          0.         -0.0727675  ... -0.00021519  0.02634596 -0.05677515]
 [-0.          2.          0.0583143  ... -0.00026852  0.03287581 -0.07084687]
 [-0.0727675  -0.0583143   0.         ...  0.          0.          0.        ]
 ...
 [ 0.00021519 -0.00026852  0.         ...  0.          0.          0.        ]
 [-0.02634596  0.03287581  0.         ...  0.          0.          0.        ]
 [ 0.05677515 -0.07084687  0.         ...  0.          0.          0.        ]]
Hsp + Hph =  -2.1171635591915625
Feff (mod,ortho)
[[-0.66431756  0.         -0.         ...  0.          0.          0.        ]
 [ 0.          1.45489137 -0.         ...  0.          0.          0.        ]
 [-0.         -0.          1.45489137 ...  0.          0.          0.        ]
 ...
 [ 0.          0.          0.         ...  5.76123519 -4.42711167  0.38974958]
 [ 0.          0.          0.         ... -4.42711167  4.66087478  0.5150994 ]
 [ 0.          0.          0.         ...  0.38974958  0.5150994   2.44973214]]
E(SUHF) =     -1.05880914
e_a, e_b
[-0.70274898  0.18446108  0.27661537  0.68344861  0.70156928  0.70156928  1.12589662  1.12589662  1.12843032  1.57813291  2.19314653  2.86596572  3.21823475
  3.21823475  3.47087077  3.47087077  3.60902511  3.60902511  3.70943856  4.30568311  4.30568311  4.33474296  4.33474296  5.13221139  6.71986787  6.85931939
  6.85931939  9.7426648 ] [-0.70274898  0.18446108  0.27661537  0.68344861  0.70156928  0.70156928  1.12589662  1.12589662  1.12843032  1.57813291  2.19314653  2.86596572  3.21823475
  3.21823475  3.47087077  3.47087077  3.60902511  3.60902511  3.70943856  4.30568311  4.30568311  4.33474296  4.33474296  5.13221139  6.71986787  6.85931939
  6.85931939  9.7426648 ]
P_a, P_b
[[ 0.97464903  0.          0.         -0.10191594 -0.0035169   0.          0.         -0.         -0.          0.083529   -0.         -0.         -0.02117331
   0.06963334  0.         -0.         -0.          0.          0.01501529 -0.03393917  0.          0.         -0.01643026  0.         -0.          0.01616375
   0.0110816   0.00187524]
 [ 0.          0.          0.         -0.         -0.          0.          0.         -0.         -0.          0.         -0.         -0.         -0.
   0.          0.         -0.         -0.          0.          0.         -0.          0.          0.         -0.          0.         -0.          0.
   0.          0.        ]
 [ 0.          0.          0.         -0.         -0.          0.          0.         -0.         -0.          0.         -0.         -0.         -0.
   0.          0.         -0.         -0.          0.          0.         -0.          0.          0.         -0.          0.         -0.          0.
   0.          0.        ]
 [-0.10191594 -0.         -0.          0.01065703  0.00036775 -0.         -0.          0.          0.         -0.00873436  0.          0.          0.00221403
  -0.00728134 -0.          0.          0.         -0.         -0.0015701   0.00354891 -0.         -0.          0.00171806 -0.          0.         -0.00169019
  -0.00115877 -0.00019609]
 [-0.0035169  -0.         -0.          0.00036775  0.00001269 -0.         -0.          0.          0.         -0.0003014   0.          0.          0.0000764
  -0.00025126 -0.          0.          0.         -0.         -0.00005418  0.00012247 -0.         -0.          0.00005929 -0.          0.         -0.00005832
  -0.00003999 -0.00000677]
 [ 0.          0.          0.         -0.         -0.          0.          0.         -0.         -0.          0.         -0.         -0.         -0.
   0.          0.         -0.         -0.          0.          0.         -0.          0.          0.         -0.          0.         -0.          0.
   0.          0.        ]
 [ 0.          0.          0.         -0.         -0.          0.          0.         -0.         -0.          0.         -0.         -0.         -0.
   0.          0.         -0.         -0.          0.          0.         -0.          0.          0.         -0.          0.         -0.          0.
   0.          0.        ]
 [-0.         -0.         -0.          0.          0.         -0.         -0.          0.          0.         -0.          0.          0.          0.
  -0.         -0.          0.          0.         -0.         -0.          0.         -0.         -0.          0.         -0.          0.         -0.
  -0.         -0.        ]
 [-0.         -0.         -0.          0.          0.         -0.         -0.          0.          0.         -0.          0.          0.          0.
  -0.         -0.          0.          0.         -0.         -0.          0.         -0.         -0.          0.         -0.          0.         -0.
  -0.         -0.        ]
 [ 0.083529    0.          0.         -0.00873436 -0.0003014   0.          0.         -0.         -0.          0.00715857 -0.         -0.         -0.00181459
   0.00596769  0.         -0.         -0.          0.          0.00128683 -0.00290864  0.          0.         -0.0014081   0.         -0.          0.00138526
   0.00094971  0.00016071]
 [-0.         -0.         -0.          0.          0.         -0.         -0.          0.          0.         -0.          0.          0.          0.
  -0.         -0.          0.          0.         -0.         -0.          0.         -0.         -0.          0.         -0.          0.         -0.
  -0.         -0.        ]
 [-0.         -0.         -0.          0.          0.         -0.         -0.          0.          0.         -0.          0.          0.          0.
  -0.         -0.          0.          0.         -0.         -0.          0.         -0.         -0.          0.         -0.          0.         -0.
  -0.         -0.        ]
 [-0.02117331 -0.         -0.          0.00221403  0.0000764  -0.         -0.          0.          0.         -0.00181459  0.          0.          0.00045997
  -0.00151272 -0.          0.          0.         -0.         -0.00032619  0.0007373  -0.         -0.          0.00035693 -0.          0.         -0.00035114
  -0.00024074 -0.00004074]
 [ 0.06963334  0.          0.         -0.00728134 -0.00025126  0.          0.         -0.         -0.          0.00596769 -0.         -0.         -0.00151272
   0.00497492  0.         -0.         -0.          0.          0.00107276 -0.00242477  0.          0.         -0.00117385  0.         -0.          0.00115481
   0.00079172  0.00013398]
 [ 0.          0.          0.         -0.         -0.          0.          0.         -0.         -0.          0.         -0.         -0.         -0.
   0.          0.         -0.         -0.          0.          0.         -0.          0.          0.         -0.          0.         -0.          0.
   0.          0.        ]
 [-0.         -0.         -0.          0.          0.         -0.         -0.          0.          0.         -0.          0.          0.          0.
  -0.         -0.          0.          0.         -0.         -0.          0.         -0.         -0.          0.         -0.          0.         -0.
  -0.         -0.        ]
 [-0.         -0.         -0.          0.          0.         -0.         -0.          0.          0.         -0.          0.          0.          0.
  -0.         -0.          0.          0.         -0.         -0.          0.         -0.         -0.          0.         -0.          0.         -0.
  -0.         -0.        ]
 [ 0.          0.          0.         -0.         -0.          0.          0.         -0.         -0.          0.         -0.         -0.         -0.
   0.          0.         -0.         -0.          0.          0.         -0.          0.          0.         -0.          0.         -0.          0.
   0.          0.        ]
 [ 0.01501529  0.          0.         -0.0015701  -0.00005418  0.          0.         -0.         -0.          0.00128683 -0.         -0.         -0.00032619
   0.00107276  0.         -0.         -0.          0.          0.00023132 -0.00052286  0.          0.         -0.00025312  0.         -0.          0.00024902
   0.00017072  0.00002889]
 [-0.03393917 -0.         -0.          0.00354891  0.00012247 -0.         -0.          0.          0.         -0.00290864  0.          0.          0.0007373
  -0.00242477 -0.          0.          0.         -0.         -0.00052286  0.00118183 -0.         -0.          0.00057213 -0.          0.         -0.00056285
  -0.00038588 -0.0000653 ]
 [ 0.          0.          0.         -0.         -0.          0.          0.         -0.         -0.          0.         -0.         -0.         -0.
   0.          0.         -0.         -0.          0.          0.         -0.          0.          0.         -0.          0.         -0.          0.
   0.          0.        ]
 [ 0.          0.          0.         -0.         -0.          0.          0.         -0.         -0.          0.         -0.         -0.         -0.
   0.          0.         -0.         -0.          0.          0.         -0.          0.          0.         -0.          0.         -0.          0.
   0.          0.        ]
 [-0.01643026 -0.         -0.          0.00171806  0.00005929 -0.         -0.          0.          0.         -0.0014081   0.          0.          0.00035693
  -0.00117385 -0.          0.          0.         -0.         -0.00025312  0.00057213 -0.         -0.          0.00027697 -0.          0.         -0.00027248
  -0.00018681 -0.00003161]
[...]
 [-0.          1.49711832 -0.         ...  0.          0.          0.        ]
 [-0.         -0.          1.49711832 ...  0.          0.          0.        ]
 ...
 [ 0.          0.          0.         ...  5.80380298 -4.45651004  0.39339732]
 [ 0.          0.          0.         ... -4.45651004  4.68805086  0.51694764]
 [ 0.          0.          0.         ...  0.39339732  0.51694764  2.46016129]]
E(SUHF) =     -1.07616831
e_a, e_b
[-0.64879774  0.19342427  0.28214109  0.6950948   0.72580148  0.72580148  1.13956669  1.13956669  1.14521806  1.58478755  2.22837619  2.89268934  3.25296076
  3.25296076  3.51330518  3.51330518  3.64370872  3.64370872  3.74635346  4.33680462  4.33680462  4.36983631  4.36983631  5.16949393  6.76675346  6.90522445
  6.90522445  9.81188628] [-0.64879774  0.19342427  0.28214109  0.6950948   0.72580148  0.72580148  1.13956669  1.13956669  1.14521806  1.58478755  2.22837619  2.89268934  3.25296076
  3.25296076  3.51330518  3.51330518  3.64370872  3.64370872  3.74635346  4.33680462  4.33680462  4.36983631  4.36983631  5.16949393  6.76675346  6.90522445
  6.90522445  9.81188628]
P_a, P_b
[[ 0.91435093  0.          0.         -0.25115903 -0.00769549 -0.         -0.         -0.         -0.          0.08818391  0.         -0.          0.00018083
   0.07304092  0.          0.         -0.          0.         -0.0163595  -0.03637516  0.          0.         -0.01585048  0.          0.          0.0133457
  -0.00643213 -0.00055865]
 [ 0.          0.          0.         -0.         -0.         -0.         -0.         -0.         -0.          0.          0.         -0.          0.
   0.          0.          0.         -0.          0.         -0.         -0.          0.          0.         -0.          0.          0.          0.
  -0.         -0.        ]
 [ 0.          0.          0.         -0.         -0.         -0.         -0.         -0.         -0.          0.          0.         -0.          0.
   0.          0.          0.         -0.          0.         -0.         -0.          0.          0.         -0.          0.          0.          0.
  -0.         -0.        ]
 [-0.25115903 -0.         -0.          0.06898977  0.00211384  0.          0.          0.          0.         -0.02422285 -0.          0.         -0.00004967
  -0.02006329 -0.         -0.          0.         -0.          0.00449372  0.00999173 -0.         -0.          0.0043539  -0.         -0.         -0.00366587
   0.00176681  0.00015345]
 [-0.00769549 -0.         -0.          0.00211384  0.00006477  0.          0.          0.          0.         -0.00074219 -0.          0.         -0.00000152
  -0.00061474 -0.         -0.          0.         -0.          0.00013769  0.00030615 -0.         -0.          0.0001334  -0.         -0.         -0.00011232
   0.00005413  0.0000047 ]
 [-0.         -0.         -0.          0.          0.          0.          0.          0.          0.         -0.         -0.          0.         -0.
  -0.         -0.         -0.          0.         -0.          0.          0.         -0.         -0.          0.         -0.         -0.         -0.
   0.          0.        ]
 [-0.         -0.         -0.          0.          0.          0.          0.          0.          0.         -0.         -0.          0.         -0.
  -0.         -0.         -0.          0.         -0.          0.          0.         -0.         -0.          0.         -0.         -0.         -0.
   0.          0.        ]
 [-0.         -0.         -0.          0.          0.          0.          0.          0.          0.         -0.         -0.          0.         -0.
  -0.         -0.         -0.          0.         -0.          0.          0.         -0.         -0.          0.         -0.         -0.         -0.
   0.          0.        ]
 [-0.         -0.         -0.          0.          0.          0.          0.          0.          0.         -0.         -0.          0.         -0.
  -0.         -0.         -0.          0.         -0.          0.          0.         -0.         -0.          0.         -0.         -0.         -0.
   0.          0.        ]
 [ 0.08818391  0.          0.         -0.02422285 -0.00074219 -0.         -0.         -0.         -0.          0.00850483  0.         -0.          0.00001744
   0.00704438  0.          0.         -0.          0.         -0.00157778 -0.00350818  0.          0.         -0.00152869  0.          0.          0.00128712
  -0.00062034 -0.00005388]
 [ 0.          0.          0.         -0.         -0.         -0.         -0.         -0.         -0.          0.          0.         -0.          0.
   0.          0.          0.         -0.          0.         -0.         -0.          0.          0.         -0.          0.          0.          0.
  -0.         -0.        ]
 [-0.         -0.         -0.          0.          0.          0.          0.          0.          0.         -0.         -0.          0.         -0.
  -0.         -0.         -0.          0.         -0.          0.          0.         -0.         -0.          0.         -0.         -0.         -0.
   0.          0.        ]
 [ 0.00018083  0.          0.         -0.00004967 -0.00000152 -0.         -0.         -0.         -0.          0.00001744  0.         -0.          0.00000004
   0.00001445  0.          0.         -0.          0.         -0.00000324 -0.00000719  0.          0.         -0.00000313  0.          0.          0.00000264
  -0.00000127 -0.00000011]
 [ 0.07304092  0.          0.         -0.02006329 -0.00061474 -0.         -0.         -0.         -0.          0.00704438  0.         -0.          0.00001445
   0.00583471  0.          0.         -0.          0.         -0.00130684 -0.00290575  0.          0.         -0.00126618  0.          0.          0.00106609
  -0.00051382 -0.00004463]
 [ 0.          0.          0.         -0.         -0.         -0.         -0.         -0.         -0.          0.          0.         -0.          0.
   0.          0.          0.         -0.          0.         -0.         -0.          0.          0.         -0.          0.          0.          0.
  -0.         -0.        ]
 [ 0.          0.          0.         -0.         -0.         -0.         -0.         -0.         -0.          0.          0.         -0.          0.
   0.          0.          0.         -0.          0.         -0.         -0.          0.          0.         -0.          0.          0.          0.
  -0.         -0.        ]
 [-0.         -0.         -0.          0.          0.          0.          0.          0.          0.         -0.         -0.          0.         -0.
  -0.         -0.         -0.          0.         -0.          0.          0.         -0.         -0.          0.         -0.         -0.         -0.
   0.          0.        ]
 [ 0.          0.          0.         -0.         -0.         -0.         -0.         -0.         -0.          0.          0.         -0.          0.
   0.          0.          0.         -0.          0.         -0.         -0.          0.          0.         -0.          0.          0.          0.
  -0.         -0.        ]
 [-0.0163595  -0.         -0.          0.00449372  0.00013769  0.          0.          0.          0.         -0.00157778 -0.          0.         -0.00000324
  -0.00130684 -0.         -0.          0.         -0.          0.0002927   0.00065082 -0.         -0.          0.0002836  -0.         -0.         -0.00023878
   0.00011508  0.00001   ]
 [-0.03637516 -0.         -0.          0.00999173  0.00030615  0.          0.          0.          0.         -0.00350818 -0.          0.         -0.00000719
  -0.00290575 -0.         -0.          0.         -0.          0.00065082  0.00144709 -0.         -0.          0.00063057 -0.         -0.         -0.00053093
   0.00025589  0.00002222]
 [ 0.          0.          0.         -0.         -0.         -0.         -0.         -0.         -0.          0.          0.         -0.          0.
   0.          0.          0.         -0.          0.         -0.         -0.          0.          0.         -0.          0.          0.          0.
  -0.         -0.        ]
 [ 0.          0.          0.         -0.         -0.         -0.         -0.         -0.         -0.          0.          0.         -0.          0.
   0.          0.          0.         -0.          0.         -0.         -0.          0.          0.         -0.          0.          0.          0.
  -0.         -0.        ]
 [-0.01585048 -0.         -0.          0.0043539   0.0001334   0.          0.          0.          0.         -0.00152869 -0.          0.         -0.00000313
  -0.00126618 -0.         -0.          0.         -0.          0.0002836   0.00063057 -0.         -0.          0.00027477 -0.         -0.         -0.00023135
   0.0001115   0.00000968]
 [ 0.          0.          0.         -0.         -0.         -0.         -0.         -0.         -0.          0.          0.         -0.          0.
   0.          0.          0.         -0.          0.         -0.         -0.          0.          0.         -0.          0.          0.          0.
  -0.         -0.        ]
 [ 0.          0.          0.         -0.         -0.         -0.         -0.         -0.         -0.          0.          0.         -0.          0.
   0.          0.          0.         -0.          0.         -0.         -0.          0.          0.         -0.          0.          0.          0.
  -0.         -0.        ]
 [ 0.0133457   0.          0.         -0.00366587 -0.00011232 -0.         -0.         -0.         -0.          0.00128712  0.         -0.          0.00000264
   0.00106609  0.          0.         -0.          0.         -0.00023878 -0.00053093  0.          0.         -0.00023135  0.          0.          0.00019479
  -0.00009388 -0.00000815]
 [-0.00643213 -0.         -0.          0.00176681  0.00005413  0.          0.          0.          0.         -0.00062034 -0.          0.         -0.00000127
  -0.00051382 -0.         -0.          0.         -0.          0.00011508  0.00025589 -0.         -0.          0.0001115  -0.         -0.         -0.00009388
   0.00004525  0.00000393]
 [-0.00055865 -0.         -0.          0.00015345  0.0000047   0.          0.          0.          0.         -0.00005388 -0.          0.         -0.00000011
  -0.00004463 -0.         -0.          0.         -0.          0.00001     0.00002222 -0.         -0.          0.00000968 -0.         -0.         -0.00000815
   0.00000393  0.00000034]] 
 [[ 0.91435093 -0.         -0.          0.25115903 -0.00769549  0.          0.         -0.         -0.          0.08818391  0.          0.         -0.00018083
   0.07304092  0.         -0.         -0.         -0.          0.0163595  -0.03637516  0.         -0.         -0.01585048 -0.          0.         -0.0133457
   0.00643213  0.00055865]
 [-0.          0.          0.         -0.          0.         -0.         -0.          0.          0.         -0.         -0.         -0.          0.
  -0.         -0.          0.          0.          0.         -0.          0.         -0.          0.          0.          0.         -0.          0.
  -0.         -0.        ]
 [-0.          0.          0.         -0.          0.         -0.         -0.          0.          0.         -0.         -0.         -0.          0.
  -0.         -0.          0.          0.          0.         -0.          0.         -0.          0.          0.          0.         -0.          0.
  -0.         -0.        ]
 [ 0.25115903 -0.         -0.          0.06898977 -0.00211384  0.          0.         -0.         -0.          0.02422285  0.          0.         -0.00004967
   0.02006329  0.         -0.         -0.         -0.          0.00449372 -0.00999173  0.         -0.         -0.0043539  -0.          0.         -0.00366587
   0.00176681  0.00015345]
 [-0.00769549  0.          0.         -0.00211384  0.00006477 -0.         -0.          0.          0.         -0.00074219 -0.         -0.          0.00000152
  -0.00061474 -0.          0.          0.          0.         -0.00013769  0.00030615 -0.          0.          0.0001334   0.         -0.          0.00011232
  -0.00005413 -0.0000047 ]
 [ 0.         -0.         -0.          0.         -0.          0.          0.         -0.         -0.          0.          0.          0.         -0.
   0.          0.         -0.         -0.         -0.          0.         -0.          0.         -0.         -0.         -0.          0.         -0.
   0.          0.        ]
 [ 0.         -0.         -0.          0.         -0.          0.          0.         -0.         -0.          0.          0.          0.         -0.
   0.          0.         -0.         -0.         -0.          0.         -0.          0.         -0.         -0.         -0.          0.         -0.
   0.          0.        ]
 [-0.          0.          0.         -0.          0.         -0.         -0.          0.          0.         -0.         -0.         -0.          0.
  -0.         -0.          0.          0.          0.         -0.          0.         -0.          0.          0.          0.         -0.          0.
  -0.         -0.        ]
 [-0.          0.          0.         -0.          0.         -0.         -0.          0.          0.         -0.         -0.         -0.          0.
  -0.         -0.          0.          0.          0.         -0.          0.         -0.          0.          0.          0.         -0.          0.
  -0.         -0.        ]
 [ 0.08818391 -0.         -0.          0.02422285 -0.00074219  0.          0.         -0.         -0.          0.00850483  0.          0.         -0.00001744
   0.00704438  0.         -0.         -0.         -0.          0.00157778 -0.00350818  0.         -0.         -0.00152869 -0.          0.         -0.00128712
   0.00062034  0.00005388]
 [ 0.         -0.         -0.          0.         -0.          0.          0.         -0.         -0.          0.          0.          0.         -0.
   0.          0.         -0.         -0.         -0.          0.         -0.          0.         -0.         -0.         -0.          0.         -0.
   0.          0.        ]
 [ 0.         -0.         -0.          0.         -0.          0.          0.         -0.         -0.          0.          0.          0.         -0.
   0.          0.         -0.         -0.         -0.          0.         -0.          0.         -0.         -0.         -0.          0.         -0.
   0.          0.        ]
 [-0.00018083  0.          0.         -0.00004967  0.00000152 -0.         -0.          0.          0.         -0.00001744 -0.         -0.          0.00000004
  -0.00001445 -0.          0.          0.          0.         -0.00000324  0.00000719 -0.          0.          0.00000313  0.         -0.          0.00000264
  -0.00000127 -0.00000011]
 [ 0.07304092 -0.         -0.          0.02006329 -0.00061474  0.          0.         -0.         -0.          0.00704438  0.          0.         -0.00001445
   0.00583471  0.         -0.         -0.         -0.          0.00130684 -0.00290575  0.         -0.         -0.00126618 -0.          0.         -0.00106609
   0.00051382  0.00004463]
 [ 0.         -0.         -0.          0.         -0.          0.          0.         -0.         -0.          0.          0.          0.         -0.
   0.          0.         -0.         -0.         -0.          0.         -0.          0.         -0.         -0.         -0.          0.         -0.
   0.          0.        ]
 [-0.          0.          0.         -0.          0.         -0.         -0.          0.          0.         -0.         -0.         -0.          0.
  -0.         -0.          0.          0.          0.         -0.          0.         -0.          0.          0.          0.         -0.          0.
  -0.         -0.        ]
 [-0.          0.          0.         -0.          0.         -0.         -0.          0.          0.         -0.         -0.         -0.          0.
  -0.         -0.          0.          0.          0.         -0.          0.         -0.          0.          0.          0.         -0.          0.
  -0.         -0.        ]
 [-0.          0.          0.         -0.          0.         -0.         -0.          0.          0.         -0.         -0.         -0.          0.
  -0.         -0.          0.          0.          0.         -0.          0.         -0.          0.          0.          0.         -0.          0.
  -0.         -0.        ]
 [ 0.0163595  -0.         -0.          0.00449372 -0.00013769  0.          0.         -0.         -0.          0.00157778  0.          0.         -0.00000324
   0.00130684  0.         -0.         -0.         -0.          0.0002927  -0.00065082  0.         -0.         -0.0002836  -0.          0.         -0.00023878
   0.00011508  0.00001   ]
 [-0.03637516  0.          0.         -0.00999173  0.00030615 -0.         -0.          0.          0.         -0.00350818 -0.         -0.          0.00000719
  -0.00290575 -0.          0.          0.          0.         -0.00065082  0.00144709 -0.          0.          0.00063057  0.         -0.          0.00053093
  -0.00025589 -0.00002222]
 [ 0.         -0.         -0.          0.         -0.          0.          0.         -0.         -0.          0.          0.          0.         -0.
   0.          0.         -0.         -0.         -0.          0.         -0.          0.         -0.         -0.         -0.          0.         -0.
   0.          0.        ]
 [-0.          0.          0.         -0.          0.         -0.         -0.          0.          0.         -0.         -0.         -0.          0.
  -0.         -0.          0.          0.          0.         -0.          0.         -0.          0.          0.          0.         -0.          0.
  -0.         -0.        ]
 [-0.01585048  0.          0.         -0.0043539   0.0001334  -0.         -0.          0.          0.         -0.00152869 -0.         -0.          0.00000313
  -0.00126618 -0.          0.          0.          0.         -0.0002836   0.00063057 -0.          0.          0.00027477  0.         -0.          0.00023135
  -0.0001115  -0.00000968]
 [-0.          0.          0.         -0.          0.         -0.         -0.          0.          0.         -0.         -0.         -0.          0.
  -0.         -0.          0.          0.          0.         -0.          0.         -0.          0.          0.          0.         -0.          0.
  -0.         -0.        ]
 [ 0.         -0.         -0.          0.         -0.          0.          0.         -0.         -0.          0.          0.          0.         -0.
   0.          0.         -0.         -0.         -0.          0.         -0.          0.         -0.         -0.         -0.          0.         -0.
   0.          0.        ]
 [-0.0133457   0.          0.         -0.00366587  0.00011232 -0.         -0.          0.          0.         -0.00128712 -0.         -0.          0.00000264
  -0.00106609 -0.          0.          0.          0.         -0.00023878  0.00053093 -0.          0.          0.00023135  0.         -0.          0.00019479
  -0.00009388 -0.00000815]
 [ 0.00643213 -0.         -0.          0.00176681 -0.00005413  0.          0.         -0.         -0.          0.00062034  0.          0.         -0.00000127
   0.00051382  0.         -0.         -0.         -0.          0.00011508 -0.00025589  0.         -0.         -0.0001115  -0.          0.         -0.00009388
   0.00004525  0.00000393]
 [ 0.00055865 -0.         -0.          0.00015345 -0.0000047   0.          0.         -0.         -0.          0.00005388  0.          0.         -0.00000011
   0.00004463  0.         -0.         -0.         -0.          0.00001    -0.00002222  0.         -0.         -0.00000968 -0.          0.         -0.00000815
   0.00000393  0.00000034]]
***** Start DFT Correlation for SUHF+DFT **********
tot grids = 20048
E(SUHF) =     -1.07616831
E_c(TPSS) =     -0.04023608
E(SUHF+DFT) =     -1.11640439
