

#INFO: **** input file is /share/home/srwang/ExSCF/test/pytest/scan_h2/scan_dft.py ****
#import phf
from pyscf import gto, scf
#import scipy
import numpy as np
import sys, os, contextlib

from pyphf import util, sudft

#xyz = 'h2.xyz' #sys.argv[1]
fch = 'test_uhf.fchk' #sys.argv[2]
#bas = '../h2.bas'
bas = 'cc-pvtz'

for r in np.arange(0.5, 2.6, 0.1):
    output = 'sudft_%.1f.out' % r
    os.system("echo '\n' > %s" % output)
    with open(output, 'a', encoding='utf-8') as f:
        with contextlib.redirect_stdout(f):
            xyz = '''H 0.0 0.0 0.0; H 0.0 0.0 %f'''%r
            mf = util.guess_from_fchk(xyz, bas, fch)
            #mf = util.guess(xyz, bas)
            #f.flush()
            mf2 = util.SUHF(mf)
            mf2.cut_no = False
            mf2.debug = False
            mf2.max_cycle = 50
            #mf2.output = 'sudft_%.1f.out'%r
            #mf2.kernel()
            
            mf3 = sudft.SUDFT(mf2)
            mf3.kernel()
                    #INFO: ******************** input file end ********************


System: uname_result(system='Linux', node='xc02n18', release='3.10.0-693.el7.x86_64', version='#1 SMP Thu Jul 6 19:56:57 EDT 2017', machine='x86_64', processor='x86_64')  Threads 24
Python 3.7.4 (default, Aug 13 2019, 20:35:49) 
[GCC 7.3.0]
numpy 1.17.2  scipy 1.4.1
Date: Fri Nov 20 22:49:47 2020
PySCF version 1.7.3
PySCF path  /share/apps/Python/Anaconda3-2019/lib/python3.7/site-packages/pyscf

[CONFIG] conf_file None
[INPUT] verbose = 4
[INPUT] num. atoms = 2
[INPUT] num. electrons = 2
[INPUT] charge = 0
[INPUT] spin (= nelec alpha-beta = 2S) = 0
[INPUT] symmetry False subgroup None
[INPUT] Mole.unit = angstrom
[INPUT]  1 H      0.000000000000   0.000000000000   0.000000000000 AA    0.000000000000   0.000000000000   0.000000000000 Bohr
[INPUT]  2 H      0.000000000000   0.000000000000   2.300000000000 AA    0.000000000000   0.000000000000   4.346370086500 Bohr

nuclear repulsion = 0.230077048226087
number of shells = 12
number of NR pGTOs = 32
number of NR cGTOs = 28
basis = cc-pvtz
ecp = {}
CPU time:      2615.89


******** <class 'pyscf.scf.uhf.UHF'> ********
method = UHF
initial guess = minao
damping factor = 0
level_shift factor = 0
DIIS = <class 'pyscf.scf.diis.CDIIS'>
diis_start_cycle = 1
diis_space = 8
SCF conv_tol = 1e-09
SCF conv_tol_grad = None
SCF max_cycles = 1
direct_scf = True
direct_scf_tol = 1e-13
chkfile to save SCF result = /share/home/srwang/ExSCF/test/pytest/scan_h2/tmpl4867ufb
max_memory 4000 MB (current use 145 MB)
number electrons alpha = 1  beta = 1
Set gradient conv threshold to 3.16228e-05
init E= -0.6483090022046
  alpha nocc = 1  HOMO = -0.232375855419327  LUMO = -0.128481373464624
  beta  nocc = 1  HOMO = -0.231076403221375  LUMO = -0.128316113913721
cycle= 1 E= -0.888187033621047  delta_E= -0.24  |g|= 0.032  |ddm|= 0.458
SCF not converged.
SCF energy = -0.888187033621047 after 1 cycles  <S^2> = 2.0537576e-07  2S+1 = 1.0000004


******** <class 'pyscf.scf.uhf.UHF'> ********
method = UHF
initial guess = minao
damping factor = 0
level_shift factor = 0
DIIS = <class 'pyscf.scf.diis.CDIIS'>
diis_start_cycle = 1
diis_space = 8
SCF conv_tol = 1e-09
SCF conv_tol_grad = None
SCF max_cycles = 1
direct_scf = True
direct_scf_tol = 1e-13
chkfile to save SCF result = /share/home/srwang/ExSCF/test/pytest/scan_h2/tmpl4867ufb
max_memory 4000 MB (current use 146 MB)
number electrons alpha = 1  beta = 1
Set gradient conv threshold to 3.16228e-05
init E= -0.859643029078367
  alpha nocc = 1  HOMO = -0.492045276371878  LUMO = -0.0426777033675134
  beta  nocc = 1  HOMO = -0.492045276371877  LUMO = -0.0426777033675146
cycle= 1 E= -0.99273361326367  delta_E= -0.133  |g|= 0.0533  |ddm|= 0.129
SCF not converged.
SCF energy = -0.99273361326367 after 1 cycles  <S^2> = 0.83099263  2S+1 = 2.0794159

******** <class 'pyphf.util.SUHF'> ********
SVD: S^(-1/2)
[[-0.19077967  0.28868982  0.07521358 -0.         -0.         -0.          0.         -0.1117935  -0.03104389  0.         -0.         -0.         -0.
  -0.         -0.         -0.          0.          0.03292534 -0.65480524 -0.6614934   0.11676971  0.         -0.         -0.          0.         -0.36977714
   0.8542036  -0.74979918]
 [-0.26252421  0.32212049  0.06426977 -0.          0.         -0.         -0.         -0.08477506 -0.0069514  -0.          0.         -0.          0.
  -0.          0.          0.         -0.          0.00710583 -0.04233118  0.19095141 -0.03111933 -0.          0.          0.         -0.          0.29022828
  -1.67357194  1.65696108]
 [-0.28154511  0.21803104  0.02751584  0.         -0.          0.          0.         -0.00536072  0.01054035 -0.          0.          0.         -0.
   0.         -0.          0.         -0.         -0.01578997  0.49456143  0.59839415 -0.12178014  0.         -0.         -0.          0.          0.23171582
   0.99127795 -1.54146824]
 [-0.         -0.          0.         -0.3607195   0.14162077  0.31086319 -0.25062514  0.          0.         -0.00954077 -0.00008934 -0.          0.
  -0.         -0.         -0.00012999 -0.00961507 -0.          0.         -0.         -0.         -0.79993609  0.0695869   0.43176642 -0.68400606 -0.
   0.         -0.        ]
 [ 0.          0.          0.         -0.14162077 -0.3607195   0.25062514  0.31086319  0.         -0.          0.00008934 -0.00954077  0.          0.
   0.          0.          0.00961507 -0.00012999  0.          0.         -0.         -0.          0.0695869   0.79993609 -0.68400606 -0.43176642 -0.
  -0.         -0.        ]
 [-0.03470744 -0.06521431 -0.3544823  -0.         -0.          0.         -0.         -0.42304159 -0.04743473 -0.         -0.         -0.         -0.
   0.          0.         -0.         -0.          0.04664374 -0.14054408  0.31321565 -0.78810671  0.         -0.          0.          0.         -0.76593036
   0.0010705   0.14565329]
 [-0.         -0.          0.         -0.36831667  0.14460347  0.30446644 -0.24546793  0.          0.         -0.00007716 -0.00000072  0.         -0.
   0.         -0.         -0.00000068 -0.00005042  0.         -0.          0.          0.          0.78357884 -0.06816397 -0.44091915  0.69850584  0.
  -0.          0.        ]
 [ 0.          0.          0.         -0.14460347 -0.36831667  0.24546793  0.30446644  0.         -0.          0.00000072 -0.00007716 -0.          0.
  -0.          0.          0.00005042 -0.00000068  0.          0.          0.          0.         -0.06816397 -0.78357884  0.69850584  0.44091915  0.
   0.          0.        ]
 [-0.06687552 -0.09203972 -0.39576462 -0.          0.          0.         -0.         -0.36307066 -0.00169039 -0.          0.          0.         -0.
   0.         -0.          0.          0.         -0.00054421  0.03143861 -0.21270669  0.71698356 -0.          0.         -0.         -0.          0.94166963
  -0.04181771 -0.30538209]
 [ 0.          0.          0.          0.         -0.          0.         -0.          0.          0.         -0.          0.          0.70709047  0.
   0.70712309  0.         -0.         -0.          0.          0.          0.         -0.         -0.         -0.          0.         -0.         -0.
   0.          0.        ]
 [ 0.         -0.          0.         -0.00192772 -0.00491007 -0.00342457 -0.00424767  0.          0.         -0.00661772  0.70670277  0.         -0.
  -0.         -0.          0.70728688 -0.00956191  0.          0.         -0.         -0.          0.00093201  0.0107139   0.00924879  0.00583813 -0.
   0.          0.        ]
 [-0.00930264 -0.00758936 -0.02132754  0.         -0.         -0.          0.          0.03360643  0.70294587  0.         -0.         -0.         -0.
  -0.         -0.         -0.          0.          0.70621131 -0.04616051  0.02144733 -0.04478208 -0.          0.         -0.          0.          0.07081426
   0.00628187 -0.02603531]
 [-0.         -0.          0.         -0.00491007  0.00192772 -0.00424767  0.00342457  0.         -0.          0.70670277  0.00661772 -0.         -0.
  -0.         -0.         -0.00956191 -0.70728688 -0.          0.         -0.         -0.         -0.0107139   0.00093201 -0.00583813  0.00924879 -0.
  -0.          0.        ]
 [ 0.          0.          0.         -0.          0.          0.         -0.          0.          0.          0.          0.         -0.          0.70709047
  -0.          0.70712309 -0.         -0.          0.          0.          0.          0.          0.         -0.         -0.         -0.          0.
   0.         -0.        ]
 [-0.19077967 -0.28868982  0.07521358  0.         -0.          0.          0.          0.1117935  -0.03104389 -0.          0.         -0.          0.
  -0.          0.          0.         -0.         -0.03292534 -0.65480524  0.6614934   0.11676971 -0.          0.         -0.         -0.          0.36977714
   0.8542036   0.74979918]
 [-0.26252421 -0.32212049  0.06426977  0.         -0.         -0.          0.          0.08477506 -0.0069514  -0.          0.          0.         -0.
   0.         -0.         -0.         -0.         -0.00710583 -0.04233118 -0.19095141 -0.03111933 -0.         -0.          0.          0.         -0.29022828
  -1.67357194 -1.65696108]
 [-0.28154511 -0.21803104  0.02751584  0.          0.         -0.         -0.          0.00536072  0.01054035  0.         -0.         -0.          0.
  -0.          0.         -0.          0.          0.01578997  0.49456143 -0.59839415 -0.12178014  0.         -0.         -0.          0.         -0.23171582
   0.99127795  1.54146824]
 [-0.         -0.          0.         -0.3607195   0.14162077 -0.31086319  0.25062514  0.         -0.         -0.00954077 -0.00008934  0.          0.
   0.          0.          0.00012999  0.00961507  0.          0.         -0.         -0.         -0.79993609  0.0695869  -0.43176642  0.68400606 -0.
  -0.          0.        ]
 [ 0.         -0.          0.         -0.14162077 -0.3607195  -0.25062514 -0.31086319  0.         -0.          0.00008934 -0.00954077 -0.          0.
   0.          0.         -0.00961507  0.00012999  0.         -0.          0.         -0.          0.0695869   0.79993609  0.68400606  0.43176642 -0.
   0.          0.        ]
 [ 0.03470744 -0.06521431  0.3544823  -0.         -0.         -0.          0.         -0.42304159  0.04743473  0.          0.         -0.          0.
  -0.          0.          0.          0.          0.04664374  0.14054408  0.31321565  0.78810671 -0.          0.         -0.         -0.         -0.76593036
  -0.0010705   0.14565329]
 [-0.         -0.          0.         -0.36831667  0.14460347 -0.30446644  0.24546793  0.         -0.         -0.00007716 -0.00000072  0.         -0.
   0.          0.          0.00000068  0.00005042  0.         -0.          0.          0.          0.78357884 -0.06816397  0.44091915 -0.69850584  0.
   0.          0.        ]
 [ 0.         -0.          0.         -0.14460347 -0.36831667 -0.24546793 -0.30446644  0.         -0.          0.00000072 -0.00007716 -0.         -0.
  -0.         -0.         -0.00005042  0.00000068  0.          0.         -0.          0.         -0.06816397 -0.78357884 -0.69850584 -0.44091915  0.
  -0.         -0.        ]
 [ 0.06687552 -0.09203972  0.39576462 -0.         -0.         -0.          0.         -0.36307066  0.00169039  0.         -0.          0.         -0.
   0.         -0.         -0.         -0.         -0.00054421 -0.03143861 -0.21270669 -0.71698356  0.         -0.          0.          0.          0.94166963
   0.04181771 -0.30538209]
 [ 0.          0.          0.         -0.          0.         -0.          0.          0.          0.         -0.         -0.          0.70709047  0.
  -0.70712309 -0.         -0.         -0.          0.          0.         -0.         -0.          0.          0.          0.          0.         -0.
  -0.         -0.        ]
 [-0.          0.         -0.          0.00192772  0.00491007 -0.00342457 -0.00424767 -0.          0.          0.00661772 -0.70670277  0.          0.
   0.          0.          0.70728688 -0.00956191  0.          0.          0.          0.         -0.00093201 -0.0107139   0.00924879  0.00583813  0.
   0.          0.        ]
 [-0.00930264  0.00758936 -0.02132754 -0.         -0.          0.          0.         -0.03360643  0.70294587  0.         -0.         -0.          0.
   0.          0.         -0.          0.         -0.70621131 -0.04616051 -0.02144733 -0.04478208  0.         -0.          0.          0.         -0.07081426
   0.00628187  0.02603531]
 [ 0.          0.         -0.          0.00491007 -0.00192772 -0.00424767  0.00342457 -0.          0.         -0.70670277 -0.00661772 -0.          0.
  -0.         -0.         -0.00956191 -0.70728688  0.          0.          0.          0.          0.0107139  -0.00093201 -0.00583813  0.00924879  0.
  -0.          0.        ]
 [ 0.          0.          0.          0.         -0.          0.         -0.          0.          0.          0.         -0.         -0.          0.70709047
   0.         -0.70712309  0.         -0.          0.          0.          0.          0.          0.          0.          0.          0.          0.
   0.          0.        ]]
C (ortho)
[[-0.83394381 -0.5194119  -0.00940244  0.14898307 -0.08402054 -0.          0.          0.         -0.          0.00996038  0.04326358  0.03320912 -0.00156799
   0.         -0.         -0.         -0.          0.         -0.          0.         -0.          0.00143559 -0.04803164 -0.         -0.          0.
   0.          0.00445392]
 [ 0.52921275 -0.77467234 -0.0608411   0.2588994   0.01003982 -0.          0.          0.          0.         -0.16417984 -0.03614789  0.11988178 -0.00946862
   0.         -0.         -0.          0.          0.         -0.          0.          0.          0.04028068 -0.00225041  0.         -0.         -0.
   0.         -0.06807873]
 [ 0.0934002   0.02244304 -0.029582   -0.04869752 -0.87042293 -0.          0.          0.         -0.          0.06769687  0.00878371  0.00000691  0.08863252
   0.         -0.         -0.         -0.          0.         -0.          0.          0.          0.03523749 -0.46322204 -0.         -0.          0.
   0.          0.03947165]
 [-0.         -0.          0.         -0.         -0.         -0.23705112 -0.76952394  0.10634046 -0.28820494 -0.          0.          0.          0.
   0.01068413  0.02527163  0.          0.         -0.         -0.         -0.01980257 -0.01088435 -0.          0.         -0.0022325  -0.46956082 -0.18802791
  -0.0126112  -0.        ]
 [-0.         -0.          0.         -0.          0.         -0.76952394  0.23705112 -0.28820494 -0.10634046  0.         -0.         -0.          0.
   0.02527163 -0.01068413  0.         -0.          0.         -0.         -0.01088435  0.01980257  0.          0.         -0.46956082  0.0022325   0.0126112
  -0.18802791 -0.        ]
 [-0.          0.         -0.          0.          0.          0.17726315  0.25731599  0.03940975 -0.80248196 -0.         -0.         -0.          0.
   0.00908871  0.01069487  0.          0.          0.          0.          0.02640399  0.00530184  0.         -0.          0.0545239   0.17070515 -0.44082504
  -0.1716792   0.        ]
 [-0.          0.         -0.          0.         -0.          0.25731599 -0.17726315 -0.80248196 -0.03940975 -0.          0.          0.         -0.
   0.01069487 -0.00908871 -0.         -0.         -0.          0.          0.00530184 -0.02640399 -0.          0.          0.17070515 -0.0545239   0.1716792
  -0.44082504  0.        ]
 [-0.08620688  0.06747094  0.19161898 -0.21012099 -0.07036116 -0.          0.          0.          0.         -0.8096816   0.01387977 -0.04532111 -0.02141952
  -0.         -0.         -0.         -0.          0.         -0.          0.          0.          0.1197653  -0.02586996  0.          0.          0.
   0.         -0.47842865]
 [-0.00512529  0.00388099  0.02012098  0.01934843  0.02222071  0.          0.         -0.         -0.         -0.00405015  0.09211842  0.04829775  0.96058745
   0.          0.          0.         -0.         -0.         -0.         -0.         -0.          0.20297398  0.15465924  0.          0.         -0.
  -0.          0.00215739]
 [-0.          0.         -0.          0.          0.         -0.00055443  0.00653363 -0.00192609  0.00212234 -0.         -0.         -0.         -0.
   0.01383337  0.83824369  0.          0.         -0.         -0.         -0.34279279 -0.41981022  0.         -0.         -0.02072178  0.05207313  0.01398079
  -0.00457899  0.        ]
 [ 0.         -0.         -0.         -0.          0.          0.00653363  0.00055443  0.00212234  0.00192609  0.          0.         -0.         -0.
   0.83824369 -0.01383337  0.          0.          0.         -0.         -0.41981022  0.34279279  0.          0.          0.05207313  0.02072178  0.00457899
   0.01398079 -0.        ]
 [ 0.         -0.          0.         -0.          0.         -0.          0.          0.         -0.         -0.          0.          0.         -0.
  -0.         -0.          0.71689009  0.00048696  0.68190294 -0.14517833 -0.         -0.          0.         -0.         -0.          0.         -0.
   0.          0.        ]
 [-0.         -0.          0.          0.         -0.         -0.         -0.          0.         -0.          0.          0.         -0.          0.
  -0.         -0.         -0.00048696  0.71689009  0.14517833  0.68190294 -0.         -0.          0.          0.         -0.         -0.         -0.
   0.         -0.        ]
 [ 0.         -0.          0.         -0.          0.         -0.          0.         -0.         -0.         -0.          0.          0.         -0.
  -0.         -0.          0.69718587  0.00047358 -0.70117522  0.14928143 -0.          0.          0.         -0.         -0.          0.         -0.
  -0.          0.        ]
 [ 0.          0.          0.         -0.          0.         -0.         -0.          0.          0.         -0.          0.          0.         -0.
  -0.         -0.         -0.00047358  0.69718587 -0.14928143 -0.70117522  0.         -0.          0.         -0.         -0.         -0.          0.
   0.          0.        ]
 [ 0.         -0.         -0.         -0.          0.         -0.0028036  -0.00017341  0.0065265   0.00565613  0.         -0.         -0.         -0.
   0.54259899 -0.02138054  0.         -0.         -0.          0.          0.63714143 -0.54501979  0.          0.         -0.02314232 -0.00860119  0.01098834
   0.03634099 -0.        ]
 [ 0.          0.         -0.          0.          0.         -0.00017341  0.0028036   0.00565613 -0.0065265  -0.         -0.         -0.         -0.
  -0.02138054 -0.54259899 -0.         -0.         -0.         -0.         -0.54501979 -0.63714143  0.         -0.         -0.00860119  0.02314232 -0.03634099
   0.01098834  0.        ]
 [ 0.00365585  0.00705891 -0.03996849  0.03735343 -0.0035558   0.          0.         -0.         -0.         -0.05802766 -0.02824686  0.07081279  0.20891322
   0.          0.          0.          0.          0.         -0.         -0.         -0.         -0.95234566 -0.05093942 -0.          0.          0.
   0.         -0.1858764 ]
 [ 0.02585866  0.17075778  0.5688242   0.54570278  0.04335473 -0.          0.          0.          0.         -0.00560083  0.50788063  0.24238685 -0.05817464
   0.         -0.         -0.          0.          0.          0.          0.          0.         -0.00448646 -0.16324273 -0.         -0.          0.
   0.          0.01276295]
 [ 0.07554143 -0.27141905  0.5119413  -0.4352829   0.01533835  0.          0.         -0.         -0.          0.03593471  0.24085647 -0.54476188  0.03052485
  -0.          0.          0.          0.         -0.         -0.         -0.         -0.         -0.1432656   0.0167885  -0.          0.          0.
   0.          0.30170769]
 [-0.00879932 -0.01753155 -0.10058056 -0.09665192  0.47438017  0.         -0.         -0.          0.         -0.04497893 -0.06518864 -0.02804508  0.12451705
   0.          0.         -0.         -0.          0.         -0.          0.          0.          0.06139715 -0.85127118 -0.         -0.          0.
   0.          0.0642239 ]
 [-0.          0.         -0.          0.          0.         -0.07606612  0.465243   -0.13604054  0.12837858  0.         -0.          0.         -0.
  -0.0020757   0.03403771  0.          0.         -0.         -0.         -0.01824748 -0.02625672 -0.          0.          0.35343736 -0.72035536 -0.28723876
   0.11938855 -0.        ]
 [ 0.         -0.          0.         -0.          0.         -0.465243   -0.07606612 -0.12837858 -0.13604054  0.          0.         -0.         -0.
  -0.03403771 -0.0020757  -0.          0.         -0.          0.          0.02625672 -0.01824748  0.         -0.          0.72035536  0.35343736  0.11938855
   0.28723876  0.        ]
 [-0.         -0.         -0.          0.         -0.          0.15732533 -0.08346667 -0.46796559 -0.077695   -0.          0.          0.          0.
  -0.01092783  0.00729992 -0.          0.          0.         -0.         -0.00974803  0.03005672  0.         -0.         -0.31002509  0.06081634 -0.20286885
   0.77531455 -0.        ]
 [-0.          0.          0.          0.          0.          0.08346667  0.15732533  0.077695   -0.46796559 -0.         -0.          0.         -0.
  -0.00729992 -0.01092783 -0.         -0.         -0.         -0.         -0.03005672 -0.00974803  0.          0.         -0.06081634 -0.31002509  0.77531455
   0.20286885 -0.        ]
 [ 0.03488429 -0.06232036  0.02320986 -0.00032107  0.04050333  0.          0.         -0.         -0.          0.49437702  0.14351589 -0.30841993 -0.00623195
  -0.          0.          0.         -0.         -0.          0.         -0.          0.          0.09667799 -0.05949095 -0.         -0.          0.
  -0.         -0.7871893 ]
 [-0.02437793  0.07286421  0.39190799  0.41161745 -0.02201918 -0.         -0.         -0.          0.          0.00238165 -0.74527225 -0.33000177  0.0728656
   0.         -0.          0.         -0.         -0.         -0.          0.         -0.          0.01476045 -0.02689839 -0.         -0.          0.
   0.          0.00159055]
 [ 0.00359546  0.11245553 -0.45466781  0.44322666 -0.02167425 -0.          0.          0.          0.         -0.24826382  0.30172246 -0.64404732  0.0071839
   0.          0.          0.          0.         -0.          0.          0.         -0.         -0.02738654  0.00862043 -0.         -0.          0.
   0.          0.12391172]]
[[-0.83394381 -0.5194119  -0.00940244  0.14898307  0.08402054  0.         -0.          0.          0.         -0.00996038  0.04326358  0.03320912 -0.00156799
   0.          0.         -0.          0.          0.          0.          0.          0.          0.00143559  0.04803164  0.          0.         -0.
  -0.         -0.00445392]
 [-0.52921275  0.77467234  0.0608411  -0.2588994   0.01003982 -0.          0.         -0.         -0.         -0.16417984  0.03614789 -0.11988178  0.00946862
   0.          0.         -0.          0.         -0.          0.         -0.          0.         -0.04028068 -0.00225041 -0.         -0.          0.
  -0.         -0.06807873]
 [ 0.0934002   0.02244304 -0.029582   -0.04869752  0.87042293  0.         -0.          0.          0.         -0.06769687  0.00878371  0.00000691  0.08863252
   0.         -0.          0.          0.          0.          0.          0.         -0.          0.03523749  0.46322204 -0.          0.         -0.
   0.         -0.03947165]
 [ 0.         -0.         -0.          0.          0.         -0.75690796 -0.27468285 -0.12597634 -0.28017912 -0.          0.         -0.         -0.
  -0.02058898 -0.01813559  0.          0.          0.         -0.          0.01727499  0.01456659  0.         -0.         -0.25441834 -0.39466905 -0.13412265
  -0.13238071 -0.        ]
 [-0.         -0.          0.         -0.         -0.          0.27468285 -0.75690796  0.28017912 -0.12597634  0.         -0.          0.          0.
  -0.01813559  0.02058898  0.          0.          0.          0.          0.01456659 -0.01727499  0.         -0.         -0.39466905  0.25441834 -0.13238071
   0.13412265 -0.        ]
 [-0.         -0.          0.         -0.         -0.         -0.24826842 -0.18972753  0.09469615  0.79784902 -0.         -0.          0.          0.
   0.01282834  0.00569374 -0.         -0.          0.          0.          0.02484546  0.01039151  0.          0.         -0.13777468 -0.11459163  0.42082066
   0.21612598  0.        ]
 [ 0.          0.         -0.          0.          0.          0.18972753 -0.24826842 -0.79784902  0.09469615 -0.          0.         -0.         -0.
   0.00569374 -0.01282834  0.         -0.         -0.          0.          0.01039151 -0.02484546  0.          0.         -0.11459163  0.13777468  0.21612598
  -0.42082066  0.        ]
 [ 0.08620688 -0.06747094 -0.19161898  0.21012099 -0.07036116  0.         -0.          0.         -0.         -0.8096816  -0.01387977  0.04532111  0.02141952
   0.          0.         -0.         -0.         -0.         -0.         -0.          0.         -0.1197653  -0.02586996  0.          0.          0.
   0.         -0.47842865]
 [-0.00512529  0.00388099  0.02012098  0.01934843 -0.02222071  0.         -0.          0.          0.          0.00405015  0.09211842  0.04829775  0.96058745
  -0.         -0.          0.          0.          0.          0.          0.         -0.          0.20297398 -0.15465924  0.         -0.          0.
  -0.         -0.00215739]
 [-0.          0.          0.          0.          0.          0.00655301 -0.0002318   0.00206796  0.00198436  0.          0.         -0.         -0.
  -0.37607968 -0.74927159 -0.          0.          0.          0.          0.25352726  0.47903178 -0.         -0.          0.01053586  0.05504543  0.0058433
   0.01350132  0.        ]
 [-0.          0.         -0.         -0.         -0.          0.0002318   0.00655301 -0.00198436  0.00206796  0.         -0.          0.          0.
  -0.74927159  0.37607968 -0.         -0.          0.          0.          0.47903178 -0.25352726  0.          0.          0.05504543 -0.01053586  0.01350132
  -0.0058433  -0.        ]
 [ 0.          0.         -0.          0.         -0.          0.         -0.          0.          0.         -0.          0.         -0.         -0.
  -0.         -0.          0.70573474  0.12597661  0.69710254  0.01078965 -0.         -0.         -0.         -0.         -0.         -0.          0.
   0.          0.        ]
 [ 0.         -0.         -0.         -0.         -0.         -0.         -0.          0.         -0.         -0.         -0.          0.         -0.
   0.          0.         -0.12597661  0.70573474 -0.01078965  0.69710254 -0.         -0.          0.          0.         -0.         -0.         -0.
   0.          0.        ]
 [ 0.          0.         -0.          0.         -0.          0.         -0.          0.          0.         -0.          0.         -0.         -0.
   0.         -0.         -0.68633714 -0.12251405  0.7168044   0.01109459 -0.         -0.         -0.         -0.         -0.         -0.          0.
   0.          0.        ]
 [-0.          0.          0.         -0.         -0.          0.         -0.          0.         -0.         -0.          0.         -0.          0.
   0.         -0.          0.12251405 -0.68633714 -0.01109459  0.7168044  -0.          0.          0.          0.         -0.          0.         -0.
   0.         -0.        ]
 [-0.          0.         -0.         -0.         -0.          0.00003504  0.00280874  0.0061206  -0.00609305  0.         -0.          0.         -0.
   0.4796167  -0.25463427 -0.          0.          0.         -0.          0.73189258 -0.4090587  -0.          0.          0.02413629 -0.0051949  -0.03448854
   0.01587299 -0.        ]
 [-0.         -0.          0.          0.         -0.         -0.00280874  0.00003504  0.00609305  0.0061206   0.          0.         -0.         -0.
  -0.25463427 -0.4796167  -0.         -0.         -0.          0.         -0.4090587  -0.73189258 -0.          0.         -0.0051949  -0.02413629  0.01587299
   0.03448854  0.        ]
 [-0.00365585 -0.00705891  0.03996849 -0.03735343 -0.0035558  -0.          0.         -0.         -0.         -0.05802766  0.02824686 -0.07081279 -0.20891322
  -0.         -0.          0.          0.          0.         -0.          0.         -0.          0.95234566 -0.05093942  0.          0.          0.
   0.         -0.1858764 ]
 [ 0.02585866  0.17075778  0.5688242   0.54570278 -0.04335473 -0.         -0.          0.         -0.          0.00560083  0.50788063  0.24238685 -0.05817464
   0.          0.         -0.          0.         -0.          0.         -0.          0.         -0.00448646  0.16324273 -0.          0.         -0.
   0.         -0.01276295]
 [-0.07554143  0.27141905 -0.5119413   0.4352829   0.01533835  0.         -0.          0.          0.          0.03593471 -0.24085647  0.54476188 -0.03052485
  -0.         -0.          0.         -0.          0.         -0.          0.         -0.          0.1432656   0.0167885   0.         -0.         -0.
  -0.          0.30170769]
 [-0.00879932 -0.01753155 -0.10058056 -0.09665192 -0.47438017  0.          0.         -0.          0.          0.04497893 -0.06518864 -0.02804508  0.12451705
   0.         -0.          0.          0.          0.          0.         -0.          0.          0.06139715  0.85127118 -0.          0.         -0.
   0.         -0.0642239 ]
 [ 0.         -0.          0.         -0.         -0.          0.4684261  -0.053048    0.14457578  0.11868416  0.          0.         -0.         -0.
  -0.01289473 -0.03156898  0.          0.          0.         -0.          0.01272679  0.02933282  0.         -0.         -0.08944669 -0.79738893 -0.10110528
  -0.29417249 -0.        ]
 [-0.          0.          0.         -0.         -0.         -0.053048   -0.4684261   0.11868416 -0.14457578  0.         -0.          0.         -0.
   0.03156898 -0.01289473  0.         -0.         -0.         -0.         -0.02933282  0.01272679 -0.          0.          0.79738893 -0.08944669  0.29417249
  -0.10110528  0.        ]
 [-0.          0.         -0.          0.          0.          0.09111777 -0.15302123 -0.46148807  0.10980471 -0.          0.          0.          0.
  -0.00667959  0.01131766 -0.          0.          0.         -0.         -0.01546928  0.02755235 -0.         -0.          0.22866307 -0.21800776 -0.44581711
   0.66596962 -0.        ]
 [ 0.         -0.          0.         -0.          0.         -0.15302123 -0.09111777  0.10980471  0.46148807 -0.          0.         -0.         -0.
  -0.01131766 -0.00667959  0.          0.         -0.         -0.         -0.02755235 -0.01546928 -0.         -0.          0.21800776  0.22866307 -0.66596962
  -0.44581711 -0.        ]
 [-0.03488429  0.06232036 -0.02320986  0.00032107  0.04050333  0.          0.         -0.          0.          0.49437702 -0.14351589  0.30841993  0.00623195
   0.          0.         -0.         -0.         -0.          0.         -0.          0.         -0.09667799 -0.05949095 -0.         -0.          0.
  -0.         -0.7871893 ]
 [-0.02437793  0.07286421  0.39190799  0.41161745  0.02201918 -0.         -0.          0.         -0.         -0.00238165 -0.74527225 -0.33000177  0.0728656
  -0.         -0.          0.          0.          0.          0.          0.         -0.          0.01476045  0.02689839  0.          0.         -0.
   0.         -0.00159055]
 [-0.00359546 -0.11245553  0.45466781 -0.44322666 -0.02167425 -0.          0.         -0.         -0.         -0.24826382 -0.30172246  0.64404732 -0.0071839
  -0.         -0.          0.          0.          0.          0.          0.         -0.          0.02738654  0.00862043 -0.         -0.         -0.
  -0.          0.12391172]]
grids:  [0.06237655 0.31939555 0.74529195 1.28265786 1.85893479 2.39630071 2.8221971  3.07921611] 
weights:  [0.15900941 0.34931531 0.49276925 0.56970235 0.56970235 0.49276925 0.34931531 0.15900941]
S = 0.0, Sz = 0.0
Wigner small d:  1
value : [1. 1. 1. 1. 1. 1. 1. 1.]
**** Start Cycle 1 ****
dm (ortho)
[[[ 0.69546228 -0.4413337  -0.07789052 ... -0.02909154  0.02032983 -0.00299841]
  [-0.4413337   0.28006613  0.04942858 ...  0.01846121 -0.01290111  0.00190276]
  [-0.07789052  0.04942858  0.0087236  ...  0.0032582  -0.0022769   0.00033582]
  ...
  [-0.02909154  0.01846121  0.0032582  ...  0.00121691 -0.00085041  0.00012542]
  [ 0.02032983 -0.01290111 -0.0022769  ... -0.00085041  0.00059428 -0.00008765]
  [-0.00299841  0.00190276  0.00033582 ...  0.00012542 -0.00008765  0.00001293]]

 [[ 0.69546228  0.4413337  -0.07789052 ...  0.02909154  0.02032983  0.00299841]
  [ 0.4413337   0.28006613 -0.04942858 ...  0.01846121  0.01290111  0.00190276]
  [-0.07789052 -0.04942858  0.0087236  ... -0.0032582  -0.0022769  -0.00033582]
  ...
  [ 0.02909154  0.01846121 -0.0032582  ...  0.00121691  0.00085041  0.00012542]
  [ 0.02032983  0.01290111 -0.0022769  ...  0.00085041  0.00059428  0.00008765]
  [ 0.00299841  0.00190276 -0.00033582 ...  0.00012542  0.00008765  0.00001293]]]
Fock (ortho)
 (array([[-0.25103734,  0.27847645,  0.17158938,  0.        , -0.        , -0.        ,  0.        , -0.07386301, -0.02147805, -0.        ,  0.        ,
         0.        , -0.        ,  0.        ,  0.        ,  0.        ,  0.        ,  0.00864358,  0.1618047 , -0.02915983,  0.10745503, -0.        ,
         0.        , -0.        , -0.        ,  0.00189272, -0.08075982,  0.0111176 ],
       [ 0.27847645,  0.00670771, -0.0632721 ,  0.        ,  0.        , -0.        ,  0.        ,  0.26789706,  0.00773131,  0.        , -0.        ,
         0.        , -0.        ,  0.        ,  0.        ,  0.        ,  0.        , -0.04767665,  0.09054187, -0.39402923, -0.00736521,  0.        ,
        -0.        , -0.        ,  0.        ,  0.03412315,  0.01052863, -0.16124262],
       [ 0.17158938, -0.0632721 ,  1.36157519, -0.        , -0.        ,  0.        , -0.        , -0.04565063,  0.02835806, -0.        ,  0.        ,
        -0.        ,  0.        , -0.        , -0.        ,  0.        , -0.        ,  0.0030695 ,  0.23749542,  0.01455752,  1.29788553, -0.        ,
         0.        , -0.        , -0.        , -0.00125619,  0.05673135, -0.00005301],
       [ 0.        ,  0.        , -0.        ,  1.54961018, -0.        ,  0.05889748, -0.01850396,  0.        , -0.        ,  0.00336088,  0.00135596,
         0.        , -0.        , -0.        , -0.        ,  0.00050315, -0.0013343 ,  0.        ,  0.        , -0.        ,  0.        ,  1.21791794,
        -0.60476426,  0.00132197, -0.00691286,  0.        , -0.        ,  0.        ],
       [-0.        ,  0.        , -0.        , -0.        ,  1.54961018,  0.01850396,  0.05889748,  0.        , -0.        , -0.00135596,  0.00336088,
        -0.        , -0.        , -0.        , -0.        ,  0.0013343 ,  0.00050315,  0.        ,  0.        , -0.        ,  0.        , -0.60476426,
        -1.21791794, -0.00691286, -0.00132197,  0.        ,  0.        ,  0.        ],
       [-0.        , -0.        ,  0.        ,  0.05889748,  0.01850396,  1.62310436, -0.        , -0.        ,  0.        ,  0.00039934,  0.00032818,
        -0.        ,  0.        , -0.        ,  0.        ,  0.00726734, -0.00926771, -0.        , -0.        , -0.        , -0.        ,  0.00609594,
        -0.00585566, -0.15603763, -1.34547944, -0.        ,  0.        , -0.        ],
       [ 0.        ,  0.        , -0.        , -0.01850396,  0.05889748, -0.        ,  1.62310436,  0.        ,  0.        , -0.00032818,  0.00039934,
         0.        ,  0.        ,  0.        ,  0.        ,  0.00926771,  0.00726734,  0.        , -0.        , -0.        , -0.        , -0.00585566,
        -0.00609594, -1.34547944,  0.15603763,  0.        , -0.        , -0.        ],
       [-0.07386301,  0.26789706, -0.04565063,  0.        ,  0.        , -0.        ,  0.        ,  1.75061997, -0.00703076, -0.        ,  0.        ,
         0.        ,  0.        , -0.        , -0.        ,  0.        ,  0.        , -0.00388856, -0.03236701, -0.54197685, -0.00994266, -0.        ,
         0.        ,  0.        , -0.        ,  1.24614464, -0.00063017, -0.04000079],
       [-0.02147805,  0.00773131,  0.02835806, -0.        , -0.        ,  0.        ,  0.        , -0.00703076,  3.40316926, -0.        , -0.        ,
        -0.        , -0.        , -0.        ,  0.        , -0.        , -0.        , -0.02461162, -0.13290237, -0.00250313, -0.06370538,  0.        ,
        -0.        ,  0.        ,  0.        , -0.00180762,  0.02736706, -0.00034127],
       [-0.        ,  0.        , -0.        ,  0.00336088, -0.00135596,  0.00039934, -0.00032818, -0.        , -0.        ,  3.44187324, -0.        ,
         0.        ,  0.        ,  0.        , -0.        ,  0.00058302,  0.02547448, -0.        , -0.        ,  0.        , -0.        , -0.02846265,
         0.00220765,  0.00013084, -0.00020304,  0.        , -0.        , -0.        ],
       [ 0.        , -0.        ,  0.        ,  0.00135596,  0.00336088,  0.00032818,  0.00039934,  0.        , -0.        , -0.        ,  3.44187324,
        -0.        , -0.        , -0.        , -0.        , -0.02547448,  0.00058302, -0.        ,  0.        , -0.        , -0.        ,  0.00220765,
         0.02846265, -0.00020304, -0.00013084, -0.        ,  0.        ,  0.        ],
       [ 0.        ,  0.        , -0.        ,  0.        , -0.        , -0.        ,  0.        ,  0.        , -0.        ,  0.        , -0.        ,
         3.44960161,  0.        , -0.02558948, -0.        ,  0.        ,  0.        , -0.        ,  0.        , -0.        , -0.        , -0.        ,
        -0.        ,  0.        , -0.        , -0.        ,  0.        ,  0.        ],
       [-0.        , -0.        ,  0.        , -0.        , -0.        ,  0.        ,  0.        ,  0.        , -0.        ,  0.        , -0.        ,
         0.        ,  3.44960161,  0.        , -0.02558948,  0.        , -0.        ,  0.        , -0.        ,  0.        ,  0.        ,  0.        ,
        -0.        ,  0.        ,  0.        , -0.        , -0.        , -0.        ],
       [ 0.        ,  0.        , -0.        , -0.        , -0.        , -0.        ,  0.        , -0.        , -0.        ,  0.        , -0.        ,
        -0.02558948,  0.        ,  3.45070029, -0.        ,  0.        ,  0.        , -0.        ,  0.        , -0.        , -0.        , -0.        ,
        -0.        ,  0.        , -0.        , -0.        ,  0.        ,  0.        ],
       [ 0.        ,  0.        , -0.        , -0.        , -0.        ,  0.        ,  0.        , -0.        ,  0.        , -0.        , -0.        ,
        -0.        , -0.02558948, -0.        ,  3.45070029,  0.        ,  0.        , -0.        ,  0.        , -0.        , -0.        , -0.        ,
        -0.        ,  0.        ,  0.        ,  0.        ,  0.        ,  0.        ],
       [ 0.        ,  0.        ,  0.        ,  0.00050315,  0.0013343 ,  0.00726734,  0.00926771,  0.        , -0.        ,  0.00058302, -0.02547448,
         0.        ,  0.        ,  0.        ,  0.        ,  3.45917432, -0.        , -0.        ,  0.        , -0.        , -0.        , -0.00004339,
        -0.00043116,  0.02534347,  0.01552252, -0.        ,  0.        ,  0.        ],
       [ 0.        ,  0.        , -0.        , -0.0013343 ,  0.00050315, -0.00926771,  0.00726734,  0.        , -0.        ,  0.02547448,  0.00058302,
         0.        , -0.        ,  0.        ,  0.        , -0.        ,  3.45917432, -0.        , -0.        ,  0.        , -0.        , -0.00043116,
         0.00004339,  0.01552252, -0.02534347,  0.        , -0.        , -0.        ],
       [ 0.00864358, -0.04767665,  0.0030695 ,  0.        ,  0.        , -0.        ,  0.        , -0.00388856, -0.02461162, -0.        , -0.        ,
        -0.        ,  0.        , -0.        , -0.        , -0.        , -0.        ,  3.48221412,  0.00690027,  0.1237321 ,  0.0019133 , -0.        ,
         0.        , -0.        , -0.        ,  0.20117556, -0.00053932, -0.11109248],
       [ 0.1618047 ,  0.09054187,  0.23749542,  0.        ,  0.        , -0.        , -0.        , -0.03236701, -0.13290237, -0.        ,  0.        ,
         0.        , -0.        ,  0.        ,  0.        ,  0.        , -0.        ,  0.00690027,  1.18114737, -0.05091455,  0.37711942, -0.        ,
         0.        , -0.        , -0.        , -0.02043368, -0.95573988, -0.01151045],
       [-0.02915983, -0.39402923,  0.01455752, -0.        , -0.        , -0.        , -0.        , -0.54197685, -0.00250313,  0.        , -0.        ,
        -0.        ,  0.        , -0.        , -0.        , -0.        ,  0.        ,  0.1237321 , -0.05091455,  1.56301837,  0.01666822,  0.        ,
        -0.        ,  0.        ,  0.        , -0.49826146,  0.01878926,  1.07600839],
       [ 0.10745503, -0.00736521,  1.29788553,  0.        ,  0.        , -0.        , -0.        , -0.00994266, -0.06370538, -0.        , -0.        ,
        -0.        ,  0.        , -0.        , -0.        , -0.        , -0.        ,  0.0019133 ,  0.37711942,  0.01666822,  3.01990261,  0.        ,
         0.        , -0.        , -0.        , -0.01513031,  0.22592602,  0.00358485],
       [-0.        ,  0.        , -0.        ,  1.21791794, -0.60476426,  0.00609594, -0.00585566, -0.        ,  0.        , -0.02846265,  0.00220765,
        -0.        ,  0.        , -0.        , -0.        , -0.00004339, -0.00043116, -0.        , -0.        ,  0.        ,  0.        ,  3.04308127,
        -0.        ,  0.01329317, -0.01749211,  0.        , -0.        ,  0.        ],
       [ 0.        , -0.        ,  0.        , -0.60476426, -1.21791794, -0.00585566, -0.00609594,  0.        , -0.        ,  0.00220765,  0.02846265,
        -0.        , -0.        , -0.        , -0.        , -0.00043116,  0.00004339,  0.        ,  0.        , -0.        ,  0.        , -0.        ,
         3.04308127,  0.01749211,  0.01329317, -0.        , -0.        , -0.        ],
       [-0.        , -0.        , -0.        ,  0.00132197, -0.00691286, -0.15603763, -1.34547944,  0.        ,  0.        ,  0.00013084, -0.00020304,
         0.        ,  0.        ,  0.        ,  0.        ,  0.02534347,  0.01552252, -0.        , -0.        ,  0.        , -0.        ,  0.01329317,
         0.01749211,  3.11380764, -0.        , -0.        ,  0.        ,  0.        ],
       [-0.        ,  0.        , -0.        , -0.00691286, -0.00132197, -1.34547944,  0.15603763, -0.        ,  0.        , -0.00020304, -0.00013084,
        -0.        ,  0.        , -0.        ,  0.        ,  0.01552252, -0.02534347, -0.        , -0.        ,  0.        , -0.        , -0.01749211,
         0.01329317, -0.        ,  3.11380764, -0.        , -0.        ,  0.        ],
       [ 0.00189272,  0.03412315, -0.00125619,  0.        ,  0.        , -0.        ,  0.        ,  1.24614464, -0.00180762,  0.        , -0.        ,
        -0.        , -0.        , -0.        ,  0.        , -0.        ,  0.        ,  0.20117556, -0.02043368, -0.49826146, -0.01513031,  0.        ,
        -0.        , -0.        , -0.        ,  3.18890513,  0.01010964,  0.07287468],
       [-0.08075982,  0.01052863,  0.05673135, -0.        ,  0.        ,  0.        , -0.        , -0.00063017,  0.02736706, -0.        ,  0.        ,
         0.        , -0.        ,  0.        ,  0.        ,  0.        , -0.        , -0.00053932, -0.95573988,  0.01878926,  0.22592602, -0.        ,
        -0.        ,  0.        , -0.        ,  0.01010964,  1.80796958,  0.01690445],
       [ 0.0111176 , -0.16124262, -0.00005301,  0.        ,  0.        , -0.        , -0.        , -0.04000079, -0.00034127, -0.        ,  0.        ,
         0.        , -0.        ,  0.        ,  0.        ,  0.        , -0.        , -0.11109248, -0.01151045,  1.07600839,  0.00358485,  0.        ,
        -0.        ,  0.        ,  0.        ,  0.07287468,  0.01690445,  1.59161725]]), array([[-0.25103734, -0.27847645,  0.17158938,  0.        , -0.        , -0.        ,  0.        ,  0.07386301, -0.02147805, -0.        ,  0.        ,
         0.        ,  0.        ,  0.        , -0.        ,  0.        , -0.        , -0.00864358,  0.1618047 ,  0.02915983,  0.10745503, -0.        ,
         0.        , -0.        , -0.        , -0.00189272, -0.08075982, -0.0111176 ],
       [-0.27847645,  0.00670771,  0.0632721 ,  0.        , -0.        , -0.        ,  0.        ,  0.26789706, -0.00773131, -0.        ,  0.        ,
         0.        ,  0.        ,  0.        , -0.        ,  0.        , -0.        , -0.04767665, -0.09054187, -0.39402923,  0.00736521,  0.        ,
        -0.        , -0.        ,  0.        ,  0.03412315, -0.01052863, -0.16124262],
       [ 0.17158938,  0.0632721 ,  1.36157519, -0.        , -0.        ,  0.        , -0.        ,  0.04565063,  0.02835806, -0.        ,  0.        ,
        -0.        , -0.        , -0.        ,  0.        ,  0.        , -0.        , -0.0030695 ,  0.23749542, -0.01455752,  1.29788553, -0.        ,
         0.        , -0.        , -0.        ,  0.00125619,  0.05673135,  0.00005301],
       [ 0.        ,  0.        , -0.        ,  1.54961018,  0.        , -0.05889748,  0.01850396,  0.        , -0.        ,  0.00336088,  0.00135596,
         0.        , -0.        ,  0.        , -0.        , -0.00050315,  0.0013343 ,  0.        ,  0.        , -0.        ,  0.        ,  1.21791794,
        -0.60476426, -0.00132197,  0.00691286,  0.        , -0.        ,  0.        ],
       [-0.        , -0.        , -0.        ,  0.        ,  1.54961018, -0.01850396, -0.05889748,  0.        , -0.        , -0.00135596,  0.00336088,
        -0.        , -0.        , -0.        , -0.        , -0.0013343 , -0.00050315,  0.        ,  0.        , -0.        ,  0.        , -0.60476426,
        -1.21791794,  0.00691286,  0.00132197,  0.        ,  0.        ,  0.        ],
       [-0.        , -0.        ,  0.        , -0.05889748, -0.01850396,  1.62310436,  0.        , -0.        ,  0.        , -0.00039934, -0.00032818,
        -0.        ,  0.        , -0.        ,  0.        ,  0.00726734, -0.00926771, -0.        , -0.        , -0.        , -0.        , -0.00609594,
         0.00585566, -0.15603763, -1.34547944, -0.        ,  0.        , -0.        ],
       [ 0.        ,  0.        , -0.        ,  0.01850396, -0.05889748,  0.        ,  1.62310436,  0.        ,  0.        ,  0.00032818, -0.00039934,
         0.        ,  0.        ,  0.        ,  0.        ,  0.00926771,  0.00726734,  0.        , -0.        , -0.        , -0.        ,  0.00585566,
         0.00609594, -1.34547944,  0.15603763,  0.        , -0.        , -0.        ],
       [ 0.07386301,  0.26789706,  0.04565063,  0.        ,  0.        , -0.        ,  0.        ,  1.75061997,  0.00703076, -0.        ,  0.        ,
         0.        , -0.        , -0.        ,  0.        ,  0.        , -0.        , -0.00388856,  0.03236701, -0.54197685,  0.00994266, -0.        ,
         0.        ,  0.        , -0.        ,  1.24614464,  0.00063017, -0.04000079],
       [-0.02147805, -0.00773131,  0.02835806, -0.        , -0.        ,  0.        ,  0.        ,  0.00703076,  3.40316926,  0.        , -0.        ,
        -0.        ,  0.        , -0.        , -0.        , -0.        , -0.        ,  0.02461162, -0.13290237,  0.00250313, -0.06370538,  0.        ,
        -0.        ,  0.        ,  0.        ,  0.00180762,  0.02736706,  0.00034127],
       [-0.        , -0.        , -0.        ,  0.00336088, -0.00135596, -0.00039934,  0.00032818, -0.        ,  0.        ,  3.44187324,  0.        ,
        -0.        , -0.        , -0.        ,  0.        , -0.00058302, -0.02547448,  0.        , -0.        ,  0.        , -0.        , -0.02846265,
         0.00220765, -0.00013084,  0.00020304,  0.        , -0.        , -0.        ],
       [ 0.        ,  0.        ,  0.        ,  0.00135596,  0.00336088, -0.00032818, -0.00039934,  0.        , -0.        ,  0.        ,  3.44187324,
         0.        ,  0.        ,  0.        ,  0.        ,  0.02547448, -0.00058302, -0.        ,  0.        , -0.        , -0.        ,  0.00220765,
         0.02846265,  0.00020304,  0.00013084, -0.        ,  0.        ,  0.        ],
       [ 0.        ,  0.        , -0.        ,  0.        , -0.        , -0.        ,  0.        ,  0.        , -0.        , -0.        ,  0.        ,
         3.44960161, -0.        ,  0.02558948,  0.        ,  0.        , -0.        , -0.        ,  0.        , -0.        , -0.        , -0.        ,
        -0.        ,  0.        , -0.        , -0.        ,  0.        ,  0.        ],
       [ 0.        ,  0.        , -0.        , -0.        , -0.        ,  0.        ,  0.        , -0.        ,  0.        , -0.        ,  0.        ,
        -0.        ,  3.44960161, -0.        ,  0.02558948, -0.        ,  0.        ,  0.        ,  0.        , -0.        , -0.        ,  0.        ,
        -0.        ,  0.        ,  0.        ,  0.        ,  0.        ,  0.        ],
       [ 0.        ,  0.        , -0.        ,  0.        , -0.        , -0.        ,  0.        , -0.        , -0.        , -0.        ,  0.        ,
         0.02558948, -0.        ,  3.45070029,  0.        , -0.        , -0.        , -0.        ,  0.        , -0.        , -0.        , -0.        ,
        -0.        ,  0.        , -0.        , -0.        ,  0.        ,  0.        ],
       [-0.        , -0.        ,  0.        , -0.        , -0.        ,  0.        ,  0.        ,  0.        , -0.        ,  0.        ,  0.        ,
         0.        ,  0.02558948,  0.        ,  3.45070029, -0.        , -0.        , -0.        , -0.        ,  0.        ,  0.        , -0.        ,
        -0.        ,  0.        ,  0.        , -0.        , -0.        , -0.        ],
       [ 0.        ,  0.        ,  0.        , -0.00050315, -0.0013343 ,  0.00726734,  0.00926771,  0.        , -0.        , -0.00058302,  0.02547448,
         0.        , -0.        , -0.        , -0.        ,  3.45917432,  0.        , -0.        ,  0.        , -0.        , -0.        ,  0.00004339,
         0.00043116,  0.02534347,  0.01552252, -0.        ,  0.        ,  0.        ],
       [-0.        , -0.        , -0.        ,  0.0013343 , -0.00050315, -0.00926771,  0.00726734, -0.        , -0.        , -0.02547448, -0.00058302,
        -0.        ,  0.        , -0.        , -0.        ,  0.        ,  3.45917432, -0.        , -0.        ,  0.        , -0.        ,  0.00043116,
        -0.00004339,  0.01552252, -0.02534347,  0.        , -0.        , -0.        ],
       [-0.00864358, -0.04767665, -0.0030695 ,  0.        ,  0.        , -0.        ,  0.        , -0.00388856,  0.02461162,  0.        , -0.        ,
        -0.        ,  0.        , -0.        , -0.        , -0.        , -0.        ,  3.48221412, -0.00690027,  0.1237321 , -0.0019133 , -0.        ,
         0.        , -0.        , -0.        ,  0.20117556,  0.00053932, -0.11109248],
       [ 0.1618047 , -0.09054187,  0.23749542,  0.        ,  0.        , -0.        , -0.        ,  0.03236701, -0.13290237, -0.        ,  0.        ,
         0.        ,  0.        ,  0.        , -0.        ,  0.        , -0.        , -0.00690027,  1.18114737,  0.05091455,  0.37711942, -0.        ,
         0.        , -0.        , -0.        ,  0.02043368, -0.95573988,  0.01151045],
       [ 0.02915983, -0.39402923, -0.01455752, -0.        , -0.        , -0.        , -0.        , -0.54197685,  0.00250313,  0.        , -0.        ,
        -0.        , -0.        , -0.        ,  0.        , -0.        ,  0.        ,  0.1237321 ,  0.05091455,  1.56301837, -0.01666822,  0.        ,
        -0.        ,  0.        ,  0.        , -0.49826146, -0.01878926,  1.07600839],
       [ 0.10745503,  0.00736521,  1.29788553,  0.        ,  0.        , -0.        , -0.        ,  0.00994266, -0.06370538, -0.        , -0.        ,
        -0.        , -0.        , -0.        ,  0.        , -0.        , -0.        , -0.0019133 ,  0.37711942, -0.01666822,  3.01990261,  0.        ,
         0.        , -0.        , -0.        ,  0.01513031,  0.22592602, -0.00358485],
       [-0.        ,  0.        , -0.        ,  1.21791794, -0.60476426, -0.00609594,  0.00585566, -0.        ,  0.        , -0.02846265,  0.00220765,
        -0.        ,  0.        , -0.        , -0.        ,  0.00004339,  0.00043116, -0.        , -0.        ,  0.        ,  0.        ,  3.04308127,
        -0.        , -0.01329317,  0.01749211,  0.        , -0.        ,  0.        ],
       [ 0.        , -0.        ,  0.        , -0.60476426, -1.21791794,  0.00585566,  0.00609594,  0.        , -0.        ,  0.00220765,  0.02846265,
        -0.        , -0.        , -0.        , -0.        ,  0.00043116, -0.00004339,  0.        ,  0.        , -0.        ,  0.        , -0.        ,
         3.04308127, -0.01749211, -0.01329317, -0.        , -0.        , -0.        ],
       [-0.        , -0.        , -0.        , -0.00132197,  0.00691286, -0.15603763, -1.34547944,  0.        ,  0.        , -0.00013084,  0.00020304,
         0.        ,  0.        ,  0.        ,  0.        ,  0.02534347,  0.01552252, -0.        , -0.        ,  0.        , -0.        , -0.01329317,
        -0.01749211,  3.11380764, -0.        , -0.        ,  0.        ,  0.        ],
       [-0.        ,  0.        , -0.        ,  0.00691286,  0.00132197, -1.34547944,  0.15603763, -0.        ,  0.        ,  0.00020304,  0.00013084,
        -0.        ,  0.        , -0.        ,  0.        ,  0.01552252, -0.02534347, -0.        , -0.        ,  0.        , -0.        ,  0.01749211,
        -0.01329317, -0.        ,  3.11380764, -0.        , -0.        ,  0.        ],
       [-0.00189272,  0.03412315,  0.00125619,  0.        ,  0.        , -0.        ,  0.        ,  1.24614464,  0.00180762,  0.        , -0.        ,
        -0.        ,  0.        , -0.        , -0.        , -0.        ,  0.        ,  0.20117556,  0.02043368, -0.49826146,  0.01513031,  0.        ,
        -0.        , -0.        , -0.        ,  3.18890513, -0.01010964,  0.07287468],
       [-0.08075982, -0.01052863,  0.05673135, -0.        ,  0.        ,  0.        , -0.        ,  0.00063017,  0.02736706, -0.        ,  0.        ,
         0.        ,  0.        ,  0.        , -0.        ,  0.        , -0.        ,  0.00053932, -0.95573988, -0.01878926,  0.22592602, -0.        ,
        -0.        ,  0.        , -0.        , -0.01010964,  1.80796958, -0.01690445],
       [-0.0111176 , -0.16124262,  0.00005301,  0.        ,  0.        , -0.        , -0.        , -0.04000079,  0.00034127, -0.        ,  0.        ,
         0.        ,  0.        ,  0.        , -0.        ,  0.        , -0.        , -0.11109248,  0.01151045,  1.07600839, -0.00358485,  0.        ,
        -0.        ,  0.        ,  0.        ,  0.07287468, -0.01690445,  1.59161725]]))
E(UHF) =    -1.222811
NO eigenvalue
[-1. -0. -0. -0. -0. -0. -0. -0. -0. -0. -0. -0. -0. -0.  0.  0.  0.  0.  0.  0.  0.  0.  0.  0.  0.  0.  0.  0.] [-1. -0. -0. -0. -0. -0. -0. -0. -0. -0. -0. -0. -0. -0. -0. -0. -0. -0.  0.  0.  0.  0.  0.  0.  0.  0.  0.  0.]
NO vec
[[ 0.83394381  0.         -0.39008006 ...  0.          0.          0.        ]
 [-0.52921275  0.         -0.54867939 ...  0.          0.          0.        ]
 [-0.0934002   0.         -0.40426553 ...  0.          0.          0.        ]
 ...
 [ 0.          0.03488429  0.         ...  0.44890368  0.02041674 -0.12249286]
 [ 0.          0.02437793  0.         ...  0.52664352  0.33205162 -0.04990636]
 [ 0.          0.00359546  0.         ... -0.14788218  0.00121026 -0.00258849]]
dm(NO)
[[ 1.  0. -0. ...  0.  0.  0.]
 [ 0.  1.  0. ...  0. -0.  0.]
 [-0.  0.  0. ...  0.  0.  0.]
 ...
 [ 0.  0.  0. ... -0. -0. -0.]
 [ 0.  0.  0. ...  0. -0.  0.]
 [ 0.  0.  0. ...  0.  0.  0.]]
D(g) (NO)
[[ 0.99951369  0.01281958 -0.         ... -0.00022035 -0.00237701 -0.02612038]
 [-0.01281958  0.99951369  0.01805067 ...  0.         -0.         -0.        ]
 [-0.         -0.01805067  0.99951369 ... -0.00014981 -0.01873885 -0.00715705]
 ...
 [ 0.00022035  0.          0.00014981 ...  0.99951369 -0.          0.        ]
 [ 0.00237701  0.          0.01873885 ... -0.          0.99951369  0.        ]
 [ 0.02612038  0.          0.00715705 ...  0.          0.          0.99951369]]
...
N(g) (NO)
[[ 1.000322   -0.01282995]
 [ 0.01282995  1.000322  ]]
...
P(g) (NO)
[[ 1.         -0.         -0.         ... -0.          0.         -0.        ]
 [-0.          1.          0.         ...  0.         -0.          0.        ]
 [-0.00023159 -0.01805648  0.         ... -0.          0.         -0.        ]
 ...
 [ 0.00022042 -0.00000283 -0.         ... -0.          0.         -0.        ]
 [ 0.00237777 -0.0000305  -0.         ... -0.          0.         -0.        ]
 [ 0.02612879 -0.00033512 -0.         ... -0.          0.         -0.        ]]
...
Pg_ortho
[[ 0.69562613 -0.44143768 -0.07790887 ...  0.0005344   0.00037345  0.00005508]
 [-0.44108454  0.27990802  0.04940067 ...  0.00081261  0.00056787  0.00008375]
 [-0.07790887  0.04944022  0.00872565 ... -0.00005985 -0.00004183 -0.00000617]
 ...
 [ 0.00128052 -0.00081261 -0.00014342 ...  0.00121623  0.00084993  0.00012535]
 [-0.00037345  0.00023699  0.00004183 ...  0.00085061  0.00059442  0.00008767]
 [ 0.00013198 -0.00008375 -0.00001478 ...  0.00012535  0.0000876   0.00001292]]
G(g) (NO)
[[ 0.25773031 -0.00195554 -0.05601225 ... -0.00038158  0.00047805 -0.00088494]
 [ 0.00195554  0.25773031  0.00036941 ...  0.0264854   0.01331176 -0.06995207]
 [-0.0559615   0.00839543  0.71104456 ...  0.00092049 -0.00072704  0.00091602]
 ...
 [ 0.00126296  0.02648427 -0.00063696 ...  0.67850391  0.02785143 -0.02855588]
 [-0.00085416  0.01330535 -0.00176729 ...  0.02785034  0.7720422  -0.03747418]
 [-0.01603383 -0.06987612 -0.00106885 ... -0.02855103 -0.03746825  0.85950303]]
...
C(NO)
[[-1.          0.          0.         ...  0.          0.          0.        ]
 [ 0.         -1.          0.         ...  0.         -0.          0.        ]
 [ 0.          0.          0.72680137 ...  0.          0.          0.        ]
 ...
 [ 0.         -0.          0.         ... -0.          0.         -0.56792377]
 [ 0.         -0.          0.         ... -0.         -0.         -0.0473414 ]
 [ 0.         -0.          0.         ...  0.         -0.         -0.04392453]]
detC 1.0
detNg [1.0008087  1.02146461 1.12378775 1.42333678 2.14393083 3.58217995 5.26257806 5.88874675]
xg [0.99919195 0.97898643 0.88984775 0.70257441 0.46643296 0.27915962 0.19002093 0.16981542]
ciS 1.1690073679803472
[[-0.74025795  0.          0.03509319 ...  0.          0.          0.        ]
 [ 0.         -0.74025795  0.         ... -0.02322498 -0.00601379  0.03549628]
 [ 0.03509319  0.          0.40214514 ...  0.          0.          0.        ]
 ...
 [ 0.         -0.02322498  0.         ...  1.14082346  0.07867026  0.13276347]
 [ 0.         -0.00601379  0.         ...  0.07867026  0.51746917 -0.14972701]
 [ 0.          0.03549628  0.         ...  0.13276347 -0.14972701 -0.47589195]]
ciH -1.4287563017262075
S2 = -0.000000
X(g)
[[ 2.          0.         -0.00023159 ... -0.00022042 -0.00237777 -0.02612879]
 [ 0.          2.          0.01805648 ... -0.00000283 -0.0000305  -0.00033512]
 [-0.00023159 -0.01805648  0.         ...  0.          0.          0.        ]
 ...
 [ 0.00022042 -0.00000283  0.         ...  0.          0.          0.        ]
 [ 0.00237777 -0.0000305   0.         ...  0.          0.          0.        ]
 [ 0.02612879 -0.00033512  0.         ...  0.          0.          0.        ]]
X(g) int
[[ 2.         -0.         -0.20356723 ... -0.00474747 -0.05121319 -0.56277038]
 [ 0.          2.          0.38890626 ... -0.00248499 -0.02680679 -0.29457384]
 [-0.20356723 -0.38890626  0.         ...  0.          0.          0.        ]
 ...
 [ 0.00474747 -0.00248499  0.         ...  0.          0.          0.        ]
 [ 0.05121319 -0.02680679  0.         ...  0.          0.          0.        ]
 [ 0.56277038 -0.29457384  0.         ...  0.          0.          0.        ]]
Hsp + Hph =  -1.2221961476552707
Feff (mod,ortho)
[[-0.22833481  0.28893253  0.16858475 ...  0.          0.          0.        ]
 [ 0.28893253 -0.01570537 -0.06414999 ...  0.          0.          0.        ]
 [ 0.16858475 -0.06414999  1.36196344 ...  0.          0.          0.        ]
 ...
 [ 0.          0.          0.         ...  3.18899156 -0.01000529  0.07281722]
 [ 0.          0.          0.         ... -0.01000529  1.80807321 -0.01694008]
 [ 0.          0.          0.         ...  0.07281722 -0.01694008  1.59160449]]
E(SUHF) =     -0.99211910
e_a, e_b
[-0.4888321   0.05207928  0.37128696  0.49390637  0.65284127  0.72436066  0.72436066  0.84241416  0.84241416  1.05398417  2.46776873  2.60715624  3.40157558
  3.42287083  3.42287083  3.42455558  3.42455558  3.47574632  3.47574632  3.47634502  3.47634502  3.48580307  3.82532193  3.83128126  3.83128126  3.93337907
  3.93337907  4.1829177 ] [-0.4888321   0.05207928  0.37128696  0.49390637  0.65284127  0.72436066  0.72436066  0.84241416  0.84241416  1.05398417  2.46776873  2.60715624  3.40157558
  3.42287083  3.42287083  3.42455558  3.42455558  3.47574632  3.47574632  3.47634502  3.47634502  3.48580307  3.82532193  3.83128126  3.83128126  3.93337907
  3.93337907  4.1829177 ]
P_a, P_b
[[ 0.60200151 -0.47139452 -0.07315195  0.         -0.          0.         -0.          0.07910801  0.00398224  0.         -0.         -0.          0.
  -0.         -0.         -0.         -0.         -0.00368495 -0.02337777 -0.06252271  0.0098383   0.         -0.         -0.          0.         -0.03080315
   0.01441079 -0.0059386 ]
 [-0.47139452  0.36912332  0.0572813  -0.          0.         -0.          0.         -0.06194517 -0.00311827 -0.          0.          0.         -0.
   0.          0.          0.          0.          0.00288549  0.01830586  0.04895812 -0.00770383 -0.          0.          0.         -0.          0.02412027
  -0.01128431  0.00465019]
 [-0.07315195  0.0572813   0.00888903 -0.          0.         -0.          0.         -0.00961278 -0.0004839  -0.          0.          0.         -0.
   0.          0.          0.          0.          0.00044778  0.00284074  0.00759742 -0.0011955  -0.          0.          0.         -0.          0.00374303
  -0.00175112  0.00072163]
 [ 0.         -0.         -0.          0.         -0.          0.         -0.          0.          0.          0.         -0.         -0.          0.
  -0.         -0.         -0.         -0.         -0.         -0.         -0.          0.          0.         -0.         -0.          0.         -0.
   0.         -0.        ]
 [-0.          0.          0.         -0.          0.         -0.          0.         -0.         -0.         -0.          0.          0.         -0.
   0.          0.          0.          0.          0.          0.          0.         -0.         -0.          0.          0.         -0.          0.
  -0.          0.        ]
 [ 0.         -0.         -0.          0.         -0.          0.         -0.          0.          0.          0.         -0.         -0.          0.
  -0.         -0.         -0.         -0.         -0.         -0.         -0.          0.          0.         -0.         -0.          0.         -0.
   0.         -0.        ]
 [-0.          0.          0.         -0.          0.         -0.          0.         -0.         -0.         -0.          0.          0.         -0.
   0.          0.          0.          0.          0.          0.          0.         -0.         -0.          0.          0.         -0.          0.
  -0.          0.        ]
 [ 0.07910801 -0.06194517 -0.00961278  0.         -0.          0.         -0.          0.01039545  0.0005233   0.         -0.         -0.          0.
  -0.         -0.         -0.         -0.         -0.00048423 -0.00307203 -0.008216    0.00129283  0.         -0.         -0.          0.         -0.00404779
   0.0018937  -0.00078038]
 [ 0.00398224 -0.00311827 -0.0004839   0.         -0.          0.         -0.          0.0005233   0.00002634  0.         -0.         -0.          0.
  -0.         -0.         -0.         -0.         -0.00002438 -0.00015464 -0.00041359  0.00006508  0.         -0.         -0.          0.         -0.00020376
   0.00009533 -0.00003928]
 [ 0.         -0.         -0.          0.         -0.          0.         -0.          0.          0.          0.         -0.         -0.          0.
  -0.         -0.         -0.         -0.         -0.         -0.         -0.          0.          0.         -0.         -0.          0.         -0.
   0.         -0.        ]
 [-0.          0.          0.         -0.          0.         -0.          0.         -0.         -0.         -0.          0.          0.         -0.
   0.          0.          0.          0.          0.          0.          0.         -0.         -0.          0.          0.         -0.          0.
  -0.          0.        ]
 [-0.          0.          0.         -0.          0.         -0.          0.         -0.         -0.         -0.          0.          0.         -0.
   0.          0.          0.          0.          0.          0.          0.         -0.         -0.          0.          0.         -0.          0.
  -0.          0.        ]
 [ 0.         -0.         -0.          0.         -0.          0.         -0.          0.          0.          0.         -0.         -0.          0.
  -0.         -0.         -0.         -0.         -0.         -0.         -0.          0.          0.         -0.         -0.          0.         -0.
   0.         -0.        ]
 [-0.          0.          0.         -0.          0.         -0.          0.         -0.         -0.         -0.          0.          0.         -0.
   0.          0.          0.          0.          0.          0.          0.         -0.         -0.          0.          0.         -0.          0.
  -0.          0.        ]
 [-0.          0.          0.         -0.          0.         -0.          0.         -0.         -0.         -0.          0.          0.         -0.
   0.          0.          0.          0.          0.          0.          0.         -0.         -0.          0.          0.         -0.          0.
  -0.          0.        ]
 [-0.          0.          0.         -0.          0.         -0.          0.         -0.         -0.         -0.          0.          0.         -0.
   0.          0.          0.          0.          0.          0.          0.         -0.         -0.          0.          0.         -0.          0.
  -0.          0.        ]
 [-0.          0.          0.         -0.          0.         -0.          0.         -0.         -0.         -0.          0.          0.         -0.
   0.          0.          0.          0.          0.          0.          0.         -0.         -0.          0.          0.         -0.          0.
  -0.          0.        ]
 [-0.00368495  0.00288549  0.00044778 -0.          0.         -0.          0.         -0.00048423 -0.00002438 -0.          0.          0.         -0.
   0.          0.          0.          0.          0.00002256  0.0001431   0.00038271 -0.00006022 -0.          0.          0.         -0.          0.00018855
  -0.00008821  0.00003635]
 [-0.02337777  0.01830586  0.00284074 -0.          0.         -0.          0.         -0.00307203 -0.00015464 -0.          0.          0.         -0.
   0.          0.          0.          0.          0.0001431   0.00090784  0.00242797 -0.00038205 -0.          0.          0.         -0.          0.00119619
  -0.00055962  0.00023062]
 [-0.06252271  0.04895812  0.00759742 -0.          0.         -0.          0.         -0.008216   -0.00041359 -0.          0.          0.         -0.
   0.          0.          0.          0.          0.00038271  0.00242797  0.00649349 -0.00102179 -0.          0.          0.         -0.          0.00319916
  -0.00149668  0.00061677]
 [ 0.0098383  -0.00770383 -0.0011955   0.         -0.          0.         -0.          0.00129283  0.00006508  0.         -0.         -0.          0.
  -0.         -0.         -0.         -0.         -0.00006022 -0.00038205 -0.00102179  0.00016078  0.         -0.         -0.          0.         -0.0005034
   0.00023551 -0.00009705]
 [ 0.         -0.         -0.          0.         -0.          0.         -0.          0.          0.          0.         -0.         -0.          0.
  -0.         -0.         -0.         -0.         -0.         -0.         -0.          0.          0.         -0.         -0.          0.         -0.
   0.         -0.        ]
 [-0.          0.          0.         -0.          0.         -0.          0.         -0.         -0.         -0.          0.          0.         -0.
   0.          0.          0.          0.          0.          0.          0.         -0.         -0.          0.          0.         -0.          0.
  -0.          0.        ]
 [-0.          0.          0.         -0.          0.         -0.          0.         -0.         -0.         -0.          0.          0.         -0.
   0.          0.          0.          0.          0.          0.          0.         -0.         -0.          0.          0.         -0.          0.
  -0.          0.        ]
 [ 0.         -0.         -0.          0.         -0.          0.         -0.          0.          0.          0.         -0.         -0.          0.
  -0.         -0.         -0.         -0.         -0.         -0.         -0.          0.          0.         -0.         -0.          0.         -0.
   0.         -0.        ]
 [-0.03080315  0.02412027  0.00374303 -0.          0.         -0.          0.         -0.00404779 -0.00020376 -0.          0.          0.         -0.
   0.          0.          0.          0.          0.00018855  0.00119619  0.00319916 -0.0005034  -0.          0.          0.         -0.          0.00157613
  -0.00073737  0.00030387]
 [ 0.01441079 -0.01128431 -0.00175112  0.         -0.          0.         -0.          0.0018937   0.00009533  0.         -0.         -0.          0.
  -0.         -0.         -0.         -0.         -0.00008821 -0.00055962 -0.00149668  0.00023551  0.         -0.         -0.          0.         -0.00073737
   0.00034497 -0.00014216]
 [-0.0059386   0.00465019  0.00072163 -0.          0.         -0.          0.         -0.00078038 -0.00003928 -0.          0.          0.         -0.
   0.          0.          0.          0.          0.00003635  0.00023062  0.00061677 -0.00009705 -0.          0.          0.         -0.          0.00030387
  -0.00014216  0.00005858]] 
 [[ 0.60200151  0.47139452 -0.07315195 -0.          0.          0.         -0.         -0.07910801  0.00398224  0.          0.         -0.         -0.
  -0.          0.          0.          0.          0.00368495 -0.02337777  0.06252271  0.0098383  -0.          0.         -0.         -0.          0.03080315
   0.01441079  0.0059386 ]
 [ 0.47139452  0.36912332 -0.0572813  -0.          0.          0.         -0.         -0.06194517  0.00311827  0.          0.         -0.         -0.
  -0.          0.          0.          0.          0.00288549 -0.01830586  0.04895812  0.00770383 -0.          0.         -0.         -0.          0.02412027
   0.01128431  0.00465019]
 [-0.07315195 -0.0572813   0.00888903  0.         -0.         -0.          0.          0.00961278 -0.0004839  -0.         -0.          0.          0.
   0.         -0.         -0.         -0.         -0.00044778  0.00284074 -0.00759742 -0.0011955   0.         -0.          0.          0.         -0.00374303
  -0.00175112 -0.00072163]
 [-0.         -0.          0.          0.         -0.         -0.          0.          0.         -0.         -0.         -0.          0.          0.
   0.         -0.         -0.         -0.         -0.          0.         -0.         -0.          0.         -0.          0.          0.         -0.
  -0.         -0.        ]
 [ 0.          0.         -0.         -0.          0.          0.         -0.         -0.          0.          0.          0.         -0.         -0.
  -0.          0.          0.          0.          0.         -0.          0.          0.         -0.          0.         -0.         -0.          0.
   0.          0.        ]
 [ 0.          0.         -0.         -0.          0.          0.         -0.         -0.          0.          0.          0.         -0.         -0.
  -0.          0.          0.          0.          0.         -0.          0.          0.         -0.          0.         -0.         -0.          0.
   0.          0.        ]
 [-0.         -0.          0.          0.         -0.         -0.          0.          0.         -0.         -0.         -0.          0.          0.
   0.         -0.         -0.         -0.         -0.          0.         -0.         -0.          0.         -0.          0.          0.         -0.
  -0.         -0.        ]
 [-0.07910801 -0.06194517  0.00961278  0.         -0.         -0.          0.          0.01039545 -0.0005233  -0.         -0.          0.          0.
   0.         -0.         -0.         -0.         -0.00048423  0.00307203 -0.008216   -0.00129283  0.         -0.          0.          0.         -0.00404779
  -0.0018937  -0.00078038]
 [ 0.00398224  0.00311827 -0.0004839  -0.          0.          0.         -0.         -0.0005233   0.00002634  0.          0.         -0.         -0.
  -0.          0.          0.          0.          0.00002438 -0.00015464  0.00041359  0.00006508 -0.          0.         -0.         -0.          0.00020376
   0.00009533  0.00003928]
 [ 0.          0.         -0.         -0.          0.          0.         -0.         -0.          0.          0.          0.         -0.         -0.
  -0.          0.          0.          0.          0.         -0.          0.          0.         -0.          0.         -0.         -0.          0.
   0.          0.        ]
 [ 0.          0.         -0.         -0.          0.          0.         -0.         -0.          0.          0.          0.         -0.         -0.
  -0.          0.          0.          0.          0.         -0.          0.          0.         -0.          0.         -0.         -0.          0.
   0.          0.        ]
 [-0.         -0.          0.          0.         -0.         -0.          0.          0.         -0.         -0.         -0.          0.          0.
   0.         -0.         -0.         -0.         -0.          0.         -0.         -0.          0.         -0.          0.          0.         -0.
  -0.         -0.        ]
 [-0.         -0.          0.          0.         -0.         -0.          0.          0.         -0.         -0.         -0.          0.          0.
   0.         -0.         -0.         -0.         -0.          0.         -0.         -0.          0.         -0.          0.          0.         -0.
  -0.         -0.        ]
 [-0.         -0.          0.          0.         -0.         -0.          0.          0.         -0.         -0.         -0.          0.          0.
   0.         -0.         -0.         -0.         -0.          0.         -0.         -0.          0.         -0.          0.          0.         -0.
  -0.         -0.        ]
 [ 0.          0.         -0.         -0.          0.          0.         -0.         -0.          0.          0.          0.         -0.         -0.
  -0.          0.          0.          0.          0.         -0.          0.          0.         -0.          0.         -0.         -0.          0.
   0.          0.        ]
 [ 0.          0.         -0.         -0.          0.          0.         -0.         -0.          0.          0.          0.         -0.         -0.
  -0.          0.          0.          0.          0.         -0.          0.          0.         -0.          0.         -0.         -0.          0.
   0.          0.        ]
 [ 0.          0.         -0.         -0.          0.          0.         -0.         -0.          0.          0.          0.         -0.         -0.
  -0.          0.          0.          0.          0.         -0.          0.          0.         -0.          0.         -0.         -0.          0.
   0.          0.        ]
 [ 0.00368495  0.00288549 -0.00044778 -0.          0.          0.         -0.         -0.00048423  0.00002438  0.          0.         -0.         -0.
  -0.          0.          0.          0.          0.00002256 -0.0001431   0.00038271  0.00006022 -0.          0.         -0.         -0.          0.00018855
   0.00008821  0.00003635]
 [-0.02337777 -0.01830586  0.00284074  0.         -0.         -0.          0.          0.00307203 -0.00015464 -0.         -0.          0.          0.
   0.         -0.         -0.         -0.         -0.0001431   0.00090784 -0.00242797 -0.00038205  0.         -0.          0.          0.         -0.00119619
  -0.00055962 -0.00023062]
 [ 0.06252271  0.04895812 -0.00759742 -0.          0.          0.         -0.         -0.008216    0.00041359  0.          0.         -0.         -0.
  -0.          0.          0.          0.          0.00038271 -0.00242797  0.00649349  0.00102179 -0.          0.         -0.         -0.          0.00319916
   0.00149668  0.00061677]
 [ 0.0098383   0.00770383 -0.0011955  -0.          0.          0.         -0.         -0.00129283  0.00006508  0.          0.         -0.         -0.
  -0.          0.          0.          0.          0.00006022 -0.00038205  0.00102179  0.00016078 -0.          0.         -0.         -0.          0.0005034
   0.00023551  0.00009705]
 [-0.         -0.          0.          0.         -0.         -0.          0.          0.         -0.         -0.         -0.          0.          0.
   0.         -0.         -0.         -0.         -0.          0.         -0.         -0.          0.         -0.          0.          0.         -0.
  -0.         -0.        ]
 [ 0.          0.         -0.         -0.          0.          0.         -0.         -0.          0.          0.          0.         -0.         -0.
  -0.          0.          0.          0.          0.         -0.          0.          0.         -0.          0.         -0.         -0.          0.
   0.          0.        ]
 [-0.         -0.          0.          0.         -0.         -0.          0.          0.         -0.         -0.         -0.          0.          0.
   0.         -0.         -0.         -0.         -0.          0.         -0.         -0.          0.         -0.          0.          0.         -0.
  -0.         -0.        ]
 [-0.         -0.          0.          0.         -0.         -0.          0.          0.         -0.         -0.         -0.          0.          0.
   0.         -0.         -0.         -0.         -0.          0.         -0.         -0.          0.         -0.          0.          0.         -0.
  -0.         -0.        ]
 [ 0.03080315  0.02412027 -0.00374303 -0.          0.          0.         -0.         -0.00404779  0.00020376  0.          0.         -0.         -0.
  -0.          0.          0.          0.          0.00018855 -0.00119619  0.00319916  0.0005034  -0.          0.         -0.         -0.          0.00157613
   0.00073737  0.00030387]
 [ 0.01441079  0.01128431 -0.00175112 -0.          0.          0.         -0.         -0.0018937   0.00009533  0.          0.         -0.         -0.
  -0.          0.          0.          0.          0.00008821 -0.00055962  0.00149668  0.00023551 -0.          0.         -0.         -0.          0.00073737
   0.00034497  0.00014216]
 [ 0.0059386   0.00465019 -0.00072163 -0.          0.          0.         -0.         -0.00078038  0.00003928  0.          0.         -0.         -0.
  -0.          0.          0.          0.          0.00003635 -0.00023062  0.00061677  0.00009705 -0.          0.         -0.         -0.          0.00030387
   0.00014216  0.00005858]]
**** Start Cycle 2 ****
dm (ortho)
[...]
Feff (mod,ortho)
[[-0.22142274  0.30253612  0.1751415  ...  0.          0.          0.        ]
 [ 0.30253612 -0.01211344 -0.0725709  ...  0.          0.          0.        ]
 [ 0.1751415  -0.0725709   1.36813077 ...  0.          0.          0.        ]
 ...
 [ 0.          0.          0.         ...  3.19169574 -0.01100796  0.07253258]
 [ 0.          0.          0.         ... -0.01100796  1.81216803 -0.01864954]
 [ 0.          0.          0.         ...  0.07253258 -0.01864954  1.59589462]]
E(SUHF) =     -1.00747933
e_a, e_b
[-0.49894979  0.06315159  0.36819235  0.50303106  0.65614089  0.72553413  0.72553413  0.84786394  0.84786394  1.05701806  2.47135015  2.62189778  3.40837583
  3.42762866  3.42762866  3.42966462  3.42966462  3.48525228  3.48525228  3.48554405  3.48554405  3.49206817  3.83314499  3.83804966  3.83804966  3.94693109
  3.94693109  4.19388092] [-0.49894979  0.06315159  0.36819235  0.50303106  0.65614089  0.72553413  0.72553413  0.84786394  0.84786394  1.05701806  2.47135015  2.62189778  3.40837583
  3.42762866  3.42762866  3.42966462  3.42966462  3.48525228  3.48525228  3.48554405  3.48554405  3.49206817  3.83314499  3.83804966  3.83804966  3.94693109
  3.94693109  4.19388092]
P_a, P_b
[[ 0.59053691 -0.47298493 -0.07787677  0.          0.          0.          0.          0.08255967  0.00476294 -0.         -0.         -0.          0.
  -0.         -0.         -0.         -0.         -0.00415971 -0.01149359 -0.05899992  0.01088086 -0.          0.         -0.         -0.         -0.03155084
   0.01906697 -0.00877205]
 [-0.47298493  0.37883279  0.06237466 -0.         -0.         -0.         -0.         -0.06612538 -0.00381483  0.          0.          0.         -0.
   0.          0.          0.          0.          0.00333168  0.00920568  0.04725542 -0.00871492  0.         -0.          0.          0.          0.02527035
  -0.01527151  0.00702589]
 [-0.07787677  0.06237466  0.01026996 -0.         -0.         -0.         -0.         -0.01088752 -0.00062811  0.          0.          0.         -0.
   0.          0.          0.          0.          0.00054856  0.00151571  0.00778059 -0.00143491  0.         -0.          0.          0.          0.00416075
  -0.00251445  0.00115681]
 [ 0.         -0.         -0.          0.          0.          0.          0.          0.          0.         -0.         -0.         -0.          0.
  -0.         -0.         -0.         -0.         -0.         -0.         -0.          0.         -0.          0.         -0.         -0.         -0.
   0.         -0.        ]
 [ 0.         -0.         -0.          0.          0.          0.          0.          0.          0.         -0.         -0.         -0.          0.
  -0.         -0.         -0.         -0.         -0.         -0.         -0.          0.         -0.          0.         -0.         -0.         -0.
   0.         -0.        ]
 [ 0.         -0.         -0.          0.          0.          0.          0.          0.          0.         -0.         -0.         -0.          0.
  -0.         -0.         -0.         -0.         -0.         -0.         -0.          0.         -0.          0.         -0.         -0.         -0.
   0.         -0.        ]
 [ 0.         -0.         -0.          0.          0.          0.          0.          0.          0.         -0.         -0.         -0.          0.
  -0.         -0.         -0.         -0.         -0.         -0.         -0.          0.         -0.          0.         -0.         -0.         -0.
   0.         -0.        ]
 [ 0.08255967 -0.06612538 -0.01088752  0.          0.          0.          0.          0.01154221  0.00066588 -0.         -0.         -0.          0.
  -0.         -0.         -0.         -0.         -0.00058155 -0.00160685 -0.00824845  0.00152119 -0.          0.         -0.         -0.         -0.00441095
   0.00266565 -0.00122637]
 [ 0.00476294 -0.00381483 -0.00062811  0.          0.          0.          0.          0.00066588  0.00003842 -0.         -0.         -0.          0.
  -0.         -0.         -0.         -0.         -0.00003355 -0.0000927  -0.00047586  0.00008776 -0.          0.         -0.         -0.         -0.00025447
   0.00015378 -0.00007075]
 [-0.          0.          0.         -0.         -0.         -0.         -0.         -0.         -0.          0.          0.          0.         -0.
   0.          0.          0.          0.          0.          0.          0.         -0.          0.         -0.          0.          0.          0.
  -0.          0.        ]
 [-0.          0.          0.         -0.         -0.         -0.         -0.         -0.         -0.          0.          0.          0.         -0.
   0.          0.          0.          0.          0.          0.          0.         -0.          0.         -0.          0.          0.          0.
  -0.          0.        ]
 [-0.          0.          0.         -0.         -0.         -0.         -0.         -0.         -0.          0.          0.          0.         -0.
   0.          0.          0.          0.          0.          0.          0.         -0.          0.         -0.          0.          0.          0.
  -0.          0.        ]
 [ 0.         -0.         -0.          0.          0.          0.          0.          0.          0.         -0.         -0.         -0.          0.
  -0.         -0.         -0.         -0.         -0.         -0.         -0.          0.         -0.          0.         -0.         -0.         -0.
   0.         -0.        ]
 [-0.          0.          0.         -0.         -0.         -0.         -0.         -0.         -0.          0.          0.          0.         -0.
   0.          0.          0.          0.          0.          0.          0.         -0.          0.         -0.          0.          0.          0.
  -0.          0.        ]
 [-0.          0.          0.         -0.         -0.         -0.         -0.         -0.         -0.          0.          0.          0.         -0.
   0.          0.          0.          0.          0.          0.          0.         -0.          0.         -0.          0.          0.          0.
  -0.          0.        ]
 [-0.          0.          0.         -0.         -0.         -0.         -0.         -0.         -0.          0.          0.          0.         -0.
   0.          0.          0.          0.          0.          0.          0.         -0.          0.         -0.          0.          0.          0.
  -0.          0.        ]
 [-0.          0.          0.         -0.         -0.         -0.         -0.         -0.         -0.          0.          0.          0.         -0.
   0.          0.          0.          0.          0.          0.          0.         -0.          0.         -0.          0.          0.          0.
  -0.          0.        ]
 [-0.00415971  0.00333168  0.00054856 -0.         -0.         -0.         -0.         -0.00058155 -0.00003355  0.          0.          0.         -0.
   0.          0.          0.          0.          0.0000293   0.00008096  0.00041559 -0.00007664  0.         -0.          0.          0.          0.00022224
  -0.00013431  0.00006179]
 [-0.01149359  0.00920568  0.00151571 -0.         -0.         -0.         -0.         -0.00160685 -0.0000927   0.          0.          0.         -0.
   0.          0.          0.          0.          0.00008096  0.0002237   0.00114831 -0.00021177  0.         -0.          0.          0.          0.00061407
  -0.0003711   0.00017073]
 [-0.05899992  0.04725542  0.00778059 -0.         -0.         -0.         -0.         -0.00824845 -0.00047586  0.          0.          0.         -0.
   0.          0.          0.          0.          0.00041559  0.00114831  0.00589462 -0.0010871   0.         -0.          0.          0.          0.00315221
  -0.00190496  0.00087641]
 [ 0.01088086 -0.00871492 -0.00143491  0.          0.          0.          0.          0.00152119  0.00008776 -0.         -0.         -0.          0.
  -0.         -0.         -0.         -0.         -0.00007664 -0.00021177 -0.0010871   0.00020048 -0.          0.         -0.         -0.         -0.00058134
   0.00035132 -0.00016163]
 [-0.          0.          0.         -0.         -0.         -0.         -0.         -0.         -0.          0.          0.          0.         -0.
   0.          0.          0.          0.          0.          0.          0.         -0.          0.         -0.          0.          0.          0.
  -0.          0.        ]
 [ 0.         -0.         -0.          0.          0.          0.          0.          0.          0.         -0.         -0.         -0.          0.
  -0.         -0.         -0.         -0.         -0.         -0.         -0.          0.         -0.          0.         -0.         -0.         -0.
   0.         -0.        ]
 [-0.          0.          0.         -0.         -0.         -0.         -0.         -0.         -0.          0.          0.          0.         -0.
   0.          0.          0.          0.          0.          0.          0.         -0.          0.         -0.          0.          0.          0.
  -0.          0.        ]
 [-0.          0.          0.         -0.         -0.         -0.         -0.         -0.         -0.          0.          0.          0.         -0.
   0.          0.          0.          0.          0.          0.          0.         -0.          0.         -0.          0.          0.          0.
  -0.          0.        ]
 [-0.03155084  0.02527035  0.00416075 -0.         -0.         -0.         -0.         -0.00441095 -0.00025447  0.          0.          0.         -0.
   0.          0.          0.          0.          0.00022224  0.00061407  0.00315221 -0.00058134  0.         -0.          0.          0.          0.00168568
  -0.0010187   0.00046867]
 [ 0.01906697 -0.01527151 -0.00251445  0.          0.          0.          0.          0.00266565  0.00015378 -0.         -0.         -0.          0.
  -0.         -0.         -0.         -0.         -0.00013431 -0.0003711  -0.00190496  0.00035132 -0.          0.         -0.         -0.         -0.0010187
   0.00061563 -0.00028323]
 [-0.00877205  0.00702589  0.00115681 -0.         -0.         -0.         -0.         -0.00122637 -0.00007075  0.          0.          0.         -0.
   0.          0.          0.          0.          0.00006179  0.00017073  0.00087641 -0.00016163  0.         -0.          0.          0.          0.00046867
  -0.00028323  0.0001303 ]] 
 [[ 0.59053691  0.47298493 -0.07787677 -0.          0.          0.         -0.         -0.08255967  0.00476294  0.          0.         -0.         -0.
  -0.          0.          0.         -0.          0.00415971 -0.01149359  0.05899992  0.01088086  0.          0.         -0.         -0.          0.03155084
   0.01906697  0.00877205]
 [ 0.47298493  0.37883279 -0.06237466 -0.          0.          0.         -0.         -0.06612538  0.00381483  0.          0.         -0.         -0.
  -0.          0.          0.         -0.          0.00333168 -0.00920568  0.04725542  0.00871492  0.          0.         -0.         -0.          0.02527035
   0.01527151  0.00702589]
 [-0.07787677 -0.06237466  0.01026996  0.         -0.         -0.          0.          0.01088752 -0.00062811 -0.         -0.          0.          0.
   0.         -0.         -0.          0.         -0.00054856  0.00151571 -0.00778059 -0.00143491 -0.         -0.          0.          0.         -0.00416075
  -0.00251445 -0.00115681]
 [-0.         -0.          0.          0.         -0.         -0.          0.          0.         -0.         -0.         -0.          0.          0.
   0.         -0.         -0.          0.         -0.          0.         -0.         -0.         -0.         -0.          0.          0.         -0.
  -0.         -0.        ]
 [ 0.          0.         -0.         -0.          0.          0.         -0.         -0.          0.          0.          0.         -0.         -0.
  -0.          0.          0.         -0.          0.         -0.          0.          0.          0.          0.         -0.         -0.          0.
   0.          0.        ]
 [ 0.          0.         -0.         -0.          0.          0.         -0.         -0.          0.          0.          0.         -0.         -0.
  -0.          0.          0.         -0.          0.         -0.          0.          0.          0.          0.         -0.         -0.          0.
   0.          0.        ]
 [-0.         -0.          0.          0.         -0.         -0.          0.          0.         -0.         -0.         -0.          0.          0.
   0.         -0.         -0.          0.         -0.          0.         -0.         -0.         -0.         -0.          0.          0.         -0.
  -0.         -0.        ]
 [-0.08255967 -0.06612538  0.01088752  0.         -0.         -0.          0.          0.01154221 -0.00066588 -0.         -0.          0.          0.
   0.         -0.         -0.          0.         -0.00058155  0.00160685 -0.00824845 -0.00152119 -0.         -0.          0.          0.         -0.00441095
  -0.00266565 -0.00122637]
 [ 0.00476294  0.00381483 -0.00062811 -0.          0.          0.         -0.         -0.00066588  0.00003842  0.          0.         -0.         -0.
  -0.          0.          0.         -0.          0.00003355 -0.0000927   0.00047586  0.00008776  0.          0.         -0.         -0.          0.00025447
   0.00015378  0.00007075]
 [ 0.          0.         -0.         -0.          0.          0.         -0.         -0.          0.          0.          0.         -0.         -0.
  -0.          0.          0.         -0.          0.         -0.          0.          0.          0.          0.         -0.         -0.          0.
   0.          0.        ]
 [ 0.          0.         -0.         -0.          0.          0.         -0.         -0.          0.          0.          0.         -0.         -0.
  -0.          0.          0.         -0.          0.         -0.          0.          0.          0.          0.         -0.         -0.          0.
   0.          0.        ]
 [-0.         -0.          0.          0.         -0.         -0.          0.          0.         -0.         -0.         -0.          0.          0.
   0.         -0.         -0.          0.         -0.          0.         -0.         -0.         -0.         -0.          0.          0.         -0.
  -0.         -0.        ]
 [-0.         -0.          0.          0.         -0.         -0.          0.          0.         -0.         -0.         -0.          0.          0.
   0.         -0.         -0.          0.         -0.          0.         -0.         -0.         -0.         -0.          0.          0.         -0.
  -0.         -0.        ]
 [-0.         -0.          0.          0.         -0.         -0.          0.          0.         -0.         -0.         -0.          0.          0.
   0.         -0.         -0.          0.         -0.          0.         -0.         -0.         -0.         -0.          0.          0.         -0.
  -0.         -0.        ]
 [ 0.          0.         -0.         -0.          0.          0.         -0.         -0.          0.          0.          0.         -0.         -0.
  -0.          0.          0.         -0.          0.         -0.          0.          0.          0.          0.         -0.         -0.          0.
   0.          0.        ]
 [ 0.          0.         -0.         -0.          0.          0.         -0.         -0.          0.          0.          0.         -0.         -0.
  -0.          0.          0.         -0.          0.         -0.          0.          0.          0.          0.         -0.         -0.          0.
   0.          0.        ]
 [-0.         -0.          0.          0.         -0.         -0.          0.          0.         -0.         -0.         -0.          0.          0.
   0.         -0.         -0.          0.         -0.          0.         -0.         -0.         -0.         -0.          0.          0.         -0.
  -0.         -0.        ]
 [ 0.00415971  0.00333168 -0.00054856 -0.          0.          0.         -0.         -0.00058155  0.00003355  0.          0.         -0.         -0.
  -0.          0.          0.         -0.          0.0000293  -0.00008096  0.00041559  0.00007664  0.          0.         -0.         -0.          0.00022224
   0.00013431  0.00006179]
 [-0.01149359 -0.00920568  0.00151571  0.         -0.         -0.          0.          0.00160685 -0.0000927  -0.         -0.          0.          0.
   0.         -0.         -0.          0.         -0.00008096  0.0002237  -0.00114831 -0.00021177 -0.         -0.          0.          0.         -0.00061407
  -0.0003711  -0.00017073]
 [ 0.05899992  0.04725542 -0.00778059 -0.          0.          0.         -0.         -0.00824845  0.00047586  0.          0.         -0.         -0.
  -0.          0.          0.         -0.          0.00041559 -0.00114831  0.00589462  0.0010871   0.          0.         -0.         -0.          0.00315221
   0.00190496  0.00087641]
 [ 0.01088086  0.00871492 -0.00143491 -0.          0.          0.         -0.         -0.00152119  0.00008776  0.          0.         -0.         -0.
  -0.          0.          0.         -0.          0.00007664 -0.00021177  0.0010871   0.00020048  0.          0.         -0.         -0.          0.00058134
   0.00035132  0.00016163]
 [ 0.          0.         -0.         -0.          0.          0.         -0.         -0.          0.          0.          0.         -0.         -0.
  -0.          0.          0.         -0.          0.         -0.          0.          0.          0.          0.         -0.         -0.          0.
   0.          0.        ]
 [ 0.          0.         -0.         -0.          0.          0.         -0.         -0.          0.          0.          0.         -0.         -0.
  -0.          0.          0.         -0.          0.         -0.          0.          0.          0.          0.         -0.         -0.          0.
   0.          0.        ]
 [-0.         -0.          0.          0.         -0.         -0.          0.          0.         -0.         -0.         -0.          0.          0.
   0.         -0.         -0.          0.         -0.          0.         -0.         -0.         -0.         -0.          0.          0.         -0.
  -0.         -0.        ]
 [-0.         -0.          0.          0.         -0.         -0.          0.          0.         -0.         -0.         -0.          0.          0.
   0.         -0.         -0.          0.         -0.          0.         -0.         -0.         -0.         -0.          0.          0.         -0.
  -0.         -0.        ]
 [ 0.03155084  0.02527035 -0.00416075 -0.          0.          0.         -0.         -0.00441095  0.00025447  0.          0.         -0.         -0.
  -0.          0.          0.         -0.          0.00022224 -0.00061407  0.00315221  0.00058134  0.          0.         -0.         -0.          0.00168568
   0.0010187   0.00046867]
 [ 0.01906697  0.01527151 -0.00251445 -0.          0.          0.         -0.         -0.00266565  0.00015378  0.          0.         -0.         -0.
  -0.          0.          0.         -0.          0.00013431 -0.0003711   0.00190496  0.00035132  0.          0.         -0.         -0.          0.0010187
   0.00061563  0.00028323]
 [ 0.00877205  0.00702589 -0.00115681 -0.          0.          0.         -0.         -0.00122637  0.00007075  0.          0.         -0.         -0.
  -0.          0.          0.         -0.          0.00006179 -0.00017073  0.00087641  0.00016163  0.          0.         -0.         -0.          0.00046867
   0.00028323  0.0001303 ]]

***************
SCF converged at cycle 8
Final E(SUHF) =     -1.00747933, delta E = -5.32837e-09
***** Start DFT Correlation for SUHF+DFT **********
tot grids = 20048
E(SUHF) =     -1.00747933
E_c(TPSS) =     -0.00240795
E(SUHF+DFT) =     -1.00988728
