

#INFO: **** input file is /share/home/srwang/ExSCF/test/pytest/scan_h2/scan_dft.py ****
#import phf
from pyscf import gto, scf
#import scipy
import numpy as np
import sys, os, contextlib

from pyphf import util, sudft

#xyz = 'h2.xyz' #sys.argv[1]
fch = 'test_uhf.fchk' #sys.argv[2]
#bas = '../h2.bas'
bas = 'cc-pvtz'

for r in np.arange(0.5, 2.6, 0.1):
    output = 'sudft_%.1f.out' % r
    os.system("echo '\n' > %s" % output)
    with open(output, 'a', encoding='utf-8') as f:
        with contextlib.redirect_stdout(f):
            xyz = '''H 0.0 0.0 0.0; H 0.0 0.0 %f'''%r
            mf = util.guess_from_fchk(xyz, bas, fch)
            #mf = util.guess(xyz, bas)
            #f.flush()
            mf2 = util.SUHF(mf)
            mf2.cut_no = False
            mf2.debug = False
            mf2.max_cycle = 50
            #mf2.output = 'sudft_%.1f.out'%r
            #mf2.kernel()
            
            mf3 = sudft.SUDFT(mf2)
            mf3.kernel()
                    #INFO: ******************** input file end ********************


System: uname_result(system='Linux', node='xc02n18', release='3.10.0-693.el7.x86_64', version='#1 SMP Thu Jul 6 19:56:57 EDT 2017', machine='x86_64', processor='x86_64')  Threads 24
Python 3.7.4 (default, Aug 13 2019, 20:35:49) 
[GCC 7.3.0]
numpy 1.17.2  scipy 1.4.1
Date: Fri Nov 20 22:49:07 2020
PySCF version 1.7.3
PySCF path  /share/apps/Python/Anaconda3-2019/lib/python3.7/site-packages/pyscf

[CONFIG] conf_file None
[INPUT] verbose = 4
[INPUT] num. atoms = 2
[INPUT] num. electrons = 2
[INPUT] charge = 0
[INPUT] spin (= nelec alpha-beta = 2S) = 0
[INPUT] symmetry False subgroup None
[INPUT] Mole.unit = angstrom
[INPUT]  1 H      0.000000000000   0.000000000000   0.000000000000 AA    0.000000000000   0.000000000000   0.000000000000 Bohr
[INPUT]  2 H      0.000000000000   0.000000000000   1.200000000000 AA    0.000000000000   0.000000000000   2.267671349478 Bohr

nuclear repulsion = 0.4409810091
number of shells = 12
number of NR pGTOs = 32
number of NR cGTOs = 28
basis = cc-pvtz
ecp = {}
CPU time:      1658.41


******** <class 'pyscf.scf.uhf.UHF'> ********
method = UHF
initial guess = minao
damping factor = 0
level_shift factor = 0
DIIS = <class 'pyscf.scf.diis.CDIIS'>
diis_start_cycle = 1
diis_space = 8
SCF conv_tol = 1e-09
SCF conv_tol_grad = None
SCF max_cycles = 1
direct_scf = True
direct_scf_tol = 1e-13
chkfile to save SCF result = /share/home/srwang/ExSCF/test/pytest/scan_h2/tmpe9o6i55f
max_memory 4000 MB (current use 146 MB)
number electrons alpha = 1  beta = 1
Set gradient conv threshold to 3.16228e-05
init E= -0.715535611555122
  alpha nocc = 1  HOMO = -0.387217764407851  LUMO = 0.0321726670784458
  beta  nocc = 1  HOMO = -0.383925427083838  LUMO = 0.0329613076260661
cycle= 1 E= -1.06187946792919  delta_E= -0.346  |g|= 0.0332  |ddm|= 0.338
SCF not converged.
SCF energy = -1.06187946792919 after 1 cycles  <S^2> = 2.1275514e-07  2S+1 = 1.0000004


******** <class 'pyscf.scf.uhf.UHF'> ********
method = UHF
initial guess = minao
damping factor = 0
level_shift factor = 0
DIIS = <class 'pyscf.scf.diis.CDIIS'>
diis_start_cycle = 1
diis_space = 8
SCF conv_tol = 1e-09
SCF conv_tol_grad = None
SCF max_cycles = 1
direct_scf = True
direct_scf_tol = 1e-13
chkfile to save SCF result = /share/home/srwang/ExSCF/test/pytest/scan_h2/tmpe9o6i55f
max_memory 4000 MB (current use 147 MB)
number electrons alpha = 1  beta = 1
Set gradient conv threshold to 3.16228e-05
init E= -1.09413974426491
  alpha nocc = 1  HOMO = -0.497530256997183  LUMO = 0.126529673548623
  beta  nocc = 1  HOMO = -0.497530256997184  LUMO = 0.126529673548622
cycle= 1 E= -1.05740723907306  delta_E= 0.0367  |g|= 0.0262  |ddm|= 0.0422
SCF not converged.
SCF energy = -1.05740723907306 after 1 cycles  <S^2> = 0.31428839  2S+1 = 1.5023826

******** <class 'pyphf.util.SUHF'> ********
SVD: S^(-1/2)
[[-0.14193375 -0.         -0.          0.04464555 -0.29125471  0.         -0.         -0.          0.         -0.09550641  0.22487033  0.          0.
   0.          0.          0.62629805  0.          0.         -0.60029964 -0.         -0.          0.48409525 -0.41926026  0.         -0.          0.8270771
  -0.4272185   0.78812987]
 [-0.21573764 -0.         -0.          0.09600132 -0.2675174  -0.          0.          0.          0.         -0.01300763  0.08080636 -0.         -0.
   0.          0.          0.08509222  0.         -0.          0.14138257  0.          0.         -0.25224451  0.03548336 -0.         -0.         -1.59918795
   0.70750185 -3.82665919]
 [-0.21260873 -0.         -0.          0.18401277 -0.12177053 -0.          0.          0.         -0.          0.04822076 -0.00196102  0.          0.
   0.          0.         -0.47547167 -0.          0.          0.17879348 -0.          0.         -0.44172711  0.02369398  0.          0.          0.92779722
  -2.38368986  0.06800965]
 [ 0.         -0.20451873 -0.20601572  0.          0.          0.40040473  0.21509801  0.13151659 -0.06998776 -0.         -0.          0.         -0.
   0.          0.         -0.          0.24142776  0.25206867  0.          0.56433734 -0.61468254 -0.         -0.         -0.41405114  0.58372712 -0.
   0.          0.        ]
 [ 0.          0.20601572 -0.20451873 -0.         -0.          0.21509801 -0.40040473 -0.06998776 -0.13151659  0.          0.         -0.         -0.
   0.         -0.          0.          0.25206867 -0.24142776 -0.          0.61468254  0.56433734 -0.          0.         -0.58372712 -0.41405114  0.
  -0.          0.        ]
 [-0.07476045 -0.         -0.         -0.3211871   0.15844376  0.          0.          0.         -0.          0.06919672  0.39949779 -0.         -0.
  -0.         -0.         -0.22349422 -0.          0.         -0.43229459 -0.         -0.         -0.65892053 -0.8878703  -0.         -0.         -0.13286913
   0.29143963  0.15562713]
 [ 0.         -0.26148165 -0.26339558  0.          0.          0.30339234  0.16298281  0.11786405 -0.06272243 -0.         -0.          0.         -0.
   0.         -0.          0.         -0.02178131 -0.02274132 -0.         -0.45695286  0.49771817  0.         -0.          0.65908752 -0.92917811 -0.
  -0.          0.        ]
 [-0.          0.26339558 -0.26148165 -0.         -0.          0.16298281 -0.30339234 -0.06272243 -0.11786405  0.          0.         -0.         -0.
   0.         -0.          0.         -0.02274132  0.02178131  0.         -0.49771817 -0.45695286  0.         -0.          0.92917811  0.65908752 -0.
   0.         -0.        ]
 [-0.12541562  0.          0.         -0.29447548  0.26383576 -0.          0.          0.         -0.          0.20054593  0.12222664  0.          0.
   0.          0.          0.1239254   0.          0.         -0.12487751  0.         -0.          0.48960738  0.82511451  0.          0.          0.30107385
  -1.022259   -2.99886478]
 [ 0.         -0.          0.          0.          0.          0.          0.          0.         -0.          0.          0.         -0.68455968 -0.0202542
  -0.12047354 -0.72168713  0.         -0.         -0.          0.          0.         -0.          0.          0.         -0.          0.         -0.
   0.          0.        ]
 [-0.          0.10815943 -0.1073735  -0.         -0.         -0.08814408  0.16408012  0.28605354  0.53753384  0.          0.          0.         -0.
  -0.          0.         -0.          0.57307334 -0.54888143 -0.          0.04125857  0.03787931 -0.         -0.          0.29362744  0.20827673 -0.
  -0.          0.        ]
 [-0.0403021  -0.         -0.         -0.12968581  0.01959283  0.         -0.         -0.          0.         -0.60083986 -0.44265344 -0.         -0.
   0.         -0.         -0.1239303  -0.          0.         -0.70456852 -0.         -0.         -0.25765596  0.24092723  0.          0.          0.06280307
  -0.09655737 -0.98608337]
 [ 0.         -0.1073735  -0.10815943  0.          0.         -0.16408012 -0.08814408 -0.53753384  0.28605354  0.          0.         -0.          0.
   0.          0.         -0.          0.54888143  0.57307334  0.          0.03787931 -0.04125857 -0.         -0.          0.20827673 -0.29362744 -0.
  -0.          0.        ]
 [ 0.         -0.         -0.          0.          0.         -0.         -0.         -0.          0.          0.          0.          0.0202542  -0.68455968
   0.72168713 -0.12047354  0.         -0.         -0.         -0.          0.         -0.         -0.         -0.         -0.         -0.         -0.
  -0.         -0.        ]
 [-0.14193375  0.          0.          0.04464555  0.29125471 -0.         -0.         -0.          0.         -0.09550641 -0.22487033 -0.         -0.
  -0.         -0.          0.62629805  0.          0.          0.60029964  0.          0.         -0.48409525 -0.41926026 -0.         -0.          0.8270771
   0.4272185  -0.78812987]
 [-0.21573764  0.          0.          0.09600132  0.2675174   0.         -0.         -0.          0.         -0.01300763 -0.08080636  0.          0.
   0.         -0.          0.08509222 -0.         -0.         -0.14138257 -0.         -0.          0.25224451  0.03548336 -0.         -0.         -1.59918795
  -0.70750185  3.82665919]
 [-0.21260873  0.          0.          0.18401277  0.12177053  0.          0.          0.         -0.          0.04822076  0.00196102 -0.         -0.
  -0.         -0.         -0.47547167 -0.         -0.         -0.17879348 -0.         -0.          0.44172711  0.02369398  0.          0.          0.92779722
   2.38368986 -0.06800965]
 [ 0.         -0.20451873 -0.20601572  0.          0.         -0.40040473 -0.21509801  0.13151659 -0.06998776 -0.         -0.          0.          0.
  -0.          0.          0.         -0.24142776 -0.25206867  0.          0.56433734 -0.61468254  0.         -0.          0.41405114 -0.58372712 -0.
   0.          0.        ]
 [-0.          0.20601572 -0.20451873 -0.         -0.         -0.21509801  0.40040473 -0.06998776 -0.13151659 -0.         -0.          0.          0.
  -0.         -0.          0.         -0.25206867  0.24142776 -0.          0.61468254  0.56433734 -0.         -0.          0.58372712  0.41405114 -0.
   0.         -0.        ]
 [ 0.07476045  0.          0.          0.3211871   0.15844376 -0.          0.          0.          0.         -0.06919672  0.39949779 -0.         -0.
  -0.         -0.          0.22349422 -0.         -0.         -0.43229459 -0.         -0.         -0.65892053  0.8878703   0.          0.          0.13286913
   0.29143963  0.15562713]
 [ 0.         -0.26148165 -0.26339558  0.          0.         -0.30339234 -0.16298281  0.11786405 -0.06272243 -0.         -0.          0.          0.
   0.         -0.          0.          0.02178131  0.02274132 -0.         -0.45695286  0.49771817  0.         -0.         -0.65908752  0.92917811  0.
   0.          0.        ]
 [-0.          0.26339558 -0.26148165 -0.         -0.         -0.16298281  0.30339234 -0.06272243 -0.11786405 -0.         -0.         -0.         -0.
  -0.          0.          0.          0.02274132 -0.02178131  0.         -0.49771817 -0.45695286  0.          0.         -0.92917811 -0.65908752  0.
  -0.          0.        ]
 [ 0.12541562  0.          0.          0.29447548  0.26383576 -0.         -0.         -0.          0.         -0.20054593  0.12222664 -0.         -0.
   0.          0.         -0.1239254  -0.         -0.         -0.12487751  0.         -0.          0.48960738 -0.82511451 -0.         -0.         -0.30107385
  -1.022259   -2.99886478]
 [ 0.          0.         -0.          0.         -0.         -0.          0.          0.         -0.          0.          0.         -0.68455968 -0.0202542
   0.12047354  0.72168713 -0.         -0.          0.          0.          0.          0.          0.          0.          0.          0.          0.
   0.         -0.        ]
 [ 0.         -0.10815943  0.1073735   0.          0.         -0.08814408  0.16408012 -0.28605354 -0.53753384 -0.         -0.         -0.          0.
  -0.          0.          0.          0.57307334 -0.54888143  0.         -0.04125857 -0.03787931 -0.         -0.          0.29362744  0.20827673 -0.
  -0.         -0.        ]
 [-0.0403021  -0.         -0.         -0.12968581 -0.01959283  0.         -0.         -0.          0.         -0.60083986  0.44265344  0.          0.
   0.          0.         -0.1239303  -0.          0.          0.70456852  0.          0.          0.25765596  0.24092723  0.         -0.          0.06280307
   0.09655737  0.98608337]
 [-0.          0.1073735   0.10815943 -0.         -0.         -0.16408012 -0.08814408  0.53753384 -0.28605354 -0.         -0.          0.         -0.
   0.          0.          0.          0.54888143  0.57307334 -0.         -0.03787931  0.04125857 -0.          0.          0.20827673 -0.29362744 -0.
  -0.         -0.        ]
 [ 0.         -0.          0.          0.          0.         -0.         -0.         -0.          0.          0.          0.          0.0202542  -0.68455968
  -0.72168713  0.12047354  0.          0.          0.          0.          0.          0.          0.          0.         -0.          0.          0.
   0.          0.        ]]
C (ortho)
[[-0.92198735 -0.2509419   0.0507387   0.15056053  0.          0.         -0.20982076 -0.         -0.          0.02638156  0.01789164  0.01984828  0.
  -0.         -0.12706565 -0.         -0.         -0.         -0.          0.         -0.         -0.         -0.         -0.00422642 -0.          0.
   0.01116231 -0.00129055]
 [-0.          0.          0.         -0.          0.15884381 -0.86877366 -0.          0.03221627 -0.06781678  0.          0.         -0.          0.19881512
  -0.25147965 -0.          0.         -0.          0.         -0.         -0.28055426  0.14512236  0.01809706 -0.10719862 -0.         -0.00171953  0.0011437
   0.         -0.        ]
 [-0.          0.          0.         -0.         -0.86877366 -0.15884381 -0.         -0.06781678 -0.03221627  0.          0.         -0.         -0.25147965
  -0.19881512 -0.          0.         -0.         -0.         -0.         -0.14512236 -0.28055426 -0.10719862 -0.01809706 -0.          0.0011437   0.00171953
   0.         -0.        ]
 [ 0.24792856  0.08679216  0.34975542  0.07887349  0.          0.         -0.72645588 -0.         -0.          0.02534767  0.06387707  0.02389314  0.
   0.         -0.51176036  0.         -0.         -0.         -0.          0.          0.          0.          0.         -0.00966644 -0.          0.
   0.08606707 -0.00414787]
 [-0.28025067  0.75212101  0.0380044  -0.54245607  0.          0.         -0.03870963 -0.          0.          0.09779928  0.01814487 -0.12035694  0.
   0.         -0.00462744  0.         -0.         -0.         -0.          0.          0.          0.          0.         -0.1643808   0.         -0.
   0.00588995 -0.0843523 ]
 [-0.          0.         -0.          0.          0.06424991  0.03260663  0.         -0.59496657 -0.53488936  0.         -0.         -0.          0.00167339
   0.00237883  0.         -0.         -0.          0.          0.          0.11753482  0.12214743 -0.4825981  -0.23672042 -0.         -0.05653108 -0.18395862
   0.          0.        ]
 [ 0.          0.         -0.         -0.         -0.03260663  0.06424991 -0.          0.53488936 -0.59496657 -0.          0.          0.         -0.00237883
   0.00167339 -0.         -0.         -0.          0.          0.          0.12214743 -0.11753482  0.23672042 -0.4825981   0.          0.18395862 -0.05653108
  -0.          0.        ]
 [ 0.          0.          0.          0.          0.02365768  0.19759232  0.         -0.00194101  0.01343453  0.          0.          0.          0.33013038
  -0.85376008 -0.          0.         -0.         -0.          0.          0.32891057 -0.05895717  0.01357382  0.10164131 -0.         -0.00767804  0.00942008
  -0.          0.        ]
 [ 0.         -0.         -0.         -0.         -0.19759232  0.02365768 -0.         -0.01343453 -0.00194101 -0.         -0.         -0.          0.85376008
   0.33013038  0.         -0.          0.          0.         -0.         -0.05895717 -0.32891057 -0.10164131  0.01357382  0.         -0.00942008 -0.00767804
   0.         -0.        ]
 [-0.01335736  0.0229469   0.10586474  0.00917032 -0.         -0.          0.41812769  0.          0.         -0.0134923   0.36429649  0.11192076  0.
   0.         -0.57008295  0.         -0.         -0.         -0.         -0.         -0.         -0.          0.         -0.0291541   0.         -0.
  -0.58471612 -0.00388723]
 [ 0.05845225 -0.05643292 -0.05371383  0.20125901 -0.         -0.          0.03681822  0.          0.          0.69986342  0.01520347 -0.00766318  0.
   0.          0.01348761  0.         -0.         -0.         -0.         -0.         -0.         -0.          0.         -0.66928145  0.          0.
   0.02763273  0.09834066]
 [ 0.          0.         -0.         -0.          0.          0.         -0.          0.         -0.         -0.          0.          0.          0.
  -0.          0.         -0.99832055  0.03187867 -0.04835775  0.00116351  0.          0.          0.          0.         -0.          0.          0.
   0.          0.        ]
 [ 0.          0.         -0.         -0.         -0.         -0.         -0.          0.          0.         -0.          0.          0.          0.
   0.          0.         -0.03187867 -0.99832055 -0.00116351 -0.04835775 -0.          0.          0.          0.         -0.          0.          0.
   0.          0.        ]
 [ 0.          0.         -0.         -0.         -0.          0.         -0.         -0.         -0.          0.          0.          0.         -0.
  -0.         -0.         -0.00785283  0.04773006  0.16990038 -0.98427335  0.          0.         -0.         -0.         -0.         -0.          0.
   0.          0.        ]
 [-0.          0.         -0.         -0.         -0.          0.         -0.          0.         -0.          0.          0.          0.         -0.
  -0.         -0.         -0.04773006 -0.00785283  0.98427335  0.16990038 -0.         -0.         -0.          0.         -0.         -0.          0.
   0.          0.        ]
 [ 0.03036129 -0.09087585 -0.73754528 -0.16855754 -0.         -0.         -0.09193276 -0.          0.         -0.00312086 -0.42233481 -0.1181854  -0.
  -0.         -0.46485884 -0.         -0.         -0.         -0.          0.          0.          0.          0.         -0.00907064  0.         -0.
  -0.03816194 -0.00262289]
 [-0.          0.         -0.         -0.         -0.00422574 -0.00066303 -0.          0.07275757  0.03234178 -0.          0.          0.          0.01012024
   0.00759437  0.         -0.         -0.         -0.          0.          0.05452425  0.11225327 -0.39891945 -0.05704496  0.          0.51891401  0.73908434
  -0.          0.        ]
 [-0.         -0.         -0.          0.          0.00066303 -0.00422574  0.         -0.03234178  0.07275757  0.         -0.         -0.         -0.00759437
   0.01012024 -0.         -0.         -0.          0.          0.          0.11225327 -0.05452425  0.05704496 -0.39891945 -0.         -0.73908434  0.51891401
   0.         -0.        ]
 [ 0.00754349 -0.15438764  0.06892358 -0.17804439  0.         -0.         -0.00131729 -0.          0.          0.02855151  0.18873358 -0.68663132 -0.
   0.         -0.01597406 -0.         -0.          0.         -0.          0.         -0.         -0.          0.          0.09157151  0.          0.
  -0.0053027   0.65045277]
 [-0.          0.          0.          0.         -0.41211106 -0.05577315 -0.         -0.03733384 -0.01565995 -0.          0.         -0.          0.19759807
   0.14185907 -0.          0.          0.          0.          0.          0.34821127  0.75716454  0.26579534  0.03229747 -0.          0.00148159  0.00201822
   0.          0.        ]
 [-0.         -0.         -0.         -0.         -0.05577315  0.41211106 -0.         -0.01565995  0.03733384  0.          0.         -0.          0.14185907
  -0.19759807 -0.          0.         -0.          0.         -0.         -0.75716454  0.34821127  0.03229747 -0.26579534  0.          0.00201822 -0.00148159
  -0.          0.        ]
 [-0.0519299   0.40842105 -0.14134462  0.34567043  0.         -0.          0.00829051  0.          0.          0.33175802 -0.08174925  0.31857954 -0.
   0.         -0.00580963 -0.          0.          0.          0.          0.         -0.         -0.          0.          0.48843921 -0.         -0.
  -0.01653902  0.48357114]
 [-0.02143996  0.0051257  -0.01009706 -0.01610086 -0.         -0.          0.3705549   0.         -0.         -0.01808795  0.25915733  0.07624362 -0.
  -0.         -0.37507567  0.         -0.         -0.         -0.         -0.          0.         -0.          0.          0.02561396 -0.         -0.
   0.80448718 -0.00129843]
 [-0.          0.          0.          0.          0.04735698  0.00041441  0.         -0.56677556 -0.15771382  0.          0.          0.          0.00071176
   0.00038596 -0.          0.         -0.          0.          0.         -0.06701423 -0.2126557   0.67426733 -0.00326868  0.          0.26412222  0.27843722
   0.         -0.        ]
 [-0.          0.          0.          0.          0.00041441 -0.04735698  0.         -0.15771382  0.56677556  0.          0.          0.          0.00038596
  -0.00071176 -0.         -0.         -0.          0.          0.          0.2126557  -0.06701423 -0.00326868 -0.67426733  0.          0.27843722 -0.26412222
   0.         -0.        ]
 [-0.03081224  0.05501956  0.50136722  0.12672489 -0.          0.          0.32299846  0.          0.          0.00727699 -0.73895111 -0.19501999 -0.
  -0.         -0.19901603 -0.         -0.          0.         -0.         -0.          0.         -0.          0.         -0.00179009  0.         -0.
   0.0228415  -0.00059171]
 [-0.02879372  0.39763682 -0.19619651  0.65339245  0.         -0.          0.00121954 -0.          0.         -0.39857253  0.10553816 -0.37336572 -0.
   0.          0.00085404 -0.         -0.         -0.         -0.          0.         -0.          0.         -0.         -0.24505335  0.         -0.
   0.00725131 -0.07832528]
 [-0.02053457  0.00527634  0.02989912 -0.11585773  0.          0.         -0.01974305  0.          0.         -0.47851589 -0.13155888  0.44921405  0.
   0.          0.00923174  0.         -0.         -0.         -0.          0.          0.         -0.          0.         -0.46511194  0.         -0.
   0.01564353  0.5657793 ]]
[[-0.92198735 -0.2509419   0.0507387   0.15056053 -0.         -0.          0.20982076 -0.          0.         -0.02638156  0.01789164  0.01984828 -0.
   0.          0.12706565  0.          0.         -0.          0.          0.          0.          0.          0.          0.00422642  0.         -0.
  -0.01116231 -0.00129055]
 [ 0.         -0.          0.          0.          0.34259504 -0.81401945  0.          0.00438962 -0.07495155 -0.         -0.          0.          0.20715171
  -0.2446582   0.         -0.         -0.         -0.          0.          0.29014914 -0.12483859  0.09843558 -0.04614633 -0.          0.00020911 -0.00205453
  -0.          0.        ]
 [ 0.         -0.         -0.          0.         -0.81401945 -0.34259504 -0.         -0.07495155 -0.00438962  0.          0.          0.          0.2446582
   0.20715171  0.         -0.          0.         -0.          0.         -0.12483859 -0.29014914 -0.04614633 -0.09843558 -0.         -0.00205453 -0.00020911
  -0.          0.        ]
 [ 0.24792856  0.08679216  0.34975542  0.07887349 -0.          0.          0.72645588 -0.          0.         -0.02534767  0.06387707  0.02389314 -0.
   0.          0.51176036  0.          0.          0.          0.         -0.          0.          0.          0.          0.00966644  0.         -0.
  -0.08606707 -0.00414787]
 [ 0.28025067 -0.75212101 -0.0380044   0.54245607  0.          0.         -0.03870963  0.          0.          0.09779928 -0.01814487  0.12035694 -0.
   0.         -0.00462744 -0.         -0.          0.         -0.         -0.          0.         -0.          0.         -0.1643808   0.          0.
   0.00588995  0.0843523 ]
 [-0.          0.         -0.          0.         -0.05569881 -0.04570433  0.          0.75229361  0.27229796 -0.         -0.         -0.          0.00266299
   0.00116943 -0.          0.         -0.         -0.          0.         -0.01987642 -0.16834297  0.08010815  0.53152626 -0.         -0.17798178 -0.07320535
  -0.          0.        ]
 [ 0.         -0.          0.         -0.          0.04570433 -0.05569881 -0.         -0.27229796  0.75229361  0.          0.          0.          0.00116943
  -0.00266299  0.         -0.         -0.         -0.          0.          0.16834297 -0.01987642 -0.53152626  0.08010815  0.          0.07320535 -0.17798178
   0.         -0.        ]
 [-0.         -0.          0.          0.         -0.01954324  0.19804159 -0.          0.00324639  0.01318011  0.          0.          0.          0.77152425
  -0.49258773  0.          0.         -0.         -0.         -0.         -0.25420935  0.21687718 -0.07583738  0.06902098  0.         -0.00239739 -0.01191397
   0.         -0.        ]
 [ 0.         -0.         -0.          0.         -0.19804159 -0.01954324  0.         -0.01318011  0.00324639 -0.         -0.         -0.         -0.49258773
  -0.77152425 -0.          0.         -0.         -0.          0.         -0.21687718 -0.25420935 -0.06902098 -0.07583738  0.          0.01191397 -0.00239739
  -0.          0.        ]
 [-0.01335736  0.0229469   0.10586474  0.00917032  0.         -0.         -0.41812769  0.         -0.          0.0134923   0.36429649  0.11192076 -0.
  -0.          0.57008295 -0.          0.          0.         -0.          0.         -0.          0.          0.          0.0291541  -0.          0.
   0.58471612 -0.00388723]
 [-0.05845225  0.05643292  0.05371383 -0.20125901 -0.         -0.          0.03681822  0.         -0.          0.69986342 -0.01520347  0.00766318 -0.
  -0.          0.01348761 -0.          0.          0.         -0.         -0.         -0.         -0.          0.         -0.66928145  0.          0.
   0.02763273 -0.09834066]
 [-0.          0.         -0.          0.         -0.          0.          0.         -0.          0.         -0.         -0.          0.         -0.
  -0.          0.         -0.99807703  0.03876111  0.00151245 -0.0483481  -0.          0.         -0.          0.          0.         -0.         -0.
   0.         -0.        ]
 [-0.          0.          0.          0.         -0.          0.          0.         -0.         -0.         -0.         -0.          0.         -0.
   0.          0.         -0.03876111 -0.99807703 -0.0483481  -0.00151245  0.          0.          0.         -0.          0.         -0.         -0.
  -0.         -0.        ]
 [-0.          0.         -0.          0.         -0.          0.          0.          0.         -0.         -0.         -0.          0.          0.
  -0.         -0.          0.00752356 -0.04778307  0.98547377 -0.16279317  0.         -0.          0.          0.          0.          0.         -0.
   0.         -0.        ]
 [ 0.          0.          0.          0.         -0.         -0.          0.         -0.          0.         -0.         -0.          0.         -0.
   0.         -0.          0.04778307  0.00752356 -0.16279317 -0.98547377  0.         -0.         -0.          0.          0.          0.         -0.
  -0.         -0.        ]
 [ 0.03036129 -0.09087585 -0.73754528 -0.16855754  0.         -0.          0.09193276 -0.         -0.          0.00312086 -0.42233481 -0.1181854   0.
   0.          0.46485884  0.          0.          0.          0.          0.          0.          0.          0.          0.00907064 -0.         -0.
   0.03816194 -0.00262289]
 [ 0.         -0.         -0.         -0.          0.00398306  0.00155938 -0.         -0.07957783 -0.00265043  0.          0.         -0.          0.00944726
   0.00841682 -0.         -0.         -0.         -0.          0.         -0.05219558 -0.11335481  0.1801929   0.36044607  0.          0.9004379   0.06876775
   0.         -0.        ]
 [-0.          0.         -0.          0.         -0.00155938  0.00398306  0.          0.00265043 -0.07957783  0.         -0.          0.          0.00841682
  -0.00944726  0.         -0.         -0.         -0.          0.          0.11335481 -0.05219558 -0.36044607  0.1801929   0.         -0.06876775  0.9004379
   0.          0.        ]
 [-0.00754349  0.15438764 -0.06892358  0.17804439  0.         -0.         -0.00131729 -0.         -0.          0.02855151 -0.18873358  0.68663132 -0.
   0.         -0.01597406  0.         -0.          0.          0.         -0.          0.         -0.          0.          0.09157151  0.         -0.
  -0.0053027  -0.65045277]
 [ 0.         -0.         -0.          0.         -0.39036266 -0.14339862 -0.         -0.04048218 -0.00049301  0.         -0.          0.         -0.17816396
  -0.16560976 -0.          0.          0.          0.         -0.          0.3644755   0.74947104  0.12475565  0.23690994  0.         -0.00249986 -0.0001379
  -0.         -0.        ]
 [ 0.         -0.         -0.          0.         -0.14339862  0.39036266 -0.         -0.00049301  0.04048218  0.         -0.          0.          0.16560976
  -0.17816396 -0.         -0.         -0.         -0.          0.          0.74947104 -0.3644755   0.23690994 -0.12475565  0.         -0.0001379   0.00249986
  -0.         -0.        ]
 [ 0.0519299  -0.40842105  0.14134462 -0.34567043  0.         -0.          0.00829051  0.         -0.          0.33175802  0.08174925 -0.31857954 -0.
   0.         -0.00580963  0.         -0.         -0.          0.         -0.         -0.          0.         -0.          0.48843921 -0.         -0.
  -0.01653902 -0.48357114]
 [-0.02143996  0.0051257  -0.01009706 -0.01610086  0.         -0.         -0.3705549   0.          0.          0.01808795  0.25915733  0.07624362  0.
  -0.          0.37507567 -0.          0.          0.         -0.          0.         -0.          0.          0.         -0.02561396 -0.          0.
  -0.80448718 -0.00129843]
 [-0.          0.         -0.          0.         -0.04615154 -0.010625    0.          0.58451832 -0.06668224 -0.          0.         -0.          0.00051921
   0.00062129  0.         -0.          0.          0.         -0.          0.1218922   0.18669666 -0.38652686 -0.55248901  0.          0.38282329 -0.0270954
  -0.          0.        ]
 [-0.          0.          0.          0.         -0.010625    0.04615154 -0.         -0.06668224 -0.58451832  0.          0.         -0.         -0.00062129
   0.00051921  0.         -0.         -0.         -0.          0.          0.18669666 -0.1218922  -0.55248901  0.38652686  0.         -0.0270954  -0.38282329
  -0.          0.        ]
 [-0.03081224  0.05501956  0.50136722  0.12672489 -0.          0.         -0.32299846  0.         -0.         -0.00727699 -0.73895111 -0.19501999  0.
  -0.          0.19901603 -0.          0.          0.         -0.          0.         -0.          0.          0.          0.00179009 -0.          0.
  -0.0228415  -0.00059171]
 [ 0.02879372 -0.39763682  0.19619651 -0.65339245 -0.         -0.          0.00121954  0.         -0.         -0.39857253 -0.10553816  0.37336572 -0.
  -0.          0.00085404  0.         -0.          0.         -0.         -0.          0.         -0.          0.         -0.24505335  0.          0.
   0.00725131  0.07832528]
 [ 0.02053457 -0.00527634 -0.02989912  0.11585773  0.          0.         -0.01974305 -0.          0.         -0.47851589  0.13155888 -0.44921405 -0.
  -0.          0.00923174  0.         -0.         -0.         -0.         -0.          0.         -0.          0.         -0.46511194  0.          0.
   0.01564353 -0.5657793 ]]
grids:  [0.06237655 0.31939555 0.74529195 1.28265786 1.85893479 2.39630071 2.8221971  3.07921611] 
weights:  [0.15900941 0.34931531 0.49276925 0.56970235 0.56970235 0.49276925 0.34931531 0.15900941]
S = 0.0, Sz = 0.0
Wigner small d:  1
value : [1. 1. 1. 1. 1. 1. 1. 1.]
**** Start Cycle 1 ****
dm (ortho)
[[[ 0.85006066  0.          0.         ...  0.02840849  0.02654744  0.01893261]
  [ 0.          0.          0.         ...  0.          0.          0.        ]
  [ 0.          0.          0.         ...  0.          0.          0.        ]
  ...
  [ 0.02840849  0.          0.         ...  0.00094939  0.0008872   0.00063272]
  [ 0.02654744  0.          0.         ...  0.0008872   0.00082908  0.00059127]
  [ 0.01893261  0.          0.         ...  0.00063272  0.00059127  0.00042167]]

 [[ 0.85006066 -0.         -0.         ...  0.02840849 -0.02654744 -0.01893261]
  [-0.          0.          0.         ... -0.          0.          0.        ]
  [-0.          0.          0.         ... -0.          0.          0.        ]
  ...
  [ 0.02840849 -0.         -0.         ...  0.00094939 -0.0008872  -0.00063272]
  [-0.02654744  0.          0.         ... -0.0008872   0.00082908  0.00059127]
  [-0.01893261  0.          0.         ... -0.00063272  0.00059127  0.00042167]]]
Fock (ortho)
 (array([[-0.329522  ,  0.        ,  0.        ,  0.48383946, -0.16619412, -0.        ,  0.        ,  0.        , -0.        ,  0.13830374,  0.0631598 ,
         0.        ,  0.        ,  0.        ,  0.        ,  0.17860414,  0.        , -0.        , -0.02830752, -0.        , -0.        ,  0.00187383,
         0.12391465,  0.        ,  0.        , -0.02278858, -0.00297811, -0.01239019],
       [ 0.        ,  1.27336871, -0.        ,  0.        , -0.        ,  0.00998844,  0.03362058,  0.32575286,  0.10076784,  0.        ,  0.        ,
         0.        , -0.        ,  0.        , -0.        ,  0.        , -0.00030677,  0.01216827, -0.        ,  0.05250573,  1.13269856, -0.        ,
         0.        , -0.00021405, -0.00123153,  0.        ,  0.        , -0.        ],
       [ 0.        , -0.        ,  1.27336871,  0.        , -0.        ,  0.03362058, -0.00998844,  0.10076784, -0.32575286,  0.        ,  0.        ,
         0.        , -0.        ,  0.        , -0.        ,  0.        ,  0.01216827,  0.00030677,  0.        , -1.13269856,  0.05250573, -0.        ,
         0.        ,  0.00123153, -0.00021405, -0.        ,  0.        , -0.        ],
       [ 0.48383946,  0.        ,  0.        ,  1.39234316,  0.06206985, -0.        ,  0.        , -0.        ,  0.        ,  0.50793162,  0.00817534,
         0.        ,  0.        ,  0.        ,  0.        ,  0.6369538 ,  0.        , -0.        , -0.00725747,  0.        , -0.        , -0.00605656,
         0.73346316,  0.        ,  0.        ,  0.05498797,  0.00079656,  0.00079498],
       [-0.16619412, -0.        , -0.        ,  0.06206985,  0.37341717, -0.        , -0.        , -0.        ,  0.        , -0.02215752,  0.44855382,
        -0.        , -0.        , -0.        , -0.        ,  0.06410191, -0.        , -0.        , -0.10334073,  0.        , -0.        , -0.69491275,
        -0.01523066, -0.        ,  0.        , -0.00416879,  0.11894141, -0.15423362],
       [-0.        ,  0.00998844,  0.03362058, -0.        , -0.        ,  2.07640011,  0.        , -0.00991508,  0.01484729, -0.        ,  0.        ,
        -0.        ,  0.        ,  0.        , -0.        , -0.        ,  0.09969704,  0.03237522, -0.        , -0.00986024,  0.00343376, -0.        ,
         0.        , -1.29063325,  0.64085234,  0.        ,  0.        ,  0.        ],
       [ 0.        ,  0.03362058, -0.00998844,  0.        , -0.        ,  0.        ,  2.07640011, -0.01484729, -0.00991508,  0.        ,  0.        ,
        -0.        ,  0.        , -0.        ,  0.        ,  0.        , -0.03237522,  0.09969704,  0.        ,  0.00343376,  0.00986024, -0.        ,
        -0.        ,  0.64085234,  1.29063325, -0.        ,  0.        ,  0.        ],
       [ 0.        ,  0.32575286,  0.10076784, -0.        , -0.        , -0.00991508, -0.01484729,  3.11044864,  0.        , -0.        , -0.        ,
         0.        ,  0.        , -0.        ,  0.        ,  0.        ,  0.00265378,  0.00941296,  0.        ,  0.11108091, -0.42844367, -0.        ,
        -0.        ,  0.00030297, -0.00235562, -0.        , -0.        ,  0.        ],
       [-0.        ,  0.10076784, -0.32575286,  0.        ,  0.        ,  0.01484729, -0.00991508,  0.        ,  3.11044864,  0.        ,  0.        ,
         0.        , -0.        , -0.        ,  0.        , -0.        , -0.00941296,  0.00265378,  0.        , -0.42844367, -0.11108091,  0.        ,
         0.        , -0.00235562, -0.00030297,  0.        , -0.        ,  0.        ],
       [ 0.13830374,  0.        ,  0.        ,  0.50793162, -0.02215752, -0.        ,  0.        , -0.        ,  0.        ,  3.16626366, -0.00905043,
        -0.        , -0.        , -0.        , -0.        ,  0.46612667,  0.        , -0.        , -0.01306133, -0.        ,  0.        ,  0.00100863,
        -1.07446471, -0.        , -0.        , -0.30090783, -0.00042104, -0.00076887],
       [ 0.0631598 ,  0.        ,  0.        ,  0.00817534,  0.44855382,  0.        ,  0.        , -0.        ,  0.        , -0.00905043,  2.60218858,
        -0.        , -0.        , -0.        , -0.        , -0.02413698,  0.        ,  0.        ,  0.15212535, -0.        , -0.        , -0.69851338,
         0.01647377,  0.        , -0.        , -0.00292705,  0.30564489,  1.08550909],
       [ 0.        ,  0.        ,  0.        ,  0.        , -0.        , -0.        , -0.        ,  0.        ,  0.        , -0.        , -0.        ,
         3.28155884,  0.        , -0.00320722, -0.01623944, -0.        ,  0.        ,  0.        ,  0.        , -0.        , -0.        ,  0.        ,
         0.        ,  0.        , -0.        ,  0.        , -0.        , -0.        ],
       [ 0.        , -0.        , -0.        ,  0.        , -0.        ,  0.        ,  0.        ,  0.        , -0.        , -0.        , -0.        ,
         0.        ,  3.28155884,  0.01623944, -0.00320722, -0.        , -0.        ,  0.        ,  0.        , -0.        ,  0.        ,  0.        ,
         0.        ,  0.        , -0.        ,  0.        , -0.        , -0.        ],
       [ 0.        ,  0.        ,  0.        ,  0.        , -0.        ,  0.        , -0.        , -0.        , -0.        , -0.        , -0.        ,
        -0.00320722,  0.01623944,  3.65836939,  0.        , -0.        ,  0.        , -0.        ,  0.        ,  0.        ,  0.        ,  0.        ,
         0.        , -0.        , -0.        ,  0.        , -0.        , -0.        ],
       [ 0.        , -0.        , -0.        ,  0.        , -0.        , -0.        ,  0.        ,  0.        ,  0.        , -0.        , -0.        ,
        -0.01623944, -0.00320722,  0.        ,  3.65836939,  0.        ,  0.        ,  0.        ,  0.        , -0.        ,  0.        ,  0.        ,
         0.        ,  0.        ,  0.        ,  0.        , -0.        , -0.        ],
       [ 0.17860414,  0.        ,  0.        ,  0.6369538 ,  0.06410191, -0.        ,  0.        ,  0.        , -0.        ,  0.46612667, -0.02413698,
        -0.        , -0.        , -0.        ,  0.        ,  1.40155534, -0.        , -0.        ,  0.02486357,  0.        ,  0.        , -0.02458369,
         0.08888094,  0.        ,  0.        ,  0.99087697,  0.00452638, -0.00304012],
       [ 0.        , -0.00030677,  0.01216827,  0.        , -0.        ,  0.09969704, -0.03237522,  0.00265378, -0.00941296,  0.        ,  0.        ,
         0.        , -0.        ,  0.        ,  0.        , -0.        ,  4.34919287,  0.        ,  0.        , -0.00736302,  0.0001555 , -0.        ,
        -0.        ,  0.30328665, -0.04487096,  0.        , -0.        ,  0.        ],
       [-0.        ,  0.01216827,  0.00030677, -0.        , -0.        ,  0.03237522,  0.09969704,  0.00941296,  0.00265378, -0.        ,  0.        ,
         0.        ,  0.        , -0.        ,  0.        , -0.        ,  0.        ,  4.34919287, -0.        ,  0.0001555 ,  0.00736302,  0.        ,
         0.        , -0.04487096, -0.30328665,  0.        ,  0.        ,  0.        ],
       [-0.02830752, -0.        ,  0.        , -0.00725747, -0.10334073, -0.        ,  0.        ,  0.        ,  0.        , -0.01306133,  0.15212535,
         0.        ,  0.        ,  0.        ,  0.        ,  0.02486357,  0.        , -0.        ,  3.8738139 ,  0.        ,  0.        ,  1.34026043,
        -0.01159037, -0.        , -0.        ,  0.01184116,  0.27539091,  1.04346084],
       [-0.        ,  0.05250573, -1.13269856,  0.        ,  0.        , -0.00986024,  0.00343376,  0.11108091, -0.42844367, -0.        , -0.        ,
        -0.        , -0.        ,  0.        , -0.        ,  0.        , -0.00736302,  0.0001555 ,  0.        ,  3.28592728, -0.        ,  0.        ,
        -0.        ,  0.01175093, -0.00148573,  0.        , -0.        ,  0.        ],
       [-0.        ,  1.13269856,  0.05250573, -0.        , -0.        ,  0.00343376,  0.00986024, -0.42844367, -0.11108091,  0.        , -0.        ,
        -0.        ,  0.        ,  0.        ,  0.        ,  0.        ,  0.0001555 ,  0.00736302,  0.        , -0.        ,  3.28592728,  0.        ,
         0.        ,  0.00148573,  0.01175093,  0.        , -0.        ,  0.        ],
       [ 0.00187383, -0.        , -0.        , -0.00605656, -0.69491275, -0.        , -0.        , -0.        ,  0.        ,  0.00100863, -0.69851338,
         0.        ,  0.        ,  0.        ,  0.        , -0.02458369, -0.        ,  0.        ,  1.34026043,  0.        ,  0.        ,  2.85786995,
        -0.00333045, -0.        , -0.        , -0.01067535, -1.10052216,  0.82259354],
       [ 0.12391465,  0.        ,  0.        ,  0.73346316, -0.01523066,  0.        , -0.        , -0.        ,  0.        , -1.07446471,  0.01647377,
         0.        ,  0.        ,  0.        ,  0.        ,  0.08888094, -0.        ,  0.        , -0.01159037, -0.        ,  0.        , -0.00333045,
         3.75610834,  0.        ,  0.        , -0.0972759 , -0.00040115,  0.0054991 ],
       [ 0.        , -0.00021405,  0.00123153,  0.        , -0.        , -1.29063325,  0.64085234,  0.00030297, -0.00235562, -0.        ,  0.        ,
         0.        ,  0.        , -0.        ,  0.        ,  0.        ,  0.30328665, -0.04487096, -0.        ,  0.01175093,  0.00148573, -0.        ,
         0.        ,  3.01475015,  0.        , -0.        , -0.        , -0.        ],
       [ 0.        , -0.00123153, -0.00021405,  0.        ,  0.        ,  0.64085234,  1.29063325, -0.00235562, -0.00030297, -0.        , -0.        ,
        -0.        , -0.        , -0.        ,  0.        ,  0.        , -0.04487096, -0.30328665, -0.        , -0.00148573,  0.01175093, -0.        ,
         0.        ,  0.        ,  3.01475015, -0.        ,  0.        ,  0.        ],
       [-0.02278858,  0.        , -0.        ,  0.05498797, -0.00416879,  0.        , -0.        , -0.        ,  0.        , -0.30090783, -0.00292705,
         0.        ,  0.        ,  0.        ,  0.        ,  0.99087697,  0.        ,  0.        ,  0.01184116,  0.        ,  0.        , -0.01067535,
        -0.0972759 , -0.        , -0.        ,  1.82562617,  0.00649351, -0.00501987],
       [-0.00297811,  0.        ,  0.        ,  0.00079656,  0.11894141,  0.        ,  0.        , -0.        , -0.        , -0.00042104,  0.30564489,
        -0.        , -0.        , -0.        , -0.        ,  0.00452638, -0.        ,  0.        ,  0.27539091, -0.        , -0.        , -1.10052216,
        -0.00040115, -0.        ,  0.        ,  0.00649351,  1.16614853, -0.05085814],
       [-0.01239019, -0.        , -0.        ,  0.00079498, -0.15423362,  0.        ,  0.        ,  0.        ,  0.        , -0.00076887,  1.08550909,
        -0.        , -0.        , -0.        , -0.        , -0.00304012,  0.        ,  0.        ,  1.04346084,  0.        ,  0.        ,  0.82259354,
         0.0054991 , -0.        ,  0.        , -0.00501987, -0.05085814,  3.66332828]]), array([[-0.329522  ,  0.        ,  0.        ,  0.48383946,  0.16619412, -0.        ,  0.        ,  0.        , -0.        ,  0.13830374, -0.0631598 ,
        -0.        , -0.        , -0.        ,  0.        ,  0.17860414,  0.        , -0.        ,  0.02830752, -0.        ,  0.        , -0.00187383,
         0.12391465,  0.        ,  0.        , -0.02278858,  0.00297811,  0.01239019],
       [ 0.        ,  1.27336871, -0.        , -0.        , -0.        , -0.00998844, -0.03362058,  0.32575286,  0.10076784,  0.        ,  0.        ,
         0.        , -0.        ,  0.        , -0.        ,  0.        ,  0.00030677, -0.01216827, -0.        ,  0.05250573,  1.13269856, -0.        ,
         0.        ,  0.00021405,  0.00123153,  0.        ,  0.        , -0.        ],
       [ 0.        , -0.        ,  1.27336871,  0.        , -0.        , -0.03362058,  0.00998844,  0.10076784, -0.32575286,  0.        ,  0.        ,
         0.        , -0.        ,  0.        , -0.        ,  0.        , -0.01216827, -0.00030677,  0.        , -1.13269856,  0.05250573, -0.        ,
         0.        , -0.00123153,  0.00021405, -0.        ,  0.        , -0.        ],
       [ 0.48383946, -0.        ,  0.        ,  1.39234316, -0.06206985, -0.        ,  0.        , -0.        ,  0.        ,  0.50793162, -0.00817534,
         0.        ,  0.        ,  0.        ,  0.        ,  0.6369538 ,  0.        , -0.        ,  0.00725747,  0.        , -0.        ,  0.00605656,
         0.73346316,  0.        ,  0.        ,  0.05498797, -0.00079656, -0.00079498],
       [ 0.16619412, -0.        , -0.        , -0.06206985,  0.37341717,  0.        ,  0.        , -0.        ,  0.        ,  0.02215752,  0.44855382,
        -0.        , -0.        , -0.        , -0.        , -0.06410191, -0.        ,  0.        , -0.10334073,  0.        , -0.        , -0.69491275,
         0.01523066,  0.        ,  0.        ,  0.00416879,  0.11894141, -0.15423362],
       [-0.        , -0.00998844, -0.03362058, -0.        ,  0.        ,  2.07640011, -0.        ,  0.00991508, -0.01484729, -0.        ,  0.        ,
         0.        ,  0.        ,  0.        , -0.        , -0.        ,  0.09969704,  0.03237522, -0.        ,  0.00986024, -0.00343376, -0.        ,
         0.        , -1.29063325,  0.64085234,  0.        ,  0.        ,  0.        ],
       [ 0.        , -0.03362058,  0.00998844,  0.        ,  0.        , -0.        ,  2.07640011,  0.01484729,  0.00991508,  0.        , -0.        ,
        -0.        ,  0.        , -0.        ,  0.        ,  0.        , -0.03237522,  0.09969704,  0.        , -0.00343376, -0.00986024, -0.        ,
        -0.        ,  0.64085234,  1.29063325, -0.        ,  0.        ,  0.        ],
       [ 0.        ,  0.32575286,  0.10076784, -0.        , -0.        ,  0.00991508,  0.01484729,  3.11044864,  0.        , -0.        , -0.        ,
         0.        ,  0.        , -0.        ,  0.        ,  0.        , -0.00265378, -0.00941296,  0.        ,  0.11108091, -0.42844367, -0.        ,
        -0.        , -0.00030297,  0.00235562, -0.        , -0.        ,  0.        ],
       [-0.        ,  0.10076784, -0.32575286,  0.        ,  0.        , -0.01484729,  0.00991508,  0.        ,  3.11044864,  0.        ,  0.        ,
         0.        , -0.        , -0.        ,  0.        , -0.        ,  0.00941296, -0.00265378,  0.        , -0.42844367, -0.11108091,  0.        ,
         0.        ,  0.00235562,  0.00030297,  0.        , -0.        ,  0.        ],
       [ 0.13830374,  0.        ,  0.        ,  0.50793162,  0.02215752, -0.        ,  0.        , -0.        ,  0.        ,  3.16626366,  0.00905043,
        -0.        , -0.        , -0.        , -0.        ,  0.46612667,  0.        , -0.        ,  0.01306133, -0.        ,  0.        , -0.00100863,
        -1.07446471, -0.        , -0.        , -0.30090783,  0.00042104,  0.00076887],
       [-0.0631598 ,  0.        ,  0.        , -0.00817534,  0.44855382,  0.        , -0.        , -0.        ,  0.        ,  0.00905043,  2.60218858,
        -0.        , -0.        , -0.        , -0.        ,  0.02413698,  0.        ,  0.        ,  0.15212535, -0.        ,  0.        , -0.69851338,
        -0.01647377,  0.        , -0.        ,  0.00292705,  0.30564489,  1.08550909],
       [-0.        ,  0.        ,  0.        ,  0.        , -0.        ,  0.        , -0.        ,  0.        ,  0.        , -0.        , -0.        ,
         3.28155884,  0.        ,  0.00320722,  0.01623944,  0.        ,  0.        ,  0.        ,  0.        , -0.        , -0.        ,  0.        ,
         0.        ,  0.        , -0.        ,  0.        , -0.        , -0.        ],
       [-0.        , -0.        , -0.        ,  0.        , -0.        ,  0.        ,  0.        ,  0.        , -0.        , -0.        , -0.        ,
         0.        ,  3.28155884, -0.01623944,  0.00320722,  0.        , -0.        ,  0.        ,  0.        , -0.        ,  0.        ,  0.        ,
         0.        ,  0.        , -0.        ,  0.        , -0.        , -0.        ],
       [-0.        ,  0.        ,  0.        ,  0.        , -0.        ,  0.        , -0.        , -0.        , -0.        , -0.        , -0.        ,
         0.00320722, -0.01623944,  3.65836939,  0.        , -0.        ,  0.        , -0.        ,  0.        ,  0.        , -0.        ,  0.        ,
         0.        , -0.        , -0.        ,  0.        , -0.        , -0.        ],
       [ 0.        , -0.        , -0.        ,  0.        , -0.        , -0.        ,  0.        ,  0.        ,  0.        , -0.        , -0.        ,
         0.01623944,  0.00320722,  0.        ,  3.65836939,  0.        ,  0.        ,  0.        ,  0.        , -0.        ,  0.        ,  0.        ,
         0.        ,  0.        ,  0.        ,  0.        , -0.        , -0.        ],
       [ 0.17860414,  0.        ,  0.        ,  0.6369538 , -0.06410191, -0.        ,  0.        ,  0.        , -0.        ,  0.46612667,  0.02413698,
         0.        ,  0.        , -0.        ,  0.        ,  1.40155534, -0.        , -0.        , -0.02486357,  0.        , -0.        ,  0.02458369,
         0.08888094,  0.        ,  0.        ,  0.99087697, -0.00452638,  0.00304012],
       [ 0.        ,  0.00030677, -0.01216827,  0.        , -0.        ,  0.09969704, -0.03237522, -0.00265378,  0.00941296,  0.        ,  0.        ,
         0.        , -0.        ,  0.        ,  0.        , -0.        ,  4.34919287,  0.        ,  0.        ,  0.00736302, -0.0001555 , -0.        ,
        -0.        ,  0.30328665, -0.04487096,  0.        , -0.        ,  0.        ],
       [-0.        , -0.01216827, -0.00030677, -0.        ,  0.        ,  0.03237522,  0.09969704, -0.00941296, -0.00265378, -0.        ,  0.        ,
         0.        ,  0.        , -0.        ,  0.        , -0.        ,  0.        ,  4.34919287, -0.        , -0.0001555 , -0.00736302,  0.        ,
         0.        , -0.04487096, -0.30328665,  0.        ,  0.        ,  0.        ],
       [ 0.02830752, -0.        ,  0.        ,  0.00725747, -0.10334073, -0.        ,  0.        ,  0.        ,  0.        ,  0.01306133,  0.15212535,
         0.        ,  0.        ,  0.        ,  0.        , -0.02486357,  0.        , -0.        ,  3.8738139 ,  0.        ,  0.        ,  1.34026043,
         0.01159037, -0.        , -0.        , -0.01184116,  0.27539091,  1.04346084],
       [-0.        ,  0.05250573, -1.13269856,  0.        ,  0.        ,  0.00986024, -0.00343376,  0.11108091, -0.42844367, -0.        , -0.        ,
        -0.        , -0.        ,  0.        , -0.        ,  0.        ,  0.00736302, -0.0001555 ,  0.        ,  3.28592728, -0.        ,  0.        ,
        -0.        , -0.01175093,  0.00148573,  0.        , -0.        ,  0.        ],
       [ 0.        ,  1.13269856,  0.05250573, -0.        , -0.        , -0.00343376, -0.00986024, -0.42844367, -0.11108091,  0.        ,  0.        ,
        -0.        ,  0.        , -0.        ,  0.        , -0.        , -0.0001555 , -0.00736302,  0.        , -0.        ,  3.28592728,  0.        ,
         0.        , -0.00148573, -0.01175093,  0.        , -0.        ,  0.        ],
       [-0.00187383, -0.        , -0.        ,  0.00605656, -0.69491275, -0.        , -0.        , -0.        ,  0.        , -0.00100863, -0.69851338,
         0.        ,  0.        ,  0.        ,  0.        ,  0.02458369, -0.        ,  0.        ,  1.34026043,  0.        ,  0.        ,  2.85786995,
         0.00333045, -0.        , -0.        ,  0.01067535, -1.10052216,  0.82259354],
       [ 0.12391465,  0.        ,  0.        ,  0.73346316,  0.01523066,  0.        , -0.        , -0.        ,  0.        , -1.07446471, -0.01647377,
         0.        ,  0.        ,  0.        ,  0.        ,  0.08888094, -0.        ,  0.        ,  0.01159037, -0.        ,  0.        ,  0.00333045,
         3.75610834,  0.        ,  0.        , -0.0972759 ,  0.00040115, -0.0054991 ],
       [ 0.        ,  0.00021405, -0.00123153,  0.        ,  0.        , -1.29063325,  0.64085234, -0.00030297,  0.00235562, -0.        ,  0.        ,
         0.        ,  0.        , -0.        ,  0.        ,  0.        ,  0.30328665, -0.04487096, -0.        , -0.01175093, -0.00148573, -0.        ,
         0.        ,  3.01475015,  0.        , -0.        , -0.        , -0.        ],
       [ 0.        ,  0.00123153,  0.00021405,  0.        ,  0.        ,  0.64085234,  1.29063325,  0.00235562,  0.00030297, -0.        , -0.        ,
        -0.        , -0.        , -0.        ,  0.        ,  0.        , -0.04487096, -0.30328665, -0.        ,  0.00148573, -0.01175093, -0.        ,
         0.        ,  0.        ,  3.01475015, -0.        ,  0.        ,  0.        ],
       [-0.02278858,  0.        , -0.        ,  0.05498797,  0.00416879,  0.        , -0.        , -0.        ,  0.        , -0.30090783,  0.00292705,
         0.        ,  0.        ,  0.        ,  0.        ,  0.99087697,  0.        ,  0.        , -0.01184116,  0.        ,  0.        ,  0.01067535,
        -0.0972759 , -0.        , -0.        ,  1.82562617, -0.00649351,  0.00501987],
       [ 0.00297811,  0.        ,  0.        , -0.00079656,  0.11894141,  0.        ,  0.        , -0.        , -0.        ,  0.00042104,  0.30564489,
        -0.        , -0.        , -0.        , -0.        , -0.00452638, -0.        ,  0.        ,  0.27539091, -0.        , -0.        , -1.10052216,
         0.00040115, -0.        ,  0.        , -0.00649351,  1.16614853, -0.05085814],
       [ 0.01239019, -0.        , -0.        , -0.00079498, -0.15423362,  0.        ,  0.        ,  0.        ,  0.        ,  0.00076887,  1.08550909,
        -0.        , -0.        , -0.        , -0.        ,  0.00304012,  0.        ,  0.        ,  1.04346084,  0.        ,  0.        ,  0.82259354,
        -0.0054991 , -0.        ,  0.        ,  0.00501987, -0.05085814,  3.66332828]]))
E(UHF) =    -1.498388
NO eigenvalue
[-1. -0. -0. -0. -0. -0. -0. -0. -0. -0. -0. -0. -0. -0. -0.  0.  0.  0.  0.  0.  0.  0.  0.  0.  0.  0.  0.  0.] [-1. -0. -0. -0. -0. -0. -0. -0. -0. -0. -0. -0. -0. -0.  0.  0.  0.  0.  0.  0.  0.  0.  0.  0.  0.  0.  0.  0.]
NO vec
[[ 0.92198735  0.          0.13578972 ...  0.          0.          0.        ]
 [ 0.          0.          0.90451505 ...  0.          0.          0.        ]
 [ 0.          0.         -0.         ...  0.          0.          0.        ]
 ...
 [ 0.          0.03081224  0.         ... -0.01916685  0.04706616 -0.5490555 ]
 [ 0.         -0.02879372  0.         ... -0.18969531  0.12443339 -0.18782364]
 [ 0.         -0.02053457  0.         ...  0.16902723  0.06536348  0.23697095]]
dm(NO)
[[ 1.  0. -0. ...  0.  0.  0.]
 [ 0.  1.  0. ...  0.  0.  0.]
 [-0.  0.  0. ...  0.  0.  0.]
 ...
 [ 0. -0.  0. ...  0.  0. -0.]
 [ 0.  0.  0. ...  0. -0. -0.]
 [ 0.  0.  0. ...  0. -0.  0.]]
D(g) (NO)
[[ 0.99951369  0.02582211 -0.         ... -0.00017807  0.01089966  0.00704294]
 [-0.02582211  0.99951369 -0.00712359 ... -0.          0.          0.        ]
 [-0.          0.00712359  0.99951369 ...  0.01309229 -0.01068942  0.00423457]
 ...
 [ 0.00017807 -0.         -0.01309229 ...  0.99951369  0.         -0.        ]
 [-0.01089966  0.          0.01068942 ...  0.          0.99951369  0.        ]
 [-0.00704294  0.         -0.00423457 ... -0.          0.          0.99951369]]
...
N(g) (NO)
[[ 0.99981924 -0.02583   ]
 [ 0.02583     0.99981924]]
...
P(g) (NO)
[[ 1.         -0.         -0.         ... -0.          0.          0.        ]
 [-0.          1.          0.         ...  0.          0.          0.        ]
 [ 0.000184    0.0071223  -0.         ...  0.          0.          0.        ]
 ...
 [ 0.00017804 -0.0000046  -0.         ... -0.         -0.         -0.        ]
 [-0.01089769  0.00028154  0.         ...  0.          0.          0.        ]
 [-0.00704167  0.00018192  0.         ...  0.          0.          0.        ]]
...
Pg_ortho
[[ 0.85017838  0.          0.         ...  0.00015227 -0.0001423  -0.00010148]
 [ 0.          0.          0.         ... -0.          0.          0.        ]
 [ 0.          0.          0.         ... -0.          0.          0.        ]
 ...
 [-0.00015227 -0.         -0.         ...  0.00094953 -0.00088732 -0.0006328 ]
 [-0.00151307 -0.         -0.         ... -0.00088589  0.00082786  0.0005904 ]
 [-0.00107906 -0.         -0.         ... -0.00063178  0.0005904   0.00042105]]
G(g) (NO)
[[ 0.47888405 -0.00136108  0.03900447 ... -0.0003106   0.00132335  0.00084297]
 [ 0.00136108  0.47888405 -0.00076427 ... -0.01004945 -0.00943311  0.02000493]
 [ 0.03893768 -0.00404162  1.00552713 ... -0.00067466  0.00066393  0.00035163]
 ...
 [ 0.00003831 -0.01004114 -0.00002815 ...  1.08814961  0.04659483  0.01102566]
 [ 0.00653502 -0.00952906 -0.00069782 ...  0.04660315  1.04979002 -0.08006522]
 [ 0.00309652  0.01993741  0.00041531 ...  0.01103201 -0.08004866  0.75677736]]
...
C(NO)
[[-1.          0.         -0.         ...  0.          0.          0.        ]
 [ 0.         -1.          0.         ...  0.         -0.         -0.        ]
 [ 0.          0.         -0.32866132 ...  0.          0.          0.        ]
 ...
 [ 0.          0.          0.         ... -0.00092009 -0.03278519 -0.33125429]
 [ 0.         -0.          0.         ...  0.0001418   0.22509098  0.14871223]
 [ 0.         -0.          0.         ... -0.00052718  0.09919375 -0.13263966]]
detC 1.0000000000000002
detNg [1.00030571 1.00801118 1.04347155 1.12674641 1.25281811 1.37481211 1.44163029 1.45768934]
xg [0.99969439 0.99205249 0.95833949 0.88751115 0.79820047 0.72737212 0.69365912 0.68601723]
ciS 1.6857116149481561
[[-0.98861857  0.         -0.04619356 ...  0.          0.          0.        ]
 [ 0.         -0.98861857  0.         ...  0.01152338  0.00205794 -0.02543635]
 [-0.04619356  0.          0.09993693 ...  0.          0.          0.        ]
 ...
 [ 0.          0.01152338  0.         ...  1.8952989  -0.22979507  0.35605839]
 [ 0.          0.00205794  0.         ... -0.22979507  0.6371425  -0.43853824]
 [ 0.         -0.02543635  0.         ...  0.35605839 -0.43853824  0.22574861]]
ciH -2.572478679252125
S2 = 0.000000
X(g)
[[ 2.          0.          0.000184   ... -0.00017804  0.01089769  0.00704167]
 [-0.          2.         -0.0071223  ... -0.0000046   0.00028154  0.00018192]
 [ 0.000184    0.0071223   0.         ...  0.          0.          0.        ]
 ...
 [ 0.00017804 -0.0000046   0.         ...  0.          0.          0.        ]
 [-0.01089769  0.00028154  0.         ...  0.          0.          0.        ]
 [-0.00704167  0.00018192  0.         ...  0.          0.          0.        ]]
X(g) int
[[ 2.          0.          0.11221874 ... -0.00266065  0.162854    0.10523002]
 [ 0.          2.         -0.10643502 ... -0.00280523  0.17170356  0.11094827]
 [ 0.11221874  0.10643502  0.         ...  0.          0.          0.        ]
 ...
 [ 0.00266065 -0.00280523  0.         ...  0.          0.          0.        ]
 [-0.162854    0.17170356  0.         ...  0.          0.          0.        ]
 [-0.10523002  0.11094827  0.         ...  0.          0.          0.        ]]
Hsp + Hph =  -1.5260490919327512
Feff (mod,ortho)
[[-0.3067842   0.          0.         ...  0.          0.          0.        ]
 [ 0.          1.27336871 -0.         ...  0.          0.          0.        ]
 [ 0.         -0.          1.27336871 ...  0.          0.          0.        ]
 ...
 [ 0.          0.          0.         ...  1.82564174 -0.00651101  0.00507861]
 [ 0.          0.          0.         ... -0.00651101  1.16616763 -0.05091107]
 [ 0.          0.          0.         ...  0.00507861 -0.05091107  3.66324308]]
E(SUHF) =     -1.08506808
e_a, e_b
[-0.51108443  0.10097312  0.33926123  0.503385    0.66138247  0.66138247  0.92711411  1.01109273  1.01109273  1.4298238   2.56202058  2.71576745  3.11173713
  3.11173713  3.21975434  3.28083307  3.28083307  3.65909517  3.65909517  3.88664797  3.88664797  3.98165201  3.98165201  4.06939257  4.45757546  4.45757546
  4.61043914  5.78229417] [-0.51108443  0.10097312  0.33926123  0.503385    0.66138247  0.66138247  0.92711411  1.01109273  1.01109273  1.4298238   2.56202058  2.71576745  3.11173713
  3.11173713  3.21975434  3.28083307  3.28083307  3.65909517  3.65909517  3.88664797  3.88664797  3.98165201  3.98165201  4.06939257  4.45757546  4.45757546
  4.61043914  5.78229417]
P_a, P_b
[[ 0.82958339  0.          0.         -0.21909691  0.28921971  0.          0.          0.         -0.          0.01168348 -0.06220575  0.         -0.
  -0.          0.         -0.02998968  0.          0.         -0.00536559  0.          0.          0.04951469  0.01856798  0.         -0.          0.02883109
   0.02625899  0.02172137]
 [ 0.          0.          0.         -0.          0.          0.          0.          0.         -0.          0.         -0.          0.         -0.
  -0.          0.         -0.          0.          0.         -0.          0.          0.          0.          0.          0.         -0.          0.
   0.          0.        ]
 [ 0.          0.          0.         -0.          0.          0.          0.          0.         -0.          0.         -0.          0.         -0.
  -0.          0.         -0.          0.          0.         -0.          0.          0.          0.          0.          0.         -0.          0.
   0.          0.        ]
 [-0.21909691 -0.         -0.          0.05786453 -0.0763843  -0.         -0.         -0.          0.         -0.00308566  0.01642883 -0.          0.
   0.         -0.          0.00792042 -0.         -0.          0.00141708 -0.         -0.         -0.01307706 -0.00490389 -0.          0.         -0.00761443
  -0.00693512 -0.00573672]
 [ 0.28921971  0.          0.         -0.0763843   0.10083138  0.          0.          0.         -0.          0.00407324 -0.02168695  0.         -0.
  -0.          0.         -0.01045538  0.          0.         -0.00187062  0.          0.          0.01726243  0.0064734   0.         -0.          0.01005145
   0.00915474  0.00757278]
 [ 0.          0.          0.         -0.          0.          0.          0.          0.         -0.          0.         -0.          0.         -0.
  -0.          0.         -0.          0.          0.         -0.          0.          0.          0.          0.          0.         -0.          0.
   0.          0.        ]
 [ 0.          0.          0.         -0.          0.          0.          0.          0.         -0.          0.         -0.          0.         -0.
  -0.          0.         -0.          0.          0.         -0.          0.          0.          0.          0.          0.         -0.          0.
   0.          0.        ]
 [ 0.          0.          0.         -0.          0.          0.          0.          0.         -0.          0.         -0.          0.         -0.
  -0.          0.         -0.          0.          0.         -0.          0.          0.          0.          0.          0.         -0.          0.
   0.          0.        ]
 [-0.         -0.         -0.          0.         -0.         -0.         -0.         -0.          0.         -0.          0.         -0.          0.
   0.         -0.          0.         -0.         -0.          0.         -0.         -0.         -0.         -0.         -0.          0.         -0.
  -0.         -0.        ]
 [ 0.01168348  0.          0.         -0.00308566  0.00407324  0.          0.          0.         -0.          0.00016454 -0.00087608  0.         -0.
  -0.          0.         -0.00042236  0.          0.         -0.00007557  0.          0.          0.00069734  0.0002615   0.         -0.          0.00040604
   0.00036982  0.00030591]
 [-0.06220575 -0.         -0.          0.01642883 -0.02168695 -0.         -0.         -0.          0.         -0.00087608  0.00466446 -0.          0.
   0.         -0.          0.00224876 -0.         -0.          0.00040234 -0.         -0.         -0.00371283 -0.00139231 -0.          0.         -0.00216188
  -0.00196901 -0.00162876]
 [ 0.          0.          0.         -0.          0.          0.          0.          0.         -0.          0.         -0.          0.         -0.
  -0.          0.         -0.          0.          0.         -0.          0.          0.          0.          0.          0.         -0.          0.
   0.          0.        ]
 [-0.         -0.         -0.          0.         -0.         -0.         -0.         -0.          0.         -0.          0.         -0.          0.
   0.         -0.          0.         -0.         -0.          0.         -0.         -0.         -0.         -0.         -0.          0.         -0.
  -0.         -0.        ]
 [-0.         -0.         -0.          0.         -0.         -0.         -0.         -0.          0.         -0.          0.         -0.          0.
   0.         -0.          0.         -0.         -0.          0.         -0.         -0.         -0.         -0.         -0.          0.         -0.
  -0.         -0.        ]
 [ 0.          0.          0.         -0.          0.          0.          0.          0.         -0.          0.         -0.          0.         -0.
  -0.          0.         -0.          0.          0.         -0.          0.          0.          0.          0.          0.         -0.          0.
   0.          0.        ]
 [-0.02998968 -0.         -0.          0.00792042 -0.01045538 -0.         -0.         -0.          0.         -0.00042236  0.00224876 -0.          0.
   0.         -0.          0.00108414 -0.         -0.          0.00019397 -0.         -0.         -0.00178997 -0.00067124 -0.          0.         -0.00104225
  -0.00094927 -0.00078523]
 [ 0.          0.          0.         -0.          0.          0.          0.          0.         -0.          0.         -0.          0.         -0.
  -0.          0.         -0.          0.          0.         -0.          0.          0.          0.          0.          0.         -0.          0.
   0.          0.        ]
 [ 0.          0.          0.         -0.          0.          0.          0.          0.         -0.          0.         -0.          0.         -0.
  -0.          0.         -0.          0.          0.         -0.          0.          0.          0.          0.          0.         -0.          0.
   0.          0.        ]
 [-0.00536559 -0.         -0.          0.00141708 -0.00187062 -0.         -0.         -0.          0.         -0.00007557  0.00040234 -0.          0.
   0.         -0.          0.00019397 -0.         -0.          0.0000347  -0.         -0.         -0.00032025 -0.00012009 -0.          0.         -0.00018647
  -0.00016984 -0.00014049]
 [ 0.          0.          0.         -0.          0.          0.          0.          0.         -0.          0.         -0.          0.         -0.
  -0.          0.         -0.          0.          0.         -0.          0.          0.          0.          0.          0.         -0.          0.
   0.          0.        ]
 [ 0.          0.          0.         -0.          0.          0.          0.          0.         -0.          0.         -0.          0.         -0.
  -0.          0.         -0.          0.          0.         -0.          0.          0.          0.          0.          0.         -0.          0.
   0.          0.        ]
 [ 0.04951469  0.          0.         -0.01307706  0.01726243  0.          0.          0.         -0.          0.00069734 -0.00371283  0.         -0.
  -0.          0.         -0.00178997  0.          0.         -0.00032025  0.          0.          0.00295534  0.00110825  0.         -0.          0.00172082
   0.0015673   0.00129647]
 [ 0.01856798  0.          0.         -0.00490389  0.0064734   0.          0.          0.         -0.          0.0002615  -0.00139231  0.         -0.
  -0.          0.         -0.00067124  0.          0.         -0.00012009  0.          0.          0.00110825  0.00041559  0.         -0.          0.00064531
   0.00058774  0.00048617]
 [ 0.          0.          0.         -0.          0.          0.          0.          0.         -0.          0.         -0.          0.         -0.
  -0.          0.         -0.          0.          0.         -0.          0.          0.          0.          0.          0.         -0.          0.
   0.          0.        ]
 [-0.         -0.         -0.          0.         -0.         -0.         -0.         -0.          0.         -0.          0.         -0.          0.
   0.         -0.          0.         -0.         -0.          0.         -0.         -0.         -0.         -0.         -0.          0.         -0.
  -0.         -0.        ]
 [ 0.02883109  0.          0.         -0.00761443  0.01005145  0.          0.          0.         -0.          0.00040604 -0.00216188  0.         -0.
  -0.          0.         -0.00104225  0.          0.         -0.00018647  0.          0.          0.00172082  0.00064531  0.         -0.          0.00100199
   0.0009126   0.0007549 ]
 [ 0.02625899  0.          0.         -0.00693512  0.00915474  0.          0.          0.         -0.          0.00036982 -0.00196901  0.         -0.
  -0.          0.         -0.00094927  0.          0.         -0.00016984  0.          0.          0.0015673   0.00058774  0.         -0.          0.0009126
   0.00083118  0.00068755]
 [ 0.02172137  0.          0.         -0.00573672  0.00757278  0.          0.          0.         -0.          0.00030591 -0.00162876  0.         -0.
  -0.          0.         -0.00078523  0.          0.         -0.00014049  0.          0.          0.00129647  0.00048617  0.         -0.          0.0007549
   0.00068755  0.00056874]] 
 [[ 0.82958339 -0.         -0.         -0.21909691 -0.28921971  0.          0.          0.         -0.          0.01168348  0.06220575 -0.          0.
   0.         -0.         -0.02998968 -0.          0.          0.00536559  0.         -0.         -0.04951469  0.01856798  0.          0.          0.02883109
  -0.02625899 -0.02172137]
 [-0.          0.          0.          0.          0.         -0.         -0.         -0.          0.         -0.         -0.          0.         -0.
  -0.          0.          0.          0.         -0.         -0.         -0.          0.          0.         -0.         -0.         -0.         -0.
   0.          0.        ]
 [-0.          0.          0.          0.          0.         -0.         -0.         -0.          0.         -0.         -0.          0.         -0.
  -0.          0.          0.          0.         -0.         -0.         -0.          0.          0.         -0.         -0.         -0.         -0.
   0.          0.        ]
 [-0.21909691  0.          0.          0.05786453  0.0763843  -0.         -0.         -0.          0.         -0.00308566 -0.01642883  0.         -0.
  -0.          0.          0.00792042  0.         -0.         -0.00141708 -0.          0.          0.01307706 -0.00490389 -0.         -0.         -0.00761443
   0.00693512  0.00573672]
 [-0.28921971  0.          0.          0.0763843   0.10083138 -0.         -0.         -0.          0.         -0.00407324 -0.02168695  0.         -0.
  -0.          0.          0.01045538  0.         -0.         -0.00187062 -0.          0.          0.01726243 -0.0064734  -0.         -0.         -0.01005145
   0.00915474  0.00757278]
 [ 0.         -0.         -0.         -0.         -0.          0.          0.          0.         -0.          0.          0.         -0.          0.
   0.         -0.         -0.         -0.          0.          0.          0.         -0.         -0.          0.          0.          0.          0.
  -0.         -0.        ]
 [ 0.         -0.         -0.         -0.         -0.          0.          0.          0.         -0.          0.          0.         -0.          0.
   0.         -0.         -0.         -0.          0.          0.          0.         -0.         -0.          0.          0.          0.          0.
  -0.         -0.        ]
 [ 0.         -0.         -0.         -0.         -0.          0.          0.          0.         -0.          0.          0.         -0.          0.
   0.         -0.         -0.         -0.          0.          0.          0.         -0.         -0.          0.          0.          0.          0.
  -0.         -0.        ]
 [-0.          0.          0.          0.          0.         -0.         -0.         -0.          0.         -0.         -0.          0.         -0.
  -0.          0.          0.          0.         -0.         -0.         -0.          0.          0.         -0.         -0.         -0.         -0.
   0.          0.        ]
 [ 0.01168348 -0.         -0.         -0.00308566 -0.00407324  0.          0.          0.         -0.          0.00016454  0.00087608 -0.          0.
   0.         -0.         -0.00042236 -0.          0.          0.00007557  0.         -0.         -0.00069734  0.0002615   0.          0.          0.00040604
  -0.00036982 -0.00030591]
 [ 0.06220575 -0.         -0.         -0.01642883 -0.02168695  0.          0.          0.         -0.          0.00087608  0.00466446 -0.          0.
   0.         -0.         -0.00224876 -0.          0.          0.00040234  0.         -0.         -0.00371283  0.00139231  0.          0.          0.00216188
  -0.00196901 -0.00162876]
 [-0.          0.          0.          0.          0.         -0.         -0.         -0.          0.         -0.         -0.          0.         -0.
  -0.          0.          0.          0.         -0.         -0.         -0.          0.          0.         -0.         -0.         -0.         -0.
   0.          0.        ]
 [ 0.         -0.         -0.         -0.         -0.          0.          0.          0.         -0.          0.          0.         -0.          0.
   0.         -0.         -0.         -0.          0.          0.          0.         -0.         -0.          0.          0.          0.          0.
  -0.         -0.        ]
 [ 0.         -0.         -0.         -0.         -0.          0.          0.          0.         -0.          0.          0.         -0.          0.
   0.         -0.         -0.         -0.          0.          0.          0.         -0.         -0.          0.          0.          0.          0.
  -0.         -0.        ]
 [-0.          0.          0.          0.          0.         -0.         -0.         -0.          0.         -0.         -0.          0.         -0.
  -0.          0.          0.          0.         -0.         -0.         -0.          0.          0.         -0.         -0.         -0.         -0.
   0.          0.        ]
 [-0.02998968  0.          0.          0.00792042  0.01045538 -0.         -0.         -0.          0.         -0.00042236 -0.00224876  0.         -0.
  -0.          0.          0.00108414  0.         -0.         -0.00019397 -0.          0.          0.00178997 -0.00067124 -0.         -0.         -0.00104225
   0.00094927  0.00078523]
 [-0.          0.          0.          0.          0.         -0.         -0.         -0.          0.         -0.         -0.          0.         -0.
  -0.          0.          0.          0.         -0.         -0.         -0.          0.          0.         -0.         -0.         -0.         -0.
   0.          0.        ]
 [ 0.         -0.         -0.         -0.         -0.          0.          0.          0.         -0.          0.          0.         -0.          0.
   0.         -0.         -0.         -0.          0.          0.          0.         -0.         -0.          0.          0.          0.          0.
  -0.         -0.        ]
 [ 0.00536559 -0.         -0.         -0.00141708 -0.00187062  0.          0.          0.         -0.          0.00007557  0.00040234 -0.          0.
   0.         -0.         -0.00019397 -0.          0.          0.0000347   0.         -0.         -0.00032025  0.00012009  0.          0.          0.00018647
  -0.00016984 -0.00014049]
 [ 0.         -0.         -0.         -0.         -0.          0.          0.          0.         -0.          0.          0.         -0.          0.
   0.         -0.         -0.         -0.          0.          0.          0.         -0.         -0.          0.          0.          0.          0.
  -0.         -0.        ]
 [-0.          0.          0.          0.          0.         -0.         -0.         -0.          0.         -0.         -0.          0.         -0.
  -0.          0.          0.          0.         -0.         -0.         -0.          0.          0.         -0.         -0.         -0.         -0.
   0.          0.        ]
 [-0.04951469  0.          0.          0.01307706  0.01726243 -0.         -0.         -0.          0.         -0.00069734 -0.00371283  0.         -0.
  -0.          0.          0.00178997  0.         -0.         -0.00032025 -0.          0.          0.00295534 -0.00110825 -0.         -0.         -0.00172082
   0.0015673   0.00129647]
 [ 0.01856798 -0.         -0.         -0.00490389 -0.0064734   0.          0.          0.         -0.          0.0002615   0.00139231 -0.          0.
   0.         -0.         -0.00067124 -0.          0.          0.00012009  0.         -0.         -0.00110825  0.00041559  0.          0.          0.00064531
  -0.00058774 -0.00048617]
 [ 0.         -0.         -0.         -0.         -0.          0.          0.          0.         -0.          0.          0.         -0.          0.
   0.         -0.         -0.         -0.          0.          0.          0.         -0.         -0.          0.          0.          0.          0.
  -0.         -0.        ]
 [ 0.         -0.         -0.         -0.         -0.          0.          0.          0.         -0.          0.          0.         -0.          0.
   0.         -0.         -0.         -0.          0.          0.          0.         -0.         -0.          0.          0.          0.          0.
  -0.         -0.        ]
 [ 0.02883109 -0.         -0.         -0.00761443 -0.01005145  0.          0.          0.         -0.          0.00040604  0.00216188 -0.          0.
   0.         -0.         -0.00104225 -0.          0.          0.00018647  0.         -0.         -0.00172082  0.00064531  0.          0.          0.00100199
  -0.0009126  -0.0007549 ]
 [-0.02625899  0.          0.          0.00693512  0.00915474 -0.         -0.         -0.          0.         -0.00036982 -0.00196901  0.         -0.
  -0.          0.          0.00094927  0.         -0.         -0.00016984 -0.          0.          0.0015673  -0.00058774 -0.         -0.         -0.0009126
   0.00083118  0.00068755]
 [-0.02172137  0.          0.          0.00573672  0.00757278 -0.         -0.         -0.          0.         -0.00030591 -0.00162876  0.         -0.
  -0.          0.          0.00078523  0.         -0.         -0.00014049 -0.          0.          0.00129647 -0.00048617 -0.         -0.         -0.0007549
   0.00068755  0.00056874]]
**** Start Cycle 2 ****
dm (ortho)
[...]
Feff (mod,ortho)
[[-0.24746149 -0.          0.         ...  0.          0.          0.        ]
 [-0.          1.28748222 -0.         ...  0.          0.          0.        ]
 [ 0.         -0.          1.28748222 ...  0.          0.          0.        ]
 ...
 [ 0.          0.          0.         ...  1.83481899 -0.00977213  0.00796529]
 [ 0.          0.          0.         ... -0.00977213  1.17100803 -0.05172781]
 [ 0.          0.          0.         ...  0.00796529 -0.05172781  3.67238942]]
E(SUHF) =     -1.09866840
e_a, e_b
[-0.51715454  0.11708584  0.33746781  0.52032709  0.66969494  0.66969494  0.93677749  1.01970594  1.01970594  1.43796796  2.56643775  2.74288194  3.12425093
  3.12425093  3.23439275  3.2930215   3.2930215   3.67310012  3.67310012  3.89661268  3.89661268  4.00855908  4.00855908  4.0886685   4.47224601  4.47224601
  4.62992489  5.7975823 ] [-0.51715454  0.11708584  0.33746781  0.52032709  0.66969494  0.66969494  0.93677749  1.01970594  1.01970594  1.43796796  2.56643775  2.74288194  3.12425093
  3.12425093  3.23439275  3.2930215   3.2930215   3.67310012  3.67310012  3.89661268  3.89661268  4.00855908  4.00855908  4.0886685   4.47224601  4.47224601
  4.62992489  5.7975823 ]
P_a, P_b
[[ 0.76250866  0.          0.         -0.20322135  0.35452054  0.         -0.         -0.         -0.          0.01407608 -0.09501342  0.         -0.
   0.          0.         -0.03737537  0.         -0.          0.01242716 -0.         -0.          0.03049989  0.01943056  0.          0.          0.03041497
   0.0082923   0.03204386]
 [ 0.          0.          0.         -0.          0.          0.         -0.         -0.         -0.          0.         -0.          0.         -0.
   0.          0.         -0.          0.         -0.          0.         -0.         -0.          0.          0.          0.          0.          0.
   0.          0.        ]
 [ 0.          0.          0.         -0.          0.          0.         -0.         -0.         -0.          0.         -0.          0.         -0.
   0.          0.         -0.          0.         -0.          0.         -0.         -0.          0.          0.          0.          0.          0.
   0.          0.        ]
 [-0.20322135 -0.         -0.          0.0541619  -0.09448567 -0.          0.          0.          0.         -0.00375151  0.02532267 -0.          0.
  -0.         -0.          0.00996116 -0.          0.         -0.00331205  0.          0.         -0.00812873 -0.00517857 -0.         -0.         -0.0081061
  -0.00221004 -0.00854023]
 [ 0.35452054  0.          0.         -0.09448567  0.16483067  0.         -0.         -0.         -0.          0.00654453 -0.04417551  0.         -0.
   0.          0.         -0.01737729  0.         -0.          0.00577788 -0.         -0.          0.01418061  0.00903404  0.          0.          0.01414113
   0.00385542  0.01489846]
 [ 0.          0.          0.         -0.          0.          0.         -0.         -0.         -0.          0.         -0.          0.         -0.
   0.          0.         -0.          0.         -0.          0.         -0.         -0.          0.          0.          0.          0.          0.
   0.          0.        ]
 [-0.         -0.         -0.          0.         -0.         -0.          0.          0.          0.         -0.          0.         -0.          0.
  -0.         -0.          0.         -0.          0.         -0.          0.          0.         -0.         -0.         -0.         -0.         -0.
  -0.         -0.        ]
 [-0.         -0.         -0.          0.         -0.         -0.          0.          0.          0.         -0.          0.         -0.          0.
  -0.         -0.          0.         -0.          0.         -0.          0.          0.         -0.         -0.         -0.         -0.         -0.
  -0.         -0.        ]
 [-0.         -0.         -0.          0.         -0.         -0.          0.          0.          0.         -0.          0.         -0.          0.
  -0.         -0.          0.         -0.          0.         -0.          0.          0.         -0.         -0.         -0.         -0.         -0.
  -0.         -0.        ]
 [ 0.01407608  0.          0.         -0.00375151  0.00654453  0.         -0.         -0.         -0.          0.00025985 -0.00175397  0.         -0.
   0.          0.         -0.00068996  0.         -0.          0.00022941 -0.         -0.          0.00056303  0.00035869  0.          0.          0.00056147
   0.00015308  0.00059154]
 [-0.09501342 -0.         -0.          0.02532267 -0.04417551 -0.          0.          0.          0.         -0.00175397  0.01183928 -0.          0.
  -0.         -0.          0.00465721 -0.          0.         -0.0015485   0.          0.         -0.00380048 -0.00242117 -0.         -0.         -0.0037899
  -0.00103327 -0.00399287]
 [ 0.          0.          0.         -0.          0.          0.         -0.         -0.         -0.          0.         -0.          0.         -0.
   0.          0.         -0.          0.         -0.          0.         -0.         -0.          0.          0.          0.          0.          0.
   0.          0.        ]
 [-0.         -0.         -0.          0.         -0.         -0.          0.          0.          0.         -0.          0.         -0.          0.
  -0.         -0.          0.         -0.          0.         -0.          0.          0.         -0.         -0.         -0.         -0.         -0.
  -0.         -0.        ]
 [ 0.          0.          0.         -0.          0.          0.         -0.         -0.         -0.          0.         -0.          0.         -0.
   0.          0.         -0.          0.         -0.          0.         -0.         -0.          0.          0.          0.          0.          0.
   0.          0.        ]
 [ 0.          0.          0.         -0.          0.          0.         -0.         -0.         -0.          0.         -0.          0.         -0.
   0.          0.         -0.          0.         -0.          0.         -0.         -0.          0.          0.          0.          0.          0.
   0.          0.        ]
 [-0.03737537 -0.         -0.          0.00996116 -0.01737729 -0.          0.          0.          0.         -0.00068996  0.00465721 -0.          0.
  -0.         -0.          0.001832   -0.          0.         -0.00060913  0.          0.         -0.00149499 -0.00095241 -0.         -0.         -0.00149083
  -0.00040646 -0.00157067]
 [ 0.          0.          0.         -0.          0.          0.         -0.         -0.         -0.          0.         -0.          0.         -0.
   0.          0.         -0.          0.         -0.          0.         -0.         -0.          0.          0.          0.          0.          0.
   0.          0.        ]
 [-0.         -0.         -0.          0.         -0.         -0.          0.          0.          0.         -0.          0.         -0.          0.
  -0.         -0.          0.         -0.          0.         -0.          0.          0.         -0.         -0.         -0.         -0.         -0.
  -0.         -0.        ]
 [ 0.01242716  0.          0.         -0.00331205  0.00577788  0.         -0.         -0.         -0.          0.00022941 -0.0015485   0.         -0.
   0.          0.         -0.00060913  0.         -0.          0.00020253 -0.         -0.          0.00049708  0.00031667  0.          0.          0.00049569
   0.00013515  0.00052224]
 [-0.         -0.         -0.          0.         -0.         -0.          0.          0.          0.         -0.          0.         -0.          0.
  -0.         -0.          0.         -0.          0.         -0.          0.          0.         -0.         -0.         -0.         -0.         -0.
  -0.         -0.        ]
 [-0.         -0.         -0.          0.         -0.         -0.          0.          0.          0.         -0.          0.         -0.          0.
  -0.         -0.          0.         -0.          0.         -0.          0.          0.         -0.         -0.         -0.         -0.         -0.
  -0.         -0.        ]
 [ 0.03049989  0.          0.         -0.00812873  0.01418061  0.         -0.         -0.         -0.          0.00056303 -0.00380048  0.         -0.
   0.          0.         -0.00149499  0.         -0.          0.00049708 -0.         -0.          0.00121998  0.00077721  0.          0.          0.00121658
   0.00033169  0.00128174]
 [ 0.01943056  0.          0.         -0.00517857  0.00903404  0.         -0.         -0.         -0.          0.00035869 -0.00242117  0.         -0.
   0.          0.         -0.00095241  0.         -0.          0.00031667 -0.         -0.          0.00077721  0.00049514  0.          0.          0.00077505
   0.00021131  0.00081656]
 [ 0.          0.          0.         -0.          0.          0.         -0.         -0.         -0.          0.         -0.          0.         -0.
   0.          0.         -0.          0.         -0.          0.         -0.         -0.          0.          0.          0.          0.          0.
   0.          0.        ]
 [ 0.          0.          0.         -0.          0.          0.         -0.         -0.         -0.          0.         -0.          0.         -0.
   0.          0.         -0.          0.         -0.          0.         -0.         -0.          0.          0.          0.          0.          0.
   0.          0.        ]
 [ 0.03041497  0.          0.         -0.0081061   0.01414113  0.         -0.         -0.         -0.          0.00056147 -0.0037899   0.         -0.
   0.          0.         -0.00149083  0.         -0.          0.00049569 -0.         -0.          0.00121658  0.00077505  0.          0.          0.00121319
   0.00033076  0.00127817]
 [ 0.0082923   0.          0.         -0.00221004  0.00385542  0.         -0.         -0.         -0.          0.00015308 -0.00103327  0.         -0.
   0.          0.         -0.00040646  0.         -0.          0.00013515 -0.         -0.          0.00033169  0.00021131  0.          0.          0.00033076
   0.00009018  0.00034848]
 [ 0.03204386  0.          0.         -0.00854023  0.01489846  0.         -0.         -0.         -0.          0.00059154 -0.00399287  0.         -0.
   0.          0.         -0.00157067  0.         -0.          0.00052224 -0.         -0.          0.00128174  0.00081656  0.          0.          0.00127817
   0.00034848  0.00134662]] 
 [[ 0.76250866 -0.         -0.         -0.20322135 -0.35452054  0.          0.          0.         -0.          0.01407608  0.09501342 -0.         -0.
  -0.         -0.         -0.03737537 -0.          0.         -0.01242716  0.          0.         -0.03049989  0.01943056  0.          0.          0.03041497
  -0.0082923  -0.03204386]
 [-0.          0.          0.          0.          0.         -0.         -0.         -0.          0.         -0.         -0.          0.          0.
   0.          0.          0.          0.         -0.          0.         -0.         -0.          0.         -0.         -0.         -0.         -0.
   0.          0.        ]
 [-0.          0.          0.          0.          0.         -0.         -0.         -0.          0.         -0.         -0.          0.          0.
   0.          0.          0.          0.         -0.          0.         -0.         -0.          0.         -0.         -0.         -0.         -0.
   0.          0.        ]
 [-0.20322135  0.          0.          0.0541619   0.09448567 -0.         -0.         -0.          0.         -0.00375151 -0.02532267  0.          0.
   0.          0.          0.00996116  0.         -0.          0.00331205 -0.         -0.          0.00812873 -0.00517857 -0.         -0.         -0.0081061
   0.00221004  0.00854023]
 [-0.35452054  0.          0.          0.09448567  0.16483067 -0.         -0.         -0.          0.         -0.00654453 -0.04417551  0.          0.
   0.          0.          0.01737729  0.         -0.          0.00577788 -0.         -0.          0.01418061 -0.00903404 -0.         -0.         -0.01414113
   0.00385542  0.01489846]
 [ 0.         -0.         -0.         -0.         -0.          0.          0.          0.         -0.          0.          0.         -0.         -0.
  -0.         -0.         -0.         -0.          0.         -0.          0.          0.         -0.          0.          0.          0.          0.
  -0.         -0.        ]
 [ 0.         -0.         -0.         -0.         -0.          0.          0.          0.         -0.          0.          0.         -0.         -0.
  -0.         -0.         -0.         -0.          0.         -0.          0.          0.         -0.          0.          0.          0.          0.
  -0.         -0.        ]
 [ 0.         -0.         -0.         -0.         -0.          0.          0.          0.         -0.          0.          0.         -0.         -0.
  -0.         -0.         -0.         -0.          0.         -0.          0.          0.         -0.          0.          0.          0.          0.
  -0.         -0.        ]
 [-0.          0.          0.          0.          0.         -0.         -0.         -0.          0.         -0.         -0.          0.          0.
   0.          0.          0.          0.         -0.          0.         -0.         -0.          0.         -0.         -0.         -0.         -0.
   0.          0.        ]
 [ 0.01407608 -0.         -0.         -0.00375151 -0.00654453  0.          0.          0.         -0.          0.00025985  0.00175397 -0.         -0.
  -0.         -0.         -0.00068996 -0.          0.         -0.00022941  0.          0.         -0.00056303  0.00035869  0.          0.          0.00056147
  -0.00015308 -0.00059154]
 [ 0.09501342 -0.         -0.         -0.02532267 -0.04417551  0.          0.          0.         -0.          0.00175397  0.01183928 -0.         -0.
  -0.         -0.         -0.00465721 -0.          0.         -0.0015485   0.          0.         -0.00380048  0.00242117  0.          0.          0.0037899
  -0.00103327 -0.00399287]
 [-0.          0.          0.          0.          0.         -0.         -0.         -0.          0.         -0.         -0.          0.          0.
   0.          0.          0.          0.         -0.          0.         -0.         -0.          0.         -0.         -0.         -0.         -0.
   0.          0.        ]
 [-0.          0.          0.          0.          0.         -0.         -0.         -0.          0.         -0.         -0.          0.          0.
   0.          0.          0.          0.         -0.          0.         -0.         -0.          0.         -0.         -0.         -0.         -0.
   0.          0.        ]
 [-0.          0.          0.          0.          0.         -0.         -0.         -0.          0.         -0.         -0.          0.          0.
   0.          0.          0.          0.         -0.          0.         -0.         -0.          0.         -0.         -0.         -0.         -0.
   0.          0.        ]
 [-0.          0.          0.          0.          0.         -0.         -0.         -0.          0.         -0.         -0.          0.          0.
   0.          0.          0.          0.         -0.          0.         -0.         -0.          0.         -0.         -0.         -0.         -0.
   0.          0.        ]
 [-0.03737537  0.          0.          0.00996116  0.01737729 -0.         -0.         -0.          0.         -0.00068996 -0.00465721  0.          0.
   0.          0.          0.001832    0.         -0.          0.00060913 -0.         -0.          0.00149499 -0.00095241 -0.         -0.         -0.00149083
   0.00040646  0.00157067]
 [-0.          0.          0.          0.          0.         -0.         -0.         -0.          0.         -0.         -0.          0.          0.
   0.          0.          0.          0.         -0.          0.         -0.         -0.          0.         -0.         -0.         -0.         -0.
   0.          0.        ]
 [ 0.         -0.         -0.         -0.         -0.          0.          0.          0.         -0.          0.          0.         -0.         -0.
  -0.         -0.         -0.         -0.          0.         -0.          0.          0.         -0.          0.          0.          0.          0.
  -0.         -0.        ]
 [-0.01242716  0.          0.          0.00331205  0.00577788 -0.         -0.         -0.          0.         -0.00022941 -0.0015485   0.          0.
   0.          0.          0.00060913  0.         -0.          0.00020253 -0.         -0.          0.00049708 -0.00031667 -0.         -0.         -0.00049569
   0.00013515  0.00052224]
 [ 0.         -0.         -0.         -0.         -0.          0.          0.          0.         -0.          0.          0.         -0.         -0.
  -0.         -0.         -0.         -0.          0.         -0.          0.          0.         -0.          0.          0.          0.          0.
  -0.         -0.        ]
 [ 0.         -0.         -0.         -0.         -0.          0.          0.          0.         -0.          0.          0.         -0.         -0.
  -0.         -0.         -0.         -0.          0.         -0.          0.          0.         -0.          0.          0.          0.          0.
  -0.         -0.        ]
 [-0.03049989  0.          0.          0.00812873  0.01418061 -0.         -0.         -0.          0.         -0.00056303 -0.00380048  0.          0.
   0.          0.          0.00149499  0.         -0.          0.00049708 -0.         -0.          0.00121998 -0.00077721 -0.         -0.         -0.00121658
   0.00033169  0.00128174]
 [ 0.01943056 -0.         -0.         -0.00517857 -0.00903404  0.          0.          0.         -0.          0.00035869  0.00242117 -0.         -0.
  -0.         -0.         -0.00095241 -0.          0.         -0.00031667  0.          0.         -0.00077721  0.00049514  0.          0.          0.00077505
  -0.00021131 -0.00081656]
 [ 0.         -0.         -0.         -0.         -0.          0.          0.          0.         -0.          0.          0.         -0.         -0.
  -0.         -0.         -0.         -0.          0.         -0.          0.          0.         -0.          0.          0.          0.          0.
  -0.         -0.        ]
 [ 0.         -0.         -0.         -0.         -0.          0.          0.          0.         -0.          0.          0.         -0.         -0.
  -0.         -0.         -0.         -0.          0.         -0.          0.          0.         -0.          0.          0.          0.          0.
  -0.         -0.        ]
 [ 0.03041497 -0.         -0.         -0.0081061  -0.01414113  0.          0.          0.         -0.          0.00056147  0.0037899  -0.         -0.
  -0.         -0.         -0.00149083 -0.          0.         -0.00049569  0.          0.         -0.00121658  0.00077505  0.          0.          0.00121319
  -0.00033076 -0.00127817]
 [-0.0082923   0.          0.          0.00221004  0.00385542 -0.         -0.         -0.          0.         -0.00015308 -0.00103327  0.          0.
   0.          0.          0.00040646  0.         -0.          0.00013515 -0.         -0.          0.00033169 -0.00021131 -0.         -0.         -0.00033076
   0.00009018  0.00034848]
 [-0.03204386  0.          0.          0.00854023  0.01489846 -0.         -0.         -0.          0.         -0.00059154 -0.00399287  0.          0.
   0.          0.          0.00157067  0.         -0.          0.00052224 -0.         -0.          0.00128174 -0.00081656 -0.         -0.         -0.00127817
   0.00034848  0.00134662]]

***************
SCF converged at cycle 25
Final E(SUHF) =     -1.09866840, delta E = -6.1408e-09
***** Start DFT Correlation for SUHF+DFT **********
tot grids = 20048
E(SUHF) =     -1.09866840
E_c(TPSS) =     -0.02709555
E(SUHF+DFT) =     -1.12576394
