

#INFO: **** input file is /share/home/srwang/ExSCF/test/pytest/scan_h2/scan_dft.py ****
#import phf
from pyscf import gto, scf
#import scipy
import numpy as np
import sys, os, contextlib

from pyphf import util, sudft

#xyz = 'h2.xyz' #sys.argv[1]
fch = 'test_uhf.fchk' #sys.argv[2]
#bas = '../h2.bas'
bas = 'cc-pvtz'

for r in np.arange(0.5, 2.6, 0.1):
    output = 'sudft_%.1f.out' % r
    os.system("echo '\n' > %s" % output)
    with open(output, 'a', encoding='utf-8') as f:
        with contextlib.redirect_stdout(f):
            xyz = '''H 0.0 0.0 0.0; H 0.0 0.0 %f'''%r
            mf = util.guess_from_fchk(xyz, bas, fch)
            #mf = util.guess(xyz, bas)
            #f.flush()
            mf2 = util.SUHF(mf)
            mf2.cut_no = False
            mf2.debug = False
            mf2.max_cycle = 50
            #mf2.output = 'sudft_%.1f.out'%r
            #mf2.kernel()
            
            mf3 = sudft.SUDFT(mf2)
            mf3.kernel()
                    #INFO: ******************** input file end ********************


System: uname_result(system='Linux', node='xc02n18', release='3.10.0-693.el7.x86_64', version='#1 SMP Thu Jul 6 19:56:57 EDT 2017', machine='x86_64', processor='x86_64')  Threads 24
Python 3.7.4 (default, Aug 13 2019, 20:35:49) 
[GCC 7.3.0]
numpy 1.17.2  scipy 1.4.1
Date: Fri Nov 20 22:49:49 2020
PySCF version 1.7.3
PySCF path  /share/apps/Python/Anaconda3-2019/lib/python3.7/site-packages/pyscf

[CONFIG] conf_file None
[INPUT] verbose = 4
[INPUT] num. atoms = 2
[INPUT] num. electrons = 2
[INPUT] charge = 0
[INPUT] spin (= nelec alpha-beta = 2S) = 0
[INPUT] symmetry False subgroup None
[INPUT] Mole.unit = angstrom
[INPUT]  1 H      0.000000000000   0.000000000000   0.000000000000 AA    0.000000000000   0.000000000000   0.000000000000 Bohr
[INPUT]  2 H      0.000000000000   0.000000000000   2.400000000000 AA    0.000000000000   0.000000000000   4.535342698956 Bohr

nuclear repulsion = 0.22049050455
number of shells = 12
number of NR pGTOs = 32
number of NR cGTOs = 28
basis = cc-pvtz
ecp = {}
CPU time:      2667.19


******** <class 'pyscf.scf.uhf.UHF'> ********
method = UHF
initial guess = minao
damping factor = 0
level_shift factor = 0
DIIS = <class 'pyscf.scf.diis.CDIIS'>
diis_start_cycle = 1
diis_space = 8
SCF conv_tol = 1e-09
SCF conv_tol_grad = None
SCF max_cycles = 1
direct_scf = True
direct_scf_tol = 1e-13
chkfile to save SCF result = /share/home/srwang/ExSCF/test/pytest/scan_h2/tmpthe6c2g_
max_memory 4000 MB (current use 145 MB)
number electrons alpha = 1  beta = 1
Set gradient conv threshold to 3.16228e-05
init E= -0.647383841010906
  alpha nocc = 1  HOMO = -0.226495182918147  LUMO = -0.135269848449052
  beta  nocc = 1  HOMO = -0.225259174935633  LUMO = -0.135180325760413
cycle= 1 E= -0.877997059160339  delta_E= -0.231  |g|= 0.0311  |ddm|= 0.468
SCF not converged.
SCF energy = -0.877997059160339 after 1 cycles  <S^2> = 2.0472661e-07  2S+1 = 1.0000004


******** <class 'pyscf.scf.uhf.UHF'> ********
method = UHF
initial guess = minao
damping factor = 0
level_shift factor = 0
DIIS = <class 'pyscf.scf.diis.CDIIS'>
diis_start_cycle = 1
diis_space = 8
SCF conv_tol = 1e-09
SCF conv_tol_grad = None
SCF max_cycles = 1
direct_scf = True
direct_scf_tol = 1e-13
chkfile to save SCF result = /share/home/srwang/ExSCF/test/pytest/scan_h2/tmpthe6c2g_
max_memory 4000 MB (current use 146 MB)
number electrons alpha = 1  beta = 1
Set gradient conv threshold to 3.16228e-05
init E= -0.849258222168617
  alpha nocc = 1  HOMO = -0.492501846454583  LUMO = -0.0486926785315156
  beta  nocc = 1  HOMO = -0.492501846454583  LUMO = -0.0486926785315154
cycle= 1 E= -0.992367625114095  delta_E= -0.143  |g|= 0.0542  |ddm|= 0.138
SCF not converged.
SCF energy = -0.992367625114095 after 1 cycles  <S^2> = 0.85503152  2S+1 = 2.1024096

******** <class 'pyphf.util.SUHF'> ********
SVD: S^(-1/2)
[[-0.19660874  0.28602026 -0.06859239 -0.         -0.          0.          0.         -0.09612422 -0.02966761  0.          0.          0.          0.
   0.          0.          0.          0.          0.02730421  0.65133785  0.66942252 -0.12306022 -0.         -0.         -0.         -0.          0.33878886
  -0.85818717  0.75764506]
 [-0.26660924  0.32210981 -0.05872356 -0.         -0.          0.         -0.         -0.07524241 -0.00814378 -0.         -0.          0.         -0.
   0.         -0.         -0.         -0.          0.00700982  0.04028518 -0.18175447  0.04032187  0.         -0.          0.         -0.         -0.25179414
   1.66991965 -1.66807409]
 [-0.28240525  0.222855   -0.01950839 -0.          0.         -0.          0.         -0.00355808  0.01315979  0.          0.         -0.          0.
  -0.          0.          0.          0.         -0.01526685 -0.50081363 -0.60048616  0.11243036  0.          0.          0.          0.         -0.20417944
  -0.99089846  1.50711369]
 [ 0.          0.         -0.         -0.29488877  0.25401864  0.18919689  0.34977403  0.          0.          0.00007553 -0.00619351  0.         -0.
   0.         -0.          0.00009834 -0.00622089 -0.          0.         -0.         -0.         -0.54922648 -0.58642713 -0.52686294 -0.61290299 -0.
  -0.         -0.        ]
 [ 0.          0.         -0.          0.25401864  0.29488877 -0.34977403  0.18919689 -0.          0.         -0.00619351 -0.00007553  0.          0.
  -0.         -0.          0.00622089  0.00009834  0.          0.         -0.         -0.         -0.58642713  0.54922648 -0.61290299  0.52686294 -0.
  -0.         -0.        ]
 [-0.03100136 -0.05561338  0.36190206 -0.         -0.          0.          0.         -0.41681541 -0.03576366 -0.         -0.          0.          0.
   0.         -0.         -0.         -0.          0.03227379  0.13810522 -0.28822631  0.78718366 -0.          0.         -0.          0.          0.77147066
  -0.01717571 -0.13961616]
 [ 0.          0.          0.         -0.29935848  0.25786888  0.18637561  0.34455824  0.         -0.          0.00000034 -0.00002812  0.         -0.
  -0.         -0.          0.00000032 -0.00002027  0.         -0.          0.          0.          0.54106753  0.57771555  0.53487978  0.62222902  0.
   0.          0.        ]
 [-0.         -0.         -0.          0.25786888  0.29935848 -0.34455824  0.18637561 -0.          0.         -0.00002812 -0.00000034 -0.          0.
  -0.         -0.          0.00002027  0.00000032 -0.          0.          0.          0.          0.57771555 -0.54106753  0.62222902 -0.53487978  0.
  -0.          0.        ]
 [-0.05883497 -0.07969596  0.39618007 -0.         -0.         -0.          0.         -0.37019585 -0.00114993  0.          0.         -0.         -0.
  -0.          0.          0.          0.         -0.00063941 -0.03384155  0.19193665 -0.73014431  0.         -0.          0.         -0.         -0.90663962
   0.06580143  0.28667296]
 [-0.         -0.          0.         -0.          0.         -0.          0.          0.         -0.         -0.          0.          0.70710006  0.
   0.7071135  -0.          0.          0.         -0.          0.         -0.         -0.          0.         -0.         -0.         -0.         -0.
   0.          0.        ]
 [-0.         -0.         -0.          0.00223588  0.00259562  0.00308697 -0.00166978 -0.          0.          0.7068879   0.00862105 -0.         -0.
   0.          0.          0.70713058  0.01117853  0.          0.         -0.          0.         -0.0051151   0.00479061  0.0053741  -0.00461968  0.
  -0.         -0.        ]
 [-0.00775653 -0.00696703  0.01581662  0.         -0.          0.         -0.          0.02309446  0.70445175  0.          0.          0.          0.
   0.          0.         -0.          0.          0.70636929  0.04420821 -0.02370805  0.03195515 -0.         -0.         -0.         -0.         -0.05107881
   0.00090923  0.02647923]
 [ 0.          0.         -0.         -0.00259562  0.00223588 -0.00166978 -0.00308697  0.         -0.         -0.00862105  0.7068879  -0.          0.
   0.         -0.          0.01117853 -0.70713058 -0.         -0.         -0.         -0.         -0.00479061 -0.0051151   0.00461968  0.0053741   0.
   0.         -0.        ]
 [ 0.          0.          0.         -0.          0.         -0.          0.          0.          0.         -0.         -0.          0.          0.70710006
   0.          0.7071135  -0.         -0.          0.          0.          0.         -0.         -0.          0.          0.          0.         -0.
  -0.         -0.        ]
 [-0.19660874 -0.28602026 -0.06859239  0.          0.         -0.         -0.          0.09612422 -0.02966761  0.         -0.         -0.         -0.
  -0.         -0.          0.         -0.         -0.02730421  0.65133785 -0.66942252 -0.12306022  0.          0.          0.          0.         -0.33878886
  -0.85818717 -0.75764506]
 [-0.26660924 -0.32210981 -0.05872356  0.         -0.         -0.         -0.          0.07524241 -0.00814378 -0.         -0.         -0.          0.
  -0.          0.          0.         -0.         -0.00700982  0.04028518  0.18175447  0.04032187 -0.         -0.         -0.         -0.          0.25179414
   1.66991965  1.66807409]
 [-0.28240525 -0.222855   -0.01950839 -0.         -0.          0.          0.          0.00355808  0.01315979 -0.          0.          0.         -0.
   0.         -0.         -0.          0.          0.01526685 -0.50081363  0.60048616  0.11243036 -0.          0.         -0.          0.          0.20417944
  -0.99089846 -1.50711369]
 [ 0.          0.         -0.         -0.29488877  0.25401864 -0.18919689 -0.34977403  0.         -0.          0.00007553 -0.00619351  0.         -0.
  -0.          0.         -0.00009834  0.00622089 -0.         -0.         -0.         -0.         -0.54922648 -0.58642713  0.52686294  0.61290299  0.
   0.         -0.        ]
 [-0.         -0.         -0.          0.25401864  0.29488877  0.34977403 -0.18919689 -0.          0.         -0.00619351 -0.00007553  0.          0.
  -0.         -0.         -0.00622089 -0.00009834 -0.         -0.         -0.         -0.         -0.58642713  0.54922648  0.61290299 -0.52686294  0.
  -0.          0.        ]
 [ 0.03100136 -0.05561338 -0.36190206 -0.         -0.          0.         -0.         -0.41681541  0.03576366  0.          0.         -0.         -0.
  -0.          0.          0.          0.          0.03227379 -0.13810522 -0.28822631 -0.78718366  0.         -0.          0.         -0.          0.77147066
   0.01717571 -0.13961616]
 [ 0.         -0.         -0.         -0.29935848  0.25786888 -0.18637561 -0.34455824  0.         -0.          0.00000034 -0.00002812 -0.          0.
   0.          0.         -0.00000032  0.00002027 -0.          0.          0.          0.          0.54106753  0.57771555 -0.53487978 -0.62222902 -0.
  -0.         -0.        ]
 [-0.         -0.         -0.          0.25786888  0.29935848  0.34455824 -0.18637561 -0.          0.         -0.00002812 -0.00000034 -0.          0.
  -0.          0.         -0.00002027 -0.00000032 -0.         -0.          0.          0.          0.57771555 -0.54106753 -0.62222902  0.53487978 -0.
   0.          0.        ]
 [ 0.05883497 -0.07969596 -0.39618007 -0.         -0.          0.          0.         -0.37019585  0.00114993 -0.         -0.          0.          0.
   0.         -0.         -0.         -0.         -0.00063941  0.03384155  0.19193665  0.73014431 -0.          0.         -0.          0.         -0.90663962
  -0.06580143  0.28667296]
 [-0.         -0.          0.          0.         -0.          0.          0.          0.          0.          0.         -0.          0.70710006  0.
  -0.7071135  -0.         -0.         -0.          0.         -0.         -0.          0.          0.         -0.          0.         -0.          0.
  -0.         -0.        ]
 [ 0.          0.          0.         -0.00223588 -0.00259562  0.00308697 -0.00166978  0.          0.         -0.7068879  -0.00862105 -0.          0.
  -0.         -0.          0.70713058  0.01117853  0.         -0.          0.          0.          0.0051151  -0.00479061  0.0053741  -0.00461968  0.
  -0.          0.        ]
 [-0.00775653  0.00696703  0.01581662  0.         -0.         -0.         -0.         -0.02309446  0.70445175 -0.         -0.         -0.         -0.
  -0.         -0.          0.         -0.         -0.70636929  0.04420821  0.02370805  0.03195515  0.          0.         -0.          0.          0.05107881
   0.00090923 -0.02647923]
 [-0.         -0.         -0.          0.00259562 -0.00223588 -0.00166978 -0.00308697 -0.          0.          0.00862105 -0.7068879   0.         -0.
   0.         -0.          0.01117853 -0.70713058  0.         -0.          0.          0.          0.00479061  0.0051151   0.00461968  0.0053741   0.
   0.          0.        ]
 [ 0.          0.          0.          0.         -0.         -0.          0.          0.          0.          0.         -0.         -0.          0.70710006
   0.         -0.7071135  -0.          0.          0.          0.          0.         -0.         -0.          0.         -0.         -0.         -0.
  -0.         -0.        ]]
C (ortho)
[[-0.82615386 -0.53229466 -0.00337211  0.15147827 -0.07737835  0.         -0.         -0.          0.          0.00786883  0.04160788  0.03897487 -0.00127806
  -0.         -0.         -0.         -0.         -0.         -0.         -0.         -0.          0.00086208 -0.04305387  0.          0.         -0.
  -0.          0.0044232 ]
 [ 0.54493706 -0.76990012 -0.05362497  0.25617197 -0.00292423  0.         -0.         -0.          0.         -0.1498748  -0.04598592  0.11191592 -0.0100563
  -0.          0.          0.          0.         -0.         -0.         -0.         -0.          0.0280999  -0.00330748 -0.          0.          0.
  -0.         -0.06152342]
 [-0.07923968 -0.01460825  0.05919563  0.09723164  0.85931933 -0.          0.          0.         -0.         -0.07666666 -0.00369393  0.00174613 -0.08141534
   0.          0.          0.          0.          0.         -0.          0.         -0.         -0.04301223  0.4750247   0.         -0.          0.
   0.         -0.04580831]
 [-0.          0.          0.         -0.          0.          0.46653835 -0.63244097  0.21291828 -0.28110346 -0.          0.          0.          0.
  -0.01206644  0.01404872  0.          0.          0.0140588  -0.01176793 -0.         -0.         -0.          0.         -0.24656117  0.3884657  -0.10961936
   0.18333988 -0.        ]
 [-0.         -0.          0.         -0.         -0.          0.63244097  0.46653835  0.28110346  0.21291828 -0.          0.          0.         -0.
  -0.01404872 -0.01206644 -0.          0.          0.01176793  0.0140588  -0.          0.         -0.          0.          0.3884657   0.24656117  0.18333988
   0.10961936 -0.        ]
 [ 0.          0.         -0.          0.         -0.         -0.30124938  0.19366486  0.66530157 -0.41588157  0.         -0.         -0.         -0.
  -0.01010334  0.00548383  0.          0.         -0.01674114  0.00579135  0.          0.          0.         -0.          0.04089373 -0.20002048 -0.08054715
   0.45557083 -0.        ]
 [-0.         -0.         -0.         -0.         -0.          0.19366486  0.30124938 -0.41588157 -0.66530157  0.          0.          0.         -0.
   0.00548383  0.01010334  0.         -0.          0.00579135  0.01674114 -0.          0.         -0.          0.          0.20002048  0.04089373 -0.45557083
  -0.08054715 -0.        ]
 [-0.07761817  0.05547938  0.1861127  -0.209363   -0.07323864 -0.          0.          0.          0.         -0.81406546  0.02176299 -0.04674746 -0.02878145
  -0.          0.          0.          0.         -0.         -0.          0.         -0.          0.09574082 -0.03271223 -0.          0.          0.
  -0.         -0.48024625]
 [-0.00430488  0.00571132  0.02701838  0.02696164  0.01697329  0.          0.         -0.         -0.         -0.00345457  0.06161847  0.04024543  0.93148093
   0.         -0.         -0.         -0.          0.          0.         -0.          0.          0.32108967  0.14839129  0.         -0.         -0.
   0.          0.00029418]
 [ 0.         -0.         -0.         -0.         -0.          0.00461384 -0.00040569  0.00227305 -0.00017087  0.         -0.         -0.         -0.
   0.78183303 -0.01066106 -0.         -0.         -0.61488145 -0.09330447  0.          0.          0.         -0.          0.01126086  0.03887156  0.00400792
   0.01257043 -0.        ]
 [-0.          0.         -0.          0.         -0.          0.00040569  0.00461384  0.00017087  0.00227305 -0.          0.          0.          0.
   0.01066106  0.78183303  0.         -0.          0.09330447 -0.61488145 -0.         -0.         -0.         -0.          0.03887156 -0.01126086  0.01257043
  -0.00400792 -0.        ]
 [-0.          0.         -0.          0.         -0.         -0.         -0.         -0.          0.          0.         -0.         -0.          0.
  -0.         -0.          0.71198555  0.00084716 -0.         -0.         -0.08343216  0.69721943 -0.         -0.         -0.          0.          0.
  -0.         -0.        ]
 [-0.         -0.          0.          0.         -0.         -0.          0.         -0.         -0.          0.          0.         -0.          0.
  -0.          0.         -0.00084716  0.71198555  0.         -0.          0.69721943  0.08343216  0.         -0.          0.         -0.         -0.
  -0.         -0.        ]
 [-0.          0.         -0.          0.         -0.          0.         -0.         -0.          0.          0.         -0.         -0.          0.
  -0.         -0.          0.7021931   0.00083551 -0.          0.          0.08459566 -0.70694252 -0.         -0.         -0.          0.          0.
  -0.         -0.        ]
 [ 0.          0.          0.         -0.          0.          0.          0.          0.         -0.         -0.          0.          0.         -0.
   0.          0.         -0.00083551  0.7021931  -0.         -0.         -0.70694252 -0.08459566 -0.          0.          0.          0.         -0.
   0.          0.        ]
 [ 0.         -0.         -0.         -0.         -0.         -0.00240814  0.00014394  0.00625366 -0.00029431  0.         -0.          0.         -0.
   0.6224394   0.00894321  0.         -0.          0.76954101  0.13891797 -0.          0.          0.         -0.         -0.00558684 -0.01744237  0.00820633
   0.02344856 -0.        ]
 [ 0.          0.         -0.          0.         -0.          0.00014394  0.00240814 -0.00029431 -0.00625366 -0.          0.          0.          0.
   0.00894321 -0.6224394  -0.         -0.          0.13891797 -0.76954101  0.         -0.         -0.         -0.          0.01744237 -0.00558684 -0.02344856
   0.00820633 -0.        ]
 [ 0.00285056  0.00734514 -0.03860867  0.03603609 -0.00452384 -0.          0.          0.         -0.         -0.05013394 -0.01965138  0.03848528  0.32665343
   0.         -0.         -0.         -0.          0.          0.         -0.          0.         -0.92806779 -0.04465622 -0.         -0.          0.
   0.         -0.15080138]
 [-0.03021728 -0.178499   -0.57305326 -0.54840588  0.01043883 -0.          0.          0.         -0.          0.0051123  -0.47520467 -0.28952127  0.0481472
   0.         -0.         -0.         -0.          0.          0.         -0.          0.          0.01029488  0.16026829  0.         -0.         -0.
   0.         -0.01409859]
 [-0.07474701  0.26245838 -0.51874965  0.44172012 -0.02577642  0.         -0.         -0.          0.         -0.05629952 -0.29657265  0.52113082 -0.03583867
  -0.          0.          0.          0.         -0.         -0.          0.         -0.          0.10733439 -0.02133255 -0.          0.          0.
  -0.         -0.29100468]
 [ 0.00855945  0.0151788   0.0752666   0.05875976 -0.49179853  0.         -0.         -0.          0.          0.05104285  0.07384216  0.04227959 -0.11240308
   0.          0.          0.          0.          0.         -0.          0.         -0.         -0.06927868  0.84622205 -0.         -0.          0.
   0.         -0.073085  ]
 [ 0.         -0.         -0.         -0.         -0.          0.35901224  0.28862716  0.16506175  0.13618116  0.         -0.         -0.          0.
   0.01669247  0.0155885   0.         -0.         -0.01562604 -0.02032825  0.         -0.          0.         -0.         -0.67963682 -0.39272778 -0.31034749
  -0.16845757  0.        ]
 [-0.         -0.          0.          0.         -0.         -0.28862716  0.35901224 -0.13618116  0.16506175  0.          0.         -0.          0.
  -0.0155885   0.01669247  0.          0.          0.02032825 -0.01562604 -0.         -0.         -0.          0.         -0.39272778  0.67963682 -0.16845757
   0.31034749  0.        ]
 [ 0.         -0.          0.         -0.         -0.          0.16481105  0.12131666 -0.36924335 -0.27908288 -0.          0.         -0.         -0.
  -0.00817435 -0.00700639 -0.          0.         -0.01311009 -0.01562963  0.         -0.          0.         -0.         -0.30246447 -0.19241147  0.67259071
   0.40308115 -0.        ]
 [-0.         -0.          0.          0.         -0.         -0.12131666  0.16481105  0.27908288 -0.36924335  0.         -0.         -0.          0.
   0.00700639 -0.00817435 -0.         -0.          0.01562963 -0.01311009 -0.         -0.         -0.          0.         -0.19241147  0.30246447  0.40308115
  -0.67259071  0.        ]
 [-0.03201118  0.05444027 -0.01560916 -0.00961591 -0.04412442  0.          0.         -0.         -0.         -0.49364933 -0.16415834  0.27759138  0.01587769
   0.         -0.         -0.         -0.          0.          0.          0.          0.         -0.08465149  0.06992341  0.         -0.         -0.
   0.          0.79606948]
 [ 0.02365651 -0.07407856 -0.38728039 -0.40441015  0.06425722 -0.          0.          0.         -0.         -0.00212744  0.71329874  0.40691983 -0.03987447
  -0.          0.          0.          0.         -0.         -0.          0.         -0.         -0.01303972  0.0120934  -0.         -0.          0.
   0.         -0.00067644]
 [-0.00504306 -0.10540492  0.45095927 -0.43949909  0.03444883 -0.          0.          0.         -0.          0.23848396 -0.36947702  0.61712107 -0.00145901
  -0.          0.          0.          0.         -0.         -0.          0.         -0.          0.00477366 -0.01159404 -0.          0.          0.
  -0.         -0.12949251]]
[[-0.82615386 -0.53229466 -0.00337211  0.15147827  0.07737835 -0.          0.          0.          0.         -0.00786883  0.04160788  0.03897487 -0.00127806
   0.         -0.          0.         -0.          0.         -0.          0.         -0.          0.00086208  0.04305387  0.          0.          0.
   0.         -0.0044232 ]
 [-0.54493706  0.76990012  0.05362497 -0.25617197 -0.00292423  0.          0.          0.          0.         -0.1498748   0.04598592 -0.11191592  0.0100563
   0.          0.          0.          0.          0.         -0.         -0.          0.         -0.0280999  -0.00330748  0.          0.         -0.
   0.         -0.06152342]
 [-0.07923968 -0.01460825  0.05919563  0.09723164 -0.85931933  0.         -0.         -0.         -0.          0.07666666 -0.00369393  0.00174613 -0.08141534
   0.          0.         -0.          0.          0.          0.         -0.          0.         -0.04301223 -0.4750247  -0.         -0.         -0.
  -0.          0.04580831]
 [-0.          0.          0.          0.         -0.          0.77851214 -0.10751034  0.34907403 -0.05000669  0.          0.          0.         -0.
  -0.01724366  0.00675438 -0.         -0.          0.01405073 -0.01177755 -0.          0.          0.         -0.          0.25665351 -0.381873    0.15561717
  -0.14633254 -0.        ]
 [ 0.         -0.          0.          0.         -0.          0.10751034  0.77851214  0.05000669  0.34907403  0.         -0.          0.          0.
   0.00675438  0.01724366  0.         -0.         -0.01177755 -0.01405073  0.          0.          0.         -0.          0.381873    0.25665351  0.14633254
   0.15561717  0.        ]
 [ 0.         -0.         -0.         -0.          0.          0.34897092  0.08047708 -0.76540717 -0.17243994 -0.         -0.         -0.          0.
   0.00851075 -0.00772768  0.          0.          0.00863708 -0.0154663  -0.          0.          0.          0.          0.16673101 -0.11781876 -0.42775954
   0.1762226   0.        ]
 [ 0.         -0.         -0.         -0.          0.          0.08047708 -0.34897092 -0.17243994  0.76540717  0.         -0.          0.          0.
   0.00772768  0.00851075  0.          0.          0.0154663   0.00863708 -0.          0.         -0.         -0.         -0.11781876 -0.16673101  0.1762226
   0.42775954  0.        ]
 [ 0.07761817 -0.05547938 -0.1861127   0.209363   -0.07323864 -0.         -0.          0.          0.         -0.81406546 -0.02176299  0.04674746  0.02878145
   0.          0.         -0.          0.          0.         -0.         -0.          0.         -0.09574082 -0.03271223  0.          0.         -0.
   0.         -0.48024625]
 [-0.00430488  0.00571132  0.02701838  0.02696164 -0.01697329  0.         -0.          0.          0.          0.00345457  0.06161847  0.04024543  0.93148093
  -0.         -0.          0.         -0.         -0.          0.          0.         -0.          0.32108967 -0.14839129 -0.         -0.          0.
  -0.         -0.00029418]
 [-0.          0.         -0.          0.         -0.          0.00351157  0.00302009  0.00173572  0.00147758  0.         -0.          0.          0.
   0.26806993 -0.73451689  0.          0.         -0.01595674  0.62171561 -0.         -0.         -0.          0.          0.04012027 -0.00530744  0.01313706
   0.00122348 -0.        ]
 [-0.          0.          0.         -0.         -0.         -0.00302009  0.00351157 -0.00147758  0.00173572 -0.          0.         -0.         -0.
  -0.73451689 -0.26806993 -0.         -0.          0.62171561  0.01595674 -0.          0.         -0.         -0.          0.00530744  0.04012027 -0.00122348
   0.01313706  0.        ]
 [ 0.         -0.          0.         -0.          0.         -0.         -0.          0.         -0.          0.         -0.          0.          0.
   0.          0.         -0.01414786  0.71184548 -0.          0.         -0.00731948  0.70215545  0.          0.         -0.         -0.          0.
  -0.         -0.        ]
 [ 0.         -0.         -0.         -0.          0.         -0.         -0.         -0.          0.          0.         -0.          0.         -0.
  -0.          0.          0.71184548  0.01414786  0.          0.          0.70215545  0.00731948  0.          0.         -0.          0.         -0.
   0.          0.        ]
 [ 0.         -0.          0.         -0.          0.          0.          0.          0.          0.          0.         -0.         -0.          0.
   0.         -0.          0.01395328 -0.70205495 -0.          0.         -0.00742156  0.71194738  0.          0.          0.         -0.          0.
  -0.         -0.        ]
 [-0.          0.          0.         -0.         -0.          0.          0.          0.          0.         -0.          0.         -0.          0.
  -0.         -0.         -0.70205495 -0.01395328  0.          0.          0.71194738  0.00742156  0.          0.          0.         -0.          0.
   0.         -0.        ]
 [-0.          0.         -0.          0.          0.          0.00178428  0.00162364 -0.00465168 -0.00419008  0.         -0.         -0.         -0.
  -0.19696374  0.59052187 -0.         -0.          0.00183149  0.78197712 -0.         -0.         -0.          0.          0.01821721 -0.00189266 -0.02466184
  -0.00299539 -0.        ]
 [-0.         -0.          0.         -0.         -0.          0.00162364 -0.00178428 -0.00419008  0.00465168 -0.          0.         -0.         -0.
  -0.59052187 -0.19696374  0.         -0.         -0.78197712  0.00183149  0.         -0.         -0.         -0.         -0.00189266 -0.01821721 -0.00299539
   0.02466184 -0.        ]
 [-0.00285056 -0.00734514  0.03860867 -0.03603609 -0.00452384  0.          0.          0.          0.         -0.05013394  0.01965138 -0.03848528 -0.32665343
  -0.         -0.         -0.         -0.         -0.          0.          0.         -0.          0.92806779 -0.04465622 -0.          0.          0.
   0.         -0.15080138]
 [-0.03021728 -0.178499   -0.57305326 -0.54840588 -0.01043883  0.         -0.          0.         -0.         -0.0051123  -0.47520467 -0.28952127  0.0481472
  -0.         -0.         -0.         -0.         -0.          0.         -0.         -0.          0.01029488 -0.16026829 -0.         -0.         -0.
  -0.          0.01409859]
 [ 0.07474701 -0.26245838  0.51874965 -0.44172012 -0.02577642  0.         -0.         -0.         -0.         -0.05629952  0.29657265 -0.52113082  0.03583867
   0.          0.          0.          0.          0.         -0.         -0.          0.         -0.10733439 -0.02133255  0.          0.         -0.
   0.         -0.29100468]
 [ 0.00855945  0.0151788   0.0752666   0.05875976  0.49179853 -0.          0.          0.          0.         -0.05104285  0.07384216  0.04227959 -0.11240308
   0.          0.         -0.          0.          0.          0.         -0.          0.         -0.06927868 -0.84622205 -0.         -0.         -0.
  -0.          0.073085  ]
 [-0.          0.         -0.         -0.         -0.          0.04399575  0.45854095  0.0215148   0.21290328  0.         -0.          0.         -0.
  -0.0092067  -0.02090159 -0.          0.          0.01727338  0.01894838 -0.         -0.         -0.          0.         -0.63271809 -0.46455261 -0.23100015
  -0.26708135 -0.        ]
 [ 0.         -0.         -0.          0.          0.         -0.45854095  0.04399575 -0.21290328  0.0215148  -0.          0.         -0.         -0.
  -0.02090159  0.0092067  -0.         -0.          0.01894838 -0.01727338 -0.          0.          0.         -0.          0.46455261 -0.63271809  0.26708135
  -0.23100015 -0.        ]
 [-0.          0.         -0.          0.         -0.         -0.02820352 -0.20269429  0.06610544  0.45810258  0.         -0.          0.         -0.
  -0.00391634 -0.01002855  0.         -0.         -0.01308871 -0.01564754  0.          0.          0.          0.          0.2977303   0.1996587  -0.53774339
  -0.57068795 -0.        ]
 [ 0.         -0.         -0.          0.          0.          0.20269429 -0.02820352 -0.45810258  0.06610544 -0.          0.         -0.         -0.
  -0.01002855  0.00391634 -0.         -0.         -0.01564754  0.01308871  0.         -0.         -0.         -0.         -0.1996587   0.2977303   0.57068795
  -0.53774339 -0.        ]
 [ 0.03201118 -0.05444027  0.01560916  0.00961591 -0.04412442  0.          0.          0.          0.         -0.49364933  0.16415834 -0.27759138 -0.01587769
  -0.         -0.          0.         -0.         -0.          0.          0.         -0.          0.08465149  0.06992341 -0.         -0.          0.
  -0.          0.79606948]
 [ 0.02365651 -0.07407856 -0.38728039 -0.40441015 -0.06425722 -0.         -0.         -0.         -0.          0.00212744  0.71329874  0.40691983 -0.03987447
   0.          0.         -0.          0.          0.         -0.         -0.          0.         -0.01303972 -0.0120934  -0.         -0.         -0.
  -0.          0.00067644]
 [ 0.00504306  0.10540492 -0.45095927  0.43949909  0.03444883 -0.          0.          0.          0.          0.23848396  0.36947702 -0.61712107  0.00145901
   0.          0.          0.          0.          0.         -0.         -0.          0.         -0.00477366 -0.01159404 -0.         -0.         -0.
   0.         -0.12949251]]
grids:  [0.06237655 0.31939555 0.74529195 1.28265786 1.85893479 2.39630071 2.8221971  3.07921611] 
weights:  [0.15900941 0.34931531 0.49276925 0.56970235 0.56970235 0.49276925 0.34931531 0.15900941]
S = 0.0, Sz = 0.0
Wigner small d:  1
value : [1. 1. 1. 1. 1. 1. 1. 1.]
**** Start Cycle 1 ****
dm (ortho)
[[[ 0.6825302  -0.45020185  0.06546417 ...  0.02644616 -0.01954392  0.00416634]
  [-0.45020185  0.2969564  -0.04318064 ... -0.01744408  0.01289131 -0.00274815]
  [ 0.06546417 -0.04318064  0.00627893 ...  0.00253656 -0.00187453  0.00039961]
  ...
  [ 0.02644616 -0.01744408  0.00253656 ...  0.00102472 -0.00075727  0.00016143]
  [-0.01954392  0.01289131 -0.00187453 ... -0.00075727  0.00055963 -0.0001193 ]
  [ 0.00416634 -0.00274815  0.00039961 ...  0.00016143 -0.0001193   0.00002543]]

 [[ 0.6825302   0.45020185  0.06546417 ... -0.02644616 -0.01954392 -0.00416634]
  [ 0.45020185  0.2969564   0.04318064 ... -0.01744408 -0.01289131 -0.00274815]
  [ 0.06546417  0.04318064  0.00627893 ... -0.00253656 -0.00187453 -0.00039961]
  ...
  [-0.02644616 -0.01744408 -0.00253656 ...  0.00102472  0.00075727  0.00016143]
  [-0.01954392 -0.01289131 -0.00187453 ...  0.00075727  0.00055963  0.0001193 ]
  [-0.00416634 -0.00274815 -0.00039961 ...  0.00016143  0.0001193   0.00002543]]]
Fock (ortho)
 (array([[-0.24479429,  0.28539711, -0.15100143, -0.        , -0.        ,  0.        , -0.        , -0.06671363, -0.0187389 ,  0.        , -0.        ,
        -0.        , -0.        , -0.        ,  0.        ,  0.        ,  0.        ,  0.00733033, -0.16811747,  0.03249902, -0.09051177,  0.        ,
        -0.        ,  0.        , -0.        , -0.00040547,  0.08674184, -0.01143446],
       [ 0.28539711, -0.0188973 ,  0.05691119,  0.        ,  0.        , -0.        , -0.        ,  0.23084064,  0.00776206, -0.        , -0.        ,
         0.        , -0.        ,  0.        ,  0.        ,  0.        , -0.        , -0.03718419, -0.09072082,  0.36996869,  0.00709755, -0.        ,
         0.        , -0.        ,  0.        , -0.02872747, -0.01079475,  0.15773624],
       [-0.15100143,  0.05691119,  1.39966377,  0.        , -0.        , -0.        , -0.        ,  0.04983488, -0.02628413, -0.        , -0.        ,
         0.        , -0.        ,  0.        ,  0.        , -0.        , -0.        , -0.00233193,  0.2449699 ,  0.01409738,  1.31198178, -0.        ,
         0.        , -0.        ,  0.        , -0.00212425,  0.04148662,  0.00004394],
       [-0.        ,  0.        ,  0.        ,  1.55940915, -0.        ,  0.05843978,  0.02225611,  0.        ,  0.        , -0.00141432,  0.00160195,
         0.        ,  0.        , -0.        , -0.        , -0.00072156, -0.00086494, -0.        , -0.        ,  0.        , -0.        ,  0.05654365,
         1.35926364,  0.00000748, -0.00729252, -0.        , -0.        ,  0.        ],
       [-0.        ,  0.        , -0.        , -0.        ,  1.55940915,  0.02225611, -0.05843978,  0.        , -0.        , -0.00160195, -0.00141432,
         0.        ,  0.        , -0.        , -0.        , -0.00086494,  0.00072156, -0.        ,  0.        , -0.        , -0.        , -1.35926364,
         0.05654365,  0.00729252,  0.00000748, -0.        , -0.        , -0.        ],
       [ 0.        , -0.        , -0.        ,  0.05843978,  0.02225611,  1.61350058, -0.        , -0.        , -0.        , -0.00012419,  0.00006523,
         0.        , -0.        ,  0.        , -0.        , -0.00834875, -0.00468801,  0.        , -0.        ,  0.        ,  0.        , -0.0026271 ,
         0.00786677,  0.48323744, -1.26497371,  0.        ,  0.        ,  0.        ],
       [-0.        , -0.        , -0.        ,  0.02225611, -0.05843978, -0.        ,  1.61350058,  0.        , -0.        ,  0.00006523,  0.00012419,
         0.        , -0.        ,  0.        , -0.        ,  0.00468801, -0.00834875, -0.        ,  0.        , -0.        , -0.        ,  0.00786677,
         0.0026271 , -1.26497371, -0.48323744, -0.        , -0.        , -0.        ],
       [-0.06671363,  0.23084064,  0.04983488,  0.        ,  0.        , -0.        ,  0.        ,  1.71794108, -0.0053244 ,  0.        , -0.        ,
        -0.        ,  0.        , -0.        , -0.        ,  0.        , -0.        , -0.00788204,  0.02897592,  0.50436911,  0.00950355,  0.        ,
        -0.        ,  0.        ,  0.        , -1.25414387,  0.000776  ,  0.04231412],
       [-0.0187389 ,  0.00776206, -0.02628413,  0.        , -0.        , -0.        , -0.        , -0.0053244 ,  3.42052812, -0.        , -0.        ,
        -0.        , -0.        ,  0.        ,  0.        , -0.        , -0.        , -0.02523931,  0.13863219,  0.00276287,  0.0528896 , -0.        ,
        -0.        , -0.        , -0.        ,  0.00153524,  0.00913373,  0.00037606],
       [ 0.        , -0.        , -0.        , -0.00141432, -0.00160195, -0.00012419,  0.00006523,  0.        , -0.        ,  3.44612394, -0.        ,
         0.        ,  0.        ,  0.        , -0.        , -0.02583268, -0.00072356, -0.        , -0.        , -0.        ,  0.        , -0.01488032,
         0.01428096, -0.00011003,  0.00009694,  0.        , -0.        , -0.        ],
       [-0.        , -0.        , -0.        ,  0.00160195, -0.00141432,  0.00006523,  0.00012419, -0.        , -0.        , -0.        ,  3.44612394,
        -0.        ,  0.        , -0.        ,  0.        , -0.00072356,  0.02583268, -0.        ,  0.        , -0.        , -0.        , -0.01428096,
        -0.01488032, -0.00009694, -0.00011003, -0.        , -0.        , -0.        ],
       [-0.        ,  0.        ,  0.        ,  0.        ,  0.        ,  0.        ,  0.        , -0.        , -0.        ,  0.        , -0.        ,
         3.44986332, -0.        , -0.02590852,  0.        , -0.        , -0.        , -0.        ,  0.        , -0.        , -0.        ,  0.        ,
        -0.        , -0.        ,  0.        , -0.        ,  0.        ,  0.        ],
       [-0.        , -0.        , -0.        ,  0.        ,  0.        , -0.        , -0.        ,  0.        , -0.        ,  0.        ,  0.        ,
        -0.        ,  3.44986332, -0.        , -0.02590852,  0.        ,  0.        ,  0.        ,  0.        , -0.        , -0.        ,  0.        ,
        -0.        , -0.        , -0.        ,  0.        ,  0.        ,  0.        ],
       [-0.        ,  0.        ,  0.        , -0.        , -0.        ,  0.        ,  0.        , -0.        ,  0.        ,  0.        , -0.        ,
        -0.02590852, -0.        ,  3.45039644,  0.        , -0.        , -0.        ,  0.        ,  0.        , -0.        , -0.        , -0.        ,
         0.        , -0.        ,  0.        , -0.        ,  0.        ,  0.        ],
       [ 0.        ,  0.        ,  0.        , -0.        , -0.        , -0.        , -0.        , -0.        ,  0.        , -0.        ,  0.        ,
         0.        , -0.02590852,  0.        ,  3.45039644, -0.        ,  0.        , -0.        , -0.        ,  0.        ,  0.        , -0.        ,
         0.        , -0.        , -0.        , -0.        , -0.        , -0.        ],
       [ 0.        ,  0.        , -0.        , -0.00072156, -0.00086494, -0.00834875,  0.00468801,  0.        , -0.        , -0.02583268, -0.00072356,
        -0.        ,  0.        , -0.        , -0.        ,  3.45494071, -0.        , -0.        , -0.        ,  0.        ,  0.        ,  0.00018645,
        -0.00016917,  0.01618753, -0.01347608,  0.        , -0.        , -0.        ],
       [ 0.        , -0.        , -0.        , -0.00086494,  0.00072156, -0.00468801, -0.00834875, -0.        , -0.        , -0.00072356,  0.02583268,
        -0.        ,  0.        , -0.        ,  0.        , -0.        ,  3.45494071, -0.        ,  0.        , -0.        , -0.        , -0.00016917,
        -0.00018645, -0.01347608, -0.01618753, -0.        , -0.        , -0.        ],
       [ 0.00733033, -0.03718419, -0.00233193, -0.        , -0.        ,  0.        , -0.        , -0.00788204, -0.02523931, -0.        , -0.        ,
        -0.        ,  0.        ,  0.        , -0.        , -0.        , -0.        ,  3.46632265, -0.00585275, -0.11565648, -0.00119878, -0.        ,
        -0.        , -0.        , -0.        , -0.15662631,  0.0003831 ,  0.11838588],
       [-0.16811747, -0.09072082,  0.2449699 , -0.        ,  0.        , -0.        ,  0.        ,  0.02897592,  0.13863219, -0.        ,  0.        ,
         0.        ,  0.        ,  0.        , -0.        , -0.        ,  0.        , -0.00585275,  1.16353477, -0.05284514,  0.34654261, -0.        ,
         0.        , -0.        ,  0.        , -0.02034979, -0.9614322 , -0.01186612],
       [ 0.03249902,  0.36996869,  0.01409738,  0.        , -0.        ,  0.        , -0.        ,  0.50436911,  0.00276287, -0.        , -0.        ,
        -0.        , -0.        , -0.        ,  0.        ,  0.        , -0.        , -0.11565648, -0.05284514,  1.51870155,  0.01653399,  0.        ,
         0.        ,  0.        ,  0.        , -0.46838145,  0.01918711,  1.07271719],
       [-0.09051177,  0.00709755,  1.31198178, -0.        , -0.        ,  0.        , -0.        ,  0.00950355,  0.0528896 ,  0.        , -0.        ,
        -0.        , -0.        , -0.        ,  0.        ,  0.        , -0.        , -0.00119878,  0.34654261,  0.01653399,  2.98699325, -0.        ,
        -0.        , -0.        , -0.        , -0.01607152,  0.19052555,  0.00381545],
       [ 0.        , -0.        , -0.        ,  0.05654365, -1.35926364, -0.0026271 ,  0.00786677,  0.        , -0.        , -0.01488032, -0.01428096,
         0.        ,  0.        , -0.        , -0.        ,  0.00018645, -0.00016917, -0.        , -0.        ,  0.        , -0.        ,  3.04603344,
         0.        , -0.02228593, -0.00094998,  0.        ,  0.        ,  0.        ],
       [-0.        ,  0.        ,  0.        ,  1.35926364,  0.05654365,  0.00786677,  0.0026271 , -0.        , -0.        ,  0.01428096, -0.01488032,
        -0.        , -0.        ,  0.        ,  0.        , -0.00016917, -0.00018645, -0.        ,  0.        ,  0.        , -0.        ,  0.        ,
         3.04603344,  0.00094998, -0.02228593, -0.        ,  0.        ,  0.        ],
       [ 0.        , -0.        , -0.        ,  0.00000748,  0.00729252,  0.48323744, -1.26497371,  0.        , -0.        , -0.00011003, -0.00009694,
        -0.        , -0.        , -0.        , -0.        ,  0.01618753, -0.01347608, -0.        , -0.        ,  0.        , -0.        , -0.02228593,
         0.00094998,  3.10772716, -0.        ,  0.        ,  0.        ,  0.        ],
       [-0.        ,  0.        ,  0.        , -0.00729252,  0.00000748, -1.26497371, -0.48323744,  0.        , -0.        ,  0.00009694, -0.00011003,
         0.        , -0.        ,  0.        , -0.        , -0.01347608, -0.01618753, -0.        ,  0.        ,  0.        , -0.        , -0.00094998,
        -0.02228593,  0.        ,  3.10772716, -0.        ,  0.        ,  0.        ],
       [-0.00040547, -0.02872747, -0.00212425, -0.        , -0.        ,  0.        , -0.        , -1.25414387,  0.00153524,  0.        , -0.        ,
        -0.        ,  0.        , -0.        , -0.        ,  0.        , -0.        , -0.15662631, -0.02034979, -0.46838145, -0.01607152,  0.        ,
        -0.        ,  0.        , -0.        ,  3.17430336,  0.00992102,  0.04527346],
       [ 0.08674184, -0.01079475,  0.04148662, -0.        , -0.        ,  0.        , -0.        ,  0.000776  ,  0.00913373, -0.        , -0.        ,
         0.        ,  0.        ,  0.        , -0.        , -0.        , -0.        ,  0.0003831 , -0.9614322 ,  0.01918711,  0.19052555,  0.        ,
         0.        ,  0.        ,  0.        ,  0.00992102,  1.82632141,  0.01738292],
       [-0.01143446,  0.15773624,  0.00004394,  0.        , -0.        ,  0.        , -0.        ,  0.04231412,  0.00037606, -0.        , -0.        ,
         0.        ,  0.        ,  0.        , -0.        , -0.        , -0.        ,  0.11838588, -0.01186612,  1.07271719,  0.00381545,  0.        ,
         0.        ,  0.        ,  0.        ,  0.04527346,  0.01738292,  1.60786603]]), array([[-0.24479429, -0.28539711, -0.15100143, -0.        , -0.        ,  0.        , -0.        ,  0.06671363, -0.0187389 ,  0.        , -0.        ,
        -0.        ,  0.        , -0.        , -0.        ,  0.        , -0.        , -0.00733033, -0.16811747, -0.03249902, -0.09051177,  0.        ,
        -0.        ,  0.        ,  0.        ,  0.00040547,  0.08674184,  0.01143446],
       [-0.28539711, -0.0188973 , -0.05691119,  0.        ,  0.        , -0.        , -0.        ,  0.23084064, -0.00776206,  0.        , -0.        ,
         0.        ,  0.        ,  0.        , -0.        ,  0.        , -0.        , -0.03718419,  0.09072082,  0.36996869, -0.00709755, -0.        ,
         0.        , -0.        ,  0.        , -0.02872747,  0.01079475,  0.15773624],
       [-0.15100143, -0.05691119,  1.39966377,  0.        , -0.        ,  0.        , -0.        , -0.04983488, -0.02628413, -0.        , -0.        ,
         0.        ,  0.        ,  0.        , -0.        , -0.        , -0.        ,  0.00233193,  0.2449699 , -0.01409738,  1.31198178, -0.        ,
         0.        , -0.        ,  0.        ,  0.00212425,  0.04148662, -0.00004394],
       [-0.        ,  0.        ,  0.        ,  1.55940915,  0.        , -0.05843978, -0.02225611,  0.        ,  0.        , -0.00141432,  0.00160195,
        -0.        ,  0.        , -0.        , -0.        ,  0.00072156,  0.00086494, -0.        , -0.        ,  0.        , -0.        ,  0.05654365,
         1.35926364, -0.00000748,  0.00729252, -0.        , -0.        ,  0.        ],
       [-0.        ,  0.        , -0.        ,  0.        ,  1.55940915, -0.02225611,  0.05843978,  0.        , -0.        , -0.00160195, -0.00141432,
         0.        ,  0.        , -0.        , -0.        ,  0.00086494, -0.00072156, -0.        ,  0.        , -0.        , -0.        , -1.35926364,
         0.05654365, -0.00729252, -0.00000748, -0.        , -0.        , -0.        ],
       [ 0.        , -0.        ,  0.        , -0.05843978, -0.02225611,  1.61350058,  0.        , -0.        , -0.        ,  0.00012419, -0.00006523,
         0.        , -0.        ,  0.        , -0.        , -0.00834875, -0.00468801,  0.        ,  0.        ,  0.        ,  0.        ,  0.0026271 ,
        -0.00786677,  0.48323744, -1.26497371,  0.        ,  0.        ,  0.        ],
       [-0.        , -0.        , -0.        , -0.02225611,  0.05843978,  0.        ,  1.61350058,  0.        ,  0.        , -0.00006523, -0.00012419,
         0.        , -0.        ,  0.        , -0.        ,  0.00468801, -0.00834875, -0.        ,  0.        , -0.        , -0.        , -0.00786677,
        -0.0026271 , -1.26497371, -0.48323744, -0.        , -0.        , -0.        ],
       [ 0.06671363,  0.23084064, -0.04983488,  0.        ,  0.        , -0.        ,  0.        ,  1.71794108,  0.0053244 ,  0.        ,  0.        ,
        -0.        , -0.        ,  0.        ,  0.        ,  0.        , -0.        , -0.00788204, -0.02897592,  0.50436911, -0.00950355,  0.        ,
        -0.        ,  0.        ,  0.        , -1.25414387, -0.000776  ,  0.04231412],
       [-0.0187389 , -0.00776206, -0.02628413,  0.        , -0.        , -0.        ,  0.        ,  0.0053244 ,  3.42052812, -0.        ,  0.        ,
        -0.        ,  0.        ,  0.        , -0.        , -0.        ,  0.        ,  0.02523931,  0.13863219, -0.00276287,  0.0528896 , -0.        ,
        -0.        , -0.        , -0.        , -0.00153524,  0.00913373, -0.00037606],
       [ 0.        ,  0.        , -0.        , -0.00141432, -0.00160195,  0.00012419, -0.00006523,  0.        , -0.        ,  3.44612394,  0.        ,
        -0.        , -0.        , -0.        ,  0.        ,  0.02583268,  0.00072356, -0.        , -0.        , -0.        ,  0.        , -0.01488032,
         0.01428096,  0.00011003, -0.00009694,  0.        , -0.        , -0.        ],
       [-0.        , -0.        , -0.        ,  0.00160195, -0.00141432, -0.00006523, -0.00012419,  0.        ,  0.        ,  0.        ,  3.44612394,
         0.        , -0.        ,  0.        , -0.        ,  0.00072356, -0.02583268,  0.        ,  0.        , -0.        , -0.        , -0.01428096,
        -0.01488032,  0.00009694,  0.00011003, -0.        , -0.        , -0.        ],
       [-0.        ,  0.        ,  0.        , -0.        ,  0.        ,  0.        ,  0.        , -0.        , -0.        , -0.        ,  0.        ,
         3.44986332,  0.        ,  0.02590852, -0.        ,  0.        ,  0.        , -0.        ,  0.        , -0.        , -0.        ,  0.        ,
        -0.        , -0.        ,  0.        , -0.        ,  0.        ,  0.        ],
       [ 0.        ,  0.        ,  0.        ,  0.        ,  0.        , -0.        , -0.        , -0.        ,  0.        , -0.        , -0.        ,
         0.        ,  3.44986332,  0.        ,  0.02590852, -0.        , -0.        ,  0.        , -0.        ,  0.        ,  0.        ,  0.        ,
        -0.        , -0.        , -0.        , -0.        , -0.        , -0.        ],
       [-0.        ,  0.        ,  0.        , -0.        , -0.        ,  0.        ,  0.        ,  0.        ,  0.        , -0.        ,  0.        ,
         0.02590852,  0.        ,  3.45039644, -0.        ,  0.        ,  0.        ,  0.        ,  0.        , -0.        , -0.        , -0.        ,
         0.        , -0.        ,  0.        , -0.        ,  0.        ,  0.        ],
       [-0.        , -0.        , -0.        , -0.        , -0.        , -0.        , -0.        ,  0.        , -0.        ,  0.        , -0.        ,
        -0.        ,  0.02590852, -0.        ,  3.45039644,  0.        , -0.        ,  0.        ,  0.        , -0.        , -0.        , -0.        ,
         0.        , -0.        , -0.        ,  0.        ,  0.        ,  0.        ],
       [ 0.        ,  0.        , -0.        ,  0.00072156,  0.00086494, -0.00834875,  0.00468801,  0.        , -0.        ,  0.02583268,  0.00072356,
         0.        , -0.        ,  0.        ,  0.        ,  3.45494071,  0.        , -0.        , -0.        ,  0.        ,  0.        , -0.00018645,
         0.00016917,  0.01618753, -0.01347608,  0.        , -0.        , -0.        ],
       [-0.        , -0.        , -0.        ,  0.00086494, -0.00072156, -0.00468801, -0.00834875, -0.        ,  0.        ,  0.00072356, -0.02583268,
         0.        , -0.        ,  0.        , -0.        ,  0.        ,  3.45494071,  0.        ,  0.        , -0.        , -0.        ,  0.00016917,
         0.00018645, -0.01347608, -0.01618753, -0.        , -0.        , -0.        ],
       [-0.00733033, -0.03718419,  0.00233193, -0.        , -0.        ,  0.        , -0.        , -0.00788204,  0.02523931, -0.        ,  0.        ,
        -0.        ,  0.        ,  0.        ,  0.        , -0.        ,  0.        ,  3.46632265,  0.00585275, -0.11565648,  0.00119878, -0.        ,
         0.        , -0.        , -0.        , -0.15662631, -0.0003831 ,  0.11838588],
       [-0.16811747,  0.09072082,  0.2449699 , -0.        ,  0.        ,  0.        ,  0.        , -0.02897592,  0.13863219, -0.        ,  0.        ,
         0.        , -0.        ,  0.        ,  0.        , -0.        ,  0.        ,  0.00585275,  1.16353477,  0.05284514,  0.34654261, -0.        ,
         0.        , -0.        ,  0.        ,  0.02034979, -0.9614322 ,  0.01186612],
       [-0.03249902,  0.36996869, -0.01409738,  0.        , -0.        ,  0.        , -0.        ,  0.50436911, -0.00276287, -0.        , -0.        ,
        -0.        ,  0.        , -0.        , -0.        ,  0.        , -0.        , -0.11565648,  0.05284514,  1.51870155, -0.01653399,  0.        ,
         0.        ,  0.        ,  0.        , -0.46838145, -0.01918711,  1.07271719],
       [-0.09051177, -0.00709755,  1.31198178, -0.        , -0.        ,  0.        , -0.        , -0.00950355,  0.0528896 ,  0.        , -0.        ,
        -0.        ,  0.        , -0.        , -0.        ,  0.        , -0.        ,  0.00119878,  0.34654261, -0.01653399,  2.98699325, -0.        ,
        -0.        , -0.        , -0.        ,  0.01607152,  0.19052555, -0.00381545],
       [ 0.        , -0.        , -0.        ,  0.05654365, -1.35926364,  0.0026271 , -0.00786677,  0.        , -0.        , -0.01488032, -0.01428096,
         0.        ,  0.        , -0.        , -0.        , -0.00018645,  0.00016917, -0.        , -0.        ,  0.        , -0.        ,  3.04603344,
         0.        ,  0.02228593,  0.00094998,  0.        ,  0.        ,  0.        ],
       [-0.        ,  0.        ,  0.        ,  1.35926364,  0.05654365, -0.00786677, -0.0026271 , -0.        , -0.        ,  0.01428096, -0.01488032,
        -0.        , -0.        ,  0.        ,  0.        ,  0.00016917,  0.00018645,  0.        ,  0.        ,  0.        , -0.        ,  0.        ,
         3.04603344, -0.00094998,  0.02228593, -0.        ,  0.        ,  0.        ],
       [ 0.        , -0.        , -0.        , -0.00000748, -0.00729252,  0.48323744, -1.26497371,  0.        , -0.        ,  0.00011003,  0.00009694,
        -0.        , -0.        , -0.        , -0.        ,  0.01618753, -0.01347608, -0.        , -0.        ,  0.        , -0.        ,  0.02228593,
        -0.00094998,  3.10772716,  0.        ,  0.        ,  0.        ,  0.        ],
       [ 0.        ,  0.        ,  0.        ,  0.00729252, -0.00000748, -1.26497371, -0.48323744,  0.        , -0.        , -0.00009694,  0.00011003,
         0.        , -0.        ,  0.        , -0.        , -0.01347608, -0.01618753, -0.        ,  0.        ,  0.        , -0.        ,  0.00094998,
         0.02228593,  0.        ,  3.10772716, -0.        ,  0.        ,  0.        ],
       [ 0.00040547, -0.02872747,  0.00212425, -0.        , -0.        ,  0.        , -0.        , -1.25414387, -0.00153524,  0.        , -0.        ,
        -0.        , -0.        , -0.        ,  0.        ,  0.        , -0.        , -0.15662631,  0.02034979, -0.46838145,  0.01607152,  0.        ,
        -0.        ,  0.        , -0.        ,  3.17430336, -0.00992102,  0.04527346],
       [ 0.08674184,  0.01079475,  0.04148662, -0.        , -0.        ,  0.        , -0.        , -0.000776  ,  0.00913373, -0.        , -0.        ,
         0.        , -0.        ,  0.        ,  0.        , -0.        , -0.        , -0.0003831 , -0.9614322 , -0.01918711,  0.19052555,  0.        ,
         0.        ,  0.        ,  0.        , -0.00992102,  1.82632141, -0.01738292],
       [ 0.01143446,  0.15773624, -0.00004394,  0.        , -0.        ,  0.        , -0.        ,  0.04231412, -0.00037606, -0.        , -0.        ,
         0.        , -0.        ,  0.        ,  0.        , -0.        , -0.        ,  0.11838588,  0.01186612,  1.07271719, -0.00381545,  0.        ,
         0.        ,  0.        ,  0.        ,  0.04527346, -0.01738292,  1.60786603]]))
E(UHF) =    -1.212858
NO eigenvalue
[-1. -0. -0. -0. -0. -0. -0. -0. -0. -0. -0. -0. -0. -0. -0.  0.  0.  0.  0.  0.  0.  0.  0.  0.  0.  0.  0.  0.] [-1. -0. -0. -0. -0. -0. -0. -0. -0. -0. -0. -0. -0. -0. -0. -0. -0.  0.  0.  0.  0.  0.  0.  0.  0.  0.  0.  0.]
NO vec
[[ 0.82615386  0.         -0.19802774 ...  0.          0.          0.        ]
 [-0.54493706  0.         -0.47698589 ...  0.          0.          0.        ]
 [ 0.07923968  0.         -0.25204451 ...  0.          0.          0.        ]
 ...
 [ 0.         -0.03201118  0.         ... -0.15688688 -0.72530049 -0.02355711]
 [ 0.         -0.02365651  0.         ... -0.1267014  -0.03466488 -0.01870023]
 [ 0.         -0.00504306  0.         ... -0.04717625 -0.03196249  0.00731518]]
dm(NO)
[[ 1.  0. -0. ...  0.  0.  0.]
 [ 0.  1.  0. ... -0.  0. -0.]
 [-0.  0. -0. ...  0.  0.  0.]
 ...
 [ 0. -0.  0. ... -0. -0. -0.]
 [ 0. -0.  0. ...  0. -0. -0.]
 [ 0. -0.  0. ... -0. -0. -0.]]
D(g) (NO)
[[ 0.99951369  0.01187293 -0.         ...  0.00246913 -0.00250097  0.02788252]
 [-0.01187293  0.99951369  0.01211869 ... -0.         -0.         -0.        ]
 [-0.         -0.01211869  0.99951369 ... -0.0136141   0.00664917  0.011031  ]
 ...
 [-0.00246913  0.          0.0136141  ...  0.99951369  0.          0.        ]
 [ 0.00250097 -0.         -0.00664917 ...  0.          0.99951369 -0.        ]
 [-0.02788252 -0.         -0.011031   ...  0.         -0.          0.99951369]]
...
N(g) (NO)
[[ 1.0003454 -0.0118828]
 [ 0.0118828  1.0003454]]
...
P(g) (NO)
[[ 1.         -0.         -0.         ...  0.         -0.          0.        ]
 [-0.          1.          0.         ... -0.          0.         -0.        ]
 [-0.000144   -0.01212287  0.         ...  0.         -0.          0.        ]
 ...
 [-0.00246998  0.00002934  0.         ... -0.          0.         -0.        ]
 [ 0.00250183 -0.00002972 -0.         ...  0.         -0.          0.        ]
 [-0.02789215  0.00033132  0.         ... -0.          0.         -0.        ]]
...
Pg_ortho
[[ 0.68268681 -0.45030516  0.06547919 ... -0.00051086 -0.00037753 -0.00008048]
 [-0.44997152  0.29680446 -0.04315854 ... -0.00075133 -0.00055524 -0.00011837]
 [ 0.06547919 -0.04319055  0.00628037 ... -0.000049   -0.00003621 -0.00000772]
 ...
 [-0.00113906  0.00075133 -0.00010925 ...  0.00102419  0.00075689  0.00016135]
 [ 0.00037753 -0.00024902  0.00003621 ...  0.00075745  0.00055976  0.00011933]
 [-0.00017945  0.00011837 -0.00001721 ...  0.00016135  0.00011924  0.00002542]]
G(g) (NO)
[[ 0.24501887 -0.00188403 -0.02130183 ...  0.00034657 -0.00001499  0.00087765]
 [ 0.00188403  0.24501887  0.00076926 ... -0.02106448  0.02310677  0.06695719]
 [-0.02126917  0.0092842   0.85775865 ... -0.00182999 -0.0009311  -0.00191162]
 ...
 [-0.00247286 -0.02106876 -0.00258511 ...  0.8022262   0.02995788 -0.14088931]
 [-0.00192012  0.02310993 -0.00038422 ...  0.0299589   0.7650336   0.0040236 ]
 [ 0.01722258  0.06688266  0.00415775 ... -0.1408881   0.00401258  0.87276678]]
...
C(NO)
[[-1.          0.          0.         ...  0.          0.          0.        ]
 [ 0.         -1.          0.         ...  0.          0.         -0.        ]
 [ 0.          0.          0.28645211 ...  0.          0.          0.        ]
 ...
 [ 0.         -0.          0.         ...  0.         -0.         -0.30451059]
 [ 0.          0.          0.         ... -0.          0.         -0.53188897]
 [ 0.          0.          0.         ...  0.          0.         -0.03442013]]
detC 1.0000000000000004
detNg [1.00083212 1.02209926 1.12782641 1.44098343 2.21730485 3.87135918 6.00276381 6.85871474]
xg [0.99916857 0.97837855 0.88666127 0.69397051 0.45099798 0.25830721 0.16658993 0.14579991]
ciS 1.1449684843791568
[[-0.72892731  0.          0.00224725 ...  0.          0.          0.        ]
 [ 0.         -0.72892731  0.         ...  0.01782246 -0.02062811 -0.02936437]
 [ 0.00224725  0.          0.67998622 ...  0.          0.          0.        ]
 ...
 [ 0.          0.01782246  0.         ...  0.82744889  0.44233286 -0.05210279]
 [ 0.         -0.02062811  0.         ...  0.44233286  1.19374332  0.19534104]
 [ 0.         -0.02936437  0.         ... -0.05210279  0.19534104 -0.62190155]]
ciH -1.386549330447932
S2 = -0.000000
X(g)
[[ 2.         -0.         -0.000144   ...  0.00246998 -0.00250183  0.02789215]
 [ 0.          2.          0.01212287 ...  0.00002934 -0.00002972  0.00033132]
 [-0.000144   -0.01212287  0.         ...  0.          0.          0.        ]
 ...
 [-0.00246998  0.00002934  0.         ...  0.          0.          0.        ]
 [ 0.00250183 -0.00002972  0.         ...  0.          0.          0.        ]
 [-0.02789215  0.00033132  0.         ...  0.          0.          0.        ]]
X(g) int
[[ 2.         -0.         -0.12923432 ...  0.05431488 -0.05501527  0.61334878]
 [ 0.          2.          0.26658208 ...  0.0263309  -0.02667044  0.29734074]
 [-0.12923432 -0.26658208  0.         ...  0.          0.          0.        ]
 ...
 [-0.05431488  0.0263309   0.         ...  0.          0.          0.        ]
 [ 0.05501527 -0.02667044  0.         ...  0.          0.          0.        ]
 [-0.61334878  0.29734074  0.         ...  0.          0.          0.        ]]
Hsp + Hph =  -1.2109934459897114
Feff (mod,ortho)
[[-0.22074263  0.29544097 -0.14849749 ...  0.          0.          0.        ]
 [ 0.29544097 -0.04261175  0.05774455 ...  0.          0.          0.        ]
 [-0.14849749  0.05774455  1.39992283 ...  0.          0.          0.        ]
 ...
 [ 0.          0.          0.         ...  3.17437658 -0.00982434  0.04522364]
 [ 0.          0.          0.         ... -0.00982434  1.82642432 -0.01741303]
 [ 0.          0.          0.         ...  0.04522364 -0.01741303  1.60784851]]
E(SUHF) =     -0.99050294
e_a, e_b
[-0.49047816  0.0519237   0.37112381  0.49529873  0.65894039  0.72829796  0.72829796  0.83772495  0.83772495  1.0210503   2.47559418  2.60343316  3.41309563
  3.42396203  3.42396203  3.42421999  3.42421999  3.47603977  3.47603977  3.47618675  3.47618675  3.47683773  3.80740803  3.83301481  3.83301481  3.92854847
  3.92854847  4.13425689] [-0.49047816  0.0519237   0.37112381  0.49529873  0.65894039  0.72829796  0.72829796  0.83772495  0.83772495  1.0210503   2.47559418  2.60343316  3.41309563
  3.42396203  3.42396203  3.42421999  3.42421999  3.47603977  3.47603977  3.47618675  3.47618675  3.47683773  3.80740803  3.83301481  3.83301481  3.92854847
  3.92854847  4.13425689]
P_a, P_b
[[ 0.58553126 -0.47793059  0.06200657  0.          0.         -0.          0.          0.07016571  0.00334666  0.         -0.          0.          0.
   0.         -0.         -0.         -0.         -0.00287046  0.02508095  0.06112426 -0.00948353 -0.          0.         -0.          0.          0.02788503
  -0.0140921   0.00692396]
 [-0.47793059  0.39010326 -0.05061188 -0.         -0.          0.         -0.         -0.05727165 -0.00273166 -0.          0.         -0.         -0.
  -0.          0.          0.          0.          0.00234297 -0.02047192 -0.04989171  0.00774078  0.         -0.          0.         -0.         -0.02276071
   0.01150245 -0.00565157]
 [ 0.06200657 -0.05061188  0.00656637  0.          0.         -0.          0.          0.00743041  0.0003544   0.         -0.          0.          0.
   0.         -0.         -0.         -0.         -0.00030398  0.00265602  0.00647294 -0.00100429 -0.          0.         -0.          0.          0.00295297
  -0.00149232  0.00073323]
 [ 0.         -0.          0.          0.          0.         -0.          0.          0.          0.          0.         -0.          0.          0.
   0.         -0.         -0.         -0.         -0.          0.          0.         -0.         -0.          0.         -0.          0.          0.
  -0.          0.        ]
 [ 0.         -0.          0.          0.          0.         -0.          0.          0.          0.          0.         -0.          0.          0.
   0.         -0.         -0.         -0.         -0.          0.          0.         -0.         -0.          0.         -0.          0.          0.
  -0.          0.        ]
 [-0.          0.         -0.         -0.         -0.          0.         -0.         -0.         -0.         -0.          0.         -0.         -0.
  -0.          0.          0.          0.          0.         -0.         -0.          0.          0.         -0.          0.         -0.         -0.
   0.         -0.        ]
 [ 0.         -0.          0.          0.          0.         -0.          0.          0.          0.          0.         -0.          0.          0.
   0.         -0.         -0.         -0.         -0.          0.          0.         -0.         -0.          0.         -0.          0.          0.
  -0.          0.        ]
 [ 0.07016571 -0.05727165  0.00743041  0.          0.         -0.          0.          0.00840814  0.00040104  0.         -0.          0.          0.
   0.         -0.         -0.         -0.         -0.00034397  0.00300551  0.00732468 -0.00113644 -0.          0.         -0.          0.          0.00334153
  -0.00168869  0.00082972]
 [ 0.00334666 -0.00273166  0.0003544   0.          0.         -0.          0.          0.00040104  0.00001913  0.         -0.          0.          0.
   0.         -0.         -0.         -0.         -0.00001641  0.00014335  0.00034936 -0.0000542  -0.          0.         -0.          0.          0.00015938
  -0.00008054  0.00003957]
 [ 0.         -0.          0.          0.          0.         -0.          0.          0.          0.          0.         -0.          0.          0.
   0.         -0.         -0.         -0.         -0.          0.          0.         -0.         -0.          0.         -0.          0.          0.
  -0.          0.        ]
 [-0.          0.         -0.         -0.         -0.          0.         -0.         -0.         -0.         -0.          0.         -0.         -0.
  -0.          0.          0.          0.          0.         -0.         -0.          0.          0.         -0.          0.         -0.         -0.
   0.         -0.        ]
 [ 0.         -0.          0.          0.          0.         -0.          0.          0.          0.          0.         -0.          0.          0.
   0.         -0.         -0.         -0.         -0.          0.          0.         -0.         -0.          0.         -0.          0.          0.
  -0.          0.        ]
 [ 0.         -0.          0.          0.          0.         -0.          0.          0.          0.          0.         -0.          0.          0.
   0.         -0.         -0.         -0.         -0.          0.          0.         -0.         -0.          0.         -0.          0.          0.
  -0.          0.        ]
 [ 0.         -0.          0.          0.          0.         -0.          0.          0.          0.          0.         -0.          0.          0.
   0.         -0.         -0.         -0.         -0.          0.          0.         -0.         -0.          0.         -0.          0.          0.
  -0.          0.        ]
 [-0.          0.         -0.         -0.         -0.          0.         -0.         -0.         -0.         -0.          0.         -0.         -0.
  -0.          0.          0.          0.          0.         -0.         -0.          0.          0.         -0.          0.         -0.         -0.
   0.         -0.        ]
 [-0.          0.         -0.         -0.         -0.          0.         -0.         -0.         -0.         -0.          0.         -0.         -0.
  -0.          0.          0.          0.          0.         -0.         -0.          0.          0.         -0.          0.         -0.         -0.
   0.         -0.        ]
 [-0.          0.         -0.         -0.         -0.          0.         -0.         -0.         -0.         -0.          0.         -0.         -0.
  -0.          0.          0.          0.          0.         -0.         -0.          0.          0.         -0.          0.         -0.         -0.
   0.         -0.        ]
 [-0.00287046  0.00234297 -0.00030398 -0.         -0.          0.         -0.         -0.00034397 -0.00001641 -0.          0.         -0.         -0.
  -0.          0.          0.          0.          0.00001407 -0.00012295 -0.00029965  0.00004649  0.         -0.          0.         -0.         -0.0001367
   0.00006908 -0.00003394]
 [ 0.02508095 -0.02047192  0.00265602  0.          0.         -0.          0.          0.00300551  0.00014335  0.         -0.          0.          0.
   0.         -0.         -0.         -0.         -0.00012295  0.00107433  0.00261823 -0.00040622 -0.          0.         -0.          0.          0.00119444
  -0.00060363  0.00029658]
 [ 0.06112426 -0.04989171  0.00647294  0.          0.         -0.          0.          0.00732468  0.00034936  0.         -0.          0.          0.
   0.         -0.         -0.         -0.         -0.00029965  0.00261823  0.00638083 -0.00099    -0.          0.         -0.          0.          0.00291095
  -0.00147109  0.0007228 ]
 [-0.00948353  0.00774078 -0.00100429 -0.         -0.          0.         -0.         -0.00113644 -0.0000542  -0.          0.         -0.         -0.
  -0.          0.          0.          0.          0.00004649 -0.00040622 -0.00099     0.0001536   0.         -0.          0.         -0.         -0.00045164
   0.00022824 -0.00011214]
 [-0.          0.         -0.         -0.         -0.          0.         -0.         -0.         -0.         -0.          0.         -0.         -0.
  -0.          0.          0.          0.          0.         -0.         -0.          0.          0.         -0.          0.         -0.         -0.
   0.         -0.        ]
 [ 0.         -0.          0.          0.          0.         -0.          0.          0.          0.          0.         -0.          0.          0.
   0.         -0.         -0.         -0.         -0.          0.          0.         -0.         -0.          0.         -0.          0.          0.
  -0.          0.        ]
 [-0.          0.         -0.         -0.         -0.          0.         -0.         -0.         -0.         -0.          0.         -0.         -0.
  -0.          0.          0.          0.          0.         -0.         -0.          0.          0.         -0.          0.         -0.         -0.
   0.         -0.        ]
 [ 0.         -0.          0.          0.          0.         -0.          0.          0.          0.          0.         -0.          0.          0.
   0.         -0.         -0.         -0.         -0.          0.          0.         -0.         -0.          0.         -0.          0.          0.
  -0.          0.        ]
 [ 0.02788503 -0.02276071  0.00295297  0.          0.         -0.          0.          0.00334153  0.00015938  0.         -0.          0.          0.
   0.         -0.         -0.         -0.         -0.0001367   0.00119444  0.00291095 -0.00045164 -0.          0.         -0.          0.          0.00132798
  -0.00067111  0.00032974]
 [-0.0140921   0.01150245 -0.00149232 -0.         -0.          0.         -0.         -0.00168869 -0.00008054 -0.          0.         -0.         -0.
  -0.          0.          0.          0.          0.00006908 -0.00060363 -0.00147109  0.00022824  0.         -0.          0.         -0.         -0.00067111
   0.00033916 -0.00016664]
 [ 0.00692396 -0.00565157  0.00073323  0.          0.         -0.          0.          0.00082972  0.00003957  0.         -0.          0.          0.
   0.         -0.         -0.         -0.         -0.00003394  0.00029658  0.0007228  -0.00011214 -0.          0.         -0.          0.          0.00032974
  -0.00016664  0.00008188]] 
 [[ 0.58553126  0.47793059  0.06200657 -0.         -0.         -0.          0.         -0.07016571  0.00334666  0.          0.         -0.         -0.
  -0.          0.          0.          0.          0.00287046  0.02508095 -0.06112426 -0.00948353  0.         -0.          0.         -0.         -0.02788503
  -0.0140921  -0.00692396]
 [ 0.47793059  0.39010326  0.05061188 -0.         -0.         -0.          0.         -0.05727165  0.00273166  0.          0.         -0.         -0.
  -0.          0.          0.          0.          0.00234297  0.02047192 -0.04989171 -0.00774078  0.         -0.          0.         -0.         -0.02276071
  -0.01150245 -0.00565157]
 [ 0.06200657  0.05061188  0.00656637 -0.         -0.         -0.          0.         -0.00743041  0.0003544   0.          0.         -0.         -0.
  -0.          0.          0.          0.          0.00030398  0.00265602 -0.00647294 -0.00100429  0.         -0.          0.         -0.         -0.00295297
  -0.00149232 -0.00073323]
 [-0.         -0.         -0.          0.          0.          0.         -0.          0.         -0.         -0.         -0.          0.          0.
   0.         -0.         -0.         -0.         -0.         -0.          0.          0.         -0.          0.         -0.          0.          0.
   0.          0.        ]
 [-0.         -0.         -0.          0.          0.          0.         -0.          0.         -0.         -0.         -0.          0.          0.
   0.         -0.         -0.         -0.         -0.         -0.          0.          0.         -0.          0.         -0.          0.          0.
   0.          0.        ]
 [-0.         -0.         -0.          0.          0.          0.         -0.          0.         -0.         -0.         -0.          0.          0.
   0.         -0.         -0.         -0.         -0.         -0.          0.          0.         -0.          0.         -0.          0.          0.
   0.          0.        ]
 [ 0.          0.          0.         -0.         -0.         -0.          0.         -0.          0.          0.          0.         -0.         -0.
  -0.          0.          0.          0.          0.          0.         -0.         -0.          0.         -0.          0.         -0.         -0.
  -0.         -0.        ]
 [-0.07016571 -0.05727165 -0.00743041  0.          0.          0.         -0.          0.00840814 -0.00040104 -0.         -0.          0.          0.
   0.         -0.         -0.         -0.         -0.00034397 -0.00300551  0.00732468  0.00113644 -0.          0.         -0.          0.          0.00334153
   0.00168869  0.00082972]
 [ 0.00334666  0.00273166  0.0003544  -0.         -0.         -0.          0.         -0.00040104  0.00001913  0.          0.         -0.         -0.
  -0.          0.          0.          0.          0.00001641  0.00014335 -0.00034936 -0.0000542   0.         -0.          0.         -0.         -0.00015938
  -0.00008054 -0.00003957]
 [ 0.          0.          0.         -0.         -0.         -0.          0.         -0.          0.          0.          0.         -0.         -0.
  -0.          0.          0.          0.          0.          0.         -0.         -0.          0.         -0.          0.         -0.         -0.
  -0.         -0.        ]
 [ 0.          0.          0.         -0.         -0.         -0.          0.         -0.          0.          0.          0.         -0.         -0.
  -0.          0.          0.          0.          0.          0.         -0.         -0.          0.         -0.          0.         -0.         -0.
  -0.         -0.        ]
 [-0.         -0.         -0.          0.          0.          0.         -0.          0.         -0.         -0.         -0.          0.          0.
   0.         -0.         -0.         -0.         -0.         -0.          0.          0.         -0.          0.         -0.          0.          0.
   0.          0.        ]
 [-0.         -0.         -0.          0.          0.          0.         -0.          0.         -0.         -0.         -0.          0.          0.
   0.         -0.         -0.         -0.         -0.         -0.          0.          0.         -0.          0.         -0.          0.          0.
   0.          0.        ]
 [-0.         -0.         -0.          0.          0.          0.         -0.          0.         -0.         -0.         -0.          0.          0.
   0.         -0.         -0.         -0.         -0.         -0.          0.          0.         -0.          0.         -0.          0.          0.
   0.          0.        ]
 [ 0.          0.          0.         -0.         -0.         -0.          0.         -0.          0.          0.          0.         -0.         -0.
  -0.          0.          0.          0.          0.          0.         -0.         -0.          0.         -0.          0.         -0.         -0.
  -0.         -0.        ]
 [ 0.          0.          0.         -0.         -0.         -0.          0.         -0.          0.          0.          0.         -0.         -0.
  -0.          0.          0.          0.          0.          0.         -0.         -0.          0.         -0.          0.         -0.         -0.
  -0.         -0.        ]
 [ 0.          0.          0.         -0.         -0.         -0.          0.         -0.          0.          0.          0.         -0.         -0.
  -0.          0.          0.          0.          0.          0.         -0.         -0.          0.         -0.          0.         -0.         -0.
  -0.         -0.        ]
 [ 0.00287046  0.00234297  0.00030398 -0.         -0.         -0.          0.         -0.00034397  0.00001641  0.          0.         -0.         -0.
  -0.          0.          0.          0.          0.00001407  0.00012295 -0.00029965 -0.00004649  0.         -0.          0.         -0.         -0.0001367
  -0.00006908 -0.00003394]
 [ 0.02508095  0.02047192  0.00265602 -0.         -0.         -0.          0.         -0.00300551  0.00014335  0.          0.         -0.         -0.
  -0.          0.          0.          0.          0.00012295  0.00107433 -0.00261823 -0.00040622  0.         -0.          0.         -0.         -0.00119444
  -0.00060363 -0.00029658]
 [-0.06112426 -0.04989171 -0.00647294  0.          0.          0.         -0.          0.00732468 -0.00034936 -0.         -0.          0.          0.
   0.         -0.         -0.         -0.         -0.00029965 -0.00261823  0.00638083  0.00099    -0.          0.         -0.          0.          0.00291095
   0.00147109  0.0007228 ]
 [-0.00948353 -0.00774078 -0.00100429  0.          0.          0.         -0.          0.00113644 -0.0000542  -0.         -0.          0.          0.
   0.         -0.         -0.         -0.         -0.00004649 -0.00040622  0.00099     0.0001536  -0.          0.         -0.          0.          0.00045164
   0.00022824  0.00011214]
 [ 0.          0.          0.         -0.         -0.         -0.          0.         -0.          0.          0.          0.         -0.         -0.
  -0.          0.          0.          0.          0.          0.         -0.         -0.          0.         -0.          0.         -0.         -0.
  -0.         -0.        ]
 [-0.         -0.         -0.          0.          0.          0.         -0.          0.         -0.         -0.         -0.          0.          0.
   0.         -0.         -0.         -0.         -0.         -0.          0.          0.         -0.          0.         -0.          0.          0.
   0.          0.        ]
 [ 0.          0.          0.         -0.         -0.         -0.          0.         -0.          0.          0.          0.         -0.         -0.
  -0.          0.          0.          0.          0.          0.         -0.         -0.          0.         -0.          0.         -0.         -0.
  -0.         -0.        ]
 [-0.         -0.         -0.          0.          0.          0.         -0.          0.         -0.         -0.         -0.          0.          0.
   0.         -0.         -0.         -0.         -0.         -0.          0.          0.         -0.          0.         -0.          0.          0.
   0.          0.        ]
 [-0.02788503 -0.02276071 -0.00295297  0.          0.          0.         -0.          0.00334153 -0.00015938 -0.         -0.          0.          0.
   0.         -0.         -0.         -0.         -0.0001367  -0.00119444  0.00291095  0.00045164 -0.          0.         -0.          0.          0.00132798
   0.00067111  0.00032974]
 [-0.0140921  -0.01150245 -0.00149232  0.          0.          0.         -0.          0.00168869 -0.00008054 -0.         -0.          0.          0.
   0.         -0.         -0.         -0.         -0.00006908 -0.00060363  0.00147109  0.00022824 -0.          0.         -0.          0.          0.00067111
   0.00033916  0.00016664]
 [-0.00692396 -0.00565157 -0.00073323  0.          0.          0.         -0.          0.00082972 -0.00003957 -0.         -0.          0.          0.
   0.         -0.         -0.         -0.         -0.00003394 -0.00029658  0.0007228   0.00011214 -0.          0.         -0.          0.          0.00032974
   0.00016664  0.00008188]]
**** Start Cycle 2 ****
dm (ortho)
[...]
Feff (mod,ortho)
[[-0.21712424  0.30715848 -0.15488733 ...  0.          0.          0.        ]
 [ 0.30715848 -0.03666976  0.06534725 ...  0.          0.          0.        ]
 [-0.15488733  0.06534725  1.4064126  ...  0.          0.          0.        ]
 ...
 [ 0.          0.          0.         ...  3.17733051 -0.01068265  0.04493644]
 [ 0.          0.          0.         ... -0.01068265  1.83041499 -0.01898562]
 [ 0.          0.          0.         ...  0.04493644 -0.01898562  1.61209214]]
E(SUHF) =     -1.00550990
e_a, e_b
[-0.49912221  0.0619027   0.36840356  0.50353516  0.66251018  0.72955664  0.72955664  0.84323972  0.84323972  1.02404579  2.47905757  2.61809378  3.41918126
  3.42882973  3.42882973  3.42955253  3.42955253  3.48410545  3.48510517  3.48510517  3.48558856  3.48558856  3.81525344  3.83979081  3.83979081  3.94184709
  3.94184709  4.14506218] [-0.49912221  0.0619027   0.36840356  0.50353516  0.66251018  0.72955664  0.72955664  0.84323972  0.84323972  1.02404579  2.47905757  2.61809378  3.41918126
  3.42882973  3.42882973  3.42955253  3.42955253  3.48410545  3.48510517  3.48510517  3.48558856  3.48558856  3.81525344  3.83979081  3.83979081  3.94184709
  3.94184709  4.14506218]
P_a, P_b
[[ 0.57982623 -0.47838164  0.06714536  0.          0.         -0.         -0.          0.07276579  0.00417747  0.          0.          0.          0.
   0.         -0.          0.          0.         -0.00323893  0.0135366   0.05826457 -0.01067441 -0.          0.         -0.         -0.          0.02853336
  -0.01889389  0.0091874 ]
 [-0.47838164  0.39468548 -0.05539781 -0.         -0.          0.          0.         -0.06003491 -0.0034466  -0.         -0.         -0.         -0.
  -0.          0.         -0.         -0.          0.00267226 -0.01116828 -0.04807078  0.00880685  0.         -0.          0.          0.         -0.02354125
   0.01558827 -0.00758   ]
 [ 0.06714536 -0.05539781  0.0077756   0.          0.         -0.         -0.          0.00842646  0.00048376  0.          0.          0.          0.
   0.         -0.          0.          0.         -0.00037508  0.00156757  0.00674719 -0.00123612 -0.          0.         -0.         -0.          0.00330424
  -0.00218796  0.00106392]
 [ 0.         -0.          0.          0.          0.         -0.         -0.          0.          0.          0.          0.          0.          0.
   0.         -0.          0.          0.         -0.          0.          0.         -0.         -0.          0.         -0.         -0.          0.
  -0.          0.        ]
 [ 0.         -0.          0.          0.          0.         -0.         -0.          0.          0.          0.          0.          0.          0.
   0.         -0.          0.          0.         -0.          0.          0.         -0.         -0.          0.         -0.         -0.          0.
  -0.          0.        ]
 [-0.          0.         -0.         -0.         -0.          0.          0.         -0.         -0.         -0.         -0.         -0.         -0.
  -0.          0.         -0.         -0.          0.         -0.         -0.          0.          0.         -0.          0.          0.         -0.
   0.         -0.        ]
 [-0.          0.         -0.         -0.         -0.          0.          0.         -0.         -0.         -0.         -0.         -0.         -0.
  -0.          0.         -0.         -0.          0.         -0.         -0.          0.          0.         -0.          0.          0.         -0.
   0.         -0.        ]
 [ 0.07276579 -0.06003491  0.00842646  0.          0.         -0.         -0.          0.00913181  0.00052426  0.          0.          0.          0.
   0.         -0.          0.          0.         -0.00040647  0.00169879  0.00731196 -0.00133959 -0.          0.         -0.         -0.          0.00358082
  -0.0023711   0.00115298]
 [ 0.00417747 -0.0034466   0.00048376  0.          0.         -0.         -0.          0.00052426  0.0000301   0.          0.          0.          0.
   0.         -0.          0.          0.         -0.00002334  0.00009753  0.00041978 -0.00007691 -0.          0.         -0.         -0.          0.00020557
  -0.00013612  0.00006619]
 [ 0.         -0.          0.          0.          0.         -0.         -0.          0.          0.          0.          0.          0.          0.
   0.         -0.          0.          0.         -0.          0.          0.         -0.         -0.          0.         -0.         -0.          0.
  -0.          0.        ]
 [ 0.         -0.          0.          0.          0.         -0.         -0.          0.          0.          0.          0.          0.          0.
   0.         -0.          0.          0.         -0.          0.          0.         -0.         -0.          0.         -0.         -0.          0.
  -0.          0.        ]
 [ 0.         -0.          0.          0.          0.         -0.         -0.          0.          0.          0.          0.          0.          0.
   0.         -0.          0.          0.         -0.          0.          0.         -0.         -0.          0.         -0.         -0.          0.
  -0.          0.        ]
 [ 0.         -0.          0.          0.          0.         -0.         -0.          0.          0.          0.          0.          0.          0.
   0.         -0.          0.          0.         -0.          0.          0.         -0.         -0.          0.         -0.         -0.          0.
  -0.          0.        ]
 [ 0.         -0.          0.          0.          0.         -0.         -0.          0.          0.          0.          0.          0.          0.
   0.         -0.          0.          0.         -0.          0.          0.         -0.         -0.          0.         -0.         -0.          0.
  -0.          0.        ]
 [-0.          0.         -0.         -0.         -0.          0.          0.         -0.         -0.         -0.         -0.         -0.         -0.
  -0.          0.         -0.         -0.          0.         -0.         -0.          0.          0.         -0.          0.          0.         -0.
   0.         -0.        ]
 [ 0.         -0.          0.          0.          0.         -0.         -0.          0.          0.          0.          0.          0.          0.
   0.         -0.          0.          0.         -0.          0.          0.         -0.         -0.          0.         -0.         -0.          0.
  -0.          0.        ]
 [ 0.         -0.          0.          0.          0.         -0.         -0.          0.          0.          0.          0.          0.          0.
   0.         -0.          0.          0.         -0.          0.          0.         -0.         -0.          0.         -0.         -0.          0.
  -0.          0.        ]
 [-0.00323893  0.00267226 -0.00037508 -0.         -0.          0.          0.         -0.00040647 -0.00002334 -0.         -0.         -0.         -0.
  -0.          0.         -0.         -0.          0.00001809 -0.00007562 -0.00032547  0.00005963  0.         -0.          0.          0.         -0.00015939
   0.00010554 -0.00005132]
 [ 0.0135366  -0.01116828  0.00156757  0.          0.         -0.         -0.          0.00169879  0.00009753  0.          0.          0.          0.
   0.         -0.          0.          0.         -0.00007562  0.00031602  0.00136024 -0.0002492  -0.          0.         -0.         -0.          0.00066614
  -0.0004411   0.00021449]
 [ 0.05826457 -0.04807078  0.00674719  0.          0.         -0.         -0.          0.00731196  0.00041978  0.          0.          0.          0.
   0.         -0.          0.          0.         -0.00032547  0.00136024  0.00585479 -0.00107263 -0.          0.         -0.         -0.          0.00286721
  -0.00189858  0.00092321]
 [-0.01067441  0.00880685 -0.00123612 -0.         -0.          0.          0.         -0.00133959 -0.00007691 -0.         -0.         -0.         -0.
  -0.          0.         -0.         -0.          0.00005963 -0.0002492  -0.00107263  0.00019651  0.         -0.          0.          0.         -0.00052529
   0.00034783 -0.00016914]
 [-0.          0.         -0.         -0.         -0.          0.          0.         -0.         -0.         -0.         -0.         -0.         -0.
  -0.          0.         -0.         -0.          0.         -0.         -0.          0.          0.         -0.          0.          0.         -0.
   0.         -0.        ]
 [ 0.         -0.          0.          0.          0.         -0.         -0.          0.          0.          0.          0.          0.          0.
   0.         -0.          0.          0.         -0.          0.          0.         -0.         -0.          0.         -0.         -0.          0.
  -0.          0.        ]
 [-0.          0.         -0.         -0.         -0.          0.          0.         -0.         -0.         -0.         -0.         -0.         -0.
  -0.          0.         -0.         -0.          0.         -0.         -0.          0.          0.         -0.          0.          0.         -0.
   0.         -0.        ]
 [-0.          0.         -0.         -0.         -0.          0.          0.         -0.         -0.         -0.         -0.         -0.         -0.
  -0.          0.         -0.         -0.          0.         -0.         -0.          0.          0.         -0.          0.          0.         -0.
   0.         -0.        ]
 [ 0.02853336 -0.02354125  0.00330424  0.          0.         -0.         -0.          0.00358082  0.00020557  0.          0.          0.          0.
   0.         -0.          0.          0.         -0.00015939  0.00066614  0.00286721 -0.00052529 -0.          0.         -0.         -0.          0.00140413
  -0.00092977  0.00045211]
 [-0.01889389  0.01558827 -0.00218796 -0.         -0.          0.          0.         -0.0023711  -0.00013612 -0.         -0.         -0.         -0.
  -0.          0.         -0.         -0.          0.00010554 -0.0004411  -0.00189858  0.00034783  0.         -0.          0.          0.         -0.00092977
   0.00061567 -0.00029938]
 [ 0.0091874  -0.00758     0.00106392  0.          0.         -0.         -0.          0.00115298  0.00006619  0.          0.          0.          0.
   0.         -0.          0.          0.         -0.00005132  0.00021449  0.00092321 -0.00016914 -0.          0.         -0.         -0.          0.00045211
  -0.00029938  0.00014558]] 
 [[ 0.57982623  0.47838164  0.06714536 -0.         -0.          0.          0.         -0.07276579  0.00417747  0.          0.         -0.         -0.
  -0.          0.          0.          0.          0.00323893  0.0135366  -0.05826457 -0.01067441  0.         -0.          0.         -0.         -0.02853336
  -0.01889389 -0.0091874 ]
 [ 0.47838164  0.39468548  0.05539781 -0.         -0.          0.          0.         -0.06003491  0.0034466   0.          0.         -0.         -0.
  -0.          0.          0.          0.          0.00267226  0.01116828 -0.04807078 -0.00880685  0.         -0.          0.         -0.         -0.02354125
  -0.01558827 -0.00758   ]
 [ 0.06714536  0.05539781  0.0077756  -0.         -0.          0.          0.         -0.00842646  0.00048376  0.          0.         -0.         -0.
  -0.          0.          0.          0.          0.00037508  0.00156757 -0.00674719 -0.00123612  0.         -0.          0.         -0.         -0.00330424
  -0.00218796 -0.00106392]
 [-0.         -0.         -0.          0.          0.         -0.         -0.          0.         -0.         -0.         -0.          0.          0.
   0.         -0.         -0.         -0.         -0.         -0.          0.          0.         -0.          0.         -0.          0.          0.
   0.          0.        ]
 [-0.         -0.         -0.          0.          0.         -0.         -0.          0.         -0.         -0.         -0.          0.          0.
   0.         -0.         -0.         -0.         -0.         -0.          0.          0.         -0.          0.         -0.          0.          0.
   0.          0.        ]
 [ 0.          0.          0.         -0.         -0.          0.          0.         -0.          0.          0.          0.         -0.         -0.
  -0.          0.          0.          0.          0.          0.         -0.         -0.          0.         -0.          0.         -0.         -0.
  -0.         -0.        ]
 [ 0.          0.          0.         -0.         -0.          0.          0.         -0.          0.          0.          0.         -0.         -0.
  -0.          0.          0.          0.          0.          0.         -0.         -0.          0.         -0.          0.         -0.         -0.
  -0.         -0.        ]
 [-0.07276579 -0.06003491 -0.00842646  0.          0.         -0.         -0.          0.00913181 -0.00052426 -0.         -0.          0.          0.
   0.         -0.         -0.         -0.         -0.00040647 -0.00169879  0.00731196  0.00133959 -0.          0.         -0.          0.          0.00358082
   0.0023711   0.00115298]
 [ 0.00417747  0.0034466   0.00048376 -0.         -0.          0.          0.         -0.00052426  0.0000301   0.          0.         -0.         -0.
  -0.          0.          0.          0.          0.00002334  0.00009753 -0.00041978 -0.00007691  0.         -0.          0.         -0.         -0.00020557
  -0.00013612 -0.00006619]
 [ 0.          0.          0.         -0.         -0.          0.          0.         -0.          0.          0.          0.         -0.         -0.
  -0.          0.          0.          0.          0.          0.         -0.         -0.          0.         -0.          0.         -0.         -0.
  -0.         -0.        ]
 [ 0.          0.          0.         -0.         -0.          0.          0.         -0.          0.          0.          0.         -0.         -0.
  -0.          0.          0.          0.          0.          0.         -0.         -0.          0.         -0.          0.         -0.         -0.
  -0.         -0.        ]
 [-0.         -0.         -0.          0.          0.         -0.         -0.          0.         -0.         -0.         -0.          0.          0.
   0.         -0.         -0.         -0.         -0.         -0.          0.          0.         -0.          0.         -0.          0.          0.
   0.          0.        ]
 [-0.         -0.         -0.          0.          0.         -0.         -0.          0.         -0.         -0.         -0.          0.          0.
   0.         -0.         -0.         -0.         -0.         -0.          0.          0.         -0.          0.         -0.          0.          0.
   0.          0.        ]
 [-0.         -0.         -0.          0.          0.         -0.         -0.          0.         -0.         -0.         -0.          0.          0.
   0.         -0.         -0.         -0.         -0.         -0.          0.          0.         -0.          0.         -0.          0.          0.
   0.          0.        ]
 [ 0.          0.          0.         -0.         -0.          0.          0.         -0.          0.          0.          0.         -0.         -0.
  -0.          0.          0.          0.          0.          0.         -0.         -0.          0.         -0.          0.         -0.         -0.
  -0.         -0.        ]
 [ 0.          0.          0.         -0.         -0.          0.          0.         -0.          0.          0.          0.         -0.         -0.
  -0.          0.          0.          0.          0.          0.         -0.         -0.          0.         -0.          0.         -0.         -0.
  -0.         -0.        ]
 [ 0.          0.          0.         -0.         -0.          0.          0.         -0.          0.          0.          0.         -0.         -0.
  -0.          0.          0.          0.          0.          0.         -0.         -0.          0.         -0.          0.         -0.         -0.
  -0.         -0.        ]
 [ 0.00323893  0.00267226  0.00037508 -0.         -0.          0.          0.         -0.00040647  0.00002334  0.          0.         -0.         -0.
  -0.          0.          0.          0.          0.00001809  0.00007562 -0.00032547 -0.00005963  0.         -0.          0.         -0.         -0.00015939
  -0.00010554 -0.00005132]
 [ 0.0135366   0.01116828  0.00156757 -0.         -0.          0.          0.         -0.00169879  0.00009753  0.          0.         -0.         -0.
  -0.          0.          0.          0.          0.00007562  0.00031602 -0.00136024 -0.0002492   0.         -0.          0.         -0.         -0.00066614
  -0.0004411  -0.00021449]
 [-0.05826457 -0.04807078 -0.00674719  0.          0.         -0.         -0.          0.00731196 -0.00041978 -0.         -0.          0.          0.
   0.         -0.         -0.         -0.         -0.00032547 -0.00136024  0.00585479  0.00107263 -0.          0.         -0.          0.          0.00286721
   0.00189858  0.00092321]
 [-0.01067441 -0.00880685 -0.00123612  0.          0.         -0.         -0.          0.00133959 -0.00007691 -0.         -0.          0.          0.
   0.         -0.         -0.         -0.         -0.00005963 -0.0002492   0.00107263  0.00019651 -0.          0.         -0.          0.          0.00052529
   0.00034783  0.00016914]
 [ 0.          0.          0.         -0.         -0.          0.          0.         -0.          0.          0.          0.         -0.         -0.
  -0.          0.          0.          0.          0.          0.         -0.         -0.          0.         -0.          0.         -0.         -0.
  -0.         -0.        ]
 [-0.         -0.         -0.          0.          0.         -0.         -0.          0.         -0.         -0.         -0.          0.          0.
   0.         -0.         -0.         -0.         -0.         -0.          0.          0.         -0.          0.         -0.          0.          0.
   0.          0.        ]
 [ 0.          0.          0.         -0.         -0.          0.          0.         -0.          0.          0.          0.         -0.         -0.
  -0.          0.          0.          0.          0.          0.         -0.         -0.          0.         -0.          0.         -0.         -0.
  -0.         -0.        ]
 [-0.         -0.         -0.          0.          0.         -0.         -0.          0.         -0.         -0.         -0.          0.          0.
   0.         -0.         -0.         -0.         -0.         -0.          0.          0.         -0.          0.         -0.          0.          0.
   0.          0.        ]
 [-0.02853336 -0.02354125 -0.00330424  0.          0.         -0.         -0.          0.00358082 -0.00020557 -0.         -0.          0.          0.
   0.         -0.         -0.         -0.         -0.00015939 -0.00066614  0.00286721  0.00052529 -0.          0.         -0.          0.          0.00140413
   0.00092977  0.00045211]
 [-0.01889389 -0.01558827 -0.00218796  0.          0.         -0.         -0.          0.0023711  -0.00013612 -0.         -0.          0.          0.
   0.         -0.         -0.         -0.         -0.00010554 -0.0004411   0.00189858  0.00034783 -0.          0.         -0.          0.          0.00092977
   0.00061567  0.00029938]
 [-0.0091874  -0.00758    -0.00106392  0.          0.         -0.         -0.          0.00115298 -0.00006619 -0.         -0.          0.          0.
   0.         -0.         -0.         -0.         -0.00005132 -0.00021449  0.00092321  0.00016914 -0.          0.         -0.          0.          0.00045211
   0.00029938  0.00014558]]

***************
SCF converged at cycle 8
Final E(SUHF) =     -1.00550990, delta E = -3.20756e-09
***** Start DFT Correlation for SUHF+DFT **********
tot grids = 20048
E(SUHF) =     -1.00550990
E_c(TPSS) =     -0.00171725
E(SUHF+DFT) =     -1.00722715
