

#INFO: **** input file is /share/home/srwang/ExSCF/test/pytest/scan_h2/scan_dft.py ****
#import phf
from pyscf import gto, scf
#import scipy
#import numpy as np
import sys, os, contextlib

from pyphf import util, sudft

#xyz = 'h2.xyz' #sys.argv[1]
fch = '../../test_carlos/test_uhf.fchk' #sys.argv[2]
bas = '../h2.bas'

for r in [0.6, 0.8, 1.0, 1.2, 1.4, 1.6, 1.8, 2.0]:
    output = 'sudft_%.1f.out' % r
    os.system("echo '\n' > %s" % output)
    with open(output, 'a', encoding='utf-8') as f:
        with contextlib.redirect_stdout(f):
            xyz = '''H 0.0 0.0 0.0; H 0.0 0.0 %f'''%r
            mf = util.guess_from_fchk(xyz, bas, fch)
            #f.flush()
            mf2 = util.SUHF(mf)
            mf2.cut_no = False
            mf2.debug = False
            mf2.max_cycle = 50
            #mf2.output = 'sudft_%.1f.out'%r
            #mf2.kernel()
            
            mf3 = sudft.SUDFT(mf2)
            mf3.kernel()
                    #INFO: ******************** input file end ********************


System: uname_result(system='Linux', node='xcluster', release='3.10.0-693.el7.x86_64', version='#1 SMP Thu Jul 6 19:56:57 EDT 2017', machine='x86_64', processor='x86_64')  Threads 16
Python 3.7.4 (default, Aug 13 2019, 20:35:49) 
[GCC 7.3.0]
numpy 1.17.2  scipy 1.4.1
Date: Thu Nov 19 17:46:25 2020
PySCF version 1.7.3
PySCF path  /share/apps/Python/Anaconda3-2019/lib/python3.7/site-packages/pyscf

[CONFIG] conf_file None
[INPUT] verbose = 4
[INPUT] num. atoms = 2
[INPUT] num. electrons = 2
[INPUT] charge = 0
[INPUT] spin (= nelec alpha-beta = 2S) = 0
[INPUT] symmetry False subgroup None
[INPUT] Mole.unit = angstrom
[INPUT]  1 H      0.000000000000   0.000000000000   0.000000000000 AA    0.000000000000   0.000000000000   0.000000000000 Bohr
[INPUT]  2 H      0.000000000000   0.000000000000   1.800000000000 AA    0.000000000000   0.000000000000   3.401507024217 Bohr

nuclear repulsion = 0.2939873394
number of shells = 4
number of NR pGTOs = 6
number of NR cGTOs = 4
basis = ../h2.bas
ecp = {}
CPU time:       132.42


******** <class 'pyscf.scf.uhf.UHF'> ********
method = UHF
initial guess = minao
damping factor = 0
level_shift factor = 0
DIIS = <class 'pyscf.scf.diis.CDIIS'>
diis_start_cycle = 1
diis_space = 8
SCF conv_tol = 1e-09
SCF conv_tol_grad = None
SCF max_cycles = 1
direct_scf = True
direct_scf_tol = 1e-13
chkfile to save SCF result = /share/home/srwang/ExSCF/test/pytest/scan_h2/tmpw6qbal47
max_memory 4000 MB (current use 117 MB)
number electrons alpha = 1  beta = 1
Set gradient conv threshold to 3.16228e-05
init E= -0.650717038404758
  alpha nocc = 1  HOMO = -0.271734139551  LUMO = -0.0647102459546713
  beta  nocc = 1  HOMO = -0.264166072302967  LUMO = -0.0655311152881463
cycle= 1 E= -0.938742090347204  delta_E= -0.288  |g|= 0.0122  |ddm|= 0.564
SCF not converged.
SCF energy = -0.938742090347204 after 1 cycles  <S^2> = 8.2937049e-07  2S+1 = 1.0000017


******** <class 'pyscf.scf.uhf.UHF'> ********
method = UHF
initial guess = minao
damping factor = 0
level_shift factor = 0
DIIS = <class 'pyscf.scf.diis.CDIIS'>
diis_start_cycle = 1
diis_space = 8
SCF conv_tol = 1e-09
SCF conv_tol_grad = None
SCF max_cycles = 0
direct_scf = True
direct_scf_tol = 1e-13
chkfile to save SCF result = /share/home/srwang/ExSCF/test/pytest/scan_h2/tmpw6qbal47
max_memory 4000 MB (current use 120 MB)
number electrons alpha = 1  beta = 1
Set gradient conv threshold to 3.16228e-05
init E= -1.00808183085945
  alpha nocc = 1  HOMO = -0.494284455503218  LUMO = 0.132979665969567
  beta  nocc = 1  HOMO = -0.494284455503218  LUMO = 0.132979665969567
SCF not converged.
SCF energy = -1.00808183085945 after 0 cycles  <S^2> = 0.87179328  2S+1 = 2.1182949

******** <class 'pyphf.util.SUHF'> ********
SVD: S^(-1/2)
[[-0.31622461  0.4853606  -0.87305135  0.8131639 ]
 [-0.39484833  0.35488025  0.699206   -1.11214337]
 [-0.31622461 -0.4853606  -0.87305135 -0.8131639 ]
 [-0.39484833 -0.35488025  0.699206    1.11214337]]
C (ortho)
[[-0.82285333 -0.58953054 -0.06273955 -0.1341518 ]
 [ 0.55711948 -0.71759161  0.15048456 -0.33414971]
 [ 0.07566286  0.16324982 -0.78877363 -0.57965545]
 [-0.11987781  0.27105006  0.57835214 -0.72631137]]
[[-0.82285333 -0.58953054 -0.06273955 -0.1341518 ]
 [-0.55711948  0.71759161 -0.15048456  0.33414971]
 [ 0.07566286  0.16324982 -0.78877363 -0.57965545]
 [ 0.11987781 -0.27105006 -0.57835214  0.72631137]]
grids:  [0.06237655 0.31939555 0.74529195 1.28265786 1.85893479 2.39630071 2.8221971  3.07921611] 
weights:  [0.15900941 0.34931531 0.49276925 0.56970235 0.56970235 0.49276925 0.34931531 0.15900941]
S = 0.0, Sz = 0.0
Wigner small d:  1
value : [1. 1. 1. 1. 1. 1. 1. 1.]
**** Start Cycle 1 ****
dm (ortho)
[[[ 0.6770876  -0.45842762 -0.06225944  0.09864186]
  [-0.45842762  0.31038212  0.04215325 -0.06678626]
  [-0.06225944  0.04215325  0.00572487 -0.0090703 ]
  [ 0.09864186 -0.06678626 -0.0090703   0.01437069]]

 [[ 0.6770876   0.45842762 -0.06225944 -0.09864186]
  [ 0.45842762  0.31038212 -0.04215325 -0.06678626]
  [-0.06225944 -0.04215325  0.00572487  0.0090703 ]
  [-0.09864186 -0.06678626  0.0090703   0.01437069]]]
Fock (ortho)
 (array([[-0.26593758,  0.32346796,  0.19608388,  0.01783456],
       [ 0.32346796,  0.06403085,  0.08243008,  0.36285251],
       [ 0.19608388,  0.08243008,  1.16775327,  0.04806672],
       [ 0.01783456,  0.36285251,  0.04806672,  1.07543843]]), array([[-0.26593758, -0.32346796,  0.19608388, -0.01783456],
       [-0.32346796,  0.06403085, -0.08243008,  0.36285251],
       [ 0.19608388, -0.08243008,  1.16775327, -0.04806672],
       [-0.01783456,  0.36285251, -0.04806672,  1.07543843]]))
E(UHF) =    -1.302069
NO eigenvalue
[-1.00756528 -0.          0.          0.        ] [-1.00756528 -0.         -0.          0.        ]
NO vec
[[ 0.81975832  0.          0.19040939 -0.08265042 -0.53376911  0.          0.          0.        ]
 [-0.55502398  0.          0.17956452  0.10779522 -0.80503736  0.          0.          0.        ]
 [-0.07537827  0.         -0.52968796 -0.8261302  -0.17679839  0.          0.          0.        ]
 [ 0.11942691  0.         -0.80680326  0.54686195 -0.18907066  0.          0.          0.        ]
 [ 0.          0.81975832  0.          0.          0.          0.56011759  0.01441986 -0.11856071]
 [ 0.          0.55502398  0.          0.          0.         -0.75079674  0.17586689  0.31196709]
 [ 0.         -0.07537827  0.          0.          0.          0.00864736  0.92688389 -0.36759978]
 [ 0.         -0.11942691  0.          0.          0.          0.34999679  0.33128411  0.86803819]]
dm(NO)
[[ 1.00756528  0.         -0.          0.         -0.          0.          0.          0.        ]
 [ 0.          1.00756528  0.          0.          0.          0.         -0.         -0.        ]
 [ 0.          0.          0.          0.         -0.          0.          0.          0.        ]
 [-0.          0.          0.         -0.         -0.          0.          0.          0.        ]
 [-0.          0.          0.         -0.         -0.          0.          0.          0.        ]
 [ 0.          0.          0.          0.          0.          0.         -0.          0.        ]
 [ 0.         -0.          0.          0.          0.          0.          0.          0.        ]
 [ 0.         -0.          0.          0.          0.          0.         -0.         -0.        ]]
D(g) (NO)
[[ 0.99951369  0.01108162 -0.          0.          0.          0.02859559 -0.00362013 -0.00433335]
 [-0.01108162  0.99951369 -0.01222486  0.00034184  0.02645802 -0.          0.          0.        ]
 [-0.          0.01222486  0.99951369  0.         -0.         -0.00982657 -0.02257401 -0.01472408]
 [ 0.         -0.00034184  0.          0.99951369  0.          0.00177837 -0.01767447  0.02562668]
 [ 0.         -0.02645802 -0.          0.          0.99951369  0.00741359 -0.01171815 -0.00894929]
 [-0.02859559 -0.          0.00982657 -0.00177837 -0.00741359  0.99951369  0.         -0.        ]
 [ 0.00362013  0.          0.02257401  0.01767447  0.01171815  0.          0.99951369  0.        ]
 [ 0.00433335 -0.          0.01472408 -0.02562668  0.00894929 -0.          0.          0.99951369]]
...
N(g) (NO)
[[ 0.98539757 -0.01092511]
 [ 0.01092511  0.98539757]]
...
P(g) (NO)
[[ 1.         -0.         -0.          0.         -0.         -0.          0.          0.        ]
 [ 0.          1.         -0.          0.         -0.          0.         -0.         -0.        ]
 [ 0.00013559  0.0122293  -0.          0.         -0.          0.         -0.         -0.        ]
 [-0.00000379 -0.00034196  0.         -0.          0.         -0.          0.          0.        ]
 [-0.00029345 -0.02646764  0.         -0.          0.         -0.          0.          0.        ]
 [-0.02860598  0.00031715  0.         -0.          0.          0.         -0.         -0.        ]
 [ 0.00362144 -0.00004015 -0.          0.         -0.         -0.          0.          0.        ]
 [ 0.00433493 -0.00004806 -0.          0.         -0.         -0.          0.          0.        ]]
...
Pg_ortho
[[ 0.67215353 -0.45508697 -0.06180574  0.09792303  0.01351326  0.00914926 -0.00124257 -0.00196869]
 [-0.45477225  0.30790722  0.04181714 -0.06625373  0.01923688  0.01302448 -0.00176887 -0.00280253]
 [-0.06180574  0.04184607  0.00568315 -0.0090042  -0.00124257 -0.00084129  0.00011426  0.00018102]
 [ 0.09785532 -0.06625373 -0.00899797  0.0142561  -0.00413928 -0.00280253  0.00038061  0.00060303]
 [-0.01351326  0.00914926  0.00124257 -0.00196869  0.67215353  0.45508697 -0.06180574 -0.09792303]
 [ 0.01923688 -0.01302448 -0.00176887  0.00280253  0.45477225  0.30790722 -0.04181714 -0.06625373]
 [ 0.00124257 -0.00084129 -0.00011426  0.00018102 -0.06180574 -0.04184607  0.00568315  0.0090042 ]
 [-0.00413928  0.00280253  0.00038061 -0.00060303 -0.09785532 -0.06625373  0.00899797  0.0142561 ]]
G(g) (NO)
[[ 0.30168769 -0.00175816  0.02465585 -0.01877196 -0.05478481  0.00045693 -0.00065357 -0.00037976]
 [ 0.00175816  0.30168769 -0.00009225 -0.00063113  0.000611    0.06183041  0.01013883 -0.00598981]
 [ 0.02462525 -0.00301694  0.73839559  0.04065419  0.12239253  0.00022092  0.0016435   0.00072822]
 [-0.01877765  0.00148492  0.04065338  0.77679093  0.04545329 -0.00044783  0.00112813  0.00046599]
 [-0.05470061  0.0187275   0.12239939  0.04545127  1.05044095 -0.0010354   0.00633915  0.00227362]
 [ 0.01751763  0.06174483 -0.00041183 -0.00463483  0.00191045  0.85791219  0.04342993 -0.19648319]
 [ 0.00006277  0.01015481 -0.00004892 -0.00130906  0.00063504  0.04343069  0.78960094 -0.05504242]
 [-0.00742664 -0.00596792 -0.00011364  0.00470766 -0.00134221 -0.19647607 -0.05504318  0.91811435]]
...
C(NO)
[[-1.00377551  0.         -0.06492683 -0.0064266   0.03244135  0.          0.          0.        ]
 [ 0.         -1.00377551  0.          0.          0.         -0.06492683 -0.0064266   0.03244135]
 [-0.          0.         -0.54626168 -0.03373701  0.8074817   0.          0.          0.        ]
 [-0.          0.         -0.01526664  0.98931546  0.05674678  0.          0.          0.        ]
 [ 0.          0.          0.81225133 -0.05755278  0.58041541  0.          0.          0.        ]
 [ 0.         -0.          0.          0.          0.         -0.96242684 -0.13140041 -0.07682515]
 [ 0.          0.          0.          0.          0.          0.17921872 -0.95007039 -0.23982646]
 [ 0.          0.          0.          0.          0.         -0.00153228 -0.25158652  0.96369606]]
detC 1.0075652788161527
detNg [0.97112773 0.99222469 1.09739759 1.41179145 2.21023666 4.00780096 6.53919953 7.63186952]
xg [1.0143253  0.99275843 0.89761399 0.69772304 0.44567147 0.24578053 0.15063609 0.12906922]
ciS 1.1433945144007276
[[-0.79812151  0.         -0.02238505  0.02065934  0.06534145  0.          0.          0.        ]
 [ 0.         -0.79812151  0.          0.          0.         -0.06981497 -0.01219277  0.01321404]
 [-0.02238505  0.          0.17346268 -0.01115286  0.41070772  0.          0.          0.        ]
 [ 0.02065934  0.         -0.01115286  0.33893652 -0.02744224  0.          0.          0.        ]
 [ 0.06534145  0.          0.41070772 -0.02744224 -0.5620013   0.          0.          0.        ]
 [ 0.         -0.06981497  0.          0.          0.         -0.7028896   0.12334218  0.17582508]
 [ 0.         -0.01219277  0.          0.          0.          0.12334218  0.31693966 -0.0044388 ]
 [ 0.          0.01321404  0.          0.          0.          0.17582508 -0.0044388   0.33634785]]
ciH -1.5038637972887618
S2 = -0.000000
X(g)
[[ 1.98498305 -0.          0.00013457 -0.00000376 -0.00029124  0.0283912  -0.00359425 -0.00430238]
 [ 0.          1.98498305 -0.01213748  0.00033939  0.02626891  0.00031477 -0.00003985 -0.0000477 ]
 [ 0.00013457  0.01213748  0.          0.          0.          0.          0.          0.        ]
 [-0.00000376 -0.00033939  0.          0.          0.          0.          0.          0.        ]
 [-0.00029124 -0.02626891  0.          0.          0.          0.          0.          0.        ]
 [-0.0283912   0.00031477  0.          0.          0.          0.          0.          0.        ]
 [ 0.00359425 -0.00003985  0.          0.          0.          0.          0.          0.        ]
 [ 0.00430238 -0.0000477   0.          0.          0.          0.          0.          0.        ]]
X(g) int
[[ 1.98498305 -0.          0.12276717 -0.00343287 -0.26570254  0.63466574 -0.08034707 -0.09617669]
 [ 0.          1.98498305 -0.27132506  0.00758691  0.58722343  0.28716888 -0.03635485 -0.04351732]
 [ 0.12276717  0.27132506  0.          0.          0.          0.          0.          0.        ]
 [-0.00343287 -0.00758691  0.          0.          0.          0.          0.          0.        ]
 [-0.26570254 -0.58722343  0.          0.          0.          0.          0.          0.        ]
 [-0.63466574  0.28716888  0.          0.          0.          0.          0.          0.        ]
 [ 0.08034707 -0.03635485  0.          0.          0.          0.          0.          0.        ]
 [ 0.09617669 -0.04351732  0.          0.          0.          0.          0.          0.        ]]
Hsp + Hph =  -1.3152623861213488
Feff (mod,ortho)
[[-0.26295163  0.33149069  0.20504972  0.02967638  0.          0.          0.          0.        ]
 [ 0.33149069  0.05179836  0.07543609  0.35629823  0.          0.          0.          0.        ]
 [ 0.20504972  0.07543609  1.16607917  0.04832404  0.          0.          0.          0.        ]
 [ 0.02967638  0.35629823  0.04832404  1.07882542  0.          0.          0.          0.        ]
 [ 0.          0.          0.          0.         -0.26295163 -0.33149069  0.20504972 -0.02967638]
 [ 0.          0.          0.          0.         -0.33149069  0.05179836 -0.07543609  0.35629823]
 [ 0.          0.          0.          0.          0.20504972 -0.07543609  1.16607917 -0.04832404]
 [ 0.          0.          0.          0.         -0.02967638  0.35629823 -0.04832404  1.07882542]]
E(SUHF) =     -1.02127505
e_a, e_b
[-0.50181734  0.13292046  1.11427044  1.28837777] [-0.50181734  0.13292046  1.11427044  1.28837777]
P_a, P_b
[[ 0.6752989  -0.45454088 -0.06512146  0.09177192]
 [-0.45454088  0.30594957  0.04383298 -0.0617713 ]
 [-0.06512146  0.04383298  0.00627989 -0.00884989]
 [ 0.09177192 -0.0617713  -0.00884989  0.01247164]] 
 [[ 0.6752989   0.45454088 -0.06512146 -0.09177192]
 [ 0.45454088  0.30594957 -0.04383298 -0.0617713 ]
 [-0.06512146 -0.04383298  0.00627989  0.00884989]
 [-0.09177192 -0.0617713   0.00884989  0.01247164]]
**** Start Cycle 2 ****
dm (ortho)
[array([[ 0.6752989 , -0.45454088, -0.06512146,  0.09177192],
       [-0.45454088,  0.30594957,  0.04383298, -0.0617713 ],
       [-0.06512146,  0.04383298,  0.00627989, -0.00884989],
       [ 0.09177192, -0.0617713 , -0.00884989,  0.01247164]]), array([[ 0.6752989 ,  0.45454088, -0.06512146, -0.09177192],
       [ 0.45454088,  0.30594957, -0.04383298, -0.0617713 ],
       [-0.06512146, -0.04383298,  0.00627989,  0.00884989],
       [-0.09177192, -0.0617713 ,  0.00884989,  0.01247164]])]
Fock (ortho)
 (array([[-0.27050639,  0.32106364,  0.19615743,  0.01988118],
       [ 0.32106364,  0.0596378 ,  0.08189049,  0.36077066],
       [ 0.19615743,  0.08189049,  1.16169766,  0.04779952],
       [ 0.01988118,  0.36077066,  0.04779952,  1.07032458]]), array([[-0.27050639, -0.32106364,  0.19615743, -0.01988118],
       [-0.32106364,  0.0596378 , -0.08189049,  0.36077066],
       [ 0.19615743, -0.08189049,  1.16169766, -0.04779952],
       [-0.01988118,  0.36077066, -0.04779952,  1.07032458]]))
E(UHF) =    -1.294341
NO eigenvalue
[-1. -0. -0.  0.] [-1. -0. -0.  0.]
NO vec
[[ 0.82176572  0.         -0.07974732  0.0073753   0.56416937  0.          0.          0.        ]
 [-0.55312708  0.         -0.34905536 -0.00611974  0.7564214   0.          0.          0.        ]
 [-0.07924577  0.          0.48520195  0.85347512  0.17285657  0.          0.          0.        ]
 [ 0.1116765   0.         -0.79773416  0.52104546 -0.28224138  0.          0.          0.        ]
 [ 0.          0.82176572  0.          0.          0.          0.56692364 -0.03550897  0.04514203]
 [ 0.          0.55312708  0.          0.          0.         -0.8132203   0.04110153  0.17616423]
 [ 0.         -0.07924577  0.          0.          0.          0.11619374  0.78618721  0.60177139]
 [ 0.         -0.1116765   0.          0.          0.          0.06139498 -0.61559683  0.7776886 ]]
dm(NO)
[[ 1.  0. -0. -0.  0.  0.  0.  0.]
 [ 0.  1.  0.  0.  0.  0.  0. -0.]
 [-0.  0.  0.  0. -0.  0.  0.  0.]
 [-0.  0. -0.  0. -0.  0.  0.  0.]
 [ 0.  0. -0.  0.  0.  0.  0.  0.]
 [ 0.  0.  0.  0.  0.  0.  0. -0.]
 [ 0. -0.  0.  0.  0.  0.  0.  0.]
 [ 0.  0.  0.  0.  0. -0.  0. -0.]]
D(g) (NO)
[[ 0.99951369  0.01132442 -0.         -0.          0.          0.02848091 -0.00570541 -0.00066056]
 [-0.01132442  0.99951369  0.0064851   0.00384012 -0.02805971 -0.          0.          0.        ]
 [-0.         -0.0064851   0.99951369 -0.          0.          0.00767259  0.0268496  -0.01227057]
 [ 0.         -0.00384012 -0.          0.99951369 -0.          0.0043755   0.01090552  0.02862815]
 [ 0.          0.02805971  0.         -0.          0.99951369 -0.00912233  0.01000051  0.00134856]
 [-0.02848091 -0.         -0.00767259 -0.0043755   0.00912233  0.99951369 -0.         -0.        ]
 [ 0.00570541  0.         -0.0268496  -0.01090552 -0.01000051 -0.          0.99951369  0.        ]
 [ 0.00066056 -0.          0.01227057 -0.02862815 -0.00134856 -0.         -0.          0.99951369]]
...
N(g) (NO)
[[ 1.00035814 -0.01133399]
 [ 0.01133399  1.00035814]]
...
P(g) (NO)
[[ 1.         -0.         -0.         -0.          0.         -0.         -0.          0.        ]
 [ 0.          1.         -0.         -0.          0.          0.          0.         -0.        ]
 [-0.0000735  -0.00648742  0.          0.         -0.         -0.         -0.          0.        ]
 [-0.00004352 -0.0038415   0.          0.         -0.         -0.         -0.          0.        ]
 [ 0.00031803  0.02806976 -0.         -0.          0.          0.          0.         -0.        ]
 [-0.02849111  0.0003228   0.          0.         -0.          0.          0.         -0.        ]
 [ 0.00570745 -0.00006467 -0.         -0.          0.         -0.         -0.          0.        ]
 [ 0.0006608  -0.00000749 -0.         -0.          0.         -0.         -0.          0.        ]]
...
Pg_ortho
[[ 0.67545089 -0.45464318 -0.06513611  0.09179257  0.01341543  0.00902987 -0.0012937  -0.00182313]
 [-0.45432189  0.30580217  0.04381186 -0.06174154  0.01932838  0.01300985 -0.0018639  -0.00262669]
 [-0.06513611  0.04384285  0.00628131 -0.00885188 -0.0012937  -0.00087078  0.00012476  0.00017581]
 [ 0.0917277  -0.06174154 -0.00884563  0.01246563 -0.0039024  -0.00262669  0.00037632  0.00053033]
 [-0.01341543  0.00902987  0.0012937  -0.00182313  0.67545089  0.45464318 -0.06513611 -0.09179257]
 [ 0.01932838 -0.01300985 -0.0018639   0.00262669  0.45432189  0.30580217 -0.04381186 -0.06174154]
 [ 0.0012937  -0.00087078 -0.00012476  0.00017581 -0.06513611 -0.04384285  0.00628131  0.00885188]
 [-0.0039024   0.00262669  0.00037632 -0.00053033 -0.0917277  -0.06174154  0.00884563  0.01246563]]
G(g) (NO)
[[ 0.30277619 -0.00174686  0.00288519 -0.00162311  0.06267042  0.00057294 -0.00018262 -0.0006476 ]
 [ 0.00174686  0.30277619  0.00073963  0.00021418 -0.00043366  0.06018696 -0.00745235  0.01614103]
 [ 0.00291547  0.00515225  0.79143685 -0.03920585 -0.10121061 -0.00017954  0.00049827  0.00205381]
 [-0.00161501 -0.00273222 -0.03920406  0.85736336  0.18014107  0.00072292 -0.00082983 -0.00362328]
 [ 0.06258409 -0.01809377 -0.10121554  0.18014677  0.91729692  0.00170577 -0.00169006 -0.00521418]
 [ 0.01892823  0.06009677  0.00582209  0.00231259 -0.00061484  0.97919051  0.18213567 -0.04347574]
 [ 0.00157609 -0.00743944  0.00328428  0.00103855  0.00008642  0.18212922  0.83100735  0.01497383]
 [-0.00079568  0.01615267 -0.0003924  -0.00009726 -0.00036455 -0.04347153  0.01497304  0.75589926]]
...
C(NO)
[[-1.00373403  0.         -0.07020357 -0.00769898  0.03940924  0.          0.          0.        ]
 [ 0.         -1.00373403  0.          0.          0.         -0.07020357 -0.00769898  0.03940924]
 [ 0.0034972   0.          0.16047592 -0.8916099   0.42548843  0.          0.          0.        ]
 [-0.00736364  0.          0.28060258 -0.37323456 -0.87210724  0.          0.          0.        ]
 [ 0.00410176  0.         -0.92367946 -0.2211456  -0.22364446  0.          0.          0.        ]
 [ 0.          0.00271731  0.          0.          0.         -0.91545137 -0.0403499  -0.37055162]
 [ 0.         -0.00799102  0.          0.          0.          0.34563022 -0.26804932 -0.88433501]
 [ 0.          0.00346956  0.          0.          0.         -0.0127521  -0.95378146  0.26883335]]
detC 1.007482000838888
detNg [1.00084486 1.02244505 1.13003699 1.45077417 2.25939545 4.04929376 6.50043933 7.53422937]
xg [0.98437062 0.96357479 0.87183188 0.67908728 0.43604685 0.24330225 0.15155934 0.13076351]
ciS 1.1151341306325542
[[-0.79854859  0.          0.0056792  -0.0132949  -0.0715182   0.          0.          0.        ]
 [ 0.         -0.79854859  0.          0.          0.         -0.07169676 -0.00734688 -0.01137802]
 [ 0.0056792   0.          0.31013543 -0.04753407  0.22578029  0.          0.          0.        ]
 [-0.0132949   0.         -0.04753407  0.32135276  0.12200013  0.          0.          0.        ]
 [-0.0715182   0.          0.22578029  0.12200013 -0.6806632   0.          0.          0.        ]
 [ 0.         -0.07169676  0.          0.          0.         -0.70772925  0.19842525  0.00723806]
 [ 0.         -0.00734688  0.          0.          0.          0.19842525  0.30422498 -0.02410182]
 [ 0.         -0.01137802  0.          0.          0.          0.00723806 -0.02410182  0.35432927]]
ciH -1.4670311708454822
S2 = -0.000000
X(g)
[[ 2.         -0.         -0.0000735  -0.00004352  0.00031803  0.02849111 -0.00570745 -0.0006608 ]
 [ 0.          2.          0.00648742  0.0038415  -0.02806976  0.0003228  -0.00006467 -0.00000749]
 [-0.0000735  -0.00648742  0.          0.          0.          0.          0.          0.        ]
 [-0.00004352 -0.0038415   0.          0.          0.          0.          0.          0.        ]
 [ 0.00031803  0.02806976  0.          0.          0.          0.          0.          0.        ]
 [-0.02849111  0.0003228   0.          0.          0.          0.          0.          0.        ]
 [ 0.00570745 -0.00006467  0.          0.          0.          0.          0.          0.        ]
 [ 0.0006608  -0.00000749  0.          0.          0.          0.          0.          0.        ]]
X(g) int
[[ 2.         -0.         -0.06672509 -0.03951095  0.28870593  0.63375468 -0.12695627 -0.01469882]
 [ 0.          2.          0.14430585  0.08545003 -0.62438215  0.29303967 -0.05870288 -0.00679654]
 [-0.06672509 -0.14430585  0.          0.          0.          0.          0.          0.        ]
 [-0.03951095 -0.08545003  0.          0.          0.          0.          0.          0.        ]
 [ 0.28870593  0.62438215  0.          0.          0.          0.          0.          0.        ]
 [-0.63375468  0.29303967  0.          0.          0.          0.          0.          0.        ]
 [ 0.12695627 -0.05870288  0.          0.          0.          0.          0.          0.        ]
 [ 0.01469882 -0.00679654  0.          0.          0.          0.          0.          0.        ]]
Hsp + Hph =  -1.3155647653016558
Feff (mod,ortho)
[[-0.26141144  0.32652112  0.20367318  0.03487213  0.          0.          0.          0.        ]
 [ 0.32652112  0.04817045  0.07571504  0.35225391  0.          0.          0.          0.        ]
 [ 0.20367318  0.07571504  1.16016355  0.04749445  0.          0.          0.          0.        ]
 [ 0.03487213  0.35225391  0.04749445  1.0742311   0.          0.          0.          0.        ]
 [ 0.          0.          0.          0.         -0.26141144 -0.32652112  0.20367318 -0.03487213]
 [ 0.          0.          0.          0.         -0.32652112  0.04817045 -0.07571504  0.35225391]
 [ 0.          0.          0.          0.          0.20367318 -0.07571504  1.16016355 -0.04749445]
 [ 0.          0.          0.          0.         -0.03487213  0.35225391 -0.04749445  1.0742311 ]]
E(SUHF) =     -1.02157743
e_a, e_b
[-0.49581127  0.12678167  1.10851732  1.28166592] [-0.49581127  0.12678167  1.10851732  1.28166592]
P_a, P_b
[[ 0.67654528 -0.45464213 -0.0649739   0.08894206]
 [-0.45464213  0.305522    0.04366281 -0.05976955]
 [-0.0649739   0.04366281  0.00623995 -0.0085418 ]
 [ 0.08894206 -0.05976955 -0.0085418   0.01169277]] 
 [[ 0.67654528  0.45464213 -0.0649739  -0.08894206]
 [ 0.45464213  0.305522   -0.04366281 -0.05976955]
 [-0.0649739  -0.04366281  0.00623995  0.0085418 ]
 [-0.08894206 -0.05976955  0.0085418   0.01169277]]
**** Start Cycle 3 ****
dm (ortho)
[array([[ 0.67654528, -0.45464213, -0.0649739 ,  0.08894206],
       [-0.45464213,  0.305522  ,  0.04366281, -0.05976955],
       [-0.0649739 ,  0.04366281,  0.00623995, -0.0085418 ],
       [ 0.08894206, -0.05976955, -0.0085418 ,  0.01169277]]), array([[ 0.67654528,  0.45464213, -0.0649739 , -0.08894206],
       [ 0.45464213,  0.305522  , -0.04366281, -0.05976955],
       [-0.0649739 , -0.04366281,  0.00623995,  0.0085418 ],
       [-0.08894206, -0.05976955,  0.0085418 ,  0.01169277]])]
Fock (ortho)
 (array([[-0.27025254,  0.32159008,  0.1961989 ,  0.02118076],
       [ 0.32159008,  0.06030356,  0.08266314,  0.36042639],
       [ 0.1961989 ,  0.08266314,  1.16230715,  0.04800515],
       [ 0.02118076,  0.36042639,  0.04800515,  1.07092862]]), array([[-0.27025254, -0.32159008,  0.1961989 , -0.02118076],
       [-0.32159008,  0.06030356, -0.08266314,  0.36042639],
       [ 0.1961989 , -0.08266314,  1.16230715, -0.04800515],
       [-0.02118076,  0.36042639, -0.04800515,  1.07092862]]))
E(UHF) =    -1.294183
NO eigenvalue
[-1. -0.  0.  0.] [-1. -0.  0.  0.]
NO vec
[[ 0.82252373  0.          0.56320881  0.03380546  0.07146848  0.          0.          0.        ]
 [-0.55274045  0.          0.82198533 -0.12465    -0.0572756   0.          0.          0.        ]
 [-0.07899334  0.          0.08128254  0.97473262 -0.19248254  0.          0.          0.        ]
 [ 0.10813312  0.         -0.02300215 -0.18225228 -0.97701701  0.          0.          0.        ]
 [ 0.          0.82252373  0.          0.          0.          0.54717106 -0.13290194  0.07997267]
 [ 0.          0.55274045  0.          0.          0.         -0.83248252  0.01462966  0.03516853]
 [ 0.         -0.07899334  0.          0.          0.         -0.07966539 -0.96339355 -0.24348786]
 [ 0.         -0.10813312  0.          0.          0.         -0.03507294 -0.2323702   0.96596129]]
dm(NO)
[[ 1.  0.  0.  0.  0.  0.  0.  0.]
 [ 0.  1.  0.  0.  0. -0.  0. -0.]
 [-0.  0. -0. -0.  0.  0.  0.  0.]
 [ 0.  0. -0. -0.  0.  0.  0.  0.]
 [-0.  0.  0.  0. -0.  0.  0.  0.]
 [ 0. -0.  0.  0.  0.  0.  0.  0.]
 [ 0.  0.  0.  0.  0.  0. -0.  0.]
 [ 0. -0.  0.  0.  0.  0.  0. -0.]]
D(g) (NO)
[[ 0.99951369  0.01139966 -0.          0.         -0.          0.02846119 -0.0020714   0.00530198]
 [-0.01139966  0.99951369 -0.02849097  0.0030679  -0.00461445 -0.          0.          0.        ]
 [-0.          0.02849097  0.99951369 -0.         -0.         -0.0119053  -0.00423431  0.00099596]
 [ 0.         -0.0030679  -0.          0.99951369 -0.          0.00159053 -0.02815899 -0.01294305]
 [ 0.          0.00461445 -0.         -0.          0.99951369  0.004253    0.0125397  -0.02785261]
 [-0.02846119 -0.          0.0119053  -0.00159053 -0.004253    0.99951369 -0.         -0.        ]
 [ 0.0020714   0.          0.00423431  0.02815899 -0.0125397  -0.          0.99951369  0.        ]
 [-0.00530198  0.         -0.00099596  0.01294305  0.02785261 -0.          0.          0.99951369]]
...
N(g) (NO)
[[ 1.00035643 -0.01140927]
 [ 0.01140927  1.00035643]]
...
P(g) (NO)
[[ 1.         -0.          0.          0.          0.          0.         -0.          0.        ]
 [-0.          1.         -0.         -0.          0.         -0.          0.         -0.        ]
 [ 0.00032506  0.02850113  0.          0.          0.         -0.          0.         -0.        ]
 [-0.000035   -0.003069   -0.         -0.          0.          0.         -0.          0.        ]
 [ 0.00005265  0.0046161   0.          0.          0.         -0.          0.         -0.        ]
 [-0.02847133  0.00032472 -0.         -0.          0.         -0.          0.         -0.        ]
 [ 0.00207213 -0.00002363  0.          0.          0.          0.         -0.          0.        ]
 [-0.00530387  0.00006049 -0.         -0.          0.         -0.          0.         -0.        ]]
...
Pg_ortho
[[ 0.67669799 -0.45474475 -0.06498856  0.08896213  0.01338924  0.00899764 -0.00128587 -0.00176022]
 [-0.45442125  0.30537357  0.0436416  -0.05974051  0.01936687  0.01301464 -0.00185995 -0.00254607]
 [-0.06498856  0.04367267  0.00624136 -0.00854372 -0.00128587 -0.00086411  0.00012349  0.00016905]
 [ 0.08889884 -0.05974051 -0.00853765  0.01168709 -0.00378876 -0.00254607  0.00036386  0.00049809]
 [-0.01338924  0.00899764  0.00128587 -0.00176022  0.67669799  0.45474475 -0.06498856 -0.08896213]
 [ 0.01936687 -0.01301464 -0.00185995  0.00254607  0.45442125  0.30537357 -0.0436416  -0.05974051]
 [ 0.00128587 -0.00086411 -0.00012349  0.00016905 -0.06498856 -0.04367267  0.00624136  0.00854372]
 [-0.00378876  0.00254607  0.00036386 -0.00049809 -0.08889884 -0.05974051  0.00853765  0.01168709]]
G(g) (NO)
[[ 0.3032622  -0.00174709  0.05933866  0.00950646  0.01837848  0.00071134  0.00048363 -0.00021844]
 [ 0.00174709  0.3032622  -0.00061427  0.00058453  0.00026195  0.05634398 -0.02039758  0.01893445]
 [ 0.05924726 -0.0189672   0.98267876  0.09621821 -0.15843024  0.0030132   0.00516121 -0.0020219 ]
 [ 0.0095202  -0.00125625  0.09621696  0.81130004 -0.04353983  0.00111713  0.00177491 -0.00082349]
 [ 0.0183741   0.0011947  -0.15842243 -0.04354021  0.77376454 -0.00077431 -0.00228426  0.00120961]
 [ 0.01850622  0.05625172 -0.00189761  0.00514181  0.0022033   0.9536894  -0.11379626 -0.14972515]
 [-0.00441066 -0.02039529  0.00110225 -0.0026792  -0.00126212 -0.11379543  0.84146029  0.07025024]
 [-0.00090877  0.01892763  0.00035463 -0.00231041 -0.00134875 -0.14971733  0.07024926  0.77259365]]
...
C(NO)
[[-1.00369848  0.         -0.07184711 -0.00993679  0.04160563  0.          0.          0.        ]
 [ 0.         -1.00369848  0.          0.          0.         -0.07184711 -0.00993679  0.04160563]
 [ 0.00341331  0.         -0.91484394  0.01094377 -0.38063078  0.          0.          0.        ]
 [-0.00166282  0.          0.17924388 -0.89512822 -0.39552047  0.          0.          0.        ]
 [ 0.01184146  0.         -0.29727562 -0.42633772  0.83074311  0.          0.          0.        ]
 [ 0.          0.00331852  0.          0.          0.         -0.92345536  0.17406897 -0.33087317]
 [ 0.          0.00045919  0.          0.          0.         -0.005442    0.9004279   0.41238074]
 [ 0.          0.01197549  0.          0.          0.         -0.3234829  -0.37691875  0.84375081]]
detC 1.0074106430846854
detNg [1.00084315 1.02239857 1.12973944 1.44945079 2.25364674 4.02443799 6.42881653 7.43581784]
xg [0.98451176 0.96375511 0.87218505 0.67980359 0.43722108 0.24483962 0.15326956 0.13251291]
ciS 1.117024670699054
[[-0.79871267  0.         -0.07142786 -0.01528276 -0.00041786  0.          0.          0.        ]
 [ 0.         -0.79871267  0.          0.          0.         -0.06777003  0.02724083 -0.00091463]
 [-0.07142786  0.         -0.70702819  0.09208771 -0.17875245  0.          0.          0.        ]
 [-0.01528276  0.          0.09208771  0.31840962  0.02486691  0.          0.          0.        ]
 [-0.00041786  0.         -0.17875245  0.02486691  0.33960764  0.          0.          0.        ]
 [ 0.         -0.06777003  0.          0.          0.         -0.6976405   0.09458159 -0.20442875]
 [ 0.          0.02724083  0.          0.          0.          0.09458159  0.31894601  0.00758759]
 [ 0.         -0.00091463  0.          0.          0.         -0.20442875  0.00758759  0.32968356]]
ciH -1.4695829008973251
S2 = -0.000000
X(g)
[[ 2.          0.          0.00032506 -0.000035    0.00005265  0.02847133 -0.00207213  0.00530387]
 [-0.          2.         -0.02850113  0.003069   -0.0046161   0.00032472 -0.00002363  0.00006049]
 [ 0.00032506  0.02850113  0.          0.          0.          0.          0.          0.        ]
 [-0.000035   -0.003069    0.          0.          0.          0.          0.          0.        ]
 [ 0.00005265  0.0046161   0.          0.          0.          0.          0.          0.        ]
 [-0.02847133  0.00032472  0.          0.          0.          0.          0.          0.        ]
 [ 0.00207213 -0.00002363  0.          0.          0.          0.          0.          0.        ]
 [-0.00530387  0.00006049  0.          0.          0.          0.          0.          0.        ]]
X(g) int
[[ 2.          0.          0.29463315 -0.03172606  0.04771935  0.63233338 -0.04602103  0.11779615]
 [-0.          2.         -0.63299518  0.06816083 -0.10252111  0.29432511 -0.02142089  0.05482925]
 [ 0.29463315  0.63299518  0.          0.          0.          0.          0.          0.        ]
 [-0.03172606 -0.06816083  0.          0.          0.          0.          0.          0.        ]
 [ 0.04771935  0.10252111  0.          0.          0.          0.          0.          0.        ]
 [-0.63233338  0.29432511  0.          0.          0.          0.          0.          0.        ]
 [ 0.04602103 -0.02142089  0.          0.          0.          0.          0.          0.        ]
 [-0.11779615  0.05482925  0.          0.          0.          0.          0.          0.        ]]
Hsp + Hph =  -1.3156225994342936
Feff (mod,ortho)
[[-0.26086068  0.32734264  0.20374041  0.03745276  0.          0.          0.          0.        ]
 [ 0.32734264  0.04833078  0.0764366   0.3510775   0.          0.          0.          0.        ]
 [ 0.20374041  0.0764366   1.16077198  0.04755245  0.          0.          0.          0.        ]
 [ 0.03745276  0.3510775   0.04755245  1.07504469  0.          0.          0.          0.        ]
 [ 0.          0.          0.          0.         -0.26086068 -0.32734264  0.20374041 -0.03745276]
 [ 0.          0.          0.          0.         -0.32734264  0.04833078 -0.0764366   0.3510775 ]
 [ 0.          0.          0.          0.          0.20374041 -0.0764366   1.16077198 -0.04755245]
 [ 0.          0.          0.          0.         -0.03745276  0.3510775  -0.04755245  1.07504469]]
E(SUHF) =     -1.02163526
e_a, e_b
[-0.49547557  0.12734462  1.10854439  1.28287335] [-0.49547557  0.12734462  1.10854439  1.28287335]
P_a, P_b
[[ 0.67687649 -0.45482152 -0.06478653  0.08749169]
 [-0.45482152  0.30561354  0.04353277 -0.05878931]
 [-0.06478653  0.04353277  0.00620097 -0.00837418]
 [ 0.08749169 -0.05878931 -0.00837418  0.011309  ]] 
 [[ 0.67687649  0.45482152 -0.06478653 -0.08749169]
 [ 0.45482152  0.30561354 -0.04353277 -0.05878931]
 [-0.06478653 -0.04353277  0.00620097  0.00837418]
 [-0.08749169 -0.05878931  0.00837418  0.011309  ]]
**** Start Cycle 4 ****
dm (ortho)
[array([[ 0.67687649, -0.45482152, -0.06478653,  0.08749169],
       [-0.45482152,  0.30561354,  0.04353277, -0.05878931],
       [-0.06478653,  0.04353277,  0.00620097, -0.00837418],
       [ 0.08749169, -0.05878931, -0.00837418,  0.011309  ]]), array([[ 0.67687649,  0.45482152, -0.06478653, -0.08749169],
       [ 0.45482152,  0.30561354, -0.04353277, -0.05878931],
       [-0.06478653, -0.04353277,  0.00620097,  0.00837418],
       [-0.08749169, -0.05878931,  0.00837418,  0.011309  ]])]
Fock (ortho)
 (array([[-0.27001707,  0.32196816,  0.19619712,  0.02187635],
       [ 0.32196816,  0.06058189,  0.08312117,  0.36025868],
       [ 0.19619712,  0.08312117,  1.16264515,  0.04813281],
       [ 0.02187635,  0.36025868,  0.04813281,  1.07126107]]), array([[-0.27001707, -0.32196816,  0.19619712, -0.02187635],
       [-0.32196816,  0.06058189, -0.08312117,  0.36025868],
       [ 0.19619712, -0.08312117,  1.16264515, -0.04813281],
       [-0.02187635,  0.36025868, -0.04813281,  1.07126107]]))
E(UHF) =    -1.294070
NO eigenvalue
[-1. -0. -0.  0.] [-1. -0. -0.  0.]
NO vec
[[ 0.82272504  0.         -0.55332214 -0.12998934  0.00780373  0.          0.          0.        ]
 [-0.55282325  0.         -0.8313559   0.03732047 -0.04290703  0.          0.          0.        ]
 [-0.07874627  0.         -0.01249302 -0.39015169  0.917292    0.          0.          0.        ]
 [ 0.10634378  0.         -0.05025841  0.9107643   0.39582001  0.          0.          0.        ]
 [ 0.          0.82272504  0.          0.          0.          0.05021826  0.01301527 -0.56606735]
 [ 0.          0.55282325  0.          0.          0.          0.15644232  0.02807252  0.81800012]
 [ 0.         -0.07874627  0.          0.          0.          0.73591914 -0.66936896 -0.0645541 ]
 [ 0.         -0.10634378  0.          0.          0.          0.65683098  0.74228548 -0.07922331]]
dm(NO)
[[ 1.  0. -0. -0.  0.  0.  0.  0.]
 [ 0.  1.  0.  0.  0. -0.  0.  0.]
 [-0.  0. -0.  0. -0.  0.  0.  0.]
 [-0.  0. -0.  0.  0.  0.  0.  0.]
 [ 0.  0. -0. -0. -0.  0.  0.  0.]
 [ 0. -0.  0.  0.  0.  0.  0. -0.]
 [ 0. -0.  0.  0.  0.  0. -0. -0.]
 [ 0.  0.  0.  0.  0. -0.  0. -0.]]
D(g) (NO)
[[ 0.99951369  0.01141789 -0.         -0.         -0.         -0.00103747  0.00395517 -0.02872812]
 [-0.01141789  0.99951369  0.02832984  0.00475373  0.00410452 -0.          0.         -0.        ]
 [-0.         -0.02832984  0.99951369 -0.         -0.         -0.00623824 -0.00185489 -0.01128968]
 [ 0.         -0.00475373  0.          0.99951369  0.          0.00967954  0.0292049   0.0017819 ]
 [ 0.         -0.00410452 -0.          0.          0.99951369  0.02896045 -0.01001911 -0.00405658]
 [ 0.00103747  0.          0.00623824 -0.00967954 -0.02896045  0.99951369  0.          0.        ]
 [-0.00395517  0.          0.00185489 -0.0292049   0.01001911  0.          0.99951369  0.        ]
 [ 0.02872812 -0.          0.01128968 -0.0017819   0.00405658  0.          0.          0.99951369]]
...
N(g) (NO)
[[ 1.00035601 -0.01142751]
 [ 0.01142751  1.00035601]]
...
P(g) (NO)
[[ 1.         -0.         -0.         -0.          0.          0.         -0.         -0.        ]
 [-0.          1.          0.          0.         -0.         -0.          0.          0.        ]
 [-0.00032374 -0.02833993  0.          0.         -0.          0.         -0.         -0.        ]
 [-0.00005432 -0.00475542  0.          0.         -0.          0.         -0.         -0.        ]
 [-0.0000469  -0.00410598  0.          0.         -0.          0.         -0.         -0.        ]
 [ 0.00103784 -0.00001186 -0.         -0.          0.          0.         -0.         -0.        ]
 [-0.00395658  0.0000452   0.          0.         -0.         -0.          0.          0.        ]
 [ 0.02873835 -0.00032829 -0.         -0.          0.          0.         -0.         -0.        ]]
...
Pg_ortho
[[ 0.67702937 -0.45492425 -0.06480116  0.08751145  0.01338345  0.0089929  -0.00128098 -0.00172992]
 [-0.45460011  0.30546476  0.04351157 -0.05876069  0.0193828   0.01302411 -0.0018552  -0.00250538]
 [-0.06480116  0.0435426   0.00620238 -0.00837607 -0.00128098 -0.00086075  0.00012261  0.00016558]
 [ 0.0874491  -0.05876069 -0.0083701   0.01130349 -0.00372857 -0.00250538  0.00035688  0.00048195]
 [-0.01338345  0.0089929   0.00128098 -0.00172992  0.67702937  0.45492425 -0.06480116 -0.08751145]
 [ 0.0193828  -0.01302411 -0.0018552   0.00250538  0.45460011  0.30546476 -0.04351157 -0.05876069]
 [ 0.00128098 -0.00086075 -0.00012261  0.00016558 -0.06480116 -0.0435426   0.00620238  0.00837607]
 [-0.00372857  0.00250538  0.00035688 -0.00048195 -0.0874491  -0.05876069  0.0083701   0.01130349]]
G(g) (NO)
[[ 0.30343639 -0.00174518 -0.05710174 -0.02613091 -0.0005963  -0.00064919  0.00004661 -0.00060283]
 [ 0.00174518  0.30343639  0.00067583 -0.00047868  0.00031803  0.01600616  0.00792445 -0.06020627]
 [-0.0570097   0.01886434  0.98411521 -0.05458569 -0.17284725  0.00592871 -0.00068211  0.00189154]
 [-0.0261265   0.00148837 -0.05457989  0.73248957 -0.01499718 -0.00047236 -0.00011913  0.00035848]
 [-0.00058569 -0.00239964 -0.17284176 -0.01499681  0.85214818 -0.0034792   0.00014028 -0.0008416 ]
 [-0.00002943  0.01601828  0.00046678 -0.00017177  0.00019938  0.76313892 -0.03224342  0.00594252]
 [-0.00271963  0.00791868 -0.00118425  0.0031849  -0.00167993 -0.0322438   0.84261228  0.19421297]
 [-0.01887961 -0.06011449 -0.00258951  0.00464261 -0.00307842  0.00594546  0.1942204   0.96300176]]
...
C(NO)
[[-1.00367706  0.         -0.07235104 -0.01119163  0.04276269  0.          0.          0.        ]
 [ 0.         -1.00367706  0.          0.          0.         -0.07235104 -0.01119163  0.04276269]
 [-0.00278199  0.          0.90711228 -0.10960394  0.3957714   0.          0.          0.        ]
 [-0.0109463   0.          0.23302236  0.84825548 -0.43037723  0.          0.          0.        ]
 [-0.00837077  0.          0.28322398 -0.50155884 -0.80591139  0.          0.          0.        ]
 [ 0.          0.00594188  0.          0.          0.          0.02476109 -0.98704605  0.09602256]
 [ 0.          0.01198778  0.          0.          0.         -0.29799918  0.09363714  0.93476815]
 [ 0.         -0.00431486  0.          0.          0.          0.93163905  0.00915596  0.3291518 ]]
detC 1.0073676480376919
detNg [1.00084273 1.02238727 1.12966709 1.44912927 2.25225293 4.01843853 6.41163415 7.41226928]
xg [0.98459621 0.96384804 0.87231537 0.68001246 0.437529   0.24522609 0.15369342 0.13294525]
ciS 1.1175414586875365
[[-0.79874343  0.          0.07020052  0.01364985 -0.01540299  0.          0.          0.        ]
 [ 0.         -0.79874343  0.          0.          0.         -0.00990465  0.01260115  0.07137782]
 [ 0.07020052  0.         -0.69001432 -0.19629024 -0.14087095  0.          0.          0.        ]
 [ 0.01364985  0.         -0.19629024  0.32807382 -0.00954733  0.          0.          0.        ]
 [-0.01540299  0.         -0.14087095 -0.00954733  0.31296033  0.          0.          0.        ]
 [ 0.         -0.00990465  0.          0.          0.          0.34586977  0.02541724 -0.01560078]
 [ 0.          0.01260115  0.          0.          0.          0.02541724  0.3304545   0.14483819]
 [ 0.          0.07137782  0.          0.          0.         -0.01560078  0.14483819 -0.72530443]]
ciH -1.4702805212019923
S2 = 0.000000
X(g)
[[ 2.         -0.         -0.00032374 -0.00005432 -0.0000469  -0.00103784  0.00395658 -0.02873835]
 [-0.          2.          0.02833993  0.00475542  0.00410598 -0.00001186  0.0000452  -0.00032829]
 [-0.00032374 -0.02833993  0.          0.          0.          0.          0.          0.        ]
 [-0.00005432 -0.00475542  0.          0.          0.          0.          0.          0.        ]
 [-0.0000469  -0.00410598  0.          0.          0.          0.          0.          0.        ]
 [ 0.00103784 -0.00001186  0.          0.          0.          0.          0.          0.        ]
 [-0.00395658  0.0000452   0.          0.          0.          0.          0.          0.        ]
 [ 0.02873835 -0.00032829  0.          0.          0.          0.          0.          0.        ]]
X(g) int
[[ 2.         -0.         -0.29332457 -0.04921964 -0.04249784 -0.02304118  0.08784051 -0.63802337]
 [ 0.          2.          0.62917788  0.10557556  0.09115739 -0.01074187  0.0409515  -0.29744836]
 [-0.29332457 -0.62917788  0.          0.          0.          0.          0.          0.        ]
 [-0.04921964 -0.10557556  0.          0.          0.          0.          0.          0.        ]
 [-0.04249784 -0.09115739  0.          0.          0.          0.          0.          0.        ]
 [ 0.02304118 -0.01074187  0.          0.          0.          0.          0.          0.        ]
 [-0.08784051  0.0409515   0.          0.          0.          0.          0.          0.        ]
 [ 0.63802337 -0.29744836  0.          0.          0.          0.          0.          0.        ]]
Hsp + Hph =  -1.3156384577702556
Feff (mod,ortho)
[[-0.26057538  0.32781983  0.2037642   0.03881161  0.          0.          0.          0.        ]
 [ 0.32781983  0.04845496  0.07686922  0.3504556   0.          0.          0.          0.        ]
 [ 0.2037642   0.07686922  1.16111011  0.04760679  0.          0.          0.          0.        ]
 [ 0.03881161  0.3504556   0.04760679  1.07548136  0.          0.          0.          0.        ]
 [ 0.          0.          0.          0.         -0.26057538 -0.32781983  0.2037642  -0.03881161]
 [ 0.          0.          0.          0.         -0.32781983  0.04845496 -0.07686922  0.3504556 ]
 [ 0.          0.          0.          0.          0.2037642  -0.07686922  1.16111011 -0.04760679]
 [ 0.          0.          0.          0.         -0.03881161  0.3504556  -0.04760679  1.07548136]]
E(SUHF) =     -1.02165112
e_a, e_b
[-0.49532843  0.12769441  1.10853777  1.2835673 ] [-0.49532843  0.12769441  1.10853777  1.2835673 ]
P_a, P_b
[[ 0.67705746 -0.45491471 -0.06466876  0.08672494]
 [-0.45491471  0.30565706  0.04345092 -0.05827046]
 [-0.06466876  0.04345092  0.0061768  -0.00828348]
 [ 0.08672494 -0.05827046 -0.00828348  0.01110868]] 
 [[ 0.67705746  0.45491471 -0.06466876 -0.08672494]
 [ 0.45491471  0.30565706 -0.04345092 -0.05827046]
 [-0.06466876 -0.04345092  0.0061768   0.00828348]
 [-0.08672494 -0.05827046  0.00828348  0.01110868]]
**** Start Cycle 5 ****
dm (ortho)
[array([[ 0.67705746, -0.45491471, -0.06466876,  0.08672494],
       [-0.45491471,  0.30565706,  0.04345092, -0.05827046],
       [-0.06466876,  0.04345092,  0.0061768 , -0.00828348],
       [ 0.08672494, -0.05827046, -0.00828348,  0.01110868]]), array([[ 0.67705746,  0.45491471, -0.06466876, -0.08672494],
       [ 0.45491471,  0.30565706, -0.04345092, -0.05827046],
       [-0.06466876, -0.04345092,  0.0061768 ,  0.00828348],
       [-0.08672494, -0.05827046,  0.00828348,  0.01110868]])]
Fock (ortho)
 (array([[-0.269891  ,  0.32217026,  0.1961918 ,  0.02224684],
       [ 0.32217026,  0.06073425,  0.08337079,  0.36017076],
       [ 0.1961918 ,  0.08337079,  1.16282866,  0.04820193],
       [ 0.02224684,  0.36017076,  0.04820193,  1.07144004]]), array([[-0.269891  , -0.32217026,  0.1961918 , -0.02224684],
       [-0.32217026,  0.06073425, -0.08337079,  0.36017076],
       [ 0.1961918 , -0.08337079,  1.16282866, -0.04820193],
       [-0.02224684,  0.36017076, -0.04820193,  1.07144004]]))
E(UHF) =    -1.294006
NO eigenvalue
[-1. -0. -0.  0.] [-1. -0. -0.  0.]
NO vec
[[ 0.82283501  0.          0.56521141 -0.0533966  -0.02504802  0.          0.          0.        ]
 [-0.5528626   0.          0.81530686  0.03121604  0.16924308  0.          0.          0.        ]
 [-0.07859262  0.          0.11545854  0.42955735 -0.89217319  0.          0.          0.        ]
 [ 0.10539773  0.         -0.04980065  0.90091889  0.41803872  0.          0.          0.        ]
 [ 0.          0.82283501  0.          0.          0.          0.1642997  -0.04099555 -0.5424643 ]
 [ 0.          0.5528626   0.          0.          0.         -0.01488707  0.01432242  0.83301632]
 [ 0.         -0.07859262  0.          0.          0.          0.41640437 -0.90265565  0.07512239]
 [ 0.         -0.10539773  0.          0.          0.          0.8940869   0.42816703  0.07856798]]
dm(NO)
[[ 1.  0.  0. -0. -0.  0.  0.  0.]
 [ 0.  1.  0.  0.  0. -0.  0.  0.]
 [ 0.  0. -0.  0.  0.  0.  0.  0.]
 [-0.  0.  0.  0. -0.  0.  0.  0.]
 [ 0.  0. -0.  0.  0.  0.  0.  0.]
 [ 0. -0.  0.  0.  0. -0.  0.  0.]
 [ 0.  0.  0.  0.  0.  0.  0. -0.]
 [ 0.  0.  0.  0.  0.  0.  0.  0.]]
D(g) (NO)
[[ 0.99951369  0.01142767  0.         -0.         -0.          0.00639039  0.00232062 -0.02820601]
 [-0.01142767  0.99951369 -0.02843919  0.00484566 -0.00308763  0.          0.          0.        ]
 [ 0.          0.02843919  0.99951369 -0.          0.          0.00262806 -0.00427323  0.01176598]
 [ 0.         -0.00484566 -0.          0.99951369  0.          0.03040774  0.00001988  0.00492763]
 [-0.          0.00308763  0.          0.          0.99951369 -0.00013648  0.03080173  0.00375422]
 [-0.00639039  0.         -0.00262806 -0.03040774  0.00013648  0.99951369  0.         -0.        ]
 [-0.00232062  0.          0.00427323 -0.00001988 -0.03080173  0.          0.99951369  0.        ]
 [ 0.02820601  0.         -0.01176598 -0.00492763 -0.00375422 -0.          0.          0.99951369]]
...
N(g) (NO)
[[ 1.00035579 -0.0114373 ]
 [ 0.0114373   1.00035579]]
...
P(g) (NO)
[[ 1.         -0.          0.         -0.         -0.          0.         -0.         -0.        ]
 [-0.          1.         -0.          0.          0.         -0.          0.          0.        ]
 [ 0.00032527  0.02844931  0.         -0.         -0.         -0.          0.          0.        ]
 [-0.00005542 -0.00484739 -0.          0.          0.          0.         -0.         -0.        ]
 [ 0.00003531  0.00308873  0.         -0.         -0.         -0.          0.          0.        ]
 [-0.00639266  0.00007309 -0.          0.          0.         -0.          0.          0.        ]
 [-0.00232145  0.00002654 -0.          0.          0.         -0.          0.          0.        ]
 [ 0.02821605 -0.0003226   0.         -0.         -0.          0.         -0.         -0.        ]]
...
Pg_ortho
[[ 0.67721044 -0.4550175  -0.06468337  0.08674454  0.0133804   0.00899029 -0.00127802 -0.00171391]
 [-0.454693    0.3055081   0.04342974 -0.05824207  0.01939122  0.01302895 -0.00185214 -0.00248384]
 [-0.06468337  0.04346074  0.0061782  -0.00828536 -0.00127802 -0.0008587   0.00012207  0.0001637 ]
 [ 0.08668268 -0.05824207 -0.00827945  0.01110327 -0.00369674 -0.00248384  0.00035309  0.00047352]
 [-0.0133804   0.00899029  0.00127802 -0.00171391  0.67721044  0.4550175  -0.06468337 -0.08674454]
 [ 0.01939122 -0.01302895 -0.00185214  0.00248384  0.454693    0.3055081  -0.04342974 -0.05824207]
 [ 0.00127802 -0.0008587  -0.00012207  0.0001637  -0.06468337 -0.04346074  0.0061782   0.00828536]
 [-0.00369674  0.00248384  0.00035309 -0.00047352 -0.08668268 -0.05824207  0.00827945  0.01110327]]
G(g) (NO)
[[ 0.30353098 -0.0017443   0.05992628 -0.01512273 -0.01103267 -0.00044174  0.00025701 -0.00072508]
 [ 0.0017443   0.30353098 -0.00058809 -0.00010791 -0.00065531  0.02968365 -0.00227985 -0.0552744 ]
 [ 0.0598351  -0.0190113   0.98441186  0.18180455 -0.04510288 -0.00472652  0.00283164 -0.00316808]
 [-0.01511633 -0.00172513  0.18179656  0.80105528 -0.04023452 -0.00275915  0.00125326 -0.00114488]
 [-0.0110491   0.00010428 -0.04510354 -0.04023385  0.7838319   0.00087667 -0.00048482  0.00078783]
 [ 0.00273927  0.02967383 -0.00049185  0.00018342 -0.00006762  0.7281416  -0.02712286  0.03524172]
 [-0.00363501 -0.00228432  0.0008742   0.00087785  0.00381477 -0.02712172  0.87535764  0.18081718]
 [-0.01853914 -0.05518216  0.00166013  0.00088499  0.00571024  0.0352473   0.18082285  0.96579979]]
...
C(NO)
[[-1.00366445  0.         -0.07261897 -0.01187279  0.04335915  0.          0.          0.        ]
 [ 0.         -1.00366445  0.          0.          0.         -0.07261897 -0.01187279  0.04335915]
 [ 0.00384316  0.         -0.91291663 -0.03264298 -0.37901407  0.          0.          0.        ]
 [-0.01417002  0.          0.32339784  0.19027247 -0.90661047  0.          0.          0.        ]
 [-0.00271848  0.         -0.13901853  0.97253625  0.16033449  0.          0.          0.        ]
 [ 0.          0.01178685  0.          0.          0.         -0.28190689 -0.85361368  0.38099881]
 [ 0.          0.00878424  0.          0.          0.         -0.2289673   0.46477639  0.84449731]
 [ 0.         -0.00261853  0.          0.          0.          0.90853265 -0.19601665  0.36464444]]
detC 1.0073423294161452
detNg [1.00084251 1.0223812  1.12962823 1.44895661 2.25150488 4.01522294 6.40244145 7.39968021]
xg [0.98464593 0.96390222 0.87238923 0.68012768 0.43769637 0.24543482 0.15392183 0.13317812]
ciS 1.1178240473408925
[[-0.7987584   0.         -0.07223021 -0.0067116   0.01000843  0.          0.          0.        ]
 [ 0.         -0.7987584   0.          0.          0.         -0.01748654  0.019939    0.06825742]
 [-0.07223021  0.         -0.70495616  0.18443246 -0.08957816  0.          0.          0.        ]
 [-0.0067116   0.          0.18443246  0.33001929  0.03442138  0.          0.          0.        ]
 [ 0.01000843  0.         -0.08957816  0.03442138  0.32597167  0.          0.          0.        ]
 [ 0.         -0.01748654  0.          0.          0.          0.30015429 -0.00112563  0.25580771]
 [ 0.          0.019939    0.          0.          0.         -0.00112563  0.32758866  0.07862476]
 [ 0.          0.06825742  0.          0.          0.          0.25580771  0.07862476 -0.67670815]]
ciH -1.4706572891300835
S2 = 0.000000
X(g)
[[ 2.         -0.          0.00032527 -0.00005542  0.00003531  0.00639266  0.00232145 -0.02821605]
 [-0.          2.         -0.02844931  0.00484739 -0.00308873  0.00007309  0.00002654 -0.0003226 ]
 [ 0.00032527  0.02844931  0.          0.          0.          0.          0.          0.        ]
 [-0.00005542 -0.00484739  0.          0.          0.          0.          0.          0.        ]
 [ 0.00003531  0.00308873  0.          0.          0.          0.          0.          0.        ]
 [-0.00639266  0.00007309  0.          0.          0.          0.          0.          0.        ]
 [-0.00232145  0.00002654  0.          0.          0.          0.          0.          0.        ]
 [ 0.02821605 -0.0003226   0.          0.          0.          0.          0.          0.        ]]
X(g) int
[[ 2.          0.          0.29464927 -0.05020433  0.03198991  0.14189556  0.05152834 -0.62630087]
 [-0.          2.         -0.63147852  0.10759558 -0.06855927  0.06620878  0.02404324 -0.29223337]
 [ 0.29464927  0.63147852  0.          0.          0.          0.          0.          0.        ]
 [-0.05020433 -0.10759558  0.          0.          0.          0.          0.          0.        ]
 [ 0.03198991  0.06855927  0.          0.          0.          0.          0.          0.        ]
 [-0.14189556  0.06620878  0.          0.          0.          0.          0.          0.        ]
 [-0.05152834  0.02404324  0.          0.          0.          0.          0.          0.        ]
 [ 0.62630087 -0.29223337  0.          0.          0.          0.          0.          0.        ]]
Hsp + Hph =  -1.3156429159209087
Feff (mod,ortho)
[[-0.26042114  0.32807323  0.20377875  0.03953462  0.          0.          0.          0.        ]
 [ 0.32807323  0.04852667  0.07710157  0.35012624  0.          0.          0.          0.        ]
 [ 0.20377875  0.07710157  1.16129294  0.04763838  0.          0.          0.          0.        ]
 [ 0.03953462  0.35012624  0.04763838  1.07571348  0.          0.          0.          0.        ]
 [ 0.          0.          0.          0.         -0.26042114 -0.32807323  0.20377875 -0.03953462]
 [ 0.          0.          0.          0.         -0.32807323  0.04852667 -0.07710157  0.35012624]
 [ 0.          0.          0.          0.          0.20377875 -0.07710157  1.16129294 -0.04763838]
 [ 0.          0.          0.          0.         -0.03953462  0.35012624 -0.04763838  1.07571348]]
E(SUHF) =     -1.02165558
e_a, e_b
[-0.49524777  0.12788286  1.10853388  1.28394298] [-0.49524777  0.12788286  1.10853388  1.28394298]
P_a, P_b
[[ 0.67715534 -0.45496295 -0.06460664  0.08631731]
 [-0.45496295  0.3056777   0.04340751 -0.05799434]
 [-0.06460664  0.04340751  0.00616405 -0.00823544]
 [ 0.08631731 -0.05799434 -0.00823544  0.01100291]] 
 [[ 0.67715534  0.45496295 -0.06460664 -0.08631731]
 [ 0.45496295  0.3056777  -0.04340751 -0.05799434]
 [-0.06460664 -0.04340751  0.00616405  0.00823544]
 [-0.08631731 -0.05799434  0.00823544  0.01100291]]
**** Start Cycle 6 ****
dm (ortho)
[array([[ 0.67715534, -0.45496295, -0.06460664,  0.08631731],
       [-0.45496295,  0.3056777 ,  0.04340751, -0.05799434],
       [-0.06460664,  0.04340751,  0.00616405, -0.00823544],
       [ 0.08631731, -0.05799434, -0.00823544,  0.01100291]]), array([[ 0.67715534,  0.45496295, -0.06460664, -0.08631731],
       [ 0.45496295,  0.3056777 , -0.04340751, -0.05799434],
       [-0.06460664, -0.04340751,  0.00616405,  0.00823544],
       [-0.08631731, -0.05799434,  0.00823544,  0.01100291]])]
Fock (ortho)
 (array([[-0.26982456,  0.3222767 ,  0.19618907,  0.0224436 ],
       [ 0.3222767 ,  0.06081579,  0.0835031 ,  0.36012392],
       [ 0.19618907,  0.0835031 ,  1.16292592,  0.04823857],
       [ 0.0224436 ,  0.36012392,  0.04823857,  1.07153475]]), array([[-0.26982456, -0.3222767 ,  0.19618907, -0.0224436 ],
       [-0.3222767 ,  0.06081579, -0.0835031 ,  0.36012392],
       [ 0.19618907, -0.0835031 ,  1.16292592, -0.04823857],
       [-0.0224436 ,  0.36012392, -0.04823857,  1.07153475]]))
E(UHF) =    -1.293970
NO eigenvalue
[-1. -0.  0.  0.] [-1. -0.  0.  0.]
NO vec
[[ 0.82289449  0.          0.00795034 -0.06487694 -0.56442221  0.          0.          0.        ]
 [-0.55288127  0.         -0.05718669  0.1272413  -0.82149962  0.          0.          0.        ]
 [-0.07851145  0.          0.9390016  -0.32876461 -0.06344899  0.          0.          0.        ]
 [ 0.10489474  0.          0.33903166  0.93354939  0.05040003  0.          0.          0.        ]
 [ 0.          0.82289449  0.          0.          0.         -0.56358719  0.06946069 -0.01973181]
 [ 0.          0.55288127  0.          0.          0.          0.82236107  0.1309769   0.02982648]
 [ 0.         -0.07851145  0.          0.          0.         -0.01318925  0.59615536 -0.79891225]
 [ 0.         -0.10489474  0.          0.          0.         -0.07692716  0.78906214  0.60038342]]
dm(NO)
[[ 1.  0.  0. -0. -0.  0.  0.  0.]
 [ 0.  1.  0.  0.  0.  0. -0. -0.]
 [ 0.  0.  0. -0.  0.  0.  0.  0.]
 [-0.  0. -0.  0. -0.  0.  0.  0.]
 [-0.  0.  0. -0.  0.  0.  0.  0.]
 [ 0.  0.  0.  0.  0. -0. -0.  0.]
 [ 0. -0.  0.  0.  0. -0.  0. -0.]
 [ 0.  0.  0.  0.  0.  0. -0. -0.]]
D(g) (NO)
[[ 0.99951369  0.01143298  0.         -0.          0.         -0.02885928  0.00064573  0.0028992 ]
 [-0.01143298  0.99951369  0.00418978  0.00171976  0.02865603  0.         -0.          0.        ]
 [-0.         -0.00418978  0.99951369  0.         -0.         -0.00280569  0.02558178 -0.01710379]
 [-0.         -0.00171976  0.          0.99951369  0.          0.00229892  0.01723786  0.02582647]
 [ 0.         -0.02865603 -0.          0.          0.99951369 -0.01124181 -0.00451718  0.00210749]
 [ 0.02885928  0.          0.00280569 -0.00229892  0.01124181  0.99951369 -0.          0.        ]
 [-0.00064573 -0.         -0.02558178 -0.01723786  0.00451718 -0.          0.99951369 -0.        ]
 [-0.0028992   0.          0.01710379 -0.02582647 -0.00210749  0.         -0.          0.99951369]]
...
N(g) (NO)
[[ 1.00035566 -0.01144261]
 [ 0.01144261  1.00035566]]
...
P(g) (NO)
[[ 1.          0.          0.         -0.         -0.          0.         -0.         -0.        ]
 [-0.          1.         -0.          0.          0.          0.         -0.         -0.        ]
 [-0.00004794 -0.00419127 -0.          0.          0.         -0.          0.          0.        ]
 [-0.00001968 -0.00172037 -0.          0.          0.         -0.          0.          0.        ]
 [-0.0003279  -0.02866623 -0.          0.          0.         -0.          0.          0.        ]
 [ 0.02886954 -0.00033023  0.         -0.         -0.         -0.          0.          0.        ]
 [-0.00064596  0.00000739 -0.          0.          0.          0.         -0.         -0.        ]
 [-0.00290023  0.00003317 -0.          0.          0.          0.         -0.         -0.        ]]
...
Pg_ortho
[[ 0.67730838 -0.45506577 -0.06462124  0.08633681  0.01337874  0.00898882 -0.00127645 -0.00170539]
 [-0.45474109  0.30552864  0.04338634 -0.05796606  0.01939569  0.01303145 -0.00185052 -0.00247238]
 [-0.06462124  0.04341732  0.00616544 -0.0082373  -0.00127645 -0.00085761  0.00012178  0.00016271]
 [ 0.08627522 -0.05796606 -0.00823142  0.01099754 -0.00367982 -0.00247238  0.00035109  0.00046907]
 [-0.01337874  0.00898882  0.00127645 -0.00170539  0.67730838  0.45506577 -0.06462124 -0.08633681]
 [ 0.01939569 -0.01303145 -0.00185052  0.00247238  0.45474109  0.30552864 -0.04338634 -0.05796606]
 [ 0.00127645 -0.00085761 -0.00012178  0.00016271 -0.06462124 -0.04341732  0.00616544  0.0082373 ]
 [-0.00367982  0.00247238  0.00035109 -0.00046907 -0.08627522 -0.05796606  0.00823142  0.01099754]]
G(g) (NO)
[[ 0.30358187 -0.00174384  0.00000549 -0.01954431 -0.05965315 -0.00063116 -0.00060561  0.00014756]
 [ 0.00174384  0.30358187  0.00035787 -0.00052821  0.00061629 -0.05971432  0.01919184  0.00252011]
 [ 0.00001709 -0.00224103  0.84900258  0.01046427 -0.16752592 -0.00097786 -0.00324755  0.00074539]
 [-0.0195499  -0.00082527  0.01046454  0.74892931 -0.09229124  0.00003557 -0.00134001  0.00022991]
 [-0.05956112  0.01894781 -0.16753114 -0.09229738  0.97165609  0.00218684  0.005559   -0.00172777]
 [-0.01878449 -0.05962183 -0.00332918  0.00458691 -0.0019816   0.95096026  0.03686128  0.19322022]
 [ 0.00006024  0.01919981 -0.00003653  0.00024898  0.00034832  0.03685698  0.75128475 -0.01977972]
 [-0.00344414  0.00251589 -0.00203559  0.00335911 -0.00095722  0.1932134  -0.01977969  0.86734297]]
...
C(NO)
[[-1.00365735  0.         -0.07276372 -0.01223426  0.04367569  0.          0.          0.        ]
 [ 0.         -1.00365735  0.          0.          0.         -0.07276372 -0.01223426  0.04367569]
 [-0.00799661  0.          0.28153612 -0.55368453 -0.77249758  0.          0.          0.        ]
 [-0.01251431  0.          0.1463075   0.82245935 -0.52129162  0.          0.          0.        ]
 [-0.00407933  0.          0.92554826 -0.00901556  0.35039456  0.          0.          0.        ]
 [ 0.         -0.00462357  0.          0.          0.          0.94106923 -0.03349912  0.30217011]
 [ 0.          0.00957212  0.          0.          0.         -0.06351435 -0.95065533  0.26198772]
 [ 0.          0.01114414  0.          0.          0.         -0.26012051  0.27967742  0.91177271]]
detC 1.0073280841429573
detNg [1.00084239 1.0223779  1.12960711 1.44886282 2.25109866 4.01347804 6.39745802 7.39285838]
xg [0.9846739  0.96393259 0.87243021 0.68019095 0.43778773 0.24554847 0.15404609 0.13330478]
ciS 1.1179786777981857
[[-0.79876582  0.         -0.01547283  0.00300345  0.07155898  0.          0.          0.        ]
 [ 0.         -0.79876582  0.          0.          0.          0.07059738 -0.00816989  0.01784317]
 [-0.01547283  0.          0.31025943  0.00285701 -0.14363915  0.          0.          0.        ]
 [ 0.00300345  0.          0.00285701  0.3597659  -0.08557782  0.          0.          0.        ]
 [ 0.07155898  0.         -0.14363915 -0.08557782 -0.71898312  0.          0.          0.        ]
 [ 0.          0.07059738  0.          0.          0.         -0.73316592  0.04743304  0.1039122 ]
 [ 0.         -0.00816989  0.          0.          0.          0.04743304  0.35286456  0.01771309]
 [ 0.          0.01784317  0.          0.          0.          0.1039122   0.01771309  0.33134358]]
ciH -1.4708621340756067
S2 = -0.000000
X(g)
[[ 2.          0.         -0.00004794 -0.00001968 -0.0003279  -0.02886954  0.00064596  0.00290023]
 [-0.          2.          0.00419127  0.00172037  0.02866623 -0.00033023  0.00000739  0.00003317]
 [-0.00004794 -0.00419127  0.          0.          0.          0.          0.          0.        ]
 [-0.00001968 -0.00172037  0.          0.          0.          0.          0.          0.        ]
 [-0.0003279  -0.02866623  0.          0.          0.          0.          0.          0.        ]
 [ 0.02886954 -0.00033023  0.          0.          0.          0.          0.          0.        ]
 [-0.00064596  0.00000739  0.          0.          0.          0.          0.          0.        ]
 [-0.00290023  0.00003317  0.          0.          0.          0.          0.          0.        ]]
X(g) int
[[ 2.          0.         -0.04342437 -0.0178242  -0.29700116 -0.64073577  0.01433653  0.06436828]
 [ 0.          2.          0.09302187  0.03818224  0.63622338 -0.29910763  0.00669256  0.03004834]
 [-0.04342437 -0.09302187  0.          0.          0.          0.          0.          0.        ]
 [-0.0178242  -0.03818224  0.          0.          0.          0.          0.          0.        ]
 [-0.29700116 -0.63622338  0.          0.          0.          0.          0.          0.        ]
 [ 0.64073577 -0.29910763  0.          0.          0.          0.          0.          0.        ]
 [-0.01433653  0.00669256  0.          0.          0.          0.          0.          0.        ]
 [-0.06436828  0.03004834  0.          0.          0.          0.          0.          0.        ]]
Hsp + Hph =  -1.3156441739769233
Feff (mod,ortho)
[[-0.26033958  0.32820664  0.20378663  0.03991909  0.          0.          0.          0.        ]
 [ 0.32820664  0.0485658   0.07722471  0.34995082  0.          0.          0.          0.        ]
 [ 0.20378663  0.07722471  1.16138984  0.04765507  0.          0.          0.          0.        ]
 [ 0.03991909  0.34995082  0.04765507  1.07583584  0.          0.          0.          0.        ]
 [ 0.          0.          0.          0.         -0.26033958 -0.32820664  0.20378663 -0.03991909]
 [ 0.          0.          0.          0.         -0.32820664  0.0485658  -0.07722471  0.34995082]
 [ 0.          0.          0.          0.          0.20378663 -0.07722471  1.16138984 -0.04765507]
 [ 0.          0.          0.          0.         -0.03991909  0.34995082 -0.04765507  1.07583584]]
E(SUHF) =     -1.02165683
e_a, e_b
[-0.49520401  0.12798247  1.10853154  1.28414192] [-0.49520401  0.12798247  1.10853154  1.28414192]
P_a, P_b
[[ 0.67720894 -0.45498782 -0.06457403  0.08610035]
 [-0.45498782  0.30568692  0.04338454 -0.05784715]
 [-0.06457403  0.04338454  0.00615734 -0.00820994]
 [ 0.08610035 -0.05784715 -0.00820994  0.0109468 ]] 
 [[ 0.67720894  0.45498782 -0.06457403 -0.08610035]
 [ 0.45498782  0.30568692 -0.04338454 -0.05784715]
 [-0.06457403 -0.04338454  0.00615734  0.00820994]
 [-0.08610035 -0.05784715  0.00820994  0.0109468 ]]
**** Start Cycle 7 ****
dm (ortho)
[array([[ 0.67720894, -0.45498782, -0.06457403,  0.08610035],
       [-0.45498782,  0.30568692,  0.04338454, -0.05784715],
       [-0.06457403,  0.04338454,  0.00615734, -0.00820994],
       [ 0.08610035, -0.05784715, -0.00820994,  0.0109468 ]]), array([[ 0.67720894,  0.45498782, -0.06457403, -0.08610035],
       [ 0.45498782,  0.30568692, -0.04338454, -0.05784715],
       [-0.06457403, -0.04338454,  0.00615734,  0.00820994],
       [-0.08610035, -0.05784715,  0.00820994,  0.0109468 ]])]
Fock (ortho)
 (array([[-0.26978971,  0.32233271,  0.1961877 ,  0.02254818],
       [ 0.32233271,  0.06085958,  0.08357321,  0.36009893],
       [ 0.1961877 ,  0.08357321,  1.16297753,  0.04825796],
       [ 0.02254818,  0.36009893,  0.04825796,  1.07158495]]), array([[-0.26978971, -0.32233271,  0.1961877 , -0.02254818],
       [-0.32233271,  0.06085958, -0.08357321,  0.36009893],
       [ 0.1961877 , -0.08357321,  1.16297753, -0.04825796],
       [-0.02254818,  0.36009893, -0.04825796,  1.07158495]]))
E(UHF) =    -1.293950
NO eigenvalue
[-1. -0. -0.  0.] [-1. -0. -0.  0.]
NO vec
[[ 0.82292706  0.          0.56217025 -0.06133866 -0.05471046  0.          0.          0.        ]
 [-0.55288961  0.          0.82543155  0.1017046   0.05130313  0.          0.          0.        ]
 [-0.07846872  0.          0.01389739 -0.03688056 -0.99613721  0.          0.          0.        ]
 [ 0.10462695  0.         -0.0493379   0.99223665 -0.04566626  0.          0.          0.        ]
 [ 0.          0.82292706  0.          0.          0.          0.40999389  0.0457436  -0.3906451 ]
 [ 0.          0.55288961  0.          0.          0.         -0.56367147  0.16151295  0.59203135]
 [ 0.         -0.07846872  0.          0.          0.          0.66973029  0.44453435  0.58965516]
 [ 0.         -0.10462695  0.          0.          0.         -0.25620465  0.87989221 -0.38626684]]
dm(NO)
[[ 1.  0.  0.  0. -0.  0.  0.  0.]
 [ 0.  1.  0.  0.  0.  0.  0.  0.]
 [ 0.  0. -0. -0. -0.  0.  0.  0.]
 [-0.  0. -0.  0. -0.  0.  0.  0.]
 [-0.  0.  0. -0. -0.  0.  0.  0.]
 [ 0.  0.  0.  0.  0.  0. -0.  0.]
 [ 0.  0.  0.  0.  0.  0.  0. -0.]
 [ 0.  0.  0.  0.  0.  0.  0.  0.]]
D(g) (NO)
[[ 0.99951369  0.0114359   0.          0.          0.          0.01776459  0.00017223 -0.02293475]
 [-0.0114359   0.99951369 -0.02878427  0.0029676  -0.002067    0.          0.         -0.        ]
 [ 0.          0.02878427  0.99951369  0.         -0.         -0.00663697  0.0037981   0.00924035]
 [ 0.         -0.0029676   0.          0.99951369 -0.         -0.01126937  0.02713836 -0.01000485]
 [ 0.          0.002067   -0.         -0.          0.99951369 -0.02204006 -0.0148811  -0.01615268]
 [-0.01776459  0.          0.00663697  0.01126937  0.02204006  0.99951369 -0.          0.        ]
 [-0.00017223  0.         -0.0037981  -0.02713836  0.0148811  -0.          0.99951369 -0.        ]
 [ 0.02293475 -0.         -0.00924035  0.01000485  0.01615268  0.         -0.          0.99951369]]
...
N(g) (NO)
[[ 1.0003556  -0.01144553]
 [ 0.01144553  1.0003556 ]]
...
P(g) (NO)
[[ 1.         -0.          0.          0.         -0.         -0.         -0.         -0.        ]
 [ 0.          1.          0.          0.         -0.          0.          0.          0.        ]
 [ 0.00032945  0.0287945   0.          0.         -0.          0.          0.          0.        ]
 [-0.00003397 -0.00296865 -0.         -0.          0.         -0.         -0.         -0.        ]
 [ 0.00002366  0.00206774  0.          0.         -0.          0.          0.          0.        ]
 [-0.01777091  0.00020333 -0.         -0.          0.          0.          0.          0.        ]
 [-0.00017229  0.00000197 -0.         -0.          0.          0.          0.          0.        ]
 [ 0.02294291 -0.0002625   0.          0.         -0.         -0.         -0.         -0.        ]]
...
Pg_ortho
[[ 0.677362   -0.45509066 -0.06458862  0.08611981  0.01337781  0.00898798 -0.00127562 -0.00170086]
 [-0.45476588  0.30553781  0.04336337 -0.05781893  0.01939808  0.01303274 -0.00184967 -0.00246627]
 [-0.06458862  0.04339434  0.00615873 -0.0082118  -0.00127562 -0.00085703  0.00012163  0.00016218]
 [ 0.08605835 -0.05781893 -0.00820594  0.01094146 -0.00367083 -0.00246627  0.00035002  0.00046671]
 [-0.01337781  0.00898798  0.00127562 -0.00170086  0.677362    0.45509066 -0.06458862 -0.08611981]
 [ 0.01939808 -0.01303274 -0.00184967  0.00246627  0.45476588  0.30553781 -0.04336337 -0.05781893]
 [ 0.00127562 -0.00085703 -0.00012163  0.00016218 -0.06458862 -0.04339434  0.00615873  0.0082118 ]
 [-0.00367083  0.00246627  0.00035002 -0.00046671 -0.08605835 -0.05781893  0.00820594  0.01094146]]
G(g) (NO)
[[ 0.30360938 -0.00174361  0.0592238  -0.01888795 -0.00870294  0.00023427 -0.00059023 -0.0006194 ]
 [ 0.00174361  0.30360938 -0.0006419  -0.00039617 -0.00046682  0.04191666  0.01732557 -0.04339094]
 [ 0.05913121 -0.01883843  0.95916465  0.135038   -0.13916009 -0.0005723  -0.00510847 -0.00323655]
 [-0.01888959 -0.0013919   0.13503057  0.76265377 -0.04322094 -0.00047779 -0.00211682 -0.00069106]
 [-0.0087111   0.00283897 -0.1391569  -0.04322106  0.84792242  0.00025356  0.0028378   0.00155203]
 [ 0.01531727  0.0418576  -0.00236119 -0.00414317 -0.00507319  1.08913782 -0.05852877 -0.04937431]
 [-0.00118397  0.0173358  -0.00006512  0.00079961  0.00078335 -0.05852517  0.75297682  0.05090283]
 [-0.0113518  -0.04331987  0.00082942  0.000729    0.00128736 -0.04938028  0.05090691  0.72762621]]
...
C(NO)
[[-1.00365346  0.         -0.07284255 -0.01242615  0.04384384  0.          0.          0.        ]
 [ 0.         -1.00365346  0.          0.          0.         -0.07284255 -0.01242615  0.04384384]
 [ 0.00424637  0.         -0.93484358  0.04944782 -0.32345489  0.          0.          0.        ]
 [-0.01460331  0.          0.22610371  0.62210594 -0.72505061  0.          0.          0.        ]
 [ 0.00370444  0.         -0.17955828  0.77046843  0.60078086  0.          0.          0.        ]
 [ 0.         -0.00337202  0.          0.          0.         -0.4674122  -0.32098806 -0.81764924]
 [ 0.          0.01149201  0.          0.          0.         -0.0769916  -0.88669965  0.42923188]
 [ 0.         -0.01007841  0.          0.          0.          0.8560927  -0.30628887 -0.37211398]]
detC 1.0073202676300832
detNg [1.00084232 1.02237608 1.12959548 1.44881115 2.25087491 4.0125173  6.39471561 7.38910511]
xg [0.98468924 0.96394926 0.87245274 0.68022576 0.43783804 0.24561107 0.15411454 0.13337456]
ciS 1.118063806779277
[[-0.79876976  0.         -0.07072926 -0.0017666   0.01916284  0.          0.          0.        ]
 [ 0.         -0.79876976  0.          0.          0.         -0.0623213  -0.00221393  0.03852424]
 [-0.07072926  0.         -0.72667227  0.12829301 -0.06023471  0.          0.          0.        ]
 [-0.0017666   0.          0.12829301  0.35619407  0.00564203  0.          0.          0.        ]
 [ 0.01916284  0.         -0.06023471  0.00564203  0.32152436  0.          0.          0.        ]
 [ 0.         -0.0623213   0.          0.          0.         -0.07806803 -0.03107842  0.52400538]
 [ 0.         -0.00221393  0.          0.          0.         -0.03107842  0.36149981  0.00977402]
 [ 0.          0.03852424  0.          0.          0.          0.52400538  0.00977402 -0.33238561]]
ciH -1.4709745311953029
S2 = 0.000000
X(g)
[[ 2.         -0.          0.00032945 -0.00003397  0.00002366  0.01777091  0.00017229 -0.02294291]
 [ 0.          2.         -0.0287945   0.00296865 -0.00206774  0.00020333  0.00000197 -0.0002625 ]
 [ 0.00032945  0.0287945   0.          0.          0.          0.          0.          0.        ]
 [-0.00003397 -0.00296865  0.          0.          0.          0.          0.          0.        ]
 [ 0.00002366  0.00206774  0.          0.          0.          0.          0.          0.        ]
 [-0.01777091  0.00020333  0.          0.          0.          0.          0.          0.        ]
 [-0.00017229  0.00000197  0.          0.          0.          0.          0.          0.        ]
 [ 0.02294291 -0.0002625   0.          0.          0.          0.          0.          0.        ]]
X(g) int
[[ 2.         -0.          0.29838844 -0.03076324  0.02142733  0.39438688  0.00382367 -0.50916819]
 [ 0.          2.         -0.63903171  0.06588287 -0.04588899  0.18415438  0.00178542 -0.23775018]
 [ 0.29838844  0.63903171  0.          0.          0.          0.          0.          0.        ]
 [-0.03076324 -0.06588287  0.          0.          0.          0.          0.          0.        ]
 [ 0.02142733  0.04588899  0.          0.          0.          0.          0.          0.        ]
 [-0.39438688  0.18415438  0.          0.          0.          0.          0.          0.        ]
 [-0.00382367  0.00178542  0.          0.          0.          0.          0.          0.        ]
 [ 0.50916819 -0.23775018  0.          0.          0.          0.          0.          0.        ]]
Hsp + Hph =  -1.3156445296558066
Feff (mod,ortho)
[[-0.2602963   0.32827705  0.20379091  0.04012367  0.          0.          0.          0.        ]
 [ 0.32827705  0.04858683  0.07728995  0.3498574   0.          0.          0.          0.        ]
 [ 0.20379091  0.07728995  1.16144124  0.04766385  0.          0.          0.          0.        ]
 [ 0.04012367  0.3498574   0.04766385  1.07590059  0.          0.          0.          0.        ]
 [ 0.          0.          0.          0.         -0.2602963  -0.32827705  0.20379091 -0.04012367]
 [ 0.          0.          0.          0.         -0.32827705  0.04858683 -0.07728995  0.3498574 ]
 [ 0.          0.          0.          0.          0.20379091 -0.07728995  1.16144124 -0.04766385]
 [ 0.          0.          0.          0.         -0.04012367  0.3498574  -0.04766385  1.07590059]]
E(SUHF) =     -1.02165719
e_a, e_b
[-0.49518037  0.12803512  1.10853027  1.28424733] [-0.49518037  0.12803512  1.10853027  1.28424733]
P_a, P_b
[[ 0.67723793 -0.4550008  -0.06455687  0.08598485]
 [-0.4550008   0.30569128  0.04337239 -0.05776873]
 [-0.06455687  0.04337239  0.0061538  -0.0081964 ]
 [ 0.08598485 -0.05776873 -0.0081964   0.01091698]] 
 [[ 0.67723793  0.4550008  -0.06455687 -0.08598485]
 [ 0.4550008   0.30569128 -0.04337239 -0.05776873]
 [-0.06455687 -0.04337239  0.0061538   0.0081964 ]
 [-0.08598485 -0.05776873  0.0081964   0.01091698]]
**** Start Cycle 8 ****
dm (ortho)
[array([[ 0.67723793, -0.4550008 , -0.06455687,  0.08598485],
       [-0.4550008 ,  0.30569128,  0.04337239, -0.05776873],
       [-0.06455687,  0.04337239,  0.0061538 , -0.0081964 ],
       [ 0.08598485, -0.05776873, -0.0081964 ,  0.01091698]]), array([[ 0.67723793,  0.4550008 , -0.06455687, -0.08598485],
       [ 0.4550008 ,  0.30569128, -0.04337239, -0.05776873],
       [-0.06455687, -0.04337239,  0.0061538 ,  0.0081964 ],
       [-0.08598485, -0.05776873,  0.0081964 ,  0.01091698]])]
Fock (ortho)
 (array([[-0.26977132,  0.32236232,  0.19618702,  0.02260379],
       [ 0.32236232,  0.06088299,  0.08361042,  0.36008561],
       [ 0.19618702,  0.08361042,  1.16300494,  0.04826825],
       [ 0.02260379,  0.36008561,  0.04826825,  1.0716116 ]]), array([[-0.26977132, -0.32236232,  0.19618702, -0.02260379],
       [-0.32236232,  0.06088299, -0.08361042,  0.36008561],
       [ 0.19618702, -0.08361042,  1.16300494, -0.04826825],
       [-0.02260379,  0.36008561, -0.04826825,  1.0716116 ]]))
E(UHF) =    -1.293940
NO eigenvalue
[-1. -0. -0.  0.] [-1. -0. -0.  0.]
NO vec
[[ 0.82294467  0.         -0.38598125 -0.00056165 -0.41686956  0.          0.          0.        ]
 [-0.55289356  0.         -0.71121129  0.03160074 -0.43299954  0.          0.          0.        ]
 [-0.07844619  0.          0.42944803  0.7093094  -0.55344445  0.          0.          0.        ]
 [ 0.10448436  0.         -0.40096304  0.70418836  0.57656778  0.          0.          0.        ]
 [ 0.          0.82294467  0.          0.          0.          0.56646325 -0.03667487 -0.02316048]
 [ 0.          0.55289356  0.          0.          0.         -0.81421849 -0.06591912 -0.16435216]
 [ 0.         -0.07844619  0.          0.          0.          0.04593937 -0.99142806 -0.09384123]
 [ 0.         -0.10448436  0.          0.          0.          0.11856309  0.10667722 -0.98165461]]
dm(NO)
[[ 1.  0.  0. -0.  0.  0.  0.  0.]
 [ 0.  1.  0.  0.  0.  0.  0.  0.]
 [ 0.  0. -0. -0. -0.  0.  0.  0.]
 [ 0.  0.  0.  0.  0.  0.  0.  0.]
 [ 0.  0.  0. -0.  0.  0.  0.  0.]
 [ 0.  0.  0.  0.  0.  0.  0.  0.]
 [ 0. -0.  0.  0.  0. -0.  0.  0.]
 [ 0.  0.  0.  0.  0.  0.  0. -0.]]
D(g) (NO)
[[ 0.99951369  0.01143749  0.          0.          0.          0.02884848  0.00296817 -0.00072958]
[...]
       [-0.02263338,  0.36007852, -0.04827372,  1.07162576]]))
E(UHF) =    -1.293934
NO eigenvalue
[-1. -0. -0.  0.] [-1. -0.  0.  0.]
NO vec
[[-0.82295413  0.          0.56810782 -0.          0.          0.          0.          0.        ]
 [ 0.5528955   0.          0.80091775  0.01105706  0.2295976   0.          0.          0.        ]
 [ 0.07843426  0.          0.11361893 -0.82672212 -0.54540749  0.          0.          0.        ]
 [-0.10440845  0.         -0.15124482 -0.5625018   0.80611141  0.          0.          0.        ]
 [ 0.          0.82295413  0.          0.          0.         -0.39931397  0.01012683  0.40397067]
 [ 0.          0.5528955   0.          0.          0.          0.72325682 -0.05553754 -0.41002647]
 [ 0.         -0.07843426  0.          0.          0.          0.215853   -0.88931512  0.39544173]
 [ 0.         -0.10440845  0.          0.          0.          0.5204377   0.45379692  0.71575962]]
dm(NO)
[[ 1.  0. -0.  0. -0.  0.  0.  0.]
 [ 0.  1.  0.  0.  0. -0. -0.  0.]
 [-0.  0.  0. -0.  0.  0.  0.  0.]
 [-0.  0. -0.  0. -0.  0.  0.  0.]
 [-0.  0.  0. -0.  0.  0.  0.  0.]
 [ 0. -0.  0.  0.  0. -0. -0.  0.]
 [ 0. -0.  0.  0.  0.  0. -0. -0.]
 [ 0.  0.  0.  0.  0. -0.  0. -0.]]
D(g) (NO)
[[ 0.99951369 -0.01143834 -0.          0.         -0.          0.02155056 -0.00486999 -0.01879931]
 [ 0.01143834  0.99951369 -0.02860219 -0.00404405 -0.00266795 -0.          0.          0.        ]
 [-0.          0.02860219  0.99951369  0.         -0.          0.00929969 -0.00649875 -0.00505866]
 [ 0.          0.00404405  0.          0.99951369  0.         -0.01444408  0.01494739 -0.02289067]
 [-0.          0.00266795 -0.          0.          0.99951369  0.01458941  0.02613461  0.00833103]
 [-0.02155056 -0.         -0.00929969  0.01444408 -0.01458941  0.99951369  0.         -0.        ]
 [ 0.00486999  0.          0.00649875 -0.01494739 -0.02613461  0.          0.99951369  0.        ]
 [ 0.01879931  0.          0.00505866  0.02289067 -0.00833103 -0.          0.          0.99951369]]
...
N(g) (NO)
[[ 1.00035554  0.01144798]
 [-0.01144798  1.00035554]]
...
P(g) (NO)
[[ 1.          0.         -0.          0.         -0.         -0.         -0.          0.        ]
 [-0.          1.          0.         -0.          0.         -0.         -0.          0.        ]
 [-0.00032744  0.02861236  0.         -0.          0.         -0.         -0.          0.        ]
 [-0.0000463   0.00404549  0.         -0.          0.         -0.         -0.          0.        ]
 [-0.00003054  0.0026689   0.         -0.          0.         -0.         -0.          0.        ]
 [-0.02155822 -0.00024671  0.         -0.          0.          0.          0.         -0.        ]
 [ 0.00487172  0.00005575 -0.          0.         -0.         -0.         -0.          0.        ]
 [ 0.01880599  0.00021521 -0.          0.         -0.         -0.         -0.          0.        ]]
...
Pg_ortho
[[ 0.67740659 -0.45511049 -0.06456239  0.08594279  0.01337704  0.00898726 -0.00127494 -0.00169715]
 [-0.45478563  0.30554428  0.04334479 -0.0576988   0.01940003  0.01303376 -0.00184898 -0.00246129]
 [-0.06456239  0.04337575  0.00615332 -0.00819105 -0.00127494 -0.00085656  0.00012151  0.00016175]
 [ 0.08588144 -0.0576988  -0.0081852   0.01089581 -0.00366349 -0.00246129  0.00034916  0.00046479]
 [-0.01337704  0.00898726  0.00127494 -0.00169715  0.67740659  0.45511049 -0.06456239 -0.08594279]
 [ 0.01940003 -0.01303376 -0.00184898  0.00246129  0.45478563  0.30554428 -0.04334479 -0.0576988 ]
 [ 0.00127494 -0.00085656 -0.00012151  0.00016175 -0.06456239 -0.04337575  0.00615332  0.00819105]
 [-0.00366349  0.00246129  0.00034916 -0.00046479 -0.08588144 -0.0576988   0.0081852   0.01089581]]
G(g) (NO)
[[ 0.30363206  0.00174342 -0.06146949 -0.004078    0.01201793  0.00083241 -0.00030073  0.00005988]
 [-0.00174342  0.30363206 -0.00054786 -0.00020476 -0.00066696 -0.03432003  0.00355128  0.0524317 ]
 [-0.06137881 -0.01876678  0.95277257 -0.18773523  0.07049215 -0.00469916  0.00280382 -0.00266794]
 [-0.00406959  0.002672   -0.18772867  0.85347149 -0.00678753  0.00278058 -0.00150153  0.00208013]
 [ 0.01203674 -0.0023838   0.07048752 -0.00678847  0.76362086 -0.00060334  0.00041938 -0.00085178]
 [ 0.01515147 -0.03424396  0.00095418  0.00175985  0.00503227  0.95684736  0.13473471 -0.09713119]
 [ 0.00199906  0.00353884  0.00049462  0.00094237  0.00333411  0.13472983  0.84386062 -0.11266316]
 [-0.0114652   0.05237968 -0.00111657 -0.00118849 -0.00289838 -0.09713663 -0.11266662  0.76915694]]
...
C(NO)
[[ 1.00365022  0.          0.07290788  0.01258228 -0.0439809   0.          0.          0.        ]
 [ 0.         -1.00365022  0.          0.          0.         -0.07290788 -0.01258228  0.0439809 ]
 [ 0.0054651   0.         -0.93209542 -0.09220945 -0.29984812  0.          0.          0.        ]
 [ 0.01103943  0.         -0.29536284  0.32843641  0.88407072  0.          0.          0.        ]
 [-0.00998867  0.         -0.03529844  0.9309702  -0.34605943  0.          0.          0.        ]
 [ 0.          0.00435735  0.          0.          0.          0.6485841  -0.55504162  0.5481242 ]
 [ 0.          0.00972021  0.          0.          0.         -0.31400556  0.44673609  0.82517783]
 [ 0.          0.01174908  0.          0.          0.         -0.66183549 -0.6895174   0.09944077]]
detC -1.007313768950236
detNg [1.00084227 1.02237456 1.12958577 1.44876799 2.25068805 4.01171518 6.39242678 7.38597308]
xg [0.984702   0.96396313 0.8724715  0.6802548  0.43788004 0.24566335 0.15417171 0.13343284]
ciS 1.1181348466774672
[[-0.79877299  0.          0.07163705 -0.01552351  0.00184604  0.          0.          0.        ]
 [ 0.         -0.79877299  0.          0.          0.          0.05330104  0.01386462 -0.04840481]
 [ 0.07163705  0.         -0.7201426  -0.14228809 -0.07636125  0.          0.          0.        ]
 [-0.01552351  0.         -0.14228809  0.31937873 -0.03159657  0.          0.          0.        ]
 [ 0.00184604  0.         -0.07636125 -0.03159657  0.35181326  0.          0.          0.        ]
 [ 0.          0.05330104  0.          0.          0.         -0.22766029  0.13848756  0.53759047]
 [ 0.          0.01386462  0.          0.          0.          0.13848756  0.30596065 -0.10132301]
 [ 0.         -0.04840481  0.          0.          0.          0.53759047 -0.10132301 -0.12725097]]
ciH -1.4710681388761382
S2 = -0.000000
X(g)
[[ 2.          0.         -0.00032744 -0.0000463  -0.00003054  0.02155822 -0.00487172 -0.01880599]
 [-0.          2.         -0.02861236 -0.00404549 -0.0026689  -0.00024671  0.00005575  0.00021521]
 [-0.00032744  0.02861236  0.          0.          0.          0.          0.          0.        ]
 [-0.0000463   0.00404549  0.          0.          0.          0.          0.          0.        ]
 [-0.00003054  0.0026689   0.          0.          0.          0.          0.          0.        ]
 [-0.02155822 -0.00024671  0.          0.          0.          0.          0.          0.        ]
 [ 0.00487172  0.00005575  0.          0.          0.          0.          0.          0.        ]
 [ 0.01880599  0.00021521  0.          0.          0.          0.          0.          0.        ]]
X(g) int
[[ 2.          0.         -0.29654922 -0.04192894 -0.02766148  0.47841383 -0.10811182 -0.41733726]
 [-0.          2.         -0.63495722 -0.08977627 -0.05922746 -0.22343749  0.05049234  0.19491241]
 [-0.29654922  0.63495722  0.          0.          0.          0.          0.          0.        ]
 [-0.04192894  0.08977627  0.          0.          0.          0.          0.          0.        ]
 [-0.02766148  0.05922746  0.          0.          0.          0.          0.          0.        ]
 [-0.47841383 -0.22343749  0.          0.          0.          0.          0.          0.        ]
 [ 0.10811182  0.05049234  0.          0.          0.          0.          0.          0.        ]
 [ 0.41733726  0.19491241  0.          0.          0.          0.          0.          0.        ]]
Hsp + Hph =  -1.3156446588239428
Feff (mod,ortho)
[[-0.2602611   0.32833415  0.20379443  0.04029049  0.          0.          0.          0.        ]
 [ 0.32833415  0.04860405  0.07734297  0.34978117  0.          0.          0.          0.        ]
 [ 0.20379443  0.07734297  1.16148304  0.04767093  0.          0.          0.          0.        ]
 [ 0.04029049  0.34978117  0.04767093  1.07595317  0.          0.          0.          0.        ]
 [ 0.          0.          0.          0.         -0.2602611  -0.32833415  0.20379443 -0.04029049]
 [ 0.          0.          0.          0.         -0.32833415  0.04860405 -0.07734297  0.34978117]
 [ 0.          0.          0.          0.          0.20379443 -0.07734297  1.16148304 -0.04767093]
 [ 0.          0.          0.          0.         -0.04029049  0.34978117 -0.04767093  1.07595317]]
E(SUHF) =     -1.02165732
e_a, e_b
[-0.49516089  0.12807783  1.10852922  1.284333  ] [-0.49516089  0.12807783  1.10852922  1.284333  ]
P_a, P_b
[[ 0.67726183 -0.45501126 -0.06454299  0.08589064]
 [-0.45501126  0.30569454  0.04336253 -0.05770472]
 [-0.06454299  0.04336253  0.00615094 -0.00818537]
 [ 0.08589064 -0.05770472 -0.00818537  0.01089269]] 
 [[ 0.67726183  0.45501126 -0.06454299 -0.08589064]
 [ 0.45501126  0.30569454 -0.04336253 -0.05770472]
 [-0.06454299 -0.04336253  0.00615094  0.00818537]
 [-0.08589064 -0.05770472  0.00818537  0.01089269]]
**** Start Cycle 10 ****
dm (ortho)
[array([[ 0.67726183, -0.45501126, -0.06454299,  0.08589064],
       [-0.45501126,  0.30569454,  0.04336253, -0.05770472],
       [-0.06454299,  0.04336253,  0.00615094, -0.00818537],
       [ 0.08589064, -0.05770472, -0.00818537,  0.01089269]]), array([[ 0.67726183,  0.45501126, -0.06454299, -0.08589064],
       [ 0.45501126,  0.30569454, -0.04336253, -0.05770472],
       [-0.06454299, -0.04336253,  0.00615094,  0.00818537],
       [-0.08589064, -0.05770472,  0.00818537,  0.01089269]])]
Fock (ortho)
 (array([[-0.26975642,  0.32238635,  0.19618648,  0.02264912],
       [ 0.32238635,  0.06090214,  0.08364071,  0.36007474],
       [ 0.19618648,  0.08364071,  1.16302725,  0.04827662],
       [ 0.02264912,  0.36007474,  0.04827662,  1.0716333 ]]), array([[-0.26975642, -0.32238635,  0.19618648, -0.02264912],
       [-0.32238635,  0.06090214, -0.08364071,  0.36007474],
       [ 0.19618648, -0.08364071,  1.16302725, -0.04827662],
       [-0.02264912,  0.36007474, -0.04827662,  1.0716333 ]]))
E(UHF) =    -1.293931
NO eigenvalue
[-1. -0.  0.  0.] [-1. -0. -0.  0.]
NO vec
[[ 0.82295919  0.          0.04181343 -0.05952521  0.56342395  0.          0.          0.        ]
 [-0.5528965   0.          0.12728239  0.13474525  0.81237207  0.          0.          0.        ]
 [-0.07842794  0.          0.59552159 -0.79937754 -0.01409405  0.          0.          0.        ]
 [ 0.10436804  0.          0.79208893  0.58249121 -0.14968778  0.          0.          0.        ]
 [ 0.          0.82295919  0.          0.          0.         -0.56234675  0.05794748  0.05609263]
 [ 0.          0.5528965   0.          0.          0.          0.76063113 -0.21704968 -0.26198316]
 [ 0.         -0.07842794  0.          0.          0.         -0.21277278 -0.97366795  0.02339916]
 [ 0.         -0.10436804  0.          0.          0.         -0.24481453  0.03875878 -0.96315675]]
dm(NO)
[[ 1.  0. -0. -0. -0.  0.  0.  0.]
 [ 0.  1.  0.  0.  0.  0. -0. -0.]
 [-0.  0.  0.  0.  0.  0.  0.  0.]
 [-0.  0. -0. -0. -0.  0.  0.  0.]
 [-0.  0.  0.  0.  0.  0.  0.  0.]
 [ 0.  0.  0.  0.  0. -0.  0. -0.]
 [ 0. -0.  0.  0.  0.  0. -0.  0.]
 [ 0. -0.  0.  0.  0. -0. -0.  0.]]
D(g) (NO)
[[ 0.99951369  0.0114388   0.          0.          0.         -0.02782174  0.00773663  0.0027645 ]
 [-0.0114388   0.99951369  0.00076678 -0.00085484 -0.02898669  0.          0.          0.        ]
 [ 0.         -0.00076678  0.99951369 -0.          0.         -0.00771237 -0.01790988 -0.02432202]
 [ 0.          0.00085484 -0.          0.99951369 -0.          0.00509686  0.02395523 -0.01928292]
 [ 0.          0.02898669 -0.         -0.          0.99951369  0.01062476 -0.00423327 -0.00116566]
 [ 0.02782174  0.          0.00771237 -0.00509686 -0.01062476  0.99951369  0.          0.        ]
 [-0.00773663  0.          0.01790988 -0.02395523  0.00423327  0.          0.99951369 -0.        ]
 [-0.0027645   0.          0.02432202  0.01928292  0.00116566  0.         -0.          0.99951369]]
...
N(g) (NO)
[[ 1.00035553 -0.01144844]
 [ 0.01144844  1.00035553]]
...
P(g) (NO)
[[ 1.          0.         -0.         -0.         -0.          0.         -0.         -0.        ]
 [-0.          1.          0.          0.          0.          0.         -0.         -0.        ]
 [-0.00000878 -0.00076705  0.          0.          0.         -0.          0.          0.        ]
 [ 0.00000979  0.00085514 -0.         -0.         -0.          0.         -0.         -0.        ]
 [ 0.00033185  0.028997   -0.         -0.         -0.          0.         -0.         -0.        ]
 [ 0.02783163 -0.00031852 -0.         -0.         -0.         -0.          0.          0.        ]
 [-0.00773938  0.00008857  0.          0.          0.          0.         -0.         -0.        ]
 [-0.00276549  0.00003165  0.          0.          0.          0.         -0.         -0.        ]]
...
Pg_ortho
[[ 0.67741492 -0.45511411 -0.06455758  0.08591005  0.01337689  0.00898713 -0.00127482 -0.00169646]
 [-0.45478923  0.30554537  0.04334137 -0.05767657  0.01940039  0.01303395 -0.00184886 -0.00246037]
 [-0.06455758  0.04337233  0.00615233 -0.00818722 -0.00127482 -0.00085647  0.00012149  0.00016167]
 [ 0.08584873 -0.05767657 -0.00818138  0.01088737 -0.00366213 -0.00246037  0.000349    0.00046443]
 [-0.01337689  0.00898713  0.00127482 -0.00169646  0.67741492  0.45511411 -0.06455758 -0.08591005]
 [ 0.01940039 -0.01303395 -0.00184886  0.00246037  0.45478923  0.30554537 -0.04334137 -0.05767657]
 [ 0.00127482 -0.00085647 -0.00012149  0.00016167 -0.06455758 -0.04337233  0.00615233  0.00818722]
 [-0.00366213  0.00246037  0.000349   -0.00046443 -0.08584873 -0.05767657  0.00818138  0.01088737]]
G(g) (NO)
[[ 0.30363627 -0.00174338 -0.00342286 -0.01633094  0.0605068  -0.00044373  0.00059227  0.00048913]
 [ 0.00174338  0.30363627 -0.00007719 -0.00063566 -0.00061392 -0.06239244  0.00304924 -0.00611345]
 [-0.00342811 -0.00470132  0.87723525 -0.04517814  0.20247656  0.00009999  0.00333903  0.00279773]
 [-0.01634187  0.00062889 -0.04517817  0.77084298 -0.01267483  0.00036167 -0.00072312 -0.00052694]
 [ 0.0604146  -0.01850784  0.20248436 -0.01267267  0.92180957 -0.00058543  0.00462214  0.00331972]
 [-0.01832602 -0.06230554  0.00006817  0.00562163  0.00208173  0.94070458  0.09839556 -0.18043027]
 [ 0.00100843  0.00302268  0.00020257  0.00184254  0.00054632  0.09839283  0.79732799 -0.03716767]
 [ 0.00530828 -0.0061332  -0.00025653 -0.00353519 -0.00063749 -0.18042291 -0.03716965  0.83185523]]
...
C(NO)
[[-1.00364962  0.         -0.07292007 -0.01261111  0.04400624  0.          0.          0.        ]
 [ 0.         -1.00364962  0.          0.          0.         -0.07292007 -0.01261111  0.04400624]
 [-0.01338985  0.          0.19592747  0.00490528 -0.96864125  0.          0.          0.        ]
 [-0.00626124  0.         -0.03421409  0.99142463  0.00325388  0.          0.          0.        ]
 [ 0.00585088  0.         -0.95798074  0.01144526 -0.2301486   0.          0.          0.        ]
 [ 0.         -0.00648035  0.          0.          0.          0.90896498  0.2302367   0.27512783]
 [ 0.          0.00421614  0.          0.          0.         -0.35937153  0.77461441  0.51224203]
 [ 0.         -0.01389076  0.          0.          0.          0.04381837  0.57449232 -0.80818167]]
detC 1.0073125549463229
detNg [1.00084226 1.02237428 1.12958394 1.44875991 2.25065303 4.01156486 6.39199793 7.38538629]
xg [0.98470439 0.96396573 0.87247501 0.68026024 0.43788791 0.24567315 0.15418243 0.13344377]
ciS 1.1181481538062703
[[-0.79877359  0.         -0.02047296  0.01094214 -0.06955577  0.          0.          0.        ]
 [ 0.         -0.79877359  0.          0.          0.          0.07111185  0.00454278 -0.01730164]
 [-0.02047296  0.          0.35361251  0.02252863  0.03068877  0.          0.          0.        ]
 [ 0.01094214  0.          0.02252863  0.34157074 -0.00958386  0.          0.          0.        ]
 [-0.06955577  0.          0.03068877 -0.00958386 -0.74413326  0.          0.          0.        ]
 [ 0.          0.07111185  0.          0.          0.         -0.66947381  0.26009153  0.08910466]
 [ 0.          0.00454278  0.          0.          0.          0.26009153  0.25693612 -0.02176282]
 [ 0.         -0.01730164  0.          0.          0.          0.08910466 -0.02176282  0.36358767]]
ciH -1.4710856553575358
S2 = 0.000000
X(g)
[[ 2.          0.         -0.00000878  0.00000979  0.00033185 -0.02783163  0.00773938  0.00276549]
 [-0.          2.          0.00076705 -0.00085514 -0.028997   -0.00031852  0.00008857  0.00003165]
 [-0.00000878 -0.00076705  0.          0.          0.          0.          0.          0.        ]
 [ 0.00000979  0.00085514  0.          0.          0.          0.          0.          0.        ]
 [ 0.00033185  0.028997    0.          0.          0.          0.          0.          0.        ]
 [ 0.02783163 -0.00031852  0.          0.          0.          0.          0.          0.        ]
 [-0.00773938  0.00008857  0.          0.          0.          0.          0.          0.        ]
 [-0.00276549  0.00003165  0.          0.          0.          0.          0.          0.        ]]
X(g) int
[[ 2.          0.         -0.00795028  0.00886329  0.30054495 -0.61762566  0.1717485   0.06137032]
 [-0.          2.          0.01702209 -0.0189769  -0.64348694 -0.28846626  0.0802163   0.02866342]
 [-0.00795028 -0.01702209  0.          0.          0.          0.          0.          0.        ]
 [ 0.00886329  0.0189769   0.          0.          0.          0.          0.          0.        ]
 [ 0.30054495  0.64348694  0.          0.          0.          0.          0.          0.        ]
 [ 0.61762566 -0.28846626  0.          0.          0.          0.          0.          0.        ]
 [-0.1717485   0.0802163   0.          0.          0.          0.          0.          0.        ]
 [-0.06137032  0.02866342  0.          0.          0.          0.          0.          0.        ]]
Hsp + Hph =  -1.315644666898422
Feff (mod,ortho)
[[-0.2602546   0.32834467  0.20379509  0.04032133  0.          0.          0.          0.        ]
 [ 0.32834467  0.04860725  0.07735275  0.34976707  0.          0.          0.          0.        ]
 [ 0.20379509  0.07735275  1.16149076  0.04767223  0.          0.          0.          0.        ]
 [ 0.04032133  0.34976707  0.04767223  1.07596287  0.          0.          0.          0.        ]
 [ 0.          0.          0.          0.         -0.2602546  -0.32834467  0.20379509 -0.04032133]
 [ 0.          0.          0.          0.         -0.32834467  0.04860725 -0.07735275  0.34976707]
 [ 0.          0.          0.          0.          0.20379509 -0.07735275  1.16149076 -0.04767223]
 [ 0.          0.          0.          0.         -0.04032133  0.34976707 -0.04767223  1.07596287]]
E(SUHF) =     -1.02165733
e_a, e_b
[-0.49515726  0.1280857   1.10852903  1.28434881] [-0.49515726  0.1280857   1.10852903  1.28434881]
P_a, P_b
[[ 0.67726628 -0.45501317 -0.06454044  0.08587321]
 [-0.45501317  0.30569511  0.04336071 -0.05769288]
 [-0.06454044  0.04336071  0.00615041 -0.00818333]
 [ 0.08587321 -0.05769288 -0.00818333  0.0108882 ]] 
 [[ 0.67726628  0.45501317 -0.06454044 -0.08587321]
 [ 0.45501317  0.30569511 -0.04336071 -0.05769288]
 [-0.06454044 -0.04336071  0.00615041  0.00818333]
 [-0.08587321 -0.05769288  0.00818333  0.0108882 ]]

***************
SCF converged at cycle 9
Final E(SUHF) =     -1.02165733, delta E = -8.07448e-09
***** Start DFT Correlation for SUHF+DFT **********
tot grids = 20048
E(SUHF) =     -1.02165733
E_c(TPSS) =     -0.01037707
E(SUHF+DFT) =     -1.03203439
