

#INFO: **** input file is /share/home/srwang/ExSCF/test/pytest/scan_h2/scan_dft.py ****
#import phf
from pyscf import lib
#import scipy
import numpy as np
import sys, os, contextlib

from pyphf import util, sudft

#xyz = 'h2.xyz' #sys.argv[1]
fch = 'test_uhf.fchk' #sys.argv[2]
#bas = '../h2.bas'
bas = 'cc-pvtz'

lib.num_threads(4)

for r in np.arange(0.5, 1.4, 0.1):
    output = 'sudft_%.1f_diis.out' % r
    os.system("echo '\n' > %s" % output)
    with open(output, 'a', encoding='utf-8') as f:
        with contextlib.redirect_stdout(f):
            xyz = '''H 0.0 0.0 0.0; H 0.0 0.0 %f'''%r
            mf = util.guess_from_fchk(xyz, bas, fch)
            #mf = util.guess(xyz, bas)
            #f.flush()
            mf2 = util.SUHF(mf)
            #mf2.cut_no = False
            mf2.debug = False
            #mf2.max_cycle = 50
            mf2.diis_on = True
            #mf2.output = 'sudft_%.1f.out'%r
            #mf2.kernel()
            
            mf3 = sudft.SUDFT(mf2)
            mf3.kernel()
                    #INFO: ******************** input file end ********************


System: uname_result(system='Linux', node='xcluster', release='3.10.0-693.el7.x86_64', version='#1 SMP Thu Jul 6 19:56:57 EDT 2017', machine='x86_64', processor='x86_64')  Threads 4
Python 3.7.4 (default, Aug 13 2019, 20:35:49) 
[GCC 7.3.0]
numpy 1.17.2  scipy 1.4.1
Date: Sat Nov 21 21:25:33 2020
PySCF version 1.7.3
PySCF path  /share/apps/Python/Anaconda3-2019/lib/python3.7/site-packages/pyscf

[CONFIG] conf_file None
[INPUT] verbose = 4
[INPUT] num. atoms = 2
[INPUT] num. electrons = 2
[INPUT] charge = 0
[INPUT] spin (= nelec alpha-beta = 2S) = 0
[INPUT] symmetry False subgroup None
[INPUT] Mole.unit = angstrom
[INPUT]  1 H      0.000000000000   0.000000000000   0.000000000000 AA    0.000000000000   0.000000000000   0.000000000000 Bohr
[INPUT]  2 H      0.000000000000   0.000000000000   1.100000000000 AA    0.000000000000   0.000000000000   2.078698737022 Bohr

nuclear repulsion = 0.481070191745455
number of shells = 12
number of NR pGTOs = 32
number of NR cGTOs = 28
basis = cc-pvtz
ecp = {}
CPU time:       255.72


******** <class 'pyscf.scf.uhf.UHF'> ********
method = UHF
initial guess = minao
damping factor = 0
level_shift factor = 0
DIIS = <class 'pyscf.scf.diis.CDIIS'>
diis_start_cycle = 1
diis_space = 8
SCF conv_tol = 1e-09
SCF conv_tol_grad = None
SCF max_cycles = 1
direct_scf = True
direct_scf_tol = 1e-13
chkfile to save SCF result = /share/home/srwang/ExSCF/test/pytest/scan_h2/tmp1_by9yc7
max_memory 4000 MB (current use 135 MB)
number electrons alpha = 1  beta = 1
Set gradient conv threshold to 3.16228e-05
init E= -0.733116125865868
  alpha nocc = 1  HOMO = -0.416378738166793  LUMO = 0.0548711180168504
  beta  nocc = 1  HOMO = -0.412482586484124  LUMO = 0.055664117408244
cycle= 1 E= -1.08200636953615  delta_E= -0.349  |g|= 0.0323  |ddm|= 0.332
SCF not converged.
SCF energy = -1.08200636953615 after 1 cycles  <S^2> = 3.4909779e-07  2S+1 = 1.0000007


******** <class 'pyscf.scf.uhf.UHF'> ********
method = UHF
initial guess = minao
damping factor = 0
level_shift factor = 0
DIIS = <class 'pyscf.scf.diis.CDIIS'>
diis_start_cycle = 1
diis_space = 8
SCF conv_tol = 1e-09
SCF conv_tol_grad = None
SCF max_cycles = 1
direct_scf = True
direct_scf_tol = 1e-13
chkfile to save SCF result = /share/home/srwang/ExSCF/test/pytest/scan_h2/tmp1_by9yc7
max_memory 4000 MB (current use 135 MB)
number electrons alpha = 1  beta = 1
Set gradient conv threshold to 3.16228e-05
init E= -1.1276814597399
  alpha nocc = 1  HOMO = -0.503626357965921  LUMO = 0.151469292047619
  beta  nocc = 1  HOMO = -0.503626357965921  LUMO = 0.151469292047619
cycle= 1 E= -1.07234792790024  delta_E= 0.0553  |g|= 0.0406  |ddm|= 0.0651
SCF not converged.
SCF energy = -1.07234792790024 after 1 cycles  <S^2> = 0.2596875  2S+1 = 1.427848

******** <class 'pyphf.util.SUHF'> ********
SVD: S^(-1/2)
[[-0.14351542 -0.          0.         -0.0228467  -0.28667501 -0.          0.         -0.         -0.          0.19909    -0.12647423 -0.          0.
  -0.         -0.         -0.5920386  -0.          0.         -0.         -0.          0.79730891 -0.25588167  0.51833789  0.          0.         -0.83347222
   0.4285678  -0.66346646]
 [-0.21377744  0.         -0.         -0.09436338 -0.25074335  0.         -0.         -0.          0.          0.04987922 -0.00801079 -0.         -0.
   0.          0.         -0.09292929 -0.         -0.         -0.          0.         -0.29427103 -0.03740535 -0.02895506  0.          0.          1.58304869
  -0.6326244   5.1607182 ]
 [-0.20593125 -0.         -0.         -0.1949692  -0.10790175 -0.          0.          0.         -0.         -0.01129593  0.05613724 -0.         -0.
  -0.         -0.          0.46956498  0.          0.          0.          0.         -0.4256792  -0.15385112 -0.06033834 -0.         -0.         -0.91681641
   2.53312986 -0.0762321 ]
 [ 0.         -0.12576835  0.24563924 -0.          0.         -0.42889314  0.15827099 -0.00792414 -0.14805415  0.          0.         -0.          0.
  -0.         -0.         -0.          0.05614089  0.45274448  0.21599134  0.81202262  0.          0.         -0.         -0.02116666  0.65028197  0.
  -0.          0.        ]
 [ 0.         -0.24563924 -0.12576835  0.         -0.          0.15827099  0.42889314 -0.14805415  0.00792414 -0.         -0.          0.         -0.
   0.          0.         -0.          0.45274448 -0.05614089 -0.81202262  0.21599134  0.         -0.         -0.          0.65028197  0.02116666 -0.
  -0.         -0.        ]
 [-0.07598359 -0.          0.          0.33558382  0.15626833 -0.          0.         -0.         -0.          0.3671956   0.06204421 -0.         -0.
  -0.         -0.          0.28171006 -0.         -0.          0.          0.         -0.21669584 -0.89309486  0.86505893  0.         -0.          0.13709263
  -0.29619295  0.07259815]
 [ 0.         -0.16168193  0.31578238 -0.          0.         -0.30868827  0.11391275 -0.00913013 -0.17058671 -0.         -0.         -0.          0.
  -0.         -0.          0.         -0.00927005 -0.07475774 -0.17040007 -0.64062156 -0.          0.          0.          0.03987077 -1.22490951  0.
   0.          0.        ]
 [ 0.         -0.31578238 -0.16168193  0.         -0.          0.11391275  0.30868827 -0.17058671  0.00913013 -0.         -0.         -0.          0.
  -0.          0.          0.         -0.07475774  0.00927005  0.64062156 -0.17040007  0.          0.          0.         -1.22490951 -0.03987077  0.
   0.          0.        ]
 [-0.11966891 -0.          0.          0.27508173  0.28113311 -0.         -0.         -0.          0.          0.10619035  0.22772629 -0.         -0.
  -0.         -0.         -0.15833355  0.         -0.         -0.         -0.          0.47300897  0.24534333 -0.8913299  -0.         -0.         -0.32409133
   1.00302142  3.69863906]
 [ 0.          0.         -0.          0.          0.         -0.         -0.          0.         -0.          0.          0.          0.67354739  0.00951444
   0.10313109  0.73898748  0.         -0.         -0.          0.          0.          0.          0.          0.         -0.         -0.          0.
   0.          0.        ]
 [ 0.         -0.1528346  -0.07825197  0.         -0.         -0.07738944 -0.20971501  0.59041726 -0.03160027  0.          0.         -0.         -0.
   0.          0.         -0.          0.81587944 -0.10117008 -0.0185323   0.00492944  0.         -0.          0.         -0.47308833 -0.01539901 -0.
   0.          0.        ]
 [-0.04013299  0.          0.          0.12917732  0.03920536  0.          0.          0.          0.         -0.48137564 -0.58961424 -0.         -0.
  -0.         -0.          0.14145505 -0.          0.         -0.         -0.          0.24830067 -0.73322934 -0.3697655  -0.         -0.         -0.0407632
   0.04758271  1.1334219 ]
 [ 0.         -0.07825197  0.1528346  -0.          0.          0.20971501 -0.07738944  0.03160027  0.59041726  0.          0.          0.         -0.
   0.          0.          0.          0.10117008  0.81587944  0.00492944  0.0185323   0.          0.          0.          0.01539901 -0.47308833  0.
   0.          0.        ]
 [ 0.          0.         -0.          0.          0.         -0.          0.         -0.         -0.          0.          0.          0.00951444 -0.67354739
   0.73898748 -0.10313109  0.         -0.         -0.          0.         -0.          0.          0.          0.          0.          0.          0.
   0.          0.        ]
 [-0.14351542 -0.         -0.         -0.0228467   0.28667501  0.          0.          0.         -0.         -0.19909    -0.12647423  0.          0.
   0.          0.         -0.5920386  -0.          0.          0.          0.         -0.79730891  0.25588167  0.51833789  0.         -0.         -0.83347222
  -0.4285678   0.66346646]
 [-0.21377744  0.         -0.         -0.09436338  0.25074335 -0.         -0.          0.          0.         -0.04987922 -0.00801079  0.          0.
  -0.         -0.         -0.09292929  0.          0.         -0.         -0.          0.29427103  0.03740535 -0.02895506 -0.          0.          1.58304869
   0.6326244  -5.1607182 ]
 [-0.20593125  0.         -0.         -0.1949692   0.10790175 -0.         -0.         -0.          0.          0.01129593  0.05613724  0.          0.
   0.          0.          0.46956498 -0.         -0.         -0.         -0.          0.4256792   0.15385112 -0.06033834 -0.         -0.         -0.91681641
  -2.53312986  0.0762321 ]
 [ 0.         -0.12576835  0.24563924 -0.          0.          0.42889314 -0.15827099 -0.00792414 -0.14805415 -0.          0.          0.         -0.
   0.          0.         -0.         -0.05614089 -0.45274448  0.21599134  0.81202262  0.          0.          0.          0.02116666 -0.65028197  0.
   0.          0.        ]
 [ 0.         -0.24563924 -0.12576835  0.         -0.         -0.15827099 -0.42889314 -0.14805415  0.00792414 -0.         -0.         -0.         -0.
   0.         -0.          0.         -0.45274448  0.05614089 -0.81202262  0.21599134 -0.         -0.          0.         -0.65028197 -0.02116666 -0.
  -0.         -0.        ]
 [ 0.07598359 -0.         -0.         -0.33558382  0.15626833 -0.         -0.         -0.          0.          0.3671956  -0.06204421 -0.         -0.
  -0.         -0.         -0.28171006 -0.          0.          0.          0.         -0.21669584 -0.89309486 -0.86505893 -0.         -0.         -0.13709263
  -0.29619295  0.07259815]
 [ 0.         -0.16168193  0.31578238 -0.          0.          0.30868827 -0.11391275 -0.00913013 -0.17058671 -0.          0.          0.         -0.
   0.          0.          0.          0.00927005  0.07475774 -0.17040007 -0.64062156 -0.         -0.         -0.         -0.03987077  1.22490951 -0.
   0.         -0.        ]
 [ 0.         -0.31578238 -0.16168193  0.         -0.         -0.11391275 -0.30868827 -0.17058671  0.00913013 -0.         -0.         -0.          0.
   0.          0.          0.          0.07475774 -0.00927005  0.64062156 -0.17040007 -0.          0.         -0.          1.22490951  0.03987077 -0.
  -0.          0.        ]
 [ 0.11966891  0.         -0.         -0.27508173  0.28113311  0.         -0.          0.          0.          0.10619035 -0.22772629  0.         -0.
   0.          0.          0.15833355  0.         -0.         -0.         -0.          0.47300897  0.24534333  0.8913299   0.          0.          0.32409133
   1.00302142  3.69863906]
 [ 0.         -0.          0.         -0.         -0.         -0.         -0.          0.         -0.         -0.         -0.          0.67354739  0.00951444
  -0.10313109 -0.73898748 -0.         -0.         -0.         -0.          0.          0.          0.          0.         -0.         -0.         -0.
  -0.         -0.        ]
 [-0.          0.1528346   0.07825197 -0.          0.         -0.07738944 -0.20971501 -0.59041726  0.03160027 -0.         -0.          0.          0.
   0.          0.          0.          0.81587944 -0.10117008  0.0185323  -0.00492944  0.         -0.          0.         -0.47308833 -0.01539901  0.
   0.          0.        ]
 [-0.04013299  0.          0.          0.12917732 -0.03920536  0.         -0.          0.          0.          0.48137564 -0.58961424  0.          0.
   0.          0.          0.14145505  0.         -0.         -0.          0.         -0.24830067  0.73322934 -0.3697655  -0.          0.         -0.0407632
  -0.04758271 -1.1334219 ]
 [-0.          0.07825197 -0.1528346   0.         -0.          0.20971501 -0.07738944 -0.03160027 -0.59041726 -0.         -0.          0.         -0.
   0.         -0.          0.          0.10117008  0.81587944 -0.00492944 -0.0185323   0.          0.          0.          0.01539901 -0.47308833  0.
  -0.          0.        ]
 [ 0.          0.         -0.          0.          0.         -0.          0.         -0.         -0.          0.          0.          0.00951444 -0.67354739
  -0.73898748  0.10313109  0.          0.          0.         -0.          0.         -0.         -0.         -0.          0.         -0.         -0.
  -0.         -0.        ]]
C (ortho)
[[-0.93335375 -0.22115014  0.0493339   0.14370426  0.         -0.         -0.19547464 -0.          0.          0.0248308   0.02744822  0.02475835 -0.
   0.         -0.          0.         -0.12876718 -0.         -0.         -0.         -0.          0.         -0.         -0.00481586 -0.         -0.
  -0.0076321   0.00171369]
 [ 0.          0.         -0.          0.         -0.75581586 -0.43540941 -0.         -0.00919908 -0.06606515  0.          0.          0.         -0.32776127
  -0.23450484  0.          0.         -0.         -0.         -0.         -0.08983292 -0.23916061 -0.01797818 -0.08172289  0.          0.0015392   0.00445744
   0.          0.        ]
 [-0.         -0.         -0.          0.         -0.43540941  0.75581586  0.          0.06606515 -0.00919908 -0.         -0.         -0.          0.23450484
  -0.32776127  0.          0.          0.          0.         -0.          0.23916061 -0.08983292  0.08172289 -0.01797818 -0.         -0.00445744  0.0015392
  -0.         -0.        ]
 [-0.23649016 -0.07928725 -0.38155989 -0.06826588  0.         -0.          0.6899694   0.         -0.         -0.02244323 -0.13029765 -0.04619999 -0.
   0.          0.         -0.          0.5398373   0.          0.         -0.          0.         -0.          0.          0.01447829  0.         -0.
  -0.01447987 -0.00455686]
 [-0.25476826  0.72988391  0.03449453 -0.59855815 -0.          0.         -0.03837246 -0.         -0.          0.04923265  0.01701174 -0.11164661  0.
  -0.          0.         -0.         -0.00570186  0.         -0.         -0.         -0.          0.         -0.         -0.13114811  0.          0.
   0.00209159  0.09493943]
 [ 0.          0.         -0.         -0.          0.02506519 -0.05879906 -0.          0.78494124 -0.01465456  0.         -0.          0.         -0.00272413
   0.0029791   0.         -0.          0.          0.          0.         -0.16335564  0.03991119  0.57744353 -0.05610372  0.          0.11844394 -0.02559317
  -0.         -0.        ]
 [-0.         -0.         -0.         -0.          0.05879906  0.02506519 -0.         -0.01465456 -0.78494124 -0.          0.         -0.          0.0029791
   0.00272413 -0.         -0.          0.          0.          0.          0.03991119  0.16335564 -0.05610372 -0.57744353 -0.         -0.02559317 -0.11844394
  -0.         -0.        ]
 [ 0.          0.          0.          0.         -0.26074821 -0.02692889 -0.          0.00471935 -0.0163271  -0.         -0.         -0.          0.4351329
   0.74260826 -0.         -0.          0.         -0.         -0.          0.02531836 -0.41851564  0.02415055 -0.11721459  0.          0.00072808 -0.00832437
   0.         -0.        ]
 [ 0.          0.         -0.         -0.          0.02692889 -0.26074821  0.         -0.0163271  -0.00471935  0.         -0.         -0.          0.74260826
  -0.4351329   0.          0.         -0.         -0.          0.         -0.41851564 -0.02531836 -0.11721459 -0.02415055  0.         -0.00832437 -0.00072808
  -0.          0.        ]
 [ 0.03937018 -0.01011956 -0.04197392  0.16483568 -0.         -0.          0.031434   -0.         -0.          0.67503124 -0.00556032  0.06113151  0.
   0.          0.         -0.          0.01826803  0.         -0.         -0.          0.          0.          0.         -0.71285687  0.          0.
   0.01951351 -0.01059788]
 [-0.01802567  0.02364854  0.12236291  0.00553931 -0.          0.          0.46683953  0.         -0.         -0.01538878  0.46880223  0.14279841  0.
   0.         -0.          0.         -0.40475378 -0.         -0.         -0.         -0.          0.         -0.         -0.01952702 -0.          0.
  -0.60129409  0.00284182]
 [-0.          0.         -0.         -0.         -0.         -0.         -0.          0.          0.          0.         -0.          0.          0.
   0.          0.00444198  0.99935418  0.          0.03565691 -0.00026939 -0.         -0.          0.         -0.         -0.          0.          0.
  -0.         -0.        ]
 [ 0.          0.         -0.         -0.          0.         -0.         -0.         -0.         -0.         -0.         -0.          0.         -0.
  -0.         -0.99935418  0.00444198  0.         -0.00026939 -0.03565691 -0.         -0.          0.          0.         -0.         -0.         -0.
   0.         -0.        ]
 [ 0.          0.         -0.         -0.          0.          0.         -0.          0.          0.         -0.         -0.          0.          0.
   0.          0.03526631  0.00527018  0.         -0.15955397 -0.986545   -0.          0.          0.          0.         -0.         -0.          0.
  -0.         -0.        ]
 [-0.          0.         -0.         -0.          0.          0.         -0.          0.         -0.          0.         -0.          0.          0.
   0.         -0.00527018  0.03526631  0.         -0.986545    0.15955397  0.          0.          0.         -0.         -0.          0.         -0.
  -0.         -0.        ]
 [-0.03550577  0.08070943  0.7350339   0.13666854  0.         -0.          0.05248522  0.         -0.          0.00458335  0.32428938  0.09135369  0.
  -0.          0.         -0.          0.55449847 -0.          0.          0.         -0.         -0.          0.          0.01406278 -0.         -0.
   0.09651544 -0.00242033]
 [-0.          0.          0.          0.         -0.00660712 -0.00115329  0.         -0.02542631  0.11843231 -0.         -0.         -0.          0.00647419
   0.00946479 -0.         -0.          0.          0.          0.          0.0009344   0.09857694  0.04390987 -0.32747018  0.         -0.01613929  0.93059511
   0.         -0.        ]
 [ 0.         -0.          0.          0.          0.00115329 -0.00660712 -0.          0.11843231  0.02542631  0.          0.         -0.          0.00946479
  -0.00647419 -0.         -0.         -0.         -0.         -0.          0.09857694 -0.0009344  -0.32747018 -0.04390987 -0.          0.93059511  0.01613929
   0.          0.        ]
 [ 0.         -0.          0.         -0.          0.39653944 -0.08474016  0.         -0.02011581  0.02973225 -0.          0.         -0.         -0.06679819
  -0.30358076  0.          0.         -0.         -0.         -0.          0.30062696 -0.76628699  0.12108163 -0.21313262 -0.         -0.00087726  0.00207096
  -0.          0.        ]
 [ 0.         -0.          0.         -0.         -0.08474016 -0.39653944  0.         -0.02973225 -0.02011581 -0.          0.         -0.          0.30358076
  -0.06679819 -0.          0.         -0.          0.         -0.          0.76628699  0.30062696  0.21313262  0.12108163 -0.         -0.00207096 -0.00087726
   0.          0.        ]
 [-0.03999547  0.42381656 -0.12378347  0.33738634  0.         -0.          0.00634634 -0.         -0.          0.22847896 -0.19140078  0.68909229  0.
  -0.         -0.         -0.          0.00463855  0.          0.          0.         -0.         -0.         -0.          0.35391153 -0.         -0.
  -0.00521177  0.02450704]
 [-0.02488358  0.15434121 -0.03441326  0.08882981  0.          0.          0.00511004 -0.         -0.          0.27228918  0.09356103 -0.31448134 -0.
   0.         -0.          0.         -0.01518945 -0.          0.          0.         -0.         -0.         -0.          0.26138604 -0.         -0.
  -0.0063724  -0.84620974]
 [ 0.02465141 -0.00754209 -0.02237273  0.008233   -0.         -0.         -0.3762041  -0.         -0.          0.01648225 -0.27934106 -0.08330102  0.
  -0.          0.         -0.          0.38098186  0.         -0.          0.         -0.         -0.          0.         -0.01313083  0.          0.
  -0.79162566 -0.00215559]
 [ 0.          0.         -0.          0.         -0.04348222 -0.00073497  0.         -0.21639082  0.56225267 -0.         -0.         -0.          0.00048827
   0.00102643 -0.         -0.          0.          0.          0.         -0.03038521  0.20601955  0.19610434 -0.65907436  0.          0.05945465 -0.33972977
  -0.          0.        ]
 [ 0.          0.         -0.          0.          0.00073497 -0.04348222 -0.          0.56225267  0.21639082  0.          0.         -0.          0.00102643
  -0.00048827 -0.         -0.          0.         -0.         -0.          0.20601955  0.03038521 -0.65907436 -0.19610434 -0.         -0.33972977 -0.05945465
  -0.         -0.        ]
 [ 0.03061014 -0.05118851 -0.49796247 -0.10171285  0.          0.         -0.34733099 -0.          0.         -0.00553318  0.71031307  0.19100997  0.
   0.          0.          0.          0.27345207 -0.          0.         -0.         -0.          0.          0.          0.00661187 -0.          0.
   0.04014908 -0.00015946]
 [ 0.02898198 -0.44583651  0.16848267 -0.65543728 -0.          0.         -0.00110338 -0.          0.          0.36485025 -0.10626894  0.36488169  0.
  -0.         -0.          0.         -0.00156698 -0.          0.          0.         -0.         -0.          0.          0.22563436 -0.          0.
  -0.0033792  -0.11803398]
 [ 0.01665126 -0.00330492 -0.02046538  0.09383832  0.         -0.          0.01848112 -0.         -0.          0.52987628  0.13323877 -0.44944907 -0.
   0.         -0.          0.         -0.01250551 -0.          0.          0.         -0.         -0.          0.          0.47866518 -0.          0.
  -0.01071471  0.51012582]]
[[-0.93335375 -0.22115014  0.0493339   0.14370426  0.         -0.          0.19547464 -0.          0.         -0.0248308   0.02744822  0.02475835 -0.
  -0.          0.          0.          0.12876718 -0.          0.         -0.         -0.         -0.         -0.         -0.00481586  0.         -0.
   0.0076321   0.00171369]
 [ 0.         -0.          0.         -0.         -0.48727017 -0.72346855  0.          0.00323202 -0.06662417 -0.         -0.          0.          0.37965697
   0.13520561 -0.          0.         -0.          0.         -0.         -0.15404168 -0.20381098 -0.0757351  -0.03558147 -0.         -0.00469815  0.00040655
   0.          0.        ]
 [-0.          0.         -0.         -0.          0.72346855 -0.48727017 -0.          0.06662417  0.00323202 -0.         -0.         -0.         -0.13520561
   0.37965697  0.         -0.         -0.         -0.          0.          0.20381098 -0.15404168  0.03558147 -0.0757351  -0.          0.00040655  0.00469815
   0.          0.        ]
 [-0.23649016 -0.07928725 -0.38155989 -0.06826588 -0.          0.         -0.6899694   0.         -0.          0.02244323 -0.13029765 -0.04619999  0.
  -0.         -0.         -0.         -0.5398373  -0.          0.         -0.          0.          0.          0.          0.01447829 -0.          0.
   0.01447987 -0.00455686]
 [ 0.25476826 -0.72988391 -0.03449453  0.59855815  0.         -0.         -0.03837246  0.          0.          0.04923265 -0.01701174  0.11164661 -0.
   0.          0.         -0.         -0.00570186  0.          0.          0.         -0.         -0.         -0.          0.13114811 -0.          0.
   0.00209159 -0.09493943]
 [ 0.         -0.         -0.         -0.          0.05689939 -0.02912135 -0.         -0.77400421 -0.13139634  0.         -0.         -0.         -0.00179868
   0.00361396 -0.         -0.         -0.          0.          0.          0.14530036 -0.08465089 -0.30763086  0.49188607 -0.          0.02478699  0.11861527
  -0.         -0.        ]
 [-0.         -0.         -0.         -0.         -0.02912135 -0.05689939 -0.         -0.13139634  0.77400421 -0.         -0.          0.          0.00361396
   0.00179868 -0.          0.          0.          0.          0.         -0.08465089 -0.14530036  0.49188607  0.30763086  0.         -0.11861527  0.02478699
  -0.         -0.        ]
 [ 0.         -0.          0.         -0.         -0.04512296 -0.25822221 -0.          0.00766984 -0.01516641 -0.         -0.         -0.         -0.62276638
  -0.59411254 -0.          0.         -0.          0.         -0.         -0.09455468 -0.40847983 -0.07817737 -0.09061352 -0.          0.00730882 -0.00405047
  -0.          0.        ]
 [ 0.         -0.         -0.         -0.         -0.25822221  0.04512296 -0.         -0.01516641 -0.00766984  0.          0.         -0.         -0.59411254
   0.62276638  0.         -0.         -0.         -0.         -0.         -0.40847983  0.09455468 -0.09061352  0.07817737 -0.          0.00405047  0.00730882
  -0.         -0.        ]
 [-0.03937018  0.01011956  0.04197392 -0.16483568 -0.          0.          0.031434    0.          0.          0.67503124  0.00556032 -0.06113151 -0.
  -0.         -0.          0.          0.01826803 -0.         -0.         -0.         -0.         -0.         -0.          0.71285687 -0.          0.
   0.01951351  0.01059788]
 [-0.01802567  0.02364854  0.12236291  0.00553931 -0.         -0.         -0.46683953  0.         -0.          0.01538878  0.46880223  0.14279841  0.
  -0.         -0.          0.          0.40475378 -0.          0.         -0.         -0.          0.          0.         -0.01952702  0.          0.
   0.60129409  0.00284182]
 [ 0.         -0.          0.         -0.         -0.         -0.         -0.         -0.         -0.          0.         -0.          0.          0.
  -0.          0.99912084  0.02204678  0.          0.00046909  0.03565484 -0.          0.          0.          0.          0.          0.         -0.
   0.          0.        ]
 [-0.         -0.          0.         -0.         -0.         -0.         -0.          0.          0.          0.          0.         -0.          0.
  -0.          0.02204678 -0.99912084  0.         -0.03565484  0.00046909 -0.         -0.          0.          0.          0.         -0.          0.
  -0.          0.        ]
 [-0.         -0.          0.         -0.          0.          0.         -0.         -0.         -0.         -0.         -0.          0.         -0.
   0.         -0.00464808 -0.03535369  0.          0.98963768  0.13908906 -0.          0.         -0.         -0.          0.          0.         -0.
   0.          0.        ]
 [ 0.         -0.          0.         -0.         -0.          0.         -0.         -0.         -0.         -0.         -0.          0.         -0.
   0.         -0.03535369  0.00464808  0.         -0.13908906  0.98963768 -0.         -0.         -0.          0.          0.          0.         -0.
   0.          0.        ]
 [-0.03550577  0.08070943  0.7350339   0.13666854 -0.          0.         -0.05248522 -0.          0.         -0.00458335  0.32428938  0.09135369  0.
   0.         -0.         -0.         -0.55449847 -0.         -0.          0.          0.          0.         -0.          0.01406278 -0.          0.
  -0.09651544 -0.00242033]
 [-0.          0.          0.          0.          0.00161315  0.00651014  0.          0.04698161 -0.11164873  0.          0.          0.          0.00882977
   0.00731659 -0.         -0.         -0.          0.         -0.         -0.02888534 -0.09425456  0.23277578  0.23447864  0.          0.84360293 -0.39319438
  -0.          0.        ]
 [ 0.          0.         -0.          0.          0.00651014 -0.00161315  0.         -0.11164873 -0.04698161 -0.         -0.          0.          0.00731659
  -0.00882977 -0.          0.          0.         -0.          0.         -0.09425456  0.02888534  0.23447864 -0.23277578  0.          0.39319438  0.84360293
  -0.          0.        ]
 [ 0.          0.         -0.          0.         -0.05676248  0.40150024  0.         -0.02528827  0.02547854 -0.         -0.          0.          0.14779631
   0.27345846  0.         -0.         -0.          0.         -0.          0.07067894 -0.8201078  -0.09509709 -0.22592657 -0.         -0.00153521  0.00164365
   0.         -0.        ]
 [-0.          0.         -0.          0.         -0.40150024 -0.05676248  0.         -0.02547854 -0.02528827 -0.         -0.          0.         -0.27345846
   0.14779631  0.         -0.          0.         -0.          0.          0.8201078   0.07067894  0.22592657 -0.09509709  0.          0.00164365  0.00153521
  -0.         -0.        ]
 [ 0.03999547 -0.42381656  0.12378347 -0.33738634 -0.          0.          0.00634634  0.          0.          0.22847896  0.19140078 -0.68909229  0.
   0.         -0.          0.          0.00463855 -0.          0.          0.         -0.          0.         -0.         -0.35391153  0.         -0.
  -0.00521177 -0.02450704]
 [ 0.02488358 -0.15434121  0.03441326 -0.08882981 -0.          0.          0.00511004  0.          0.          0.27228918 -0.09356103  0.31448134 -0.
   0.         -0.         -0.         -0.01518945  0.         -0.          0.         -0.          0.          0.         -0.26138604  0.          0.
  -0.0063724   0.84620974]
 [ 0.02465141 -0.00754209 -0.02237273  0.008233    0.         -0.          0.3762041  -0.          0.         -0.01648225 -0.27934106 -0.08330102 -0.
  -0.          0.         -0.         -0.38098186 -0.          0.          0.          0.         -0.         -0.         -0.01313083  0.         -0.
   0.79162566 -0.00215559]
 [ 0.          0.         -0.          0.          0.00377823  0.043324    0.          0.3170588  -0.51227607 -0.         -0.         -0.          0.00075199
   0.00085234  0.          0.         -0.          0.          0.         -0.02936139 -0.20616795  0.40280122  0.55730342  0.         -0.28618914  0.19247583
   0.         -0.        ]
 [ 0.         -0.         -0.         -0.          0.043324   -0.00377823  0.         -0.51227607 -0.3170588   0.          0.          0.          0.00085234
  -0.00075199 -0.         -0.         -0.         -0.         -0.         -0.20616795  0.02936139  0.55730342 -0.40280122  0.         -0.19247583 -0.28618914
   0.          0.        ]
 [ 0.03061014 -0.05118851 -0.49796247 -0.10171285  0.         -0.          0.34733099  0.          0.          0.00553318  0.71031307  0.19100997 -0.
   0.          0.          0.         -0.27345207 -0.          0.          0.         -0.         -0.         -0.          0.00661187  0.          0.
  -0.04014908 -0.00015946]
 [-0.02898198  0.44583651 -0.16848267  0.65543728  0.         -0.         -0.00110338  0.         -0.          0.36485025  0.10626894 -0.36488169 -0.
   0.          0.          0.         -0.00156698 -0.          0.         -0.         -0.          0.         -0.         -0.22563436  0.         -0.
  -0.0033792   0.11803398]
 [-0.01665126  0.00330492  0.02046538 -0.09383832 -0.          0.          0.01848112  0.          0.          0.52987628 -0.13323877  0.44944907 -0.
   0.          0.          0.         -0.01250551 -0.          0.          0.         -0.          0.         -0.         -0.47866518  0.         -0.
  -0.01071471 -0.51012582]]
grids:  [0.06237655 0.31939555 0.74529195 1.28265786 1.85893479 2.39630071 2.8221971  3.07921611] 
weights:  [0.15900941 0.34931531 0.49276925 0.56970235 0.56970235 0.49276925 0.34931531 0.15900941]
S = 0.0, Sz = 0.0
Wigner small d:  1
value : [1. 1. 1. 1. 1. 1. 1. 1.]
**** Start Cycle 1 ****
dm (ortho)
[[[ 0.87114922 -0.          0.         ... -0.02857009 -0.02705044 -0.01554151]
  [-0.          0.         -0.         ...  0.          0.          0.        ]
  [ 0.         -0.          0.         ... -0.         -0.         -0.        ]
  ...
  [-0.02857009  0.         -0.         ...  0.00093698  0.00088714  0.0005097 ]
  [-0.02705044  0.         -0.         ...  0.00088714  0.00083996  0.00048259]
  [-0.01554151  0.         -0.         ...  0.0005097   0.00048259  0.00027726]]

 [[ 0.87114922 -0.          0.         ... -0.02857009  0.02705044  0.01554151]
  [-0.          0.         -0.         ...  0.         -0.         -0.        ]
  [ 0.         -0.          0.         ... -0.          0.          0.        ]
  ...
  [-0.02857009  0.         -0.         ...  0.00093698 -0.00088714 -0.0005097 ]
  [ 0.02705044 -0.          0.         ... -0.00088714  0.00083996  0.00048259]
  [ 0.01554151 -0.          0.         ... -0.0005097   0.00048259  0.00027726]]]
Fock (ortho)
 (array([[-0.35807956,  0.        , -0.        , -0.49306558, -0.15657697, -0.        , -0.        , -0.        ,  0.        ,  0.05016083,  0.13847843,
         0.        ,  0.        ,  0.        ,  0.        , -0.23025561, -0.        ,  0.        ,  0.        , -0.        ,  0.01926529, -0.0189358 ,
        -0.07128454, -0.        , -0.        ,  0.00997548,  0.00364701,  0.01038703],
       [ 0.        ,  1.29779939, -0.        , -0.        ,  0.        , -0.00369981,  0.03076499, -0.4400961 , -0.19639441, -0.        , -0.        ,
        -0.        ,  0.        , -0.        ,  0.        ,  0.        ,  0.01101911,  0.00402021,  0.78626098, -0.70815016, -0.        ,  0.        ,
        -0.        , -0.00209761, -0.00116162, -0.        ,  0.        ,  0.        ],
       [-0.        , -0.        ,  1.29779939,  0.        ,  0.        ,  0.03076499,  0.00369981, -0.19639441,  0.4400961 , -0.        , -0.        ,
        -0.        , -0.        ,  0.        ,  0.        ,  0.        ,  0.00402021, -0.01101911,  0.70815016,  0.78626098,  0.        ,  0.        ,
         0.        , -0.00116162,  0.00209761,  0.        ,  0.        ,  0.        ],
       [-0.49306558, -0.        ,  0.        ,  1.49968618, -0.0519101 , -0.        ,  0.        ,  0.        , -0.        , -0.01084962, -0.56530027,
         0.        ,  0.        ,  0.        ,  0.        ,  0.80239704,  0.        ,  0.        , -0.        , -0.        , -0.0016223 ,  0.00930058,
         0.59396127,  0.        ,  0.        ,  0.07013416,  0.00100265,  0.00036491],
       [-0.15657697,  0.        ,  0.        , -0.0519101 ,  0.37787827,  0.        , -0.        , -0.        ,  0.        ,  0.35467408, -0.02492911,
        -0.        , -0.        , -0.        , -0.        , -0.05845759, -0.        , -0.        ,  0.        ,  0.        , -0.44655295, -0.52206228,
         0.01669509, -0.        , -0.        ,  0.00311668, -0.10135002,  0.18647987],
       [-0.        , -0.00369981,  0.03076499, -0.        ,  0.        ,  2.16281774, -0.        ,  0.00537109, -0.01736028, -0.        , -0.        ,
        -0.        ,  0.        , -0.        ,  0.        , -0.        ,  0.04694316, -0.20035548,  0.00597338,  0.00848336,  0.        ,  0.        ,
        -0.        ,  0.54059891, -1.33003673,  0.        ,  0.        , -0.        ],
       [-0.        ,  0.03076499,  0.00369981,  0.        , -0.        , -0.        ,  2.16281774,  0.01736028,  0.00537109, -0.        ,  0.        ,
        -0.        ,  0.        , -0.        ,  0.        , -0.        ,  0.20035548,  0.04694316,  0.00848336, -0.00597338,  0.        , -0.        ,
        -0.        ,  1.33003673,  0.54059891, -0.        , -0.        , -0.        ],
       [-0.        , -0.4400961 , -0.19639441,  0.        , -0.        ,  0.00537109,  0.01736028,  3.12246652, -0.        ,  0.        ,  0.        ,
        -0.        , -0.        ,  0.        ,  0.        ,  0.        , -0.00774108,  0.00054199,  0.52169692, -0.16909664,  0.        ,  0.        ,
        -0.        ,  0.00194018,  0.00016729, -0.        ,  0.        ,  0.        ],
       [ 0.        , -0.19639441,  0.4400961 , -0.        ,  0.        , -0.01736028,  0.00537109, -0.        ,  3.12246652, -0.        ,  0.        ,
         0.        , -0.        ,  0.        , -0.        ,  0.        , -0.00054199, -0.00774108, -0.16909664, -0.52169692, -0.        , -0.        ,
        -0.        , -0.00016729,  0.00194018, -0.        ,  0.        , -0.        ],
       [ 0.05016083, -0.        , -0.        , -0.01084962,  0.35467408, -0.        , -0.        ,  0.        , -0.        ,  2.74871547, -0.0076714 ,
        -0.        ,  0.        , -0.        , -0.        ,  0.01830867, -0.        ,  0.        ,  0.        ,  0.        , -0.65565558, -0.47967152,
        -0.01473938, -0.        , -0.        ,  0.00357636, -0.28576141, -0.96691515],
       [ 0.13847843, -0.        , -0.        , -0.56530027, -0.02492911, -0.        ,  0.        ,  0.        ,  0.        , -0.0076714 ,  3.0979287 ,
         0.        ,  0.        ,  0.        ,  0.        , -0.55291967, -0.        ,  0.        ,  0.        , -0.        ,  0.01044528, -0.00892191,
         1.2241687 ,  0.        ,  0.        ,  0.25650353,  0.00057354,  0.00062956],
       [ 0.        , -0.        , -0.        ,  0.        , -0.        , -0.        , -0.        , -0.        ,  0.        , -0.        ,  0.        ,
         3.23556833, -0.        , -0.00229342, -0.0148936 ,  0.        ,  0.        , -0.        ,  0.        , -0.        , -0.        ,  0.        ,
         0.        , -0.        , -0.        ,  0.        ,  0.        ,  0.        ],
       [ 0.        ,  0.        , -0.        ,  0.        , -0.        ,  0.        ,  0.        , -0.        , -0.        ,  0.        ,  0.        ,
        -0.        ,  3.23556833,  0.0148936 , -0.00229342,  0.        ,  0.        , -0.        ,  0.        ,  0.        , -0.        ,  0.        ,
         0.        , -0.        ,  0.        ,  0.        ,  0.        ,  0.        ],
       [ 0.        , -0.        ,  0.        ,  0.        , -0.        , -0.        , -0.        ,  0.        ,  0.        , -0.        ,  0.        ,
        -0.00229342,  0.0148936 ,  3.72914998,  0.        ,  0.        , -0.        ,  0.        ,  0.        , -0.        , -0.        ,  0.        ,
         0.        , -0.        ,  0.        ,  0.        ,  0.        ,  0.        ],
       [ 0.        ,  0.        ,  0.        ,  0.        , -0.        ,  0.        ,  0.        ,  0.        , -0.        , -0.        ,  0.        ,
        -0.0148936 , -0.00229342,  0.        ,  3.72914998,  0.        ,  0.        , -0.        ,  0.        ,  0.        , -0.        ,  0.        ,
         0.        ,  0.        , -0.        ,  0.        ,  0.        ,  0.        ],
       [-0.23025561,  0.        ,  0.        ,  0.80239704, -0.05845759, -0.        , -0.        ,  0.        ,  0.        ,  0.01830867, -0.55291967,
         0.        ,  0.        ,  0.        ,  0.        ,  1.54466727, -0.        , -0.        , -0.        , -0.        ,  0.0314829 , -0.00247079,
         0.06694544,  0.        ,  0.        ,  1.00588179,  0.00406081, -0.00174842],
       [-0.        ,  0.01101911,  0.00402021,  0.        , -0.        ,  0.04694316,  0.20035548, -0.00774108, -0.00054199, -0.        , -0.        ,
         0.        ,  0.        , -0.        ,  0.        , -0.        ,  4.52782309,  0.        ,  0.00700078, -0.00282338,  0.        , -0.        ,
         0.        , -0.42566205, -0.06690797, -0.        , -0.        , -0.        ],
       [ 0.        ,  0.00402021, -0.01101911,  0.        , -0.        , -0.20035548,  0.04694316,  0.00054199, -0.00774108,  0.        ,  0.        ,
        -0.        , -0.        ,  0.        , -0.        , -0.        ,  0.        ,  4.52782309, -0.00282338, -0.00700078,  0.        ,  0.        ,
         0.        ,  0.06690797, -0.42566205,  0.        , -0.        ,  0.        ],
       [ 0.        ,  0.78626098,  0.70815016, -0.        ,  0.        ,  0.00597338,  0.00848336,  0.52169692, -0.16909664,  0.        ,  0.        ,
         0.        ,  0.        ,  0.        ,  0.        , -0.        ,  0.00700078, -0.00282338,  3.29926804, -0.        ,  0.        ,  0.        ,
        -0.        ,  0.00984288, -0.00227802,  0.        ,  0.        ,  0.        ],
       [-0.        , -0.70815016,  0.78626098, -0.        ,  0.        ,  0.00848336, -0.00597338, -0.16909664, -0.52169692,  0.        , -0.        ,
        -0.        ,  0.        , -0.        ,  0.        , -0.        , -0.00282338, -0.00700078, -0.        ,  3.29926804,  0.        ,  0.        ,
        -0.        , -0.00227802, -0.00984288,  0.        , -0.        , -0.        ],
       [ 0.01926529, -0.        ,  0.        , -0.0016223 , -0.44655295,  0.        ,  0.        ,  0.        , -0.        , -0.65565558,  0.01044528,
        -0.        , -0.        , -0.        , -0.        ,  0.0314829 ,  0.        ,  0.        ,  0.        ,  0.        ,  2.03868088, -0.26024138,
        -0.00554595,  0.        ,  0.        ,  0.01519919,  1.00836284,  0.06147393],
       [-0.0189358 ,  0.        ,  0.        ,  0.00930058, -0.52206228,  0.        , -0.        ,  0.        , -0.        , -0.47967152, -0.00892191,
         0.        ,  0.        ,  0.        ,  0.        , -0.00247079, -0.        ,  0.        ,  0.        ,  0.        , -0.26024138,  4.98347687,
         0.00976394, -0.        ,  0.        , -0.0029511 ,  0.61059187, -1.45986382],
       [-0.07128454, -0.        ,  0.        ,  0.59396127,  0.01669509, -0.        , -0.        , -0.        , -0.        , -0.01473938,  1.2241687 ,
         0.        ,  0.        ,  0.        ,  0.        ,  0.06694544,  0.        ,  0.        , -0.        , -0.        , -0.00554595,  0.00976394,
         3.82785553,  0.        ,  0.        , -0.22086645, -0.00079076,  0.00411066],
       [-0.        , -0.00209761, -0.00116162,  0.        , -0.        ,  0.54059891,  1.33003673,  0.00194018, -0.00016729, -0.        ,  0.        ,
        -0.        , -0.        , -0.        ,  0.        ,  0.        , -0.42566205,  0.06690797,  0.00984288, -0.00227802,  0.        , -0.        ,
         0.        ,  2.99598345,  0.        , -0.        , -0.        , -0.        ],
       [-0.        , -0.00116162,  0.00209761,  0.        , -0.        , -1.33003673,  0.54059891,  0.00016729,  0.00194018, -0.        ,  0.        ,
        -0.        ,  0.        ,  0.        , -0.        ,  0.        , -0.06690797, -0.42566205, -0.00227802, -0.00984288,  0.        ,  0.        ,
         0.        ,  0.        ,  2.99598345, -0.        , -0.        , -0.        ],
       [ 0.00997548, -0.        ,  0.        ,  0.07013416,  0.00311668,  0.        , -0.        , -0.        , -0.        ,  0.00357636,  0.25650353,
         0.        ,  0.        ,  0.        ,  0.        ,  1.00588179, -0.        ,  0.        ,  0.        ,  0.        ,  0.01519919, -0.0029511 ,
        -0.22086645, -0.        , -0.        ,  1.84379647,  0.00572205, -0.00327214],
       [ 0.00364701,  0.        ,  0.        ,  0.00100265, -0.10135002,  0.        , -0.        ,  0.        ,  0.        , -0.28576141,  0.00057354,
         0.        ,  0.        ,  0.        ,  0.        ,  0.00406081, -0.        , -0.        ,  0.        , -0.        ,  1.00836284,  0.61059187,
        -0.00079076, -0.        , -0.        ,  0.00572205,  1.13762982, -0.15203161],
       [ 0.01038703,  0.        ,  0.        ,  0.00036491,  0.18647987, -0.        , -0.        ,  0.        , -0.        , -0.96691515,  0.00062956,
         0.        ,  0.        ,  0.        ,  0.        , -0.00174842, -0.        ,  0.        ,  0.        , -0.        ,  0.06147393, -1.45986382,
         0.00411066, -0.        , -0.        , -0.00327214, -0.15203161,  3.50060843]]), array([[-0.35807956,  0.        , -0.        , -0.49306558,  0.15657697,  0.        ,  0.        , -0.        ,  0.        , -0.05016083,  0.13847843,
        -0.        , -0.        , -0.        , -0.        , -0.23025561, -0.        ,  0.        ,  0.        ,  0.        , -0.01926529,  0.0189358 ,
        -0.07128454, -0.        ,  0.        ,  0.00997548, -0.00364701, -0.01038703],
       [ 0.        ,  1.29779939, -0.        , -0.        ,  0.        ,  0.00369981, -0.03076499, -0.4400961 , -0.19639441, -0.        , -0.        ,
        -0.        ,  0.        , -0.        ,  0.        ,  0.        , -0.01101911, -0.00402021,  0.78626098, -0.70815016, -0.        ,  0.        ,
        -0.        ,  0.00209761,  0.00116162, -0.        ,  0.        ,  0.        ],
       [-0.        , -0.        ,  1.29779939,  0.        ,  0.        , -0.03076499, -0.00369981, -0.19639441,  0.4400961 , -0.        , -0.        ,
        -0.        , -0.        ,  0.        ,  0.        ,  0.        , -0.00402021,  0.01101911,  0.70815016,  0.78626098,  0.        ,  0.        ,
         0.        ,  0.00116162, -0.00209761,  0.        ,  0.        ,  0.        ],
       [-0.49306558, -0.        ,  0.        ,  1.49968618,  0.0519101 ,  0.        ,  0.        ,  0.        , -0.        ,  0.01084962, -0.56530027,
         0.        , -0.        ,  0.        ,  0.        ,  0.80239704,  0.        , -0.        , -0.        , -0.        ,  0.0016223 , -0.00930058,
         0.59396127,  0.        ,  0.        ,  0.07013416, -0.00100265, -0.00036491],
       [ 0.15657697,  0.        ,  0.        ,  0.0519101 ,  0.37787827, -0.        , -0.        , -0.        ,  0.        ,  0.35467408,  0.02492911,
        -0.        ,  0.        , -0.        , -0.        ,  0.05845759, -0.        ,  0.        ,  0.        ,  0.        , -0.44655295, -0.52206228,
        -0.01669509, -0.        , -0.        , -0.00311668, -0.10135002,  0.18647987],
       [ 0.        ,  0.00369981, -0.03076499,  0.        , -0.        ,  2.16281774,  0.        , -0.00537109,  0.01736028, -0.        , -0.        ,
         0.        ,  0.        , -0.        ,  0.        , -0.        ,  0.04694316, -0.20035548, -0.00597338, -0.00848336,  0.        ,  0.        ,
        -0.        ,  0.54059891, -1.33003673,  0.        ,  0.        , -0.        ],
       [ 0.        , -0.03076499, -0.00369981,  0.        , -0.        ,  0.        ,  2.16281774, -0.01736028, -0.00537109, -0.        ,  0.        ,
        -0.        ,  0.        , -0.        ,  0.        , -0.        ,  0.20035548,  0.04694316, -0.00848336,  0.00597338,  0.        , -0.        ,
        -0.        ,  1.33003673,  0.54059891, -0.        , -0.        , -0.        ],
       [-0.        , -0.4400961 , -0.19639441,  0.        , -0.        , -0.00537109, -0.01736028,  3.12246652, -0.        ,  0.        ,  0.        ,
        -0.        , -0.        ,  0.        ,  0.        ,  0.        ,  0.00774108, -0.00054199,  0.52169692, -0.16909664,  0.        ,  0.        ,
        -0.        , -0.00194018, -0.00016729, -0.        ,  0.        ,  0.        ],
       [ 0.        , -0.19639441,  0.4400961 , -0.        ,  0.        ,  0.01736028, -0.00537109, -0.        ,  3.12246652, -0.        ,  0.        ,
         0.        , -0.        ,  0.        , -0.        ,  0.        ,  0.00054199,  0.00774108, -0.16909664, -0.52169692, -0.        , -0.        ,
        -0.        ,  0.00016729, -0.00194018, -0.        ,  0.        , -0.        ],
       [-0.05016083, -0.        , -0.        ,  0.01084962,  0.35467408, -0.        , -0.        ,  0.        , -0.        ,  2.74871547,  0.0076714 ,
        -0.        , -0.        , -0.        , -0.        , -0.01830867, -0.        ,  0.        ,  0.        ,  0.        , -0.65565558, -0.47967152,
         0.01473938, -0.        , -0.        , -0.00357636, -0.28576141, -0.96691515],
       [ 0.13847843, -0.        , -0.        , -0.56530027,  0.02492911, -0.        ,  0.        ,  0.        ,  0.        ,  0.0076714 ,  3.0979287 ,
         0.        ,  0.        ,  0.        ,  0.        , -0.55291967, -0.        ,  0.        ,  0.        , -0.        , -0.01044528,  0.00892191,
         1.2241687 ,  0.        ,  0.        ,  0.25650353, -0.00057354, -0.00062956],
       [-0.        , -0.        , -0.        ,  0.        , -0.        ,  0.        , -0.        , -0.        ,  0.        , -0.        ,  0.        ,
         3.23556833, -0.        ,  0.00229342,  0.0148936 ,  0.        ,  0.        , -0.        ,  0.        , -0.        , -0.        ,  0.        ,
         0.        , -0.        , -0.        ,  0.        ,  0.        ,  0.        ],
       [-0.        ,  0.        , -0.        , -0.        ,  0.        ,  0.        ,  0.        , -0.        , -0.        , -0.        ,  0.        ,
        -0.        ,  3.23556833, -0.0148936 ,  0.00229342, -0.        ,  0.        , -0.        ,  0.        ,  0.        , -0.        ,  0.        ,
         0.        , -0.        ,  0.        ,  0.        ,  0.        ,  0.        ],
       [-0.        , -0.        ,  0.        ,  0.        , -0.        , -0.        , -0.        ,  0.        ,  0.        , -0.        ,  0.        ,
         0.00229342, -0.0148936 ,  3.72914998,  0.        ,  0.        , -0.        ,  0.        ,  0.        , -0.        , -0.        ,  0.        ,
         0.        , -0.        ,  0.        ,  0.        ,  0.        ,  0.        ],
       [-0.        ,  0.        ,  0.        ,  0.        , -0.        ,  0.        ,  0.        ,  0.        , -0.        , -0.        ,  0.        ,
         0.0148936 ,  0.00229342,  0.        ,  3.72914998,  0.        ,  0.        , -0.        ,  0.        ,  0.        , -0.        ,  0.        ,
         0.        ,  0.        , -0.        ,  0.        ,  0.        ,  0.        ],
       [-0.23025561,  0.        ,  0.        ,  0.80239704,  0.05845759, -0.        , -0.        ,  0.        ,  0.        , -0.01830867, -0.55291967,
         0.        , -0.        ,  0.        ,  0.        ,  1.54466727, -0.        , -0.        , -0.        ,  0.        , -0.0314829 ,  0.00247079,
         0.06694544,  0.        ,  0.        ,  1.00588179, -0.00406081,  0.00174842],
       [-0.        , -0.01101911, -0.00402021,  0.        , -0.        ,  0.04694316,  0.20035548,  0.00774108,  0.00054199, -0.        , -0.        ,
         0.        ,  0.        , -0.        ,  0.        , -0.        ,  4.52782309,  0.        , -0.00700078,  0.00282338,  0.        , -0.        ,
         0.        , -0.42566205, -0.06690797, -0.        , -0.        , -0.        ],
       [ 0.        , -0.00402021,  0.01101911, -0.        ,  0.        , -0.20035548,  0.04694316, -0.00054199,  0.00774108,  0.        ,  0.        ,
        -0.        , -0.        ,  0.        , -0.        , -0.        ,  0.        ,  4.52782309,  0.00282338,  0.00700078,  0.        ,  0.        ,
         0.        ,  0.06690797, -0.42566205,  0.        , -0.        ,  0.        ],
       [ 0.        ,  0.78626098,  0.70815016, -0.        ,  0.        , -0.00597338, -0.00848336,  0.52169692, -0.16909664,  0.        ,  0.        ,
         0.        ,  0.        ,  0.        ,  0.        , -0.        , -0.00700078,  0.00282338,  3.29926804, -0.        ,  0.        ,  0.        ,
        -0.        , -0.00984288,  0.00227802,  0.        ,  0.        ,  0.        ],
       [ 0.        , -0.70815016,  0.78626098, -0.        ,  0.        , -0.00848336,  0.00597338, -0.16909664, -0.52169692,  0.        , -0.        ,
        -0.        ,  0.        , -0.        ,  0.        ,  0.        ,  0.00282338,  0.00700078, -0.        ,  3.29926804,  0.        ,  0.        ,
        -0.        ,  0.00227802,  0.00984288,  0.        , -0.        , -0.        ],
       [-0.01926529, -0.        ,  0.        ,  0.0016223 , -0.44655295,  0.        ,  0.        ,  0.        , -0.        , -0.65565558, -0.01044528,
        -0.        , -0.        , -0.        , -0.        , -0.0314829 ,  0.        ,  0.        ,  0.        ,  0.        ,  2.03868088, -0.26024138,
         0.00554595,  0.        ,  0.        , -0.01519919,  1.00836284,  0.06147393],
       [ 0.0189358 ,  0.        ,  0.        , -0.00930058, -0.52206228,  0.        , -0.        ,  0.        , -0.        , -0.47967152,  0.00892191,
         0.        ,  0.        ,  0.        ,  0.        ,  0.00247079, -0.        ,  0.        ,  0.        ,  0.        , -0.26024138,  4.98347687,
        -0.00976394, -0.        ,  0.        ,  0.0029511 ,  0.61059187, -1.45986382],
       [-0.07128454, -0.        ,  0.        ,  0.59396127, -0.01669509, -0.        , -0.        , -0.        , -0.        ,  0.01473938,  1.2241687 ,
         0.        ,  0.        ,  0.        ,  0.        ,  0.06694544,  0.        ,  0.        , -0.        , -0.        ,  0.00554595, -0.00976394,
         3.82785553,  0.        ,  0.        , -0.22086645,  0.00079076, -0.00411066],
       [-0.        ,  0.00209761,  0.00116162,  0.        , -0.        ,  0.54059891,  1.33003673, -0.00194018,  0.00016729, -0.        ,  0.        ,
        -0.        , -0.        , -0.        ,  0.        ,  0.        , -0.42566205,  0.06690797, -0.00984288,  0.00227802,  0.        , -0.        ,
         0.        ,  2.99598345,  0.        , -0.        , -0.        , -0.        ],
       [ 0.        ,  0.00116162, -0.00209761,  0.        , -0.        , -1.33003673,  0.54059891, -0.00016729, -0.00194018, -0.        ,  0.        ,
        -0.        ,  0.        ,  0.        , -0.        ,  0.        , -0.06690797, -0.42566205,  0.00227802,  0.00984288,  0.        ,  0.        ,
         0.        ,  0.        ,  2.99598345, -0.        , -0.        , -0.        ],
       [ 0.00997548, -0.        ,  0.        ,  0.07013416, -0.00311668,  0.        , -0.        , -0.        , -0.        , -0.00357636,  0.25650353,
         0.        ,  0.        ,  0.        ,  0.        ,  1.00588179, -0.        ,  0.        ,  0.        ,  0.        , -0.01519919,  0.0029511 ,
        -0.22086645, -0.        , -0.        ,  1.84379647, -0.00572205,  0.00327214],
       [-0.00364701,  0.        ,  0.        , -0.00100265, -0.10135002,  0.        , -0.        ,  0.        ,  0.        , -0.28576141, -0.00057354,
         0.        ,  0.        ,  0.        ,  0.        , -0.00406081, -0.        , -0.        ,  0.        , -0.        ,  1.00836284,  0.61059187,
         0.00079076, -0.        , -0.        , -0.00572205,  1.13762982, -0.15203161],
       [-0.01038703,  0.        ,  0.        , -0.00036491,  0.18647987, -0.        , -0.        ,  0.        , -0.        , -0.96691515, -0.00062956,
         0.        ,  0.        ,  0.        ,  0.        ,  0.00174842, -0.        ,  0.        ,  0.        , -0.        ,  0.06147393, -1.45986382,
        -0.00411066, -0.        , -0.        ,  0.00327214, -0.15203161,  3.50060843]]))
E(UHF) =    -1.553418
NO eigenvalue
[-1. -0. -0. -0. -0. -0. -0. -0. -0. -0. -0.  0.  0.  0.  0.  0.  0.  0.  0.  0.  0.  0.  0.  0.  0.  0.  0.  0.] [-1. -0. -0. -0. -0. -0. -0. -0. -0. -0. -0. -0. -0.  0.  0.  0.  0.  0.  0.  0.  0.  0.  0.  0.  0.  0.  0.  0.]
NO vec
[[ 0.93335375  0.         -0.18204498 ...  0.          0.          0.        ]
 [-0.          0.         -0.83502566 ...  0.          0.          0.        ]
 [ 0.          0.          0.         ...  0.          0.          0.        ]
 ...
 [ 0.         -0.03061014  0.         ... -0.29705084  0.14420411  0.11198758]
 [ 0.          0.02898198  0.         ... -0.42324238 -0.14151036 -0.10613366]
 [ 0.          0.01665126  0.         ...  0.09080775 -0.01884525 -0.0437337 ]]
dm(NO)
[[ 1.  0. -0. ...  0.  0.  0.]
 [ 0.  1.  0. ... -0. -0.  0.]
 [-0.  0. -0. ...  0.  0.  0.]
 ...
 [ 0. -0.  0. ... -0. -0. -0.]
 [ 0.  0.  0. ... -0. -0.  0.]
 [ 0.  0.  0. ... -0.  0. -0.]]
D(g) (NO)
[[ 0.99951369  0.02683048  0.         ...  0.00000963 -0.01081399  0.01049072]
 [-0.02683048  0.99951369  0.00391051 ... -0.          0.          0.        ]
 [ 0.         -0.00391051  0.99951369 ... -0.00178431 -0.01978871 -0.01740543]
 ...
 [-0.00000963 -0.          0.00178431 ...  0.99951369  0.          0.        ]
 [ 0.01081399 -0.          0.01978871 ...  0.          0.99951369  0.        ]
 [-0.01049072  0.          0.01740543 ...  0.          0.          0.99951369]]
...
N(g) (NO)
[[ 0.99976614 -0.02683726]
 [ 0.02683726  0.99976614]]
...
P(g) (NO)
[[ 1.          0.         -0.         ... -0.          0.         -0.        ]
 [ 0.          1.         -0.         ... -0.         -0.          0.        ]
 [-0.00010495 -0.0039096   0.         ...  0.          0.         -0.        ]
 ...
 [-0.00000962  0.00000026  0.         ... -0.         -0.          0.        ]
 [ 0.01081146 -0.00029022 -0.         ...  0.          0.         -0.        ]
 [-0.01048827  0.00028154  0.         ... -0.         -0.          0.        ]]
...
Pg_ortho
[[ 0.87125098 -0.          0.         ... -0.00012433  0.00011772  0.00006763]
 [-0.          0.         -0.         ... -0.          0.          0.        ]
 [ 0.         -0.          0.         ... -0.          0.          0.        ]
 ...
 [ 0.00012433 -0.          0.         ...  0.00093709 -0.00088725 -0.00050976]
 [ 0.00156893 -0.          0.         ... -0.00088576  0.00083865  0.00048184]
 [ 0.00090141 -0.          0.         ... -0.0005089   0.00048184  0.00027683]]
G(g) (NO)
[[ 0.50585426 -0.00116921 -0.05694773 ...  0.00022673 -0.00128861  0.00115257]
 [ 0.00116921  0.50585426  0.00043427 ... -0.07498709  0.00568317  0.08656748]
 [-0.05690401  0.00196368  1.06029271 ... -0.00030389  0.00012681  0.0006752 ]
 ...
 [-0.00110074 -0.07498179 -0.00029628 ...  0.95371256  0.03877503 -0.03818321]
 [-0.0064211   0.00578708 -0.00063486 ...  0.03876885  1.01038179  0.05347206]
 [ 0.00560785  0.08645983 -0.0004619  ... -0.03817829  0.0534416   0.9974626 ]]
...
C(NO)
[[-1.          0.         -0.         ...  0.          0.          0.        ]
 [ 0.         -1.          0.         ... -0.         -0.          0.        ]
 [-0.          0.          0.19539044 ...  0.          0.          0.        ]
 ...
 [ 0.          0.          0.         ... -0.00000205  0.03312064  0.11013925]
 [ 0.         -0.          0.         ...  0.00010866  0.0256765   0.10822633]
 [ 0.         -0.          0.         ...  0.00022538  0.01231341  0.00046715]]
detC 1.0
detNg [1.00025258 1.00661021 1.03565006 1.10247059 1.20010731 1.2907633  1.33890443 1.35032034]
xg [0.99974748 0.9934332  0.96557712 0.90705368 0.83325882 0.77473538 0.7468793  0.74056502]
ciS 1.7403124972529886
[[-1.02962049  0.          0.06620611 ...  0.          0.          0.        ]
 [ 0.         -1.02962049  0.         ...  0.08300081  0.00681183 -0.10607167]
 [ 0.06620611  0.          0.27801502 ...  0.          0.          0.        ]
 ...
 [ 0.          0.08300081  0.         ...  0.89873067  0.0896763   0.1231219 ]
 [ 0.          0.00681183  0.         ...  0.0896763   0.00456138  0.49196072]
 [ 0.         -0.10607167  0.         ...  0.1231219   0.49196072 -0.12673837]]
ciH -2.752504595269577
S2 = 0.000000
X(g)
[[ 2.         -0.         -0.00010495 ...  0.00000962 -0.01081146  0.01048827]
 [-0.          2.          0.0039096  ...  0.00000026 -0.00029022  0.00028154]
 [-0.00010495 -0.0039096   0.         ...  0.          0.          0.        ]
 ...
 [-0.00000962  0.00000026  0.         ...  0.          0.          0.        ]
 [ 0.01081146 -0.00029022  0.         ...  0.          0.          0.        ]
 [-0.01048827  0.00028154  0.         ...  0.          0.          0.        ]]
X(g) int
[[ 2.          0.         -0.06200018 ...  0.00013933 -0.1565048   0.15182636]
 [ 0.          2.          0.05659464 ...  0.00015263 -0.17145309  0.1663278 ]
 [-0.06200018 -0.05659464  0.         ...  0.          0.          0.        ]
 ...
 [-0.00013933  0.00015263  0.         ...  0.          0.          0.        ]
 [ 0.1565048  -0.17145309  0.         ...  0.          0.          0.        ]
 [-0.15182636  0.1663278   0.         ...  0.          0.          0.        ]]
Hsp + Hph =  -1.581615140737248
Feff (mod,ortho)
[[-0.33451883  0.         -0.         ...  0.          0.          0.        ]
 [ 0.          1.29779939 -0.         ...  0.          0.          0.        ]
 [-0.         -0.          1.29779939 ...  0.          0.          0.        ]
 ...
 [ 0.          0.          0.         ...  1.8438071  -0.00571658  0.00333718]
 [ 0.          0.          0.         ... -0.00571658  1.13760994 -0.15210163]
 [ 0.          0.          0.         ...  0.00333718 -0.15210163  3.50053453]]
E(SUHF) =     -1.10054495
e_a, e_b
[-0.52490599  0.11311193  0.33201571  0.5220875   0.66124711  0.66124711  0.96510718  1.03453583  1.03453583  1.45340778  2.53705189  2.67999948  3.14906405
  3.14906405  3.23510869  3.23510869  3.32535597  3.72960962  3.72960962  3.90130271  3.90130271  3.99878242  3.99878242  4.0584222   4.6612261   4.6612261
  4.770524    6.01066669] [-0.52490599  0.11311193  0.33201571  0.5220875   0.66124711  0.66124711  0.96510718  1.03453583  1.03453583  1.45340778  2.53705189  2.67999948  3.14906405
  3.14906405  3.23510869  3.23510869  3.32535597  3.72960962  3.72960962  3.90130271  3.90130271  3.99878242  3.99878242  4.0584222   4.6612261   4.6612261
  4.770524    6.01066669]
P_a, P_b
[[ 0.85610524 -0.          0.          0.21016236  0.26613859  0.         -0.          0.          0.         -0.042758    0.01687722  0.         -0.
  -0.          0.          0.03916811 -0.         -0.          0.         -0.          0.03761201  0.02523647 -0.02228724 -0.         -0.         -0.03077602
  -0.02706357 -0.01777629]
 [-0.          0.         -0.         -0.         -0.         -0.          0.         -0.         -0.          0.         -0.         -0.          0.
   0.         -0.         -0.          0.          0.         -0.          0.         -0.         -0.          0.          0.          0.          0.
   0.          0.        ]
 [ 0.         -0.          0.          0.          0.          0.         -0.          0.          0.         -0.          0.          0.         -0.
  -0.          0.          0.         -0.         -0.          0.         -0.          0.          0.         -0.         -0.         -0.         -0.
  -0.         -0.        ]
 [ 0.21016236 -0.          0.          0.05159204  0.06533346  0.         -0.          0.          0.         -0.01049652  0.00414313  0.         -0.
  -0.          0.          0.00961525 -0.         -0.          0.         -0.          0.00923325  0.00619521 -0.00547122 -0.         -0.         -0.0075551
  -0.00664374 -0.00436384]
 [ 0.26613859 -0.          0.          0.06533346  0.08273486  0.         -0.          0.          0.         -0.01329224  0.00524664  0.         -0.
  -0.          0.          0.01217624 -0.         -0.          0.         -0.          0.0116925   0.00784529 -0.00692847 -0.         -0.         -0.00956738
  -0.00841329 -0.00552614]
 [ 0.         -0.          0.          0.          0.          0.         -0.          0.          0.         -0.          0.          0.         -0.
  -0.          0.          0.         -0.         -0.          0.         -0.          0.          0.         -0.         -0.         -0.         -0.
  -0.         -0.        ]
 [-0.          0.         -0.         -0.         -0.         -0.          0.         -0.         -0.          0.         -0.         -0.          0.
   0.         -0.         -0.          0.          0.         -0.          0.         -0.         -0.          0.          0.          0.          0.
   0.          0.        ]
 [ 0.         -0.          0.          0.          0.          0.         -0.          0.          0.         -0.          0.          0.         -0.
  -0.          0.          0.         -0.         -0.          0.         -0.          0.          0.         -0.         -0.         -0.         -0.
  -0.         -0.        ]
 [ 0.         -0.          0.          0.          0.          0.         -0.          0.          0.         -0.          0.          0.         -0.
  -0.          0.          0.         -0.         -0.          0.         -0.          0.          0.         -0.         -0.         -0.         -0.
  -0.         -0.        ]
 [-0.042758    0.         -0.         -0.01049652 -0.01329224 -0.          0.         -0.         -0.          0.00213554 -0.00084293 -0.          0.
   0.         -0.         -0.00195624  0.          0.         -0.          0.         -0.00187852 -0.00126043  0.00111313  0.          0.          0.0015371
   0.00135168  0.00088783]
 [ 0.01687722 -0.          0.          0.00414313  0.00524664  0.         -0.          0.          0.         -0.00084293  0.00033272  0.         -0.
  -0.          0.          0.00077216 -0.         -0.          0.         -0.          0.00074148  0.00049751 -0.00043937 -0.         -0.         -0.00060672
  -0.00053353 -0.00035044]
 [ 0.         -0.          0.          0.          0.          0.         -0.          0.          0.         -0.          0.          0.         -0.
  -0.          0.          0.         -0.         -0.          0.         -0.          0.          0.         -0.         -0.         -0.         -0.
  -0.         -0.        ]
 [-0.          0.         -0.         -0.         -0.         -0.          0.         -0.         -0.          0.         -0.         -0.          0.
   0.         -0.         -0.          0.          0.         -0.          0.         -0.         -0.          0.          0.          0.          0.
   0.          0.        ]
 [-0.          0.         -0.         -0.         -0.         -0.          0.         -0.         -0.          0.         -0.         -0.          0.
   0.         -0.         -0.          0.          0.         -0.          0.         -0.         -0.          0.          0.          0.          0.
   0.          0.        ]
 [ 0.         -0.          0.          0.          0.          0.         -0.          0.          0.         -0.          0.          0.         -0.
  -0.          0.          0.         -0.         -0.          0.         -0.          0.          0.         -0.         -0.         -0.         -0.
  -0.         -0.        ]
 [ 0.03916811 -0.          0.          0.00961525  0.01217624  0.         -0.          0.          0.         -0.00195624  0.00077216  0.         -0.
  -0.          0.          0.001792   -0.         -0.          0.         -0.          0.00172081  0.00115461 -0.00101968 -0.         -0.         -0.00140805
  -0.0012382  -0.00081329]
 [-0.          0.         -0.         -0.         -0.         -0.          0.         -0.         -0.          0.         -0.         -0.          0.
   0.         -0.         -0.          0.          0.         -0.          0.         -0.         -0.          0.          0.          0.          0.
   0.          0.        ]
 [-0.          0.         -0.         -0.         -0.         -0.          0.         -0.         -0.          0.         -0.         -0.          0.
   0.         -0.         -0.          0.          0.         -0.          0.         -0.         -0.          0.          0.          0.          0.
   0.          0.        ]
 [ 0.         -0.          0.          0.          0.          0.         -0.          0.          0.         -0.          0.          0.         -0.
  -0.          0.          0.         -0.         -0.          0.         -0.          0.          0.         -0.         -0.         -0.         -0.
  -0.         -0.        ]
 [-0.          0.         -0.         -0.         -0.         -0.          0.         -0.         -0.          0.         -0.         -0.          0.
   0.         -0.         -0.          0.          0.         -0.          0.         -0.         -0.          0.          0.          0.          0.
   0.          0.        ]
 [ 0.03761201 -0.          0.          0.00923325  0.0116925   0.         -0.          0.          0.         -0.00187852  0.00074148  0.         -0.
  -0.          0.          0.00172081 -0.         -0.          0.         -0.          0.00165244  0.00110874 -0.00097916 -0.         -0.         -0.00135211
  -0.00118901 -0.00078098]
 [ 0.02523647 -0.          0.          0.00619521  0.00784529  0.         -0.          0.          0.         -0.00126043  0.00049751  0.         -0.
  -0.          0.          0.00115461 -0.         -0.          0.         -0.          0.00110874  0.00074393 -0.00065699 -0.         -0.         -0.00090722
  -0.00079779 -0.00052401]
 [-0.02228724  0.         -0.         -0.00547122 -0.00692847 -0.          0.         -0.         -0.          0.00111313 -0.00043937 -0.          0.
   0.         -0.         -0.00101968  0.          0.         -0.          0.         -0.00097916 -0.00065699  0.00058021  0.          0.          0.0008012
   0.00070455  0.00046278]
 [-0.          0.         -0.         -0.         -0.         -0.          0.         -0.         -0.          0.         -0.         -0.          0.
   0.         -0.         -0.          0.          0.         -0.          0.         -0.         -0.          0.          0.          0.          0.
   0.          0.        ]
 [-0.          0.         -0.         -0.         -0.         -0.          0.         -0.         -0.          0.         -0.         -0.          0.
   0.         -0.         -0.          0.          0.         -0.          0.         -0.         -0.          0.          0.          0.          0.
   0.          0.        ]
 [-0.03077602  0.         -0.         -0.0075551  -0.00956738 -0.          0.         -0.         -0.          0.0015371  -0.00060672 -0.          0.
   0.         -0.         -0.00140805  0.          0.         -0.          0.         -0.00135211 -0.00090722  0.0008012   0.          0.          0.00110636
   0.0009729   0.00063904]
 [-0.02706357  0.         -0.         -0.00664374 -0.00841329 -0.          0.         -0.         -0.          0.00135168 -0.00053353 -0.          0.
   0.         -0.         -0.0012382   0.          0.         -0.          0.         -0.00118901 -0.00079779  0.00070455  0.          0.          0.0009729
   0.00085555  0.00056195]
 [-0.01777629  0.         -0.         -0.00436384 -0.00552614 -0.          0.         -0.         -0.          0.00088783 -0.00035044 -0.          0.
   0.         -0.         -0.00081329  0.          0.         -0.          0.         -0.00078098 -0.00052401  0.00046278  0.          0.          0.00063904
   0.00056195  0.00036911]] 
 [[ 0.85610524 -0.          0.          0.21016236 -0.26613859 -0.         -0.         -0.          0.          0.042758    0.01687722 -0.          0.
   0.         -0.          0.03916811  0.         -0.          0.          0.         -0.03761201 -0.02523647 -0.02228724 -0.         -0.         -0.03077602
   0.02706357  0.01777629]
 [-0.          0.         -0.         -0.          0.          0.          0.          0.         -0.         -0.         -0.          0.         -0.
  -0.          0.         -0.         -0.          0.         -0.         -0.          0.          0.          0.          0.          0.          0.
  -0.         -0.        ]
 [ 0.         -0.          0.          0.         -0.         -0.         -0.         -0.          0.          0.          0.         -0.          0.
   0.         -0.          0.          0.         -0.          0.          0.         -0.         -0.         -0.         -0.         -0.         -0.
   0.          0.        ]
 [ 0.21016236 -0.          0.          0.05159204 -0.06533346 -0.         -0.         -0.          0.          0.01049652  0.00414313 -0.          0.
   0.         -0.          0.00961525  0.         -0.          0.          0.         -0.00923325 -0.00619521 -0.00547122 -0.         -0.         -0.0075551
   0.00664374  0.00436384]
 [-0.26613859  0.         -0.         -0.06533346  0.08273486  0.          0.          0.         -0.         -0.01329224 -0.00524664  0.         -0.
  -0.          0.         -0.01217624 -0.          0.         -0.         -0.          0.0116925   0.00784529  0.00692847  0.          0.          0.00956738
  -0.00841329 -0.00552614]
 [-0.          0.         -0.         -0.          0.          0.          0.          0.         -0.         -0.         -0.          0.         -0.
  -0.          0.         -0.         -0.          0.         -0.         -0.          0.          0.          0.          0.          0.          0.
  -0.         -0.        ]
 [-0.          0.         -0.         -0.          0.          0.          0.          0.         -0.         -0.         -0.          0.         -0.
  -0.          0.         -0.         -0.          0.         -0.         -0.          0.          0.          0.          0.          0.          0.
  -0.         -0.        ]
 [-0.          0.         -0.         -0.          0.          0.          0.          0.         -0.         -0.         -0.          0.         -0.
  -0.          0.         -0.         -0.          0.         -0.         -0.          0.          0.          0.          0.          0.          0.
  -0.         -0.        ]
 [ 0.         -0.          0.          0.         -0.         -0.         -0.         -0.          0.          0.          0.         -0.          0.
   0.         -0.          0.          0.         -0.          0.          0.         -0.         -0.         -0.         -0.         -0.         -0.
   0.          0.        ]
 [ 0.042758   -0.          0.          0.01049652 -0.01329224 -0.         -0.         -0.          0.          0.00213554  0.00084293 -0.          0.
   0.         -0.          0.00195624  0.         -0.          0.          0.         -0.00187852 -0.00126043 -0.00111313 -0.         -0.         -0.0015371
   0.00135168  0.00088783]
 [ 0.01687722 -0.          0.          0.00414313 -0.00524664 -0.         -0.         -0.          0.          0.00084293  0.00033272 -0.          0.
   0.         -0.          0.00077216  0.         -0.          0.          0.         -0.00074148 -0.00049751 -0.00043937 -0.         -0.         -0.00060672
   0.00053353  0.00035044]
 [-0.          0.         -0.         -0.          0.          0.          0.          0.         -0.         -0.         -0.          0.         -0.
  -0.          0.         -0.         -0.          0.         -0.         -0.          0.          0.          0.          0.          0.          0.
  -0.         -0.        ]
 [ 0.         -0.          0.          0.         -0.         -0.         -0.         -0.          0.          0.          0.         -0.          0.
   0.         -0.          0.          0.         -0.          0.          0.         -0.         -0.         -0.         -0.         -0.         -0.
   0.          0.        ]
 [ 0.         -0.          0.          0.         -0.         -0.         -0.         -0.          0.          0.          0.         -0.          0.
   0.         -0.          0.          0.         -0.          0.          0.         -0.         -0.         -0.         -0.         -0.         -0.
   0.          0.        ]
 [-0.          0.         -0.         -0.          0.          0.          0.          0.         -0.         -0.         -0.          0.         -0.
  -0.          0.         -0.         -0.          0.         -0.         -0.          0.          0.          0.          0.          0.          0.
  -0.         -0.        ]
 [ 0.03916811 -0.          0.          0.00961525 -0.01217624 -0.         -0.         -0.          0.          0.00195624  0.00077216 -0.          0.
   0.         -0.          0.001792    0.         -0.          0.          0.         -0.00172081 -0.00115461 -0.00101968 -0.         -0.         -0.00140805
   0.0012382   0.00081329]
 [ 0.         -0.          0.          0.         -0.         -0.         -0.         -0.          0.          0.          0.         -0.          0.
   0.         -0.          0.          0.         -0.          0.          0.         -0.         -0.         -0.         -0.         -0.         -0.
   0.          0.        ]
 [-0.          0.         -0.         -0.          0.          0.          0.          0.         -0.         -0.         -0.          0.         -0.
  -0.          0.         -0.         -0.          0.         -0.         -0.          0.          0.          0.          0.          0.          0.
  -0.         -0.        ]
 [ 0.         -0.          0.          0.         -0.         -0.         -0.         -0.          0.          0.          0.         -0.          0.
   0.         -0.          0.          0.         -0.          0.          0.         -0.         -0.         -0.         -0.         -0.         -0.
   0.          0.        ]
 [ 0.         -0.          0.          0.         -0.         -0.         -0.         -0.          0.          0.          0.         -0.          0.
   0.         -0.          0.          0.         -0.          0.          0.         -0.         -0.         -0.         -0.         -0.         -0.
   0.          0.        ]
 [-0.03761201  0.         -0.         -0.00923325  0.0116925   0.          0.          0.         -0.         -0.00187852 -0.00074148  0.         -0.
  -0.          0.         -0.00172081 -0.          0.         -0.         -0.          0.00165244  0.00110874  0.00097916  0.          0.          0.00135211
  -0.00118901 -0.00078098]
 [-0.02523647  0.         -0.         -0.00619521  0.00784529  0.          0.          0.         -0.         -0.00126043 -0.00049751  0.         -0.
  -0.          0.         -0.00115461 -0.          0.         -0.         -0.          0.00110874  0.00074393  0.00065699  0.          0.          0.00090722
  -0.00079779 -0.00052401]
 [-0.02228724  0.         -0.         -0.00547122  0.00692847  0.          0.          0.         -0.         -0.00111313 -0.00043937  0.         -0.
  -0.          0.         -0.00101968 -0.          0.         -0.         -0.          0.00097916  0.00065699  0.00058021  0.          0.          0.0008012
  -0.00070455 -0.00046278]
 [-0.          0.         -0.         -0.          0.          0.          0.          0.         -0.         -0.         -0.          0.         -0.
  -0.          0.         -0.         -0.          0.         -0.         -0.          0.          0.          0.          0.          0.          0.
  -0.         -0.        ]
 [-0.          0.         -0.         -0.          0.          0.          0.          0.         -0.         -0.         -0.          0.         -0.
  -0.          0.         -0.         -0.          0.         -0.         -0.          0.          0.          0.          0.          0.          0.
  -0.         -0.        ]
 [-0.03077602  0.         -0.         -0.0075551   0.00956738  0.          0.          0.         -0.         -0.0015371  -0.00060672  0.         -0.
  -0.          0.         -0.00140805 -0.          0.         -0.         -0.          0.00135211  0.00090722  0.0008012   0.          0.          0.00110636
  -0.0009729  -0.00063904]
 [ 0.02706357 -0.          0.          0.00664374 -0.00841329 -0.         -0.         -0.          0.          0.00135168  0.00053353 -0.          0.
   0.         -0.          0.0012382   0.         -0.          0.          0.         -0.00118901 -0.00079779 -0.00070455 -0.         -0.         -0.0009729
   0.00085555  0.00056195]
 [ 0.01777629 -0.          0.          0.00436384 -0.00552614 -0.         -0.         -0.          0.          0.00088783  0.00035044 -0.          0.
   0.         -0.          0.00081329  0.         -0.          0.          0.         -0.00078098 -0.00052401 -0.00046278 -0.         -0.         -0.00063904
   0.00056195  0.00036911]]
**** Start Cycle 2 ****
dm (ortho)
[...]
Feff (mod,ortho)
[[-0.26601794 -0.         -0.         ...  0.          0.          0.        ]
 [-0.          1.31449304 -0.         ...  0.          0.          0.        ]
 [-0.         -0.          1.31449304 ...  0.          0.          0.        ]
 ...
 [ 0.          0.          0.         ...  1.85416587 -0.00919657  0.00561722]
 [ 0.          0.          0.         ... -0.00919657  1.14267196 -0.15316141]
 [ 0.          0.          0.         ...  0.00561722 -0.15316141  3.50990991]]
E(SUHF) =     -1.11407107
e_a, e_b
[-0.52576268  0.12841213  0.33155616  0.53842417  0.671476    0.671476    0.97607349  1.04412397  1.04412397  1.46208381  2.5418164   2.7098547   3.16412103
  3.16412103  3.24939338  3.24939338  3.34456165  3.74544027  3.74544027  3.91374056  3.91374056  4.02858488  4.02858488  4.07982566  4.67799549  4.67799549
  4.79157309  6.02968911] [-0.52576268  0.12841213  0.33155616  0.53842417  0.671476    0.671476    0.97607349  1.04412397  1.04412397  1.46208381  2.5418164   2.7098547   3.16412103
  3.16412103  3.24939338  3.24939338  3.34456165  3.74544027  3.74544027  3.91374056  3.91374056  4.02858488  4.02858488  4.07982566  4.67799549  4.67799549
  4.79157309  6.02968911]
P_a, P_b
[[ 0.78727627  0.          0.          0.19401267  0.34414852 -0.         -0.          0.         -0.         -0.07577088  0.01941117  0.          0.
   0.          0.          0.04572036  0.         -0.         -0.         -0.          0.00850559  0.02668796 -0.02298676 -0.         -0.         -0.03228888
  -0.00747802 -0.0278097 ]
 [ 0.          0.          0.          0.          0.         -0.         -0.          0.         -0.         -0.          0.          0.          0.
   0.          0.          0.          0.         -0.         -0.         -0.          0.          0.         -0.         -0.         -0.         -0.
  -0.         -0.        ]
 [ 0.          0.          0.          0.          0.         -0.         -0.          0.         -0.         -0.          0.          0.          0.
   0.          0.          0.          0.         -0.         -0.         -0.          0.          0.         -0.         -0.         -0.         -0.
  -0.         -0.        ]
 [ 0.19401267  0.          0.          0.04781157  0.08481035 -0.         -0.          0.         -0.         -0.01867262  0.0047836   0.          0.
   0.          0.          0.01126711  0.         -0.         -0.         -0.          0.00209608  0.00657686 -0.00566475 -0.         -0.         -0.00795712
  -0.00184285 -0.00685329]
 [ 0.34414852  0.          0.          0.08481035  0.15044046 -0.         -0.          0.         -0.         -0.03312235  0.00848536  0.          0.
   0.          0.          0.01998612  0.         -0.         -0.         -0.          0.00371812  0.01166633 -0.01004839 -0.         -0.         -0.0141147
  -0.00326893 -0.01215668]
 [-0.         -0.         -0.         -0.         -0.          0.          0.         -0.          0.          0.         -0.         -0.         -0.
  -0.         -0.         -0.         -0.          0.          0.          0.         -0.         -0.          0.          0.          0.          0.
   0.          0.        ]
 [-0.         -0.         -0.         -0.         -0.          0.          0.         -0.          0.          0.         -0.         -0.         -0.
  -0.         -0.         -0.         -0.          0.          0.          0.         -0.         -0.          0.          0.          0.          0.
   0.          0.        ]
 [ 0.          0.          0.          0.          0.         -0.         -0.          0.         -0.         -0.          0.          0.          0.
   0.          0.          0.          0.         -0.         -0.         -0.          0.          0.         -0.         -0.         -0.         -0.
  -0.         -0.        ]
 [-0.         -0.         -0.         -0.         -0.          0.          0.         -0.          0.          0.         -0.         -0.         -0.
  -0.         -0.         -0.         -0.          0.          0.          0.         -0.         -0.          0.          0.          0.          0.
   0.          0.        ]
 [-0.07577088 -0.         -0.         -0.01867262 -0.03312235  0.          0.         -0.          0.          0.00729252 -0.00186822 -0.         -0.
  -0.         -0.         -0.00440033 -0.          0.          0.          0.         -0.00081861 -0.00256857  0.00221235  0.          0.          0.00310762
   0.00071972  0.00267653]
 [ 0.01941117  0.          0.          0.0047836   0.00848536 -0.         -0.          0.         -0.         -0.00186822  0.0004786   0.          0.
   0.          0.          0.00112729  0.         -0.         -0.         -0.          0.00020971  0.00065802 -0.00056676 -0.         -0.         -0.00079612
  -0.00018438 -0.00068568]
 [ 0.          0.          0.          0.          0.         -0.         -0.          0.         -0.         -0.          0.          0.          0.
   0.          0.          0.          0.         -0.         -0.         -0.          0.          0.         -0.         -0.         -0.         -0.
  -0.         -0.        ]
 [ 0.          0.          0.          0.          0.         -0.         -0.          0.         -0.         -0.          0.          0.          0.
   0.          0.          0.          0.         -0.         -0.         -0.          0.          0.         -0.         -0.         -0.         -0.
  -0.         -0.        ]
 [ 0.          0.          0.          0.          0.         -0.         -0.          0.         -0.         -0.          0.          0.          0.
   0.          0.          0.          0.         -0.         -0.         -0.          0.          0.         -0.         -0.         -0.         -0.
  -0.         -0.        ]
 [ 0.          0.          0.          0.          0.         -0.         -0.          0.         -0.         -0.          0.          0.          0.
   0.          0.          0.          0.         -0.         -0.         -0.          0.          0.         -0.         -0.         -0.         -0.
  -0.         -0.        ]
 [ 0.04572036  0.          0.          0.01126711  0.01998612 -0.         -0.          0.         -0.         -0.00440033  0.00112729  0.          0.
   0.          0.          0.00265517  0.         -0.         -0.         -0.          0.00049395  0.00154988 -0.00133494 -0.         -0.         -0.00187515
  -0.00043428 -0.00161502]
 [ 0.          0.          0.          0.          0.         -0.         -0.          0.         -0.         -0.          0.          0.          0.
   0.          0.          0.          0.         -0.         -0.         -0.          0.          0.         -0.         -0.         -0.         -0.
  -0.         -0.        ]
 [-0.         -0.         -0.         -0.         -0.          0.          0.         -0.          0.          0.         -0.         -0.         -0.
  -0.         -0.         -0.         -0.          0.          0.          0.         -0.         -0.          0.          0.          0.          0.
   0.          0.        ]
 [-0.         -0.         -0.         -0.         -0.          0.          0.         -0.          0.          0.         -0.         -0.         -0.
  -0.         -0.         -0.         -0.          0.          0.          0.         -0.         -0.          0.          0.          0.          0.
   0.          0.        ]
 [-0.         -0.         -0.         -0.         -0.          0.          0.         -0.          0.          0.         -0.         -0.         -0.
  -0.         -0.         -0.         -0.          0.          0.          0.         -0.         -0.          0.          0.          0.          0.
   0.          0.        ]
 [ 0.00850559  0.          0.          0.00209608  0.00371812 -0.         -0.          0.         -0.         -0.00081861  0.00020971  0.          0.
   0.          0.          0.00049395  0.         -0.         -0.         -0.          0.00009189  0.00028833 -0.00024834 -0.         -0.         -0.00034884
  -0.00008079 -0.00030045]
 [ 0.02668796  0.          0.          0.00657686  0.01166633 -0.         -0.          0.         -0.         -0.00256857  0.00065802  0.          0.
   0.          0.          0.00154988  0.         -0.         -0.         -0.          0.00028833  0.0009047  -0.00077923 -0.         -0.         -0.00109456
  -0.0002535  -0.00094272]
 [-0.02298676 -0.         -0.         -0.00566475 -0.01004839  0.          0.         -0.          0.          0.00221235 -0.00056676 -0.         -0.
  -0.         -0.         -0.00133494 -0.          0.          0.          0.         -0.00024834 -0.00077923  0.00067116  0.          0.          0.00094277
   0.00021834  0.00081198]
 [-0.         -0.         -0.         -0.         -0.          0.          0.         -0.          0.          0.         -0.         -0.         -0.
  -0.         -0.         -0.         -0.          0.          0.          0.         -0.         -0.          0.          0.          0.          0.
   0.          0.        ]
 [-0.         -0.         -0.         -0.         -0.          0.          0.         -0.          0.          0.         -0.         -0.         -0.
  -0.         -0.         -0.         -0.          0.          0.          0.         -0.         -0.          0.          0.          0.          0.
   0.          0.        ]
 [-0.03228888 -0.         -0.         -0.00795712 -0.0141147   0.          0.         -0.          0.          0.00310762 -0.00079612 -0.         -0.
  -0.         -0.         -0.00187515 -0.          0.          0.          0.         -0.00034884 -0.00109456  0.00094277  0.          0.          0.00132428
   0.0003067   0.00114057]
 [-0.00747802 -0.         -0.         -0.00184285 -0.00326893  0.          0.         -0.          0.          0.00071972 -0.00018438 -0.         -0.
  -0.         -0.         -0.00043428 -0.          0.          0.          0.         -0.00008079 -0.0002535   0.00021834  0.          0.          0.0003067
   0.00007103  0.00026415]
 [-0.0278097  -0.         -0.         -0.00685329 -0.01215668  0.          0.         -0.          0.          0.00267653 -0.00068568 -0.         -0.
  -0.         -0.         -0.00161502 -0.          0.          0.          0.         -0.00030045 -0.00094272  0.00081198  0.          0.          0.00114057
   0.00026415  0.00098235]] 
 [[ 0.78727627  0.          0.          0.19401267 -0.34414852 -0.         -0.         -0.          0.          0.07577088  0.01941117 -0.          0.
  -0.         -0.          0.04572036  0.         -0.          0.          0.         -0.00850559 -0.02668796 -0.02298676 -0.         -0.         -0.03228888
   0.00747802  0.0278097 ]
 [ 0.          0.          0.          0.         -0.         -0.         -0.         -0.          0.          0.          0.         -0.          0.
  -0.         -0.          0.          0.         -0.          0.          0.         -0.         -0.         -0.         -0.         -0.         -0.
   0.          0.        ]
 [ 0.          0.          0.          0.         -0.         -0.         -0.         -0.          0.          0.          0.         -0.          0.
  -0.         -0.          0.          0.         -0.          0.          0.         -0.         -0.         -0.         -0.         -0.         -0.
   0.          0.        ]
 [ 0.19401267  0.          0.          0.04781157 -0.08481035 -0.         -0.         -0.          0.          0.01867262  0.0047836  -0.          0.
  -0.         -0.          0.01126711  0.         -0.          0.          0.         -0.00209608 -0.00657686 -0.00566475 -0.         -0.         -0.00795712
   0.00184285  0.00685329]
 [-0.34414852 -0.         -0.         -0.08481035  0.15044046  0.          0.          0.         -0.         -0.03312235 -0.00848536  0.         -0.
   0.          0.         -0.01998612 -0.          0.         -0.         -0.          0.00371812  0.01166633  0.01004839  0.          0.          0.0141147
  -0.00326893 -0.01215668]
 [-0.         -0.         -0.         -0.          0.          0.          0.          0.         -0.         -0.         -0.          0.         -0.
   0.          0.         -0.         -0.          0.         -0.         -0.          0.          0.          0.          0.          0.          0.
  -0.         -0.        ]
 [-0.         -0.         -0.         -0.          0.          0.          0.          0.         -0.         -0.         -0.          0.         -0.
   0.          0.         -0.         -0.          0.         -0.         -0.          0.          0.          0.          0.          0.          0.
  -0.         -0.        ]
 [-0.         -0.         -0.         -0.          0.          0.          0.          0.         -0.         -0.         -0.          0.         -0.
   0.          0.         -0.         -0.          0.         -0.         -0.          0.          0.          0.          0.          0.          0.
  -0.         -0.        ]
 [ 0.          0.          0.          0.         -0.         -0.         -0.         -0.          0.          0.          0.         -0.          0.
  -0.         -0.          0.          0.         -0.          0.          0.         -0.         -0.         -0.         -0.         -0.         -0.
   0.          0.        ]
 [ 0.07577088  0.          0.          0.01867262 -0.03312235 -0.         -0.         -0.          0.          0.00729252  0.00186822 -0.          0.
  -0.         -0.          0.00440033  0.         -0.          0.          0.         -0.00081861 -0.00256857 -0.00221235 -0.         -0.         -0.00310762
   0.00071972  0.00267653]
 [ 0.01941117  0.          0.          0.0047836  -0.00848536 -0.         -0.         -0.          0.          0.00186822  0.0004786  -0.          0.
  -0.         -0.          0.00112729  0.         -0.          0.          0.         -0.00020971 -0.00065802 -0.00056676 -0.         -0.         -0.00079612
   0.00018438  0.00068568]
 [-0.         -0.         -0.         -0.          0.          0.          0.          0.         -0.         -0.         -0.          0.         -0.
   0.          0.         -0.         -0.          0.         -0.         -0.          0.          0.          0.          0.          0.          0.
  -0.         -0.        ]
 [ 0.          0.          0.          0.         -0.         -0.         -0.         -0.          0.          0.          0.         -0.          0.
  -0.         -0.          0.          0.         -0.          0.          0.         -0.         -0.         -0.         -0.         -0.         -0.
   0.          0.        ]
 [-0.         -0.         -0.         -0.          0.          0.          0.          0.         -0.         -0.         -0.          0.         -0.
   0.          0.         -0.         -0.          0.         -0.         -0.          0.          0.          0.          0.          0.          0.
  -0.         -0.        ]
 [-0.         -0.         -0.         -0.          0.          0.          0.          0.         -0.         -0.         -0.          0.         -0.
   0.          0.         -0.         -0.          0.         -0.         -0.          0.          0.          0.          0.          0.          0.
  -0.         -0.        ]
 [ 0.04572036  0.          0.          0.01126711 -0.01998612 -0.         -0.         -0.          0.          0.00440033  0.00112729 -0.          0.
  -0.         -0.          0.00265517  0.         -0.          0.          0.         -0.00049395 -0.00154988 -0.00133494 -0.         -0.         -0.00187515
   0.00043428  0.00161502]
 [ 0.          0.          0.          0.         -0.         -0.         -0.         -0.          0.          0.          0.         -0.          0.
  -0.         -0.          0.          0.         -0.          0.          0.         -0.         -0.         -0.         -0.         -0.         -0.
   0.          0.        ]
 [-0.         -0.         -0.         -0.          0.          0.          0.          0.         -0.         -0.         -0.          0.         -0.
   0.          0.         -0.         -0.          0.         -0.         -0.          0.          0.          0.          0.          0.          0.
  -0.         -0.        ]
 [ 0.          0.          0.          0.         -0.         -0.         -0.         -0.          0.          0.          0.         -0.          0.
  -0.         -0.          0.          0.         -0.          0.          0.         -0.         -0.         -0.         -0.         -0.         -0.
   0.          0.        ]
 [ 0.          0.          0.          0.         -0.         -0.         -0.         -0.          0.          0.          0.         -0.          0.
  -0.         -0.          0.          0.         -0.          0.          0.         -0.         -0.         -0.         -0.         -0.         -0.
   0.          0.        ]
 [-0.00850559 -0.         -0.         -0.00209608  0.00371812  0.          0.          0.         -0.         -0.00081861 -0.00020971  0.         -0.
   0.          0.         -0.00049395 -0.          0.         -0.         -0.          0.00009189  0.00028833  0.00024834  0.          0.          0.00034884
  -0.00008079 -0.00030045]
 [-0.02668796 -0.         -0.         -0.00657686  0.01166633  0.          0.          0.         -0.         -0.00256857 -0.00065802  0.         -0.
   0.          0.         -0.00154988 -0.          0.         -0.         -0.          0.00028833  0.0009047   0.00077923  0.          0.          0.00109456
  -0.0002535  -0.00094272]
 [-0.02298676 -0.         -0.         -0.00566475  0.01004839  0.          0.          0.         -0.         -0.00221235 -0.00056676  0.         -0.
   0.          0.         -0.00133494 -0.          0.         -0.         -0.          0.00024834  0.00077923  0.00067116  0.          0.          0.00094277
  -0.00021834 -0.00081198]
 [-0.         -0.         -0.         -0.          0.          0.          0.          0.         -0.         -0.         -0.          0.         -0.
   0.          0.         -0.         -0.          0.         -0.         -0.          0.          0.          0.          0.          0.          0.
  -0.         -0.        ]
 [-0.         -0.         -0.         -0.          0.          0.          0.          0.         -0.         -0.         -0.          0.         -0.
   0.          0.         -0.         -0.          0.         -0.         -0.          0.          0.          0.          0.          0.          0.
  -0.         -0.        ]
 [-0.03228888 -0.         -0.         -0.00795712  0.0141147   0.          0.          0.         -0.         -0.00310762 -0.00079612  0.         -0.
   0.          0.         -0.00187515 -0.          0.         -0.         -0.          0.00034884  0.00109456  0.00094277  0.          0.          0.00132428
  -0.0003067  -0.00114057]
 [ 0.00747802  0.          0.          0.00184285 -0.00326893 -0.         -0.         -0.          0.          0.00071972  0.00018438 -0.          0.
  -0.         -0.          0.00043428  0.         -0.          0.          0.         -0.00008079 -0.0002535  -0.00021834 -0.         -0.         -0.0003067
   0.00007103  0.00026415]
 [ 0.0278097   0.          0.          0.00685329 -0.01215668 -0.         -0.         -0.          0.          0.00267653  0.00068568 -0.          0.
  -0.         -0.          0.00161502  0.         -0.          0.          0.         -0.00030045 -0.00094272 -0.00081198 -0.         -0.         -0.00114057
   0.00026415  0.00098235]]

***************
SCF converged at cycle 28
Final E(SUHF) =     -1.11407107, delta E = -9.74572e-09
***** Start DFT Correlation for SUHF+DFT **********
tot grids = 20048
E(SUHF) =     -1.11407107
E_c(TPSS) =     -0.02971600
E(SUHF+DFT) =     -1.14378707
