

#INFO: **** input file is /share/home/srwang/ExSCF/test/pytest/scan_h2/scan_dft.py ****
#import phf
from pyscf import gto, scf
#import scipy
import numpy as np
import sys, os, contextlib

from pyphf import util, sudft

#xyz = 'h2.xyz' #sys.argv[1]
fch = 'test_uhf.fchk' #sys.argv[2]
#bas = '../h2.bas'
bas = 'cc-pvtz'

for r in np.arange(0.5, 2.6, 0.1):
    output = 'sudft_%.1f.out' % r
    os.system("echo '\n' > %s" % output)
    with open(output, 'a', encoding='utf-8') as f:
        with contextlib.redirect_stdout(f):
            xyz = '''H 0.0 0.0 0.0; H 0.0 0.0 %f'''%r
            mf = util.guess_from_fchk(xyz, bas, fch)
            #mf = util.guess(xyz, bas)
            #f.flush()
            mf2 = util.SUHF(mf)
            mf2.cut_no = False
            mf2.debug = False
            mf2.max_cycle = 50
            #mf2.output = 'sudft_%.1f.out'%r
            #mf2.kernel()
            
            mf3 = sudft.SUDFT(mf2)
            mf3.kernel()
                    #INFO: ******************** input file end ********************


System: uname_result(system='Linux', node='xc02n18', release='3.10.0-693.el7.x86_64', version='#1 SMP Thu Jul 6 19:56:57 EDT 2017', machine='x86_64', processor='x86_64')  Threads 24
Python 3.7.4 (default, Aug 13 2019, 20:35:49) 
[GCC 7.3.0]
numpy 1.17.2  scipy 1.4.1
Date: Fri Nov 20 22:48:10 2020
PySCF version 1.7.3
PySCF path  /share/apps/Python/Anaconda3-2019/lib/python3.7/site-packages/pyscf

[CONFIG] conf_file None
[INPUT] verbose = 4
[INPUT] num. atoms = 2
[INPUT] num. electrons = 2
[INPUT] charge = 0
[INPUT] spin (= nelec alpha-beta = 2S) = 0
[INPUT] symmetry False subgroup None
[INPUT] Mole.unit = angstrom
[INPUT]  1 H      0.000000000000   0.000000000000   0.000000000000 AA    0.000000000000   0.000000000000   0.000000000000 Bohr
[INPUT]  2 H      0.000000000000   0.000000000000   0.600000000000 AA    0.000000000000   0.000000000000   1.133835674739 Bohr

nuclear repulsion = 0.8819620182
number of shells = 12
number of NR pGTOs = 32
number of NR cGTOs = 28
basis = cc-pvtz
ecp = {}
CPU time:       293.84


******** <class 'pyscf.scf.uhf.UHF'> ********
method = UHF
initial guess = minao
damping factor = 0
level_shift factor = 0
DIIS = <class 'pyscf.scf.diis.CDIIS'>
diis_start_cycle = 1
diis_space = 8
SCF conv_tol = 1e-09
SCF conv_tol_grad = None
SCF max_cycles = 1
direct_scf = True
direct_scf_tol = 1e-13
chkfile to save SCF result = /share/home/srwang/ExSCF/test/pytest/scan_h2/tmphx8fb0bq
max_memory 4000 MB (current use 143 MB)
number electrons alpha = 1  beta = 1
Set gradient conv threshold to 3.16228e-05
init E= -0.824483430223519
  alpha nocc = 1  HOMO = -0.626172106841109  LUMO = 0.160075943594782
  beta  nocc = 1  HOMO = -0.632544006922478  LUMO = 0.160102193123321
cycle= 1 E= -1.11430937471772  delta_E= -0.29  |g|= 0.034  |ddm|= 0.335
SCF not converged.
SCF energy = -1.11430937471772 after 1 cycles  <S^2> = 1.4992137e-05  2S+1 = 1.00003


******** <class 'pyscf.scf.uhf.UHF'> ********
method = UHF
initial guess = minao
damping factor = 0
level_shift factor = 0
DIIS = <class 'pyscf.scf.diis.CDIIS'>
diis_start_cycle = 1
diis_space = 8
SCF conv_tol = 1e-09
SCF conv_tol_grad = None
SCF max_cycles = 1
direct_scf = True
direct_scf_tol = 1e-13
chkfile to save SCF result = /share/home/srwang/ExSCF/test/pytest/scan_h2/tmphx8fb0bq
max_memory 4000 MB (current use 145 MB)
number electrons alpha = 1  beta = 1
Set gradient conv threshold to 3.16228e-05
init E= -1.23222988216284
  alpha nocc = 1  HOMO = -0.592633608528229  LUMO = 0.265872353182887
  beta  nocc = 1  HOMO = -0.59263360852823  LUMO = 0.265872353182889
cycle= 1 E= -1.09744886655862  delta_E= 0.135  |g|= 0.111  |ddm|= 0.221
SCF not converged.
SCF energy = -1.09744886655862 after 1 cycles  <S^2> = 0.061191246  2S+1 = 1.1156904

******** <class 'pyphf.util.SUHF'> ********
SVD: S^(-1/2)
[[ -0.16172498  -0.           0.           0.18704936   0.13821028  -0.          -0.          -0.          -0.          -0.29442532  -0.          -0.
    0.1247611   -0.24118215   0.           0.          -0.          -0.           0.57124907   0.          -0.          -0.39674981   1.82897118   0.
    0.          -2.45238557   1.05017275  -0.85308179]
 [ -0.21180984  -0.           0.           0.11076278  -0.07156394   0.          -0.          -0.           0.           0.0242586    0.           0.
   -0.08508021  -0.26678884  -0.           0.          -0.          -0.          -0.25377131  -0.           0.           1.30675858  -0.86317394  -0.
    0.           0.01876075  -0.01971839 -26.09850684]
 [ -0.18829006   0.          -0.           0.03601768  -0.23816697   0.           0.           0.           0.           0.21360961  -0.           0.
   -0.05128129   0.44223464  -0.          -0.           0.           0.          -0.22600206   0.          -0.          -0.82118166   0.18167624   0.
   -0.          -1.45080286  -3.76658174   2.17041538]
 [  0.           0.00474809  -0.26191897   0.           0.           0.          -0.           0.35087603   0.05726912   0.           0.07148435  -0.00909552
    0.          -0.           0.          -0.          -0.45254574   0.69442203  -0.           0.41552855   1.14233459  -0.          -0.           0.67291306
    1.17418466  -0.          -0.           0.        ]
 [  0.           0.26191897   0.00474809   0.           0.           0.          -0.           0.05726912  -0.35087603   0.          -0.00909552  -0.07148435
    0.           0.           0.          -0.          -0.69442203  -0.45254574  -0.           1.14233459  -0.41552855   0.           0.           1.17418466
   -0.67291306   0.          -0.          -0.        ]
 [ -0.06112501   0.          -0.          -0.19752799   0.40559858  -0.           0.           0.           0.           0.09522895  -0.          -0.
    0.10753258   0.55544583   0.          -0.           0.           0.          -0.72220166  -0.           0.           0.40814802  -0.10374241   0.
   -0.          -1.87338429   1.43416618  -0.00640498]
 [  0.           0.00523784  -0.28893528   0.          -0.           0.          -0.           0.17280122   0.02820419  -0.          -0.35825189   0.04558325
   -0.           0.          -0.           0.           0.2899627   -0.44494174   0.          -0.42969206  -1.18127165   0.          -0.           1.01636133
    1.77347707   0.          -0.           0.        ]
 [  0.           0.28893528   0.00523784   0.          -0.           0.          -0.           0.02820419  -0.17280122   0.           0.04558325   0.35825189
    0.          -0.          -0.           0.           0.44494174   0.2899627    0.          -1.18127165   0.42969206  -0.           0.           1.77347707
   -1.01636133   0.           0.          -0.        ]
 [ -0.07077055   0.          -0.          -0.30293134   0.20178165  -0.          -0.          -0.          -0.           0.09467724   0.          -0.
    0.25146963  -0.40475694  -0.           0.           0.          -0.           0.57510221   0.          -0.          -1.118985    -1.60447442   0.
   -0.          -0.11065243  -0.92737144  -9.51359824]
 [  0.          -0.           0.           0.           0.          -0.57602589  -0.           0.          -0.           0.          -0.          -0.
    0.          -0.           1.00697781  -0.00000003   0.          -0.           0.          -0.          -0.           0.           0.           0.
   -0.           0.           0.          -0.        ]
 [ -0.           0.14706496   0.00266601   0.           0.          -0.           0.          -0.07067665   0.43302122  -0.          -0.0733575   -0.57653775
   -0.          -0.          -0.           0.           0.36258081   0.23628916   0.           0.45423325  -0.16522907   0.           0.           1.65916176
   -0.95084841   0.           0.          -0.        ]
 [ -0.02025571   0.          -0.          -0.13942977  -0.07020483  -0.          -0.           0.          -0.          -0.50672506  -0.           0.
   -0.61215765   0.34254676   0.           0.           0.           0.           0.28001085  -0.          -0.          -0.18545338  -1.34671354   0.
   -0.          -0.75541818   0.40327416  -0.63764031]
 [  0.           0.00266601  -0.14706496   0.           0.          -0.           0.          -0.43302122  -0.07067665   0.           0.57653775  -0.0733575
   -0.           0.          -0.           0.           0.23628916  -0.36258081  -0.           0.16522907   0.45423325  -0.          -0.           0.95084841
    1.65916176  -0.          -0.           0.        ]
 [  0.          -0.          -0.           0.           0.           0.          -0.57602589  -0.           0.           0.          -0.          -0.
    0.           0.           0.00000003   1.00697781  -0.          -0.           0.          -0.           0.           0.           0.           0.
   -0.           0.           0.           0.        ]
 [ -0.16172498   0.          -0.          -0.18704936   0.13821028   0.           0.           0.          -0.          -0.29442532   0.          -0.
   -0.1247611   -0.24118215  -0.          -0.          -0.           0.          -0.57124907   0.           0.          -0.39674981   1.82897118  -0.
    0.           2.45238557  -1.05017275   0.85308179]
 [ -0.21180984   0.          -0.          -0.11076278  -0.07156394  -0.           0.          -0.          -0.           0.0242586    0.           0.
    0.08508021  -0.26678884   0.          -0.          -0.           0.           0.25377131  -0.           0.           1.30675858  -0.86317394  -0.
   -0.          -0.01876075   0.01971839  26.09850684]
 [ -0.18829006   0.          -0.          -0.03601768  -0.23816697  -0.          -0.           0.           0.           0.21360961  -0.          -0.
    0.05128129   0.44223464   0.           0.          -0.           0.           0.22600206   0.          -0.          -0.82118166   0.18167624  -0.
    0.           1.45080286   3.76658174  -2.17041538]
 [  0.           0.00474809  -0.26191897   0.          -0.          -0.           0.          -0.35087603  -0.05726912   0.           0.07148435  -0.00909552
   -0.          -0.           0.          -0.          -0.45254574   0.69442203   0.          -0.41552855  -1.14233459   0.           0.          -0.67291306
   -1.17418466  -0.           0.          -0.        ]
 [ -0.           0.26191897   0.00474809   0.           0.          -0.           0.          -0.05726912   0.35087603  -0.          -0.00909552  -0.07148435
    0.          -0.           0.          -0.          -0.69442203  -0.45254574   0.          -1.14233459   0.41552855  -0.          -0.          -1.17418466
    0.67291306  -0.          -0.           0.        ]
 [  0.06112501  -0.          -0.          -0.19752799  -0.40559858  -0.           0.          -0.          -0.          -0.09522895   0.          -0.
    0.10753258  -0.55544583   0.          -0.          -0.          -0.          -0.72220166   0.          -0.          -0.40814802   0.10374241   0.
   -0.          -1.87338429   1.43416618  -0.00640498]
 [  0.           0.00523784  -0.28893528   0.          -0.          -0.           0.          -0.17280122  -0.02820419  -0.          -0.35825189   0.04558325
    0.           0.          -0.           0.           0.2899627   -0.44494174  -0.           0.42969206   1.18127165  -0.           0.          -1.01636133
   -1.77347707  -0.           0.          -0.        ]
 [ -0.           0.28893528   0.00523784   0.           0.          -0.          -0.          -0.02820419   0.17280122  -0.           0.04558325   0.35825189
    0.          -0.          -0.           0.           0.44494174   0.2899627    0.           1.18127165  -0.42969206   0.          -0.          -1.77347707
    1.01636133  -0.          -0.          -0.        ]
 [  0.07077055   0.          -0.          -0.30293134  -0.20178165   0.          -0.           0.           0.          -0.09467724  -0.           0.
    0.25146963   0.40475694  -0.           0.           0.           0.           0.57510221  -0.           0.           1.118985     1.60447442  -0.
    0.          -0.11065243  -0.92737144  -9.51359824]
 [  0.          -0.          -0.           0.          -0.          -0.57602589  -0.           0.          -0.           0.          -0.           0.
    0.           0.          -1.00697781   0.00000003  -0.           0.          -0.          -0.           0.          -0.          -0.          -0.
    0.          -0.           0.           0.        ]
 [ -0.          -0.14706496  -0.00266601  -0.           0.          -0.           0.          -0.07067665   0.43302122  -0.           0.0733575    0.57653775
   -0.           0.           0.          -0.          -0.36258081  -0.23628916  -0.           0.45423325  -0.16522907   0.           0.           1.65916176
   -0.95084841   0.          -0.          -0.        ]
 [ -0.02025571  -0.           0.           0.13942977  -0.07020483  -0.           0.          -0.          -0.          -0.50672506   0.           0.
    0.61215765   0.34254676   0.          -0.           0.           0.          -0.28001085  -0.          -0.          -0.18545338  -1.34671354  -0.
   -0.           0.75541818  -0.40327416   0.63764031]
 [ -0.          -0.00266601   0.14706496  -0.           0.          -0.           0.          -0.43302122  -0.07067665   0.          -0.57653775   0.0733575
   -0.          -0.           0.          -0.          -0.23628916   0.36258081   0.           0.16522907   0.45423325  -0.          -0.           0.95084841
    1.65916176  -0.          -0.           0.        ]
 [  0.          -0.          -0.           0.           0.           0.          -0.57602589  -0.           0.           0.          -0.          -0.
    0.           0.          -0.00000003  -1.00697781   0.           0.          -0.           0.          -0.          -0.          -0.          -0.
    0.          -0.          -0.          -0.        ]]
C (ortho)
[[-0.98682393 -0.09158612 -0.02647097 -0.08310079 -0.          0.         -0.06891896  0.         -0.         -0.01356311  0.01569901  0.02237468 -0.
  -0.         -0.          0.          0.05516396 -0.         -0.          0.         -0.         -0.         -0.          0.00004074 -0.         -0.
   0.0381413   0.00231978]
 [-0.          0.         -0.          0.          0.81732555  0.22641837 -0.          0.03278915  0.01383326 -0.          0.          0.          0.
   0.          0.47838302 -0.20961306 -0.         -0.00448679 -0.02864604  0.          0.         -0.07592891  0.00637902 -0.          0.0015644   0.00318878
  -0.          0.        ]
 [ 0.         -0.         -0.         -0.          0.22641837 -0.81732555 -0.          0.01383326 -0.03278915 -0.         -0.          0.         -0.
   0.         -0.20961306 -0.47838302  0.          0.02864604 -0.00448679 -0.          0.          0.00637902  0.07592891  0.         -0.00318878  0.0015644
   0.         -0.        ]
 [ 0.11875404 -0.49937891 -0.02091364 -0.77423995 -0.          0.          0.02745461  0.          0.         -0.17626281 -0.02745022  0.31932111 -0.
   0.          0.          0.         -0.00935613 -0.          0.          0.         -0.         -0.         -0.         -0.04223215  0.          0.
  -0.00264728 -0.01460761]
 [-0.07020421 -0.0169563  -0.51791275  0.03562128  0.         -0.          0.60185401 -0.         -0.         -0.00567622 -0.23158595 -0.03896423  0.
   0.         -0.         -0.         -0.52736935  0.          0.         -0.          0.          0.          0.          0.00596082  0.          0.
  -0.17236398 -0.00270724]
 [ 0.         -0.          0.         -0.         -0.         -0.         -0.         -0.         -0.         -0.         -0.         -0.         -0.04929878
  -0.99871892  0.         -0.         -0.          0.          0.         -0.01140657  0.00019951 -0.         -0.          0.         -0.         -0.
   0.         -0.        ]
 [ 0.          0.         -0.          0.         -0.         -0.          0.         -0.          0.          0.         -0.         -0.         -0.99871892
   0.04929878  0.          0.          0.          0.         -0.         -0.00019951 -0.01140657 -0.          0.         -0.          0.         -0.
  -0.         -0.        ]
 [ 0.         -0.          0.          0.         -0.00280901  0.03101281  0.          0.13962425 -0.62640534 -0.          0.         -0.         -0.
   0.          0.01812011  0.02689446  0.          0.7455924   0.01830845  0.          0.         -0.00590406 -0.02186503 -0.         -0.16480917  0.04671036
   0.          0.        ]
 [ 0.          0.          0.          0.         -0.03101281 -0.00280901  0.          0.62640534  0.13962425  0.         -0.          0.          0.
  -0.         -0.02689446  0.01812011 -0.          0.01830845 -0.7455924  -0.         -0.          0.02186503 -0.00590406  0.          0.04671036  0.16480917
   0.         -0.        ]
 [-0.04090234  0.01958511  0.45464766 -0.00849802  0.         -0.          0.32105825 -0.         -0.          0.00379198  0.67926045  0.07755706  0.
   0.         -0.         -0.         -0.43651129  0.          0.         -0.         -0.          0.          0.          0.00707579 -0.         -0.
   0.17340373  0.00174841]
 [ 0.          0.         -0.         -0.          0.16180224 -0.40665989 -0.          0.0087587  -0.01574479 -0.          0.          0.          0.
  -0.          0.18408322  0.58565813 -0.         -0.0417712   0.01128209  0.         -0.          0.01612797 -0.65505957 -0.          0.00203659 -0.00128972
   0.         -0.        ]
 [-0.          0.         -0.         -0.          0.40665989  0.16180224 -0.          0.01574479  0.0087587  -0.          0.          0.         -0.
  -0.         -0.58565813  0.18408322  0.          0.01128209  0.0417712  -0.         -0.          0.65505957  0.01612797  0.         -0.00128972 -0.00203659
   0.         -0.        ]
 [-0.02172465  0.27164032 -0.0110929   0.09032888 -0.         -0.          0.00348143 -0.         -0.          0.22895435 -0.08274834  0.69718205 -0.
  -0.         -0.         -0.         -0.00930343  0.         -0.          0.          0.         -0.         -0.         -0.59536631 -0.         -0.
  -0.0018883   0.13252827]
 [-0.05169287  0.01528795  0.58110817 -0.03551533 -0.          0.         -0.18751427 -0.          0.         -0.00697894 -0.44141255 -0.04665959  0.
   0.          0.         -0.         -0.42004478  0.          0.         -0.         -0.          0.         -0.          0.00340473  0.          0.
  -0.49946204 -0.00143955]
 [-0.         -0.          0.         -0.         -0.         -0.         -0.         -0.          0.         -0.          0.          0.          0.00056245
   0.01139445  0.          0.          0.          0.          0.         -0.999782    0.01748694 -0.         -0.         -0.          0.          0.
  -0.          0.        ]
 [ 0.         -0.          0.         -0.          0.          0.         -0.          0.          0.          0.          0.          0.          0.01139445
  -0.00056245 -0.         -0.          0.          0.          0.         -0.01748694 -0.999782   -0.          0.          0.         -0.          0.
  -0.          0.        ]
 [-0.          0.         -0.          0.          0.19947908  0.21797713  0.          0.00915087  0.01303361  0.         -0.         -0.          0.
  -0.         -0.58391256 -0.08613748 -0.          0.00240862  0.0027752   0.          0.         -0.66767412 -0.34388799  0.         -0.00203421 -0.00126198
  -0.         -0.        ]
 [-0.          0.          0.          0.          0.21797713 -0.19947908 -0.          0.01303361 -0.00915087  0.         -0.         -0.          0.
  -0.         -0.08613748  0.58391256 -0.         -0.0027752   0.00240862  0.          0.         -0.34388799  0.66767412 -0.          0.00126198 -0.00203421
  -0.         -0.        ]
 [-0.0206748   0.40030512 -0.02273631  0.01874633 -0.          0.         -0.00856348  0.         -0.         -0.44592095 -0.05354349  0.50839898 -0.
   0.          0.         -0.          0.00198208 -0.         -0.          0.         -0.         -0.          0.          0.61482426  0.          0.
  -0.00155763 -0.01376675]
 [ 0.          0.          0.          0.         -0.02048314 -0.01404321  0.          0.47816712  0.42790125 -0.         -0.         -0.         -0.
  -0.          0.02192055 -0.00180647  0.          0.18788825  0.35557412  0.          0.         -0.0091183  -0.00229851  0.         -0.4618238  -0.46049059
  -0.          0.        ]
 [ 0.          0.         -0.         -0.          0.01404321 -0.02048314 -0.         -0.42790125  0.47816712 -0.          0.         -0.          0.
   0.          0.00180647  0.02192055 -0.          0.35557412 -0.18788825  0.         -0.          0.00229851 -0.0091183   0.         -0.46049059  0.4618238
   0.         -0.        ]
 [ 0.03326641 -0.0198814  -0.4239109   0.00947148 -0.          0.         -0.67296938  0.         -0.          0.01998614  0.35390949  0.03687524  0.
   0.         -0.         -0.         -0.45448598 -0.          0.         -0.         -0.          0.         -0.          0.0045702   0.         -0.
  -0.17952815  0.00047276]
 [ 0.01608792  0.00080565  0.05792702 -0.00842766 -0.         -0.         -0.20196451 -0.         -0.         -0.00187122 -0.3893149  -0.04261862  0.
   0.         -0.         -0.         -0.38087793 -0.          0.         -0.         -0.          0.         -0.          0.00283674  0.         -0.
   0.8105929  -0.00120809]
 [ 0.         -0.          0.          0.          0.01174682  0.01144805  0.         -0.25919981 -0.32764139 -0.          0.          0.          0.
   0.         -0.02043669 -0.00182984 -0.         -0.32303535 -0.41826264 -0.         -0.          0.01232413  0.0054808   0.         -0.60423419 -0.42449991
  -0.          0.        ]
 [-0.          0.         -0.         -0.         -0.01144805  0.01174682 -0.          0.32764139 -0.25919981  0.         -0.         -0.         -0.
   0.          0.00182984 -0.02043669 -0.         -0.41826264  0.32303535  0.          0.         -0.0054808   0.01232413 -0.         -0.42449991  0.60423419
   0.         -0.        ]
 [-0.01548369  0.36065667 -0.02321865 -0.26941127 -0.          0.          0.00293417 -0.         -0.          0.13015523  0.00983374 -0.06550521 -0.
  -0.         -0.         -0.          0.00075475 -0.         -0.         -0.          0.          0.         -0.         -0.09811471 -0.         -0.
   0.00051145 -0.87498659]
 [-0.01702392  0.61160105 -0.0442979  -0.51818971 -0.          0.          0.00254564 -0.          0.         -0.1034312   0.04300843 -0.35061468  0.
   0.         -0.          0.         -0.00201664  0.         -0.         -0.          0.         -0.          0.         -0.15602556  0.         -0.
   0.00038269  0.44197104]
 [-0.00279152 -0.05263288  0.00630093  0.20314983 -0.         -0.         -0.01581711  0.         -0.         -0.83026817  0.02548603 -0.11354705 -0.
  -0.         -0.         -0.         -0.00711478 -0.         -0.          0.         -0.         -0.         -0.         -0.48130026  0.          0.
   0.00030748 -0.14516852]]
[[-0.98682393 -0.09158612 -0.02647097 -0.08310079  0.         -0.          0.06891896 -0.         -0.         -0.01356311  0.01569901  0.02237468  0.
  -0.         -0.         -0.         -0.05516396  0.          0.         -0.         -0.         -0.          0.          0.00004074  0.          0.
   0.0381413   0.00231978]
 [-0.         -0.         -0.          0.          0.3071228   0.79054533  0.          0.00257887  0.03549417  0.          0.          0.          0.
   0.          0.47354156  0.22033233 -0.         -0.00572143 -0.0284252  -0.         -0.         -0.00903042  0.07565939  0.          0.00152651  0.00320708
  -0.         -0.        ]
 [-0.          0.         -0.          0.         -0.79054533  0.3071228   0.         -0.03549417  0.00257887  0.          0.         -0.          0.
   0.          0.22033233 -0.47354156  0.          0.0284252  -0.00572143 -0.          0.         -0.07565939 -0.00903042 -0.         -0.00320708  0.00152651
   0.          0.        ]
 [-0.11875404  0.49937891  0.02091364  0.77423995  0.         -0.          0.02745461  0.         -0.          0.17626281  0.02745022 -0.31932111  0.
  -0.         -0.          0.         -0.00935613  0.         -0.         -0.         -0.          0.          0.          0.04223215  0.         -0.
   0.00264728  0.01460761]
 [-0.07020421 -0.0169563  -0.51791275  0.03562128  0.         -0.         -0.60185401  0.          0.         -0.00567622 -0.23158595 -0.03896423 -0.
   0.         -0.          0.          0.52736935 -0.         -0.          0.          0.         -0.         -0.          0.00596082 -0.         -0.
  -0.17236398 -0.00270724]
 [ 0.         -0.         -0.          0.         -0.         -0.          0.          0.          0.          0.         -0.          0.          0.07571609
  -0.99706415  0.         -0.          0.         -0.         -0.         -0.01140515  0.00026909 -0.         -0.         -0.          0.          0.
   0.          0.        ]
 [-0.          0.          0.          0.         -0.         -0.          0.         -0.         -0.          0.          0.         -0.         -0.99706415
  -0.07571609  0.         -0.          0.          0.         -0.         -0.00026909 -0.01140515 -0.          0.          0.          0.         -0.
   0.          0.        ]
 [-0.          0.          0.         -0.         -0.03057566  0.00590035  0.          0.63808067  0.06878694  0.          0.         -0.         -0.
   0.          0.00819818 -0.03137579 -0.         -0.74568663  0.01395284 -0.          0.         -0.02164518 -0.00666509  0.          0.16535095 -0.04475469
   0.         -0.        ]
 [ 0.          0.          0.         -0.          0.00590035  0.03057566 -0.          0.06878694 -0.63808067 -0.          0.         -0.         -0.
  -0.          0.03137579  0.00819818  0.          0.01395284  0.74568663  0.         -0.         -0.00666509  0.02164518 -0.         -0.04475469 -0.16535095
   0.          0.        ]
 [-0.04090234  0.01958511  0.45464766 -0.00849802 -0.          0.         -0.32105825  0.          0.          0.00379198  0.67926045  0.07755706  0.
  -0.          0.          0.          0.43651129 -0.         -0.         -0.         -0.          0.         -0.          0.00707579  0.          0.
   0.17340373  0.00174841]
 [-0.         -0.         -0.          0.         -0.38841401  0.20170966  0.         -0.01772283  0.00324261  0.          0.         -0.         -0.
  -0.         -0.31769597  0.52531072 -0.         -0.04124421  0.01307799  0.         -0.          0.6552229   0.00678995  0.          0.00205172 -0.0012655
   0.          0.        ]
 [-0.         -0.         -0.          0.          0.20170966  0.38841401  0.          0.00324261  0.01772283  0.          0.         -0.         -0.
  -0.         -0.52531072 -0.31769597 -0.          0.01307799  0.04124421  0.          0.          0.00678995 -0.6552229  -0.         -0.0012655  -0.00205172
   0.          0.        ]
 [ 0.02172465 -0.27164032  0.0110929  -0.09032888  0.         -0.          0.00348143  0.         -0.         -0.22895435  0.08274834 -0.69718205  0.
  -0.          0.         -0.         -0.00930343  0.          0.         -0.          0.          0.          0.          0.59536631  0.          0.
   0.0018883  -0.13252827]
 [-0.05169287  0.01528795  0.58110817 -0.03551533 -0.          0.          0.18751427 -0.         -0.         -0.00697894 -0.44141255 -0.04665959 -0.
   0.          0.          0.          0.42004478 -0.         -0.          0.          0.          0.         -0.          0.00340473 -0.         -0.
  -0.49946204 -0.00143955]
 [-0.          0.          0.          0.         -0.         -0.         -0.         -0.          0.          0.          0.         -0.          0.00086385
  -0.01137557  0.          0.         -0.         -0.         -0.          0.99965672 -0.02358597 -0.          0.          0.          0.         -0.
  -0.         -0.        ]
 [-0.          0.          0.          0.          0.          0.          0.         -0.          0.         -0.          0.         -0.         -0.01137557
  -0.00086385 -0.         -0.         -0.         -0.          0.          0.02358597  0.99965672  0.          0.         -0.         -0.         -0.
   0.         -0.        ]
 [-0.         -0.         -0.         -0.          0.23685628  0.17664947  0.          0.00940751  0.01284959 -0.         -0.          0.          0.
  -0.         -0.32141904 -0.49503873  0.          0.00252638  0.00266844 -0.         -0.          0.32032844  0.67929181 -0.         -0.00201912 -0.00128598
  -0.          0.        ]
 [-0.         -0.         -0.         -0.         -0.17664947  0.23685628  0.         -0.01284959  0.00940751 -0.         -0.         -0.          0.
  -0.         -0.49503873  0.32141904  0.         -0.00266844  0.00252638 -0.         -0.         -0.67929181  0.32032844  0.          0.00128598 -0.00201912
  -0.          0.        ]
 [ 0.0206748  -0.40030512  0.02273631 -0.01874633 -0.         -0.         -0.00856348  0.         -0.          0.44592095  0.05354349 -0.50839898  0.
  -0.          0.          0.          0.00198208  0.         -0.         -0.         -0.         -0.          0.         -0.61482426 -0.         -0.
   0.00155763  0.01376675]
 [ 0.          0.          0.         -0.          0.0160237   0.01897398 -0.         -0.25181463 -0.59019715  0.         -0.          0.          0.
  -0.         -0.01584778 -0.01525194 -0.         -0.20308976 -0.34711597 -0.          0.         -0.00197823 -0.0091931  -0.          0.45633624  0.46592922
  -0.         -0.        ]
 [ 0.         -0.         -0.          0.          0.01897398 -0.0160237   0.         -0.59019715  0.25181463  0.          0.          0.         -0.
   0.          0.01525194 -0.01584778  0.         -0.34711597  0.20308976 -0.         -0.         -0.0091931   0.00197823 -0.          0.46592922 -0.45633624
   0.          0.        ]
 [ 0.03326641 -0.0198814  -0.4239109   0.00947148  0.         -0.          0.67296938 -0.         -0.          0.01998614  0.35390949  0.03687524 -0.
   0.          0.          0.          0.45448598  0.         -0.          0.         -0.          0.         -0.          0.0045702  -0.          0.
  -0.17952815  0.00047276]
 [ 0.01608792  0.00080565  0.05792702 -0.00842766 -0.          0.          0.20196451 -0.          0.         -0.00187122 -0.3893149  -0.04261862 -0.
   0.         -0.          0.          0.38087793 -0.         -0.          0.         -0.          0.         -0.          0.00283674 -0.          0.
   0.8105929  -0.00120809]
 [-0.          0.          0.         -0.         -0.01256677 -0.01054144  0.          0.22712886  0.35063643  0.         -0.         -0.          0.
   0.          0.01213855  0.01654274  0.          0.34082147  0.40390123  0.         -0.          0.00504646  0.01250826 -0.          0.599163    0.43162811
  -0.         -0.        ]
 [ 0.         -0.          0.          0.         -0.01054144  0.01256677  0.          0.35063643 -0.22712886 -0.         -0.          0.          0.
  -0.         -0.01654274  0.01213855  0.          0.40390123 -0.34082147 -0.          0.          0.01250826 -0.00504646  0.          0.43162811 -0.599163
   0.          0.        ]
 [ 0.01548369 -0.36065667  0.02321865  0.26941127  0.         -0.          0.00293417  0.          0.         -0.13015523 -0.00983374  0.06550521  0.
  -0.          0.         -0.          0.00075475  0.          0.          0.         -0.          0.         -0.          0.09811471  0.          0.
  -0.00051145  0.87498659]
 [ 0.01702392 -0.61160105  0.0442979   0.51818971  0.         -0.          0.00254564 -0.          0.          0.1034312  -0.04300843  0.35061468 -0.
   0.         -0.         -0.         -0.00201664 -0.          0.          0.          0.         -0.          0.          0.15602556 -0.          0.
  -0.00038269 -0.44197104]
 [ 0.00279152  0.05263288 -0.00630093 -0.20314983 -0.         -0.         -0.01581711  0.         -0.          0.83026817 -0.02548603  0.11354705 -0.
  -0.          0.         -0.         -0.00711478  0.          0.         -0.          0.          0.          0.          0.48130026 -0.         -0.
  -0.00030748  0.14516852]]
grids:  [0.06237655 0.31939555 0.74529195 1.28265786 1.85893479 2.39630071 2.8221971  3.07921611] 
weights:  [0.15900941 0.34931531 0.49276925 0.56970235 0.56970235 0.49276925 0.34931531 0.15900941]
S = 0.0, Sz = 0.0
Wigner small d:  1
value : [1. 1. 1. 1. 1. 1. 1. 1.]
**** Start Cycle 1 ****
dm (ortho)
[[[ 0.97382146  0.         -0.         ...  0.01527968  0.01679961  0.00275474]
  [ 0.          0.         -0.         ...  0.          0.          0.        ]
  [-0.         -0.          0.         ... -0.         -0.         -0.        ]
  ...
  [ 0.01527968  0.         -0.         ...  0.00023974  0.00026359  0.00004322]
  [ 0.01679961  0.         -0.         ...  0.00026359  0.00028981  0.00004752]
  [ 0.00275474  0.         -0.         ...  0.00004322  0.00004752  0.00000779]]

 [[ 0.97382146  0.          0.         ... -0.01527968 -0.01679961 -0.00275474]
  [ 0.          0.          0.         ... -0.         -0.         -0.        ]
  [ 0.          0.          0.         ... -0.         -0.         -0.        ]
  ...
  [-0.01527968 -0.         -0.         ...  0.00023974  0.00026359  0.00004322]
  [-0.01679961 -0.         -0.         ...  0.00026359  0.00028981  0.00004752]
  [-0.00275474 -0.         -0.         ...  0.00004322  0.00004752  0.00000779]]]
Fock (ortho)
 (array([[-0.62041777, -0.        ,  0.        ,  0.08955896, -0.21078391, -0.        ,  0.        , -0.        , -0.        , -0.1062375 ,  0.        ,
        -0.        ,  0.00228876, -0.25905467,  0.        , -0.        , -0.        , -0.        ,  0.00759373,  0.        ,  0.        , -0.04650463,
         0.13893446,  0.        ,  0.        , -0.0112458 , -0.00029335, -0.00157972],
       [-0.        ,  1.4610099 ,  0.        ,  0.        ,  0.        , -0.        ,  0.        , -0.00286038,  0.01572643, -0.        , -0.11500491,
        -1.05645934, -0.        ,  0.        ,  0.        , -0.        , -0.54485078, -0.34116456, -0.        , -0.00242743,  0.00083349,  0.        ,
        -0.        , -0.00404241,  0.00222032,  0.        , -0.        ,  0.        ],
       [ 0.        ,  0.        ,  1.4610099 , -0.        , -0.        ,  0.        , -0.        ,  0.01572643,  0.00286038,  0.        , -1.05645934,
         0.11500491,  0.        , -0.        , -0.        ,  0.        ,  0.34116456, -0.54485078,  0.        ,  0.00083349,  0.00242743,  0.        ,
         0.        ,  0.00222032,  0.00404241,  0.        , -0.        ,  0.        ],
       [ 0.08955896,  0.        , -0.        ,  0.75091156,  0.00544181,  0.        ,  0.        , -0.        ,  0.        ,  0.02881069,  0.        ,
        -0.        ,  0.53785591,  0.01725562, -0.        , -0.        , -0.        ,  0.        ,  0.35407185, -0.        , -0.        , -0.00275008,
        -0.0089691 , -0.        ,  0.        ,  0.14105061, -0.04834653,  0.1534319 ],
       [-0.21078391,  0.        , -0.        ,  0.00544181,  1.81384711,  0.        , -0.        ,  0.        ,  0.        ,  0.43924763, -0.        ,
         0.        , -0.01246653,  1.39343181, -0.        ,  0.        ,  0.        ,  0.        , -0.00185274, -0.        ,  0.        ,  0.50442307,
        -0.09240929, -0.        ,  0.        ,  0.00661846, -0.00303054,  0.00021216],
       [-0.        , -0.        ,  0.        ,  0.        ,  0.        ,  3.17874803,  0.        , -0.        ,  0.        ,  0.        , -0.        ,
         0.        , -0.        , -0.        ,  0.00708747, -0.        ,  0.        ,  0.        ,  0.        ,  0.        ,  0.        ,  0.        ,
         0.        , -0.        , -0.        ,  0.        , -0.        ,  0.        ],
       [ 0.        ,  0.        , -0.        ,  0.        , -0.        ,  0.        ,  3.17874803,  0.        , -0.        , -0.        ,  0.        ,
         0.        ,  0.        ,  0.        ,  0.        ,  0.00708747,  0.        ,  0.        , -0.        , -0.        , -0.        , -0.        ,
         0.        , -0.        , -0.        ,  0.        ,  0.        ,  0.        ],
       [-0.        , -0.00286038,  0.01572643, -0.        ,  0.        , -0.        ,  0.        ,  2.7207758 , -0.        ,  0.        ,  0.00670893,
        -0.00198997,  0.        , -0.        ,  0.        ,  0.        ,  0.00595522, -0.00653056, -0.        ,  0.66751022,  1.19148696, -0.        ,
        -0.        , -0.23092568, -0.28429072, -0.        , -0.        , -0.        ],
       [-0.        ,  0.01572643,  0.00286038,  0.        ,  0.        ,  0.        , -0.        , -0.        ,  2.7207758 , -0.        ,  0.00198997,
         0.00670893, -0.        , -0.        ,  0.        ,  0.        , -0.00653056, -0.00595522,  0.        , -1.19148696,  0.66751022, -0.        ,
         0.        ,  0.28429072, -0.23092568, -0.        ,  0.        ,  0.        ],
       [-0.1062375 , -0.        ,  0.        ,  0.02881069,  0.43924763,  0.        , -0.        ,  0.        , -0.        ,  2.12244249,  0.        ,
         0.        , -0.00031397, -0.56807793, -0.        , -0.        , -0.        , -0.        ,  0.01423859, -0.        ,  0.        ,  0.79203961,
         0.83222074, -0.        ,  0.        , -0.00762471,  0.00144739, -0.00060627],
       [ 0.        , -0.11500491, -1.05645934,  0.        , -0.        , -0.        ,  0.        ,  0.00670893,  0.00198997,  0.        ,  3.25376608,
         0.        , -0.        ,  0.        , -0.        ,  0.        ,  0.32470564, -0.67047526, -0.        , -0.00096983, -0.00429028, -0.        ,
        -0.        , -0.00081281, -0.00195599, -0.        , -0.        ,  0.        ],
       [-0.        , -1.05645934,  0.11500491, -0.        ,  0.        ,  0.        ,  0.        , -0.00198997,  0.00670893,  0.        ,  0.        ,
         3.25376608,  0.        ,  0.        ,  0.        , -0.        , -0.67047526, -0.32470564, -0.        ,  0.00429028, -0.00096983, -0.        ,
        -0.        ,  0.00195599, -0.00081281, -0.        , -0.        , -0.        ],
       [ 0.00228876, -0.        ,  0.        ,  0.53785591, -0.01246653, -0.        ,  0.        ,  0.        , -0.        , -0.00031397, -0.        ,
         0.        ,  3.24761659,  0.00204604,  0.        , -0.        ,  0.        ,  0.        , -1.11441432, -0.        , -0.        ,  0.00427978,
        -0.00502196,  0.        ,  0.        , -0.71493319,  0.29093004,  0.80677934],
       [-0.25905467,  0.        , -0.        ,  0.01725562,  1.39343181, -0.        ,  0.        , -0.        , -0.        , -0.56807793,  0.        ,
         0.        ,  0.00204604,  2.8291727 ,  0.        ,  0.        ,  0.        , -0.        ,  0.00606046, -0.        ,  0.        ,  0.98063837,
        -1.53904887, -0.        , -0.        ,  0.00264923, -0.00146577, -0.00052801],
       [ 0.        ,  0.        , -0.        , -0.        , -0.        ,  0.00708747,  0.        ,  0.        ,  0.        , -0.        , -0.        ,
         0.        ,  0.        ,  0.        ,  4.20697866, -0.        ,  0.        , -0.        , -0.        , -0.        , -0.        ,  0.        ,
         0.        ,  0.        , -0.        ,  0.        ,  0.        , -0.        ],
       [-0.        , -0.        ,  0.        , -0.        ,  0.        , -0.        ,  0.00708747,  0.        ,  0.        , -0.        ,  0.        ,
        -0.        , -0.        ,  0.        , -0.        ,  4.20697866, -0.        , -0.        ,  0.        , -0.        ,  0.        ,  0.        ,
        -0.        ,  0.        , -0.        , -0.        ,  0.        ,  0.        ],
       [-0.        , -0.54485078,  0.34116456, -0.        ,  0.        ,  0.        ,  0.        ,  0.00595522, -0.00653056, -0.        ,  0.32470564,
        -0.67047526,  0.        ,  0.        ,  0.        , -0.        ,  3.64666693, -0.        ,  0.        ,  0.00420261,  0.00097819,  0.        ,
         0.        , -0.00077906, -0.00004458,  0.        ,  0.        ,  0.        ],
       [-0.        , -0.34116456, -0.54485078,  0.        ,  0.        ,  0.        ,  0.        , -0.00653056, -0.00595522, -0.        , -0.67047526,
        -0.32470564,  0.        , -0.        , -0.        , -0.        , -0.        ,  3.64666693, -0.        ,  0.00097819, -0.00420261, -0.        ,
        -0.        , -0.00004458,  0.00077906, -0.        ,  0.        , -0.        ],
       [ 0.00759373, -0.        ,  0.        ,  0.35407185, -0.00185274,  0.        , -0.        , -0.        ,  0.        ,  0.01423859, -0.        ,
        -0.        , -1.11441432,  0.00606046, -0.        ,  0.        ,  0.        , -0.        ,  2.89185761, -0.        ,  0.        ,  0.00632134,
        -0.00304177,  0.        , -0.        , -0.36291909, -0.87141264, -1.05174615],
       [ 0.        , -0.00242743,  0.00083349, -0.        , -0.        ,  0.        , -0.        ,  0.66751022, -1.19148696, -0.        , -0.00096983,
         0.00429028, -0.        , -0.        , -0.        , -0.        ,  0.00420261,  0.00097819, -0.        ,  3.75900663,  0.        ,  0.        ,
         0.        ,  1.91810967, -0.33226412,  0.        , -0.        , -0.        ],
       [ 0.        ,  0.00083349,  0.00242743, -0.        ,  0.        ,  0.        , -0.        ,  1.19148696,  0.66751022,  0.        , -0.00429028,
        -0.00096983, -0.        ,  0.        , -0.        ,  0.        ,  0.00097819, -0.00420261,  0.        ,  0.        ,  3.75900663, -0.        ,
        -0.        ,  0.33226412,  1.91810967, -0.        , -0.        ,  0.        ],
       [-0.04650463,  0.        ,  0.        , -0.00275008,  0.50442307,  0.        , -0.        , -0.        , -0.        ,  0.79203961, -0.        ,
        -0.        ,  0.00427978,  0.98063837,  0.        ,  0.        ,  0.        , -0.        ,  0.00632134,  0.        , -0.        ,  1.82390742,
        -0.46819851,  0.        , -0.        , -0.00224558, -0.00054254, -0.00180675],
       [ 0.13893446, -0.        ,  0.        , -0.0089691 , -0.09240929,  0.        ,  0.        , -0.        ,  0.        ,  0.83222074, -0.        ,
        -0.        , -0.00502196, -1.53904887,  0.        , -0.        ,  0.        , -0.        , -0.00304177,  0.        , -0.        , -0.46819851,
         5.12626371, -0.        ,  0.        ,  0.00431341, -0.00049203,  0.00023147],
       [ 0.        , -0.00404241,  0.00222032, -0.        , -0.        , -0.        , -0.        , -0.23092568,  0.28429072, -0.        , -0.00081281,
         0.00195599,  0.        , -0.        ,  0.        ,  0.        , -0.00077906, -0.00004458,  0.        ,  1.91810967,  0.33226412,  0.        ,
        -0.        ,  4.6889916 , -0.        , -0.        ,  0.        , -0.        ],
       [ 0.        ,  0.00222032,  0.00404241,  0.        ,  0.        , -0.        , -0.        , -0.28429072, -0.23092568,  0.        , -0.00195599,
        -0.00081281,  0.        , -0.        , -0.        , -0.        , -0.00004458,  0.00077906, -0.        , -0.33226412,  1.91810967, -0.        ,
         0.        , -0.        ,  4.6889916 , -0.        , -0.        ,  0.        ],
       [-0.0112458 ,  0.        ,  0.        ,  0.14105061,  0.00661846,  0.        ,  0.        , -0.        , -0.        , -0.00762471, -0.        ,
        -0.        , -0.71493319,  0.00264923,  0.        , -0.        ,  0.        , -0.        , -0.36291909,  0.        , -0.        , -0.00224558,
         0.00431341, -0.        , -0.        ,  6.35251859, -2.87531076,  1.07605023],
       [-0.00029335, -0.        , -0.        , -0.04834653, -0.00303054, -0.        ,  0.        , -0.        ,  0.        ,  0.00144739, -0.        ,
        -0.        ,  0.29093004, -0.00146577,  0.        ,  0.        ,  0.        ,  0.        , -0.87141264, -0.        , -0.        , -0.00054254,
        -0.00049203,  0.        , -0.        , -2.87531076,  2.29226515,  0.01374164],
       [-0.00157972,  0.        ,  0.        ,  0.1534319 ,  0.00021216,  0.        ,  0.        , -0.        ,  0.        , -0.00060627,  0.        ,
        -0.        ,  0.80677934, -0.00052801, -0.        ,  0.        ,  0.        , -0.        , -1.05174615, -0.        ,  0.        , -0.00180675,
         0.00023147, -0.        ,  0.        ,  1.07605023,  0.01374164,  2.48747475]]), array([[-0.62041777, -0.        , -0.        , -0.08955896, -0.21078391,  0.        , -0.        , -0.        , -0.        , -0.1062375 ,  0.        ,
        -0.        , -0.00228876, -0.25905467, -0.        , -0.        , -0.        , -0.        , -0.00759373,  0.        , -0.        , -0.04650463,
         0.13893446,  0.        ,  0.        ,  0.0112458 ,  0.00029335,  0.00157972],
       [-0.        ,  1.4610099 ,  0.        ,  0.        ,  0.        , -0.        ,  0.        ,  0.00286038, -0.01572643, -0.        , -0.11500491,
        -1.05645934, -0.        ,  0.        ,  0.        , -0.        , -0.54485078, -0.34116456, -0.        ,  0.00242743, -0.00083349,  0.        ,
        -0.        ,  0.00404241, -0.00222032,  0.        , -0.        ,  0.        ],
       [-0.        ,  0.        ,  1.4610099 , -0.        , -0.        ,  0.        , -0.        , -0.01572643, -0.00286038, -0.        , -1.05645934,
         0.11500491,  0.        , -0.        , -0.        ,  0.        ,  0.34116456, -0.54485078,  0.        , -0.00083349, -0.00242743,  0.        ,
         0.        , -0.00222032, -0.00404241,  0.        , -0.        ,  0.        ],
       [-0.08955896,  0.        , -0.        ,  0.75091156, -0.00544181,  0.        ,  0.        ,  0.        ,  0.        , -0.02881069,  0.        ,
        -0.        ,  0.53785591, -0.01725562, -0.        , -0.        , -0.        ,  0.        ,  0.35407185, -0.        , -0.        ,  0.00275008,
         0.0089691 , -0.        ,  0.        ,  0.14105061, -0.04834653,  0.1534319 ],
       [-0.21078391,  0.        , -0.        , -0.00544181,  1.81384711, -0.        ,  0.        ,  0.        ,  0.        ,  0.43924763, -0.        ,
         0.        ,  0.01246653,  1.39343181, -0.        , -0.        ,  0.        ,  0.        ,  0.00185274, -0.        ,  0.        ,  0.50442307,
        -0.09240929, -0.        ,  0.        , -0.00661846,  0.00303054, -0.00021216],
       [ 0.        , -0.        ,  0.        ,  0.        , -0.        ,  3.17874803,  0.        , -0.        ,  0.        ,  0.        , -0.        ,
         0.        , -0.        , -0.        , -0.00708747,  0.        ,  0.        ,  0.        ,  0.        ,  0.        ,  0.        ,  0.        ,
         0.        , -0.        , -0.        ,  0.        , -0.        ,  0.        ],
       [-0.        ,  0.        , -0.        ,  0.        ,  0.        ,  0.        ,  3.17874803,  0.        , -0.        , -0.        ,  0.        ,
         0.        ,  0.        , -0.        , -0.        , -0.00708747,  0.        ,  0.        , -0.        , -0.        , -0.        ,  0.        ,
         0.        , -0.        , -0.        ,  0.        ,  0.        ,  0.        ],
       [-0.        ,  0.00286038, -0.01572643,  0.        ,  0.        , -0.        ,  0.        ,  2.7207758 , -0.        ,  0.        , -0.00670893,
         0.00198997,  0.        , -0.        ,  0.        ,  0.        , -0.00595522,  0.00653056, -0.        ,  0.66751022,  1.19148696, -0.        ,
        -0.        , -0.23092568, -0.28429072, -0.        , -0.        , -0.        ],
       [-0.        , -0.01572643, -0.00286038,  0.        ,  0.        ,  0.        , -0.        , -0.        ,  2.7207758 , -0.        , -0.00198997,
        -0.00670893, -0.        , -0.        ,  0.        ,  0.        ,  0.00653056,  0.00595522,  0.        , -1.19148696,  0.66751022, -0.        ,
         0.        ,  0.28429072, -0.23092568, -0.        ,  0.        ,  0.        ],
       [-0.1062375 , -0.        , -0.        , -0.02881069,  0.43924763,  0.        , -0.        ,  0.        , -0.        ,  2.12244249,  0.        ,
         0.        ,  0.00031397, -0.56807793, -0.        , -0.        , -0.        , -0.        , -0.01423859, -0.        ,  0.        ,  0.79203961,
         0.83222074, -0.        ,  0.        ,  0.00762471, -0.00144739,  0.00060627],
       [ 0.        , -0.11500491, -1.05645934,  0.        , -0.        , -0.        ,  0.        , -0.00670893, -0.00198997,  0.        ,  3.25376608,
         0.        , -0.        ,  0.        , -0.        ,  0.        ,  0.32470564, -0.67047526, -0.        ,  0.00096983,  0.00429028, -0.        ,
        -0.        ,  0.00081281,  0.00195599, -0.        , -0.        ,  0.        ],
       [-0.        , -1.05645934,  0.11500491, -0.        ,  0.        ,  0.        ,  0.        ,  0.00198997, -0.00670893,  0.        ,  0.        ,
         3.25376608,  0.        ,  0.        ,  0.        , -0.        , -0.67047526, -0.32470564, -0.        , -0.00429028,  0.00096983, -0.        ,
        -0.        , -0.00195599,  0.00081281, -0.        , -0.        , -0.        ],
       [-0.00228876, -0.        ,  0.        ,  0.53785591,  0.01246653, -0.        ,  0.        ,  0.        , -0.        ,  0.00031397, -0.        ,
         0.        ,  3.24761659, -0.00204604,  0.        , -0.        ,  0.        ,  0.        , -1.11441432, -0.        , -0.        , -0.00427978,
         0.00502196,  0.        ,  0.        , -0.71493319,  0.29093004,  0.80677934],
       [-0.25905467,  0.        , -0.        , -0.01725562,  1.39343181, -0.        , -0.        , -0.        , -0.        , -0.56807793,  0.        ,
         0.        , -0.00204604,  2.8291727 ,  0.        ,  0.        ,  0.        , -0.        , -0.00606046, -0.        ,  0.        ,  0.98063837,
        -1.53904887, -0.        , -0.        , -0.00264923,  0.00146577,  0.00052801],
       [-0.        ,  0.        , -0.        , -0.        , -0.        , -0.00708747, -0.        ,  0.        ,  0.        , -0.        , -0.        ,
         0.        ,  0.        ,  0.        ,  4.20697866, -0.        ,  0.        , -0.        , -0.        , -0.        , -0.        ,  0.        ,
         0.        ,  0.        , -0.        ,  0.        ,  0.        , -0.        ],
       [-0.        , -0.        ,  0.        , -0.        , -0.        ,  0.        , -0.00708747,  0.        ,  0.        , -0.        ,  0.        ,
        -0.        , -0.        ,  0.        , -0.        ,  4.20697866, -0.        , -0.        ,  0.        , -0.        ,  0.        , -0.        ,
        -0.        ,  0.        , -0.        , -0.        ,  0.        ,  0.        ],
       [-0.        , -0.54485078,  0.34116456, -0.        ,  0.        ,  0.        ,  0.        , -0.00595522,  0.00653056, -0.        ,  0.32470564,
        -0.67047526,  0.        ,  0.        ,  0.        , -0.        ,  3.64666693, -0.        ,  0.        , -0.00420261, -0.00097819,  0.        ,
         0.        ,  0.00077906,  0.00004458,  0.        ,  0.        ,  0.        ],
       [-0.        , -0.34116456, -0.54485078,  0.        ,  0.        ,  0.        ,  0.        ,  0.00653056,  0.00595522, -0.        , -0.67047526,
        -0.32470564,  0.        , -0.        , -0.        , -0.        , -0.        ,  3.64666693, -0.        , -0.00097819,  0.00420261, -0.        ,
        -0.        ,  0.00004458, -0.00077906, -0.        ,  0.        , -0.        ],
       [-0.00759373, -0.        ,  0.        ,  0.35407185,  0.00185274,  0.        , -0.        , -0.        ,  0.        , -0.01423859, -0.        ,
        -0.        , -1.11441432, -0.00606046, -0.        ,  0.        ,  0.        , -0.        ,  2.89185761, -0.        ,  0.        , -0.00632134,
         0.00304177,  0.        , -0.        , -0.36291909, -0.87141264, -1.05174615],
       [ 0.        ,  0.00242743, -0.00083349, -0.        , -0.        ,  0.        , -0.        ,  0.66751022, -1.19148696, -0.        ,  0.00096983,
        -0.00429028, -0.        , -0.        , -0.        , -0.        , -0.00420261, -0.00097819, -0.        ,  3.75900663,  0.        ,  0.        ,
         0.        ,  1.91810967, -0.33226412,  0.        , -0.        , -0.        ],
       [-0.        , -0.00083349, -0.00242743, -0.        ,  0.        ,  0.        , -0.        ,  1.19148696,  0.66751022,  0.        ,  0.00429028,
         0.00096983, -0.        ,  0.        , -0.        ,  0.        , -0.00097819,  0.00420261,  0.        ,  0.        ,  3.75900663, -0.        ,
        -0.        ,  0.33226412,  1.91810967, -0.        , -0.        ,  0.        ],
       [-0.04650463,  0.        ,  0.        ,  0.00275008,  0.50442307,  0.        ,  0.        , -0.        , -0.        ,  0.79203961, -0.        ,
        -0.        , -0.00427978,  0.98063837,  0.        , -0.        ,  0.        , -0.        , -0.00632134,  0.        , -0.        ,  1.82390742,
        -0.46819851,  0.        , -0.        ,  0.00224558,  0.00054254,  0.00180675],
       [ 0.13893446, -0.        ,  0.        ,  0.0089691 , -0.09240929,  0.        ,  0.        , -0.        ,  0.        ,  0.83222074, -0.        ,
        -0.        ,  0.00502196, -1.53904887,  0.        , -0.        ,  0.        , -0.        ,  0.00304177,  0.        , -0.        , -0.46819851,
         5.12626371, -0.        ,  0.        , -0.00431341,  0.00049203, -0.00023147],
       [ 0.        ,  0.00404241, -0.00222032, -0.        , -0.        , -0.        , -0.        , -0.23092568,  0.28429072, -0.        ,  0.00081281,
        -0.00195599,  0.        , -0.        ,  0.        ,  0.        ,  0.00077906,  0.00004458,  0.        ,  1.91810967,  0.33226412,  0.        ,
        -0.        ,  4.6889916 , -0.        , -0.        ,  0.        , -0.        ],
       [ 0.        , -0.00222032, -0.00404241,  0.        ,  0.        , -0.        , -0.        , -0.28429072, -0.23092568,  0.        ,  0.00195599,
         0.00081281,  0.        , -0.        , -0.        , -0.        ,  0.00004458, -0.00077906, -0.        , -0.33226412,  1.91810967, -0.        ,
         0.        , -0.        ,  4.6889916 , -0.        , -0.        ,  0.        ],
       [ 0.0112458 ,  0.        ,  0.        ,  0.14105061, -0.00661846,  0.        ,  0.        , -0.        , -0.        ,  0.00762471, -0.        ,
        -0.        , -0.71493319, -0.00264923,  0.        , -0.        ,  0.        , -0.        , -0.36291909,  0.        , -0.        ,  0.00224558,
        -0.00431341, -0.        , -0.        ,  6.35251859, -2.87531076,  1.07605023],
       [ 0.00029335, -0.        , -0.        , -0.04834653,  0.00303054, -0.        ,  0.        , -0.        ,  0.        , -0.00144739, -0.        ,
        -0.        ,  0.29093004,  0.00146577,  0.        ,  0.        ,  0.        ,  0.        , -0.87141264, -0.        , -0.        ,  0.00054254,
         0.00049203,  0.        , -0.        , -2.87531076,  2.29226515,  0.01374164],
       [ 0.00157972,  0.        ,  0.        ,  0.1534319 , -0.00021216,  0.        ,  0.        , -0.        ,  0.        ,  0.00060627,  0.        ,
        -0.        ,  0.80677934,  0.00052801, -0.        ,  0.        ,  0.        , -0.        , -1.05174615, -0.        ,  0.        ,  0.00180675,
        -0.00023147, -0.        ,  0.        ,  1.07605023,  0.01374164,  2.48747475]]))
E(UHF) =    -1.979411
NO eigenvalue
[-1. -0. -0. -0. -0. -0. -0. -0. -0. -0. -0. -0. -0. -0.  0.  0.  0.  0.  0.  0.  0.  0.  0.  0.  0.  0.  0.  0.] [-1. -0. -0. -0. -0. -0. -0. -0. -0. -0. -0. -0. -0. -0.  0.  0.  0.  0.  0.  0.  0.  0.  0.  0.  0.  0.  0.  0.]
NO vec
[[ 0.98682393  0.          0.15136741 ...  0.          0.          0.        ]
 [ 0.          0.         -0.33840852 ...  0.          0.          0.        ]
 [-0.          0.          0.         ...  0.          0.          0.        ]
 ...
 [ 0.         -0.01548369  0.         ...  0.67472272 -0.02980933  0.03445527]
 [ 0.         -0.01702392  0.         ...  0.33821564 -0.10014713 -0.02502379]
 [ 0.         -0.00279152  0.         ...  0.07302466 -0.024256    0.00969329]]
dm(NO)
[[ 1.  0. -0. ...  0.  0.  0.]
 [ 0.  1.  0. ... -0.  0. -0.]
 [-0.  0.  0. ...  0.  0.  0.]
 ...
 [ 0.  0.  0. ... -0. -0. -0.]
 [ 0. -0.  0. ... -0. -0.  0.]
 [ 0. -0.  0. ... -0. -0.  0.]]
D(g) (NO)
[[ 0.99951369  0.03021409 -0.         ...  0.00067591 -0.00136597  0.00612031]
 [-0.03021409  0.99951369 -0.00536541 ...  0.          0.         -0.        ]
 [-0.          0.00536541  0.99951369 ... -0.00293845  0.01050079 -0.01383379]
 ...
 [-0.00067591  0.          0.00293845 ...  0.99951369  0.          0.        ]
 [ 0.00136597  0.         -0.01050079 ...  0.          0.99951369 -0.        ]
 [-0.00612031  0.          0.01383379 ... -0.         -0.          0.99951369]]
...
N(g) (NO)
[[ 0.99957316 -0.03021589]
 [ 0.03021589  0.99957316]]
...
P(g) (NO)
[[ 1.          0.         -0.         ... -0.          0.         -0.        ]
 [ 0.          1.          0.         ... -0.          0.         -0.        ]
 [ 0.00016212  0.00536312 -0.         ... -0.          0.         -0.        ]
 ...
 [-0.00067562  0.00002042  0.         ... -0.          0.         -0.        ]
 [ 0.00136539 -0.00004127 -0.         ...  0.         -0.          0.        ]
 [-0.0061177   0.00018493  0.         ... -0.          0.         -0.        ]]
...
Pg_ortho
[[ 0.97384998  0.         -0.         ... -0.0000148  -0.00001627 -0.00000267]
 [ 0.          0.         -0.         ...  0.          0.          0.        ]
 [-0.         -0.          0.         ... -0.         -0.         -0.        ]
 ...
 [-0.00093773 -0.          0.         ...  0.0002393   0.0002631   0.00004314]
 [-0.00103101 -0.          0.         ...  0.0002631   0.00028928  0.00004743]
 [-0.00016906 -0.          0.         ...  0.00004314  0.00004743  0.00000778]]
G(g) (NO)
[[ 0.66471676 -0.00033461  0.05454274 ... -0.00003363  0.0002114   0.00086368]
 [ 0.00033461  0.66471676 -0.00066421 ...  0.06107947 -0.06339527  0.02687355]
 [ 0.05446939 -0.00301697  1.15921635 ... -0.00017193  0.00027468 -0.00032947]
 ...
 [ 0.0000493   0.06107723  0.00013579 ...  0.87277401  0.16875209 -0.00362678]
 [-0.00008159 -0.06339234  0.00035105 ...  0.16875131  1.08926239  0.11514361]
 [ 0.00393674  0.02678493 -0.00030841 ... -0.0036369   0.11514574  1.20670984]]
...
C(NO)
[[-1.          0.         -0.         ...  0.          0.          0.        ]
 [ 0.         -1.          0.         ... -0.          0.          0.        ]
 [ 0.          0.         -0.51529593 ...  0.          0.          0.        ]
 ...
 [ 0.         -0.          0.         ... -0.00001936 -0.1860434   0.4440915 ]
 [ 0.          0.          0.         ... -0.0001575  -0.0142531   0.04867542]
 [ 0.          0.          0.         ... -0.00167823 -0.08617587  0.01863894]]
detC 0.9999999999999993
detNg [1.00005951 1.00154976 1.00817754 1.02239174 1.04089675 1.05605546 1.06342691 1.06511216]
xg [0.9999405  0.99845264 0.99188879 0.97809867 0.96071008 0.94691996 0.94035612 0.93886826]
ciS 1.938808753896539
[[-1.32205876  0.         -0.09540747 ...  0.          0.          0.        ]
 [ 0.         -1.32205876  0.         ... -0.07748072  0.0743943  -0.07219768]
 [-0.09540747  0.          0.43847857 ...  0.          0.          0.        ]
 ...
 [ 0.         -0.07748072  0.         ...  1.61917498  0.81700421  0.08226003]
 [ 0.          0.0743943   0.         ...  0.81700421  1.39815387  0.14230694]
 [ 0.         -0.07219768  0.         ...  0.08226003  0.14230694 -0.17819856]]
ciH -3.870240704122939
S2 = 0.000000
X(g)
[[ 2.          0.          0.00016212 ...  0.00067562 -0.00136539  0.0061177 ]
 [ 0.          2.         -0.00536312 ...  0.00002042 -0.00004127  0.00018493]
 [ 0.00016212  0.00536312  0.         ...  0.          0.          0.        ]
 ...
 [-0.00067562  0.00002042  0.         ...  0.          0.          0.        ]
 [ 0.00136539 -0.00004127  0.         ...  0.          0.          0.        ]
 [-0.0061177   0.00018493  0.         ...  0.          0.          0.        ]]
X(g) int
[[ 2.         -0.          0.08598758 ...  0.00878055 -0.017745    0.07950734]
 [-0.          2.         -0.06970068 ...  0.01083229 -0.02189145  0.09808575]
 [ 0.08598758  0.06970068  0.         ...  0.          0.          0.        ]
 ...
 [-0.00878055  0.01083229  0.         ...  0.          0.          0.        ]
 [ 0.017745   -0.02189145  0.         ...  0.          0.          0.        ]
 [-0.07950734  0.09808575  0.         ...  0.          0.          0.        ]]
Hsp + Hph =  -1.9961951875576622
Feff (mod,ortho)
[[-0.60436389  0.          0.         ...  0.          0.          0.        ]
 [ 0.          1.4610099   0.         ...  0.          0.          0.        ]
 [ 0.          0.          1.4610099  ...  0.          0.          0.        ]
 ...
 [ 0.          0.          0.         ...  6.35208117 -2.87552794  1.07598181]
 [ 0.          0.          0.         ... -2.87552794  2.29231635  0.01371397]
 [ 0.          0.          0.         ...  1.07598181  0.01371397  2.4874643 ]]
E(SUHF) =     -1.11423317
e_a, e_b
[-0.65966351  0.17686931  0.28663905  0.67488583  0.6897058   0.6897058   1.11492035  1.12413759  1.12413759  1.56016684  2.28530333  2.47291259  3.17869918
  3.17869918  3.43968701  3.43968701  3.68012686  3.72176039  3.72176039  4.20702751  4.20702751  4.23166464  4.23166464  5.05280223  6.32326152  6.32326152
  6.38228679  8.09061025] [-0.65966351  0.17686931  0.28663905  0.67488583  0.6897058   0.6897058   1.11492035  1.12413759  1.12413759  1.56016684  2.28530333  2.47291259  3.17869918
  3.17869918  3.43968701  3.43968701  3.68012686  3.72176039  3.72176039  4.20702751  4.20702751  4.23166464  4.23166464  5.05280223  6.32326152  6.32326152
  6.38228679  8.09061025]
P_a, P_b
[[ 0.96849933 -0.         -0.         -0.12841482  0.03904162  0.         -0.         -0.          0.          0.06276181 -0.          0.          0.0225568
   0.07141871  0.         -0.          0.          0.          0.02085674  0.         -0.         -0.04114232 -0.01610161 -0.          0.          0.01605128
   0.01708617  0.00295602]
 [-0.          0.          0.          0.         -0.         -0.          0.          0.         -0.         -0.          0.         -0.         -0.
  -0.         -0.          0.         -0.         -0.         -0.         -0.          0.          0.          0.          0.         -0.         -0.
  -0.         -0.        ]
 [-0.          0.          0.          0.         -0.         -0.          0.          0.         -0.         -0.          0.         -0.         -0.
  -0.         -0.          0.         -0.         -0.         -0.         -0.          0.          0.          0.          0.         -0.         -0.
  -0.         -0.        ]
 [-0.12841482  0.          0.          0.01702672 -0.00517659 -0.          0.          0.         -0.         -0.00832169  0.         -0.         -0.00299084
  -0.00946952 -0.          0.         -0.         -0.         -0.00276543 -0.          0.          0.00545512  0.00213494  0.         -0.         -0.00212826
  -0.00226548 -0.00039194]
 [ 0.03904162 -0.         -0.         -0.00517659  0.00157382  0.         -0.         -0.          0.          0.00253002 -0.          0.          0.0009093
   0.00287899  0.         -0.          0.          0.          0.00084077  0.         -0.         -0.00165851 -0.00064908 -0.          0.          0.00064705
   0.00068877  0.00011916]
 [ 0.         -0.         -0.         -0.          0.          0.         -0.         -0.          0.          0.         -0.          0.          0.
   0.          0.         -0.          0.          0.          0.          0.         -0.         -0.         -0.         -0.          0.          0.
   0.          0.        ]
 [-0.          0.          0.          0.         -0.         -0.          0.          0.         -0.         -0.          0.         -0.         -0.
  -0.         -0.          0.         -0.         -0.         -0.         -0.          0.          0.          0.          0.         -0.         -0.
  -0.         -0.        ]
 [-0.          0.          0.          0.         -0.         -0.          0.          0.         -0.         -0.          0.         -0.         -0.
  -0.         -0.          0.         -0.         -0.         -0.         -0.          0.          0.          0.          0.         -0.         -0.
  -0.         -0.        ]
 [ 0.         -0.         -0.         -0.          0.          0.         -0.         -0.          0.          0.         -0.          0.          0.
   0.          0.         -0.          0.          0.          0.          0.         -0.         -0.         -0.         -0.          0.          0.
   0.          0.        ]
 [ 0.06276181 -0.         -0.         -0.00832169  0.00253002  0.         -0.         -0.          0.          0.00406716 -0.          0.          0.00146175
   0.00462816  0.         -0.          0.          0.          0.00135158  0.         -0.         -0.00266615 -0.00104344 -0.          0.          0.00104017
   0.00110724  0.00019156]
 [-0.          0.          0.          0.         -0.         -0.          0.          0.         -0.         -0.          0.         -0.         -0.
  -0.         -0.          0.         -0.         -0.         -0.         -0.          0.          0.          0.          0.         -0.         -0.
  -0.         -0.        ]
 [ 0.         -0.         -0.         -0.          0.          0.         -0.         -0.          0.          0.         -0.          0.          0.
   0.          0.         -0.          0.          0.          0.          0.         -0.         -0.         -0.         -0.          0.          0.
   0.          0.        ]
 [ 0.0225568  -0.         -0.         -0.00299084  0.0009093   0.         -0.         -0.          0.          0.00146175 -0.          0.          0.00052536
   0.00166338  0.         -0.          0.          0.          0.00048576  0.         -0.         -0.00095822 -0.00037501 -0.          0.          0.00037384
   0.00039794  0.00006885]
 [ 0.07141871 -0.         -0.         -0.00946952  0.00287899  0.         -0.         -0.          0.          0.00462816 -0.          0.          0.00166338
   0.00526653  0.         -0.          0.          0.          0.00153801  0.         -0.         -0.0030339  -0.00118736 -0.          0.          0.00118365
   0.00125996  0.00021798]
 [ 0.         -0.         -0.         -0.          0.          0.         -0.         -0.          0.          0.         -0.          0.          0.
   0.          0.         -0.          0.          0.          0.          0.         -0.         -0.         -0.         -0.          0.          0.
   0.          0.        ]
 [-0.          0.          0.          0.         -0.         -0.          0.          0.         -0.         -0.          0.         -0.         -0.
  -0.         -0.          0.         -0.         -0.         -0.         -0.          0.          0.          0.          0.         -0.         -0.
  -0.         -0.        ]
 [ 0.         -0.         -0.         -0.          0.          0.         -0.         -0.          0.          0.         -0.          0.          0.
   0.          0.         -0.          0.          0.          0.          0.         -0.         -0.         -0.         -0.          0.          0.
   0.          0.        ]
 [ 0.         -0.         -0.         -0.          0.          0.         -0.         -0.          0.          0.         -0.          0.          0.
   0.          0.         -0.          0.          0.          0.          0.         -0.         -0.         -0.         -0.          0.          0.
   0.          0.        ]
 [ 0.02085674 -0.         -0.         -0.00276543  0.00084077  0.         -0.         -0.          0.          0.00135158 -0.          0.          0.00048576
   0.00153801  0.         -0.          0.          0.          0.00044915  0.         -0.         -0.000886   -0.00034675 -0.          0.          0.00034567
   0.00036795  0.00006366]
 [ 0.         -0.         -0.         -0.          0.          0.         -0.         -0.          0.          0.         -0.          0.          0.
   0.          0.         -0.          0.          0.          0.          0.         -0.         -0.         -0.         -0.          0.          0.
   0.          0.        ]
 [-0.          0.          0.          0.         -0.         -0.          0.          0.         -0.         -0.          0.         -0.         -0.
  -0.         -0.          0.         -0.         -0.         -0.         -0.          0.          0.          0.          0.         -0.         -0.
  -0.         -0.        ]
 [-0.04114232  0.          0.          0.00545512 -0.00165851 -0.          0.          0.         -0.         -0.00266615  0.         -0.         -0.00095822
  -0.0030339  -0.          0.         -0.         -0.         -0.000886   -0.          0.          0.00174775  0.000684    0.         -0.         -0.00068187
  -0.00072583 -0.00012557]
 [-0.01610161  0.          0.          0.00213494 -0.00064908 -0.          0.          0.         -0.         -0.00104344  0.         -0.         -0.00037501
  -0.00118736 -0.          0.         -0.         -0.         -0.00034675 -0.          0.          0.000684    0.00026769  0.         -0.         -0.00026686
  -0.00028406 -0.00004914]
 [-0.          0.          0.          0.         -0.         -0.          0.          0.         -0.         -0.          0.         -0.         -0.
  -0.         -0.          0.         -0.         -0.         -0.         -0.          0.          0.          0.          0.         -0.         -0.
  -0.         -0.        ]
 [ 0.         -0.         -0.         -0.          0.          0.         -0.         -0.          0.          0.         -0.          0.          0.
   0.          0.         -0.          0.          0.          0.          0.         -0.         -0.         -0.         -0.          0.          0.
   0.          0.        ]
 [ 0.01605128 -0.         -0.         -0.00212826  0.00064705  0.         -0.         -0.          0.          0.00104017 -0.          0.          0.00037384
   0.00118365  0.         -0.          0.          0.          0.00034567  0.         -0.         -0.00068187 -0.00026686 -0.          0.          0.00026602
   0.00028318  0.00004899]
 [ 0.01708617 -0.         -0.         -0.00226548  0.00068877  0.         -0.         -0.          0.          0.00110724 -0.          0.          0.00039794
   0.00125996  0.         -0.          0.          0.          0.00036795  0.         -0.         -0.00072583 -0.00028406 -0.          0.          0.00028318
   0.00030143  0.00005215]
 [ 0.00295602 -0.         -0.         -0.00039194  0.00011916  0.         -0.         -0.          0.          0.00019156 -0.          0.          0.00006885
   0.00021798  0.         -0.          0.          0.          0.00006366  0.         -0.         -0.00012557 -0.00004914 -0.          0.          0.00004899
   0.00005215  0.00000902]] 
 [[ 0.96849933 -0.          0.          0.12841482  0.03904162 -0.          0.          0.          0.          0.06276181 -0.          0.         -0.0225568
   0.07141871  0.          0.          0.          0.         -0.02085674  0.         -0.         -0.04114232 -0.01610161  0.         -0.         -0.01605128
  -0.01708617 -0.00295602]
 [-0.          0.         -0.         -0.         -0.          0.         -0.         -0.         -0.         -0.          0.         -0.          0.
  -0.         -0.         -0.         -0.         -0.          0.         -0.          0.          0.          0.         -0.          0.          0.
   0.          0.        ]
 [ 0.         -0.          0.          0.          0.         -0.          0.          0.          0.          0.         -0.          0.         -0.
   0.          0.          0.          0.          0.         -0.          0.         -0.         -0.         -0.          0.         -0.         -0.
  -0.         -0.        ]
 [ 0.12841482 -0.          0.          0.01702672  0.00517659 -0.          0.          0.          0.          0.00832169 -0.          0.         -0.00299084
   0.00946952  0.          0.          0.          0.         -0.00276543  0.         -0.         -0.00545512 -0.00213494  0.         -0.         -0.00212826
  -0.00226548 -0.00039194]
 [ 0.03904162 -0.          0.          0.00517659  0.00157382 -0.          0.          0.          0.          0.00253002 -0.          0.         -0.0009093
   0.00287899  0.          0.          0.          0.         -0.00084077  0.         -0.         -0.00165851 -0.00064908  0.         -0.         -0.00064705
  -0.00068877 -0.00011916]
 [-0.          0.         -0.         -0.         -0.          0.         -0.         -0.         -0.         -0.          0.         -0.          0.
  -0.         -0.         -0.         -0.         -0.          0.         -0.          0.          0.          0.         -0.          0.          0.
   0.          0.        ]
 [ 0.         -0.          0.          0.          0.         -0.          0.          0.          0.          0.         -0.          0.         -0.
   0.          0.          0.          0.          0.         -0.          0.         -0.         -0.         -0.          0.         -0.         -0.
  -0.         -0.        ]
 [ 0.         -0.          0.          0.          0.         -0.          0.          0.          0.          0.         -0.          0.         -0.
   0.          0.          0.          0.          0.         -0.          0.         -0.         -0.         -0.          0.         -0.         -0.
  -0.         -0.        ]
 [ 0.         -0.          0.          0.          0.         -0.          0.          0.          0.          0.         -0.          0.         -0.
   0.          0.          0.          0.          0.         -0.          0.         -0.         -0.         -0.          0.         -0.         -0.
  -0.         -0.        ]
 [ 0.06276181 -0.          0.          0.00832169  0.00253002 -0.          0.          0.          0.          0.00406716 -0.          0.         -0.00146175
   0.00462816  0.          0.          0.          0.         -0.00135158  0.         -0.         -0.00266615 -0.00104344  0.         -0.         -0.00104017
  -0.00110724 -0.00019156]
 [-0.          0.         -0.         -0.         -0.          0.         -0.         -0.         -0.         -0.          0.         -0.          0.
  -0.         -0.         -0.         -0.         -0.          0.         -0.          0.          0.          0.         -0.          0.          0.
   0.          0.        ]
 [ 0.         -0.          0.          0.          0.         -0.          0.          0.          0.          0.         -0.          0.         -0.
   0.          0.          0.          0.          0.         -0.          0.         -0.         -0.         -0.          0.         -0.         -0.
  -0.         -0.        ]
 [-0.0225568   0.         -0.         -0.00299084 -0.0009093   0.         -0.         -0.         -0.         -0.00146175  0.         -0.          0.00052536
  -0.00166338 -0.         -0.         -0.         -0.          0.00048576 -0.          0.          0.00095822  0.00037501 -0.          0.          0.00037384
   0.00039794  0.00006885]
 [ 0.07141871 -0.          0.          0.00946952  0.00287899 -0.          0.          0.          0.          0.00462816 -0.          0.         -0.00166338
   0.00526653  0.          0.          0.          0.         -0.00153801  0.         -0.         -0.0030339  -0.00118736  0.         -0.         -0.00118365
  -0.00125996 -0.00021798]
 [ 0.         -0.          0.          0.          0.         -0.          0.          0.          0.          0.         -0.          0.         -0.
   0.          0.          0.          0.          0.         -0.          0.         -0.         -0.         -0.          0.         -0.         -0.
  -0.         -0.        ]
 [ 0.         -0.          0.          0.          0.         -0.          0.          0.          0.          0.         -0.          0.         -0.
   0.          0.          0.          0.          0.         -0.          0.         -0.         -0.         -0.          0.         -0.         -0.
  -0.         -0.        ]
 [ 0.         -0.          0.          0.          0.         -0.          0.          0.          0.          0.         -0.          0.         -0.
   0.          0.          0.          0.          0.         -0.          0.         -0.         -0.         -0.          0.         -0.         -0.
  -0.         -0.        ]
 [ 0.         -0.          0.          0.          0.         -0.          0.          0.          0.          0.         -0.          0.         -0.
   0.          0.          0.          0.          0.         -0.          0.         -0.         -0.         -0.          0.         -0.         -0.
  -0.         -0.        ]
 [-0.02085674  0.         -0.         -0.00276543 -0.00084077  0.         -0.         -0.         -0.         -0.00135158  0.         -0.          0.00048576
  -0.00153801 -0.         -0.         -0.         -0.          0.00044915 -0.          0.          0.000886    0.00034675 -0.          0.          0.00034567
   0.00036795  0.00006366]
 [ 0.         -0.          0.          0.          0.         -0.          0.          0.          0.          0.         -0.          0.         -0.
   0.          0.          0.          0.          0.         -0.          0.         -0.         -0.         -0.          0.         -0.         -0.
  -0.         -0.        ]
 [-0.          0.         -0.         -0.         -0.          0.         -0.         -0.         -0.         -0.          0.         -0.          0.
  -0.         -0.         -0.         -0.         -0.          0.         -0.          0.          0.          0.         -0.          0.          0.
   0.          0.        ]
 [-0.04114232  0.         -0.         -0.00545512 -0.00165851  0.         -0.         -0.         -0.         -0.00266615  0.         -0.          0.00095822
  -0.0030339  -0.         -0.         -0.         -0.          0.000886   -0.          0.          0.00174775  0.000684   -0.          0.          0.00068187
   0.00072583  0.00012557]
 [-0.01610161  0.         -0.         -0.00213494 -0.00064908  0.         -0.         -0.         -0.         -0.00104344  0.         -0.          0.00037501
  -0.00118736 -0.         -0.         -0.         -0.          0.00034675 -0.          0.          0.000684    0.00026769 -0.          0.          0.00026686
   0.00028406  0.00004914]
 [ 0.         -0.          0.          0.          0.         -0.          0.          0.          0.          0.         -0.          0.         -0.
   0.          0.          0.          0.          0.         -0.          0.         -0.         -0.         -0.          0.         -0.         -0.
  -0.         -0.        ]
 [-0.          0.         -0.         -0.         -0.          0.         -0.         -0.         -0.         -0.          0.         -0.          0.
  -0.         -0.         -0.         -0.         -0.          0.         -0.          0.          0.          0.         -0.          0.          0.
   0.          0.        ]
 [-0.01605128  0.         -0.         -0.00212826 -0.00064705  0.         -0.         -0.         -0.         -0.00104017  0.         -0.          0.00037384
[...]
 [ 0.          1.49906588  0.         ...  0.          0.          0.        ]
 [ 0.          0.          1.49906588 ...  0.          0.          0.        ]
 ...
 [ 0.          0.          0.         ...  6.3966359  -2.89263276  1.08203819]
 [ 0.          0.          0.         ... -2.89263276  2.30437486  0.01398678]
 [ 0.          0.          0.         ...  1.08203819  0.01398678  2.49814973]]
E(SUHF) =     -1.13036299
e_a, e_b
[-0.61665016  0.18703951  0.29171543  0.68710429  0.71184816  0.71184816  1.13138162  1.13789306  1.13789306  1.56868044  2.30980543  2.50408786  3.20982647
  3.20982647  3.47922344  3.47922344  3.7159702   3.7533019   3.7533019   4.23598064  4.23598064  4.26520868  4.26520868  5.08808667  6.36320173  6.36320173
  6.42439264  8.14768997] [-0.61665016  0.18703951  0.29171543  0.68710429  0.71184816  0.71184816  1.13138162  1.13789306  1.13789306  1.56868044  2.30980543  2.50408786  3.20982647
  3.20982647  3.47922344  3.47922344  3.7159702   3.7533019   3.7533019   4.23598064  4.23598064  4.26520868  4.26520868  5.08808667  6.36320173  6.36320173
  6.42439264  8.14768997]
P_a, P_b
[[ 0.90456311 -0.         -0.         -0.26939958  0.03176093  0.         -0.          0.          0.          0.06723455  0.         -0.          0.00489287
   0.07453286  0.         -0.         -0.          0.         -0.01394096  0.         -0.         -0.04346514 -0.01536171 -0.         -0.          0.01755948
  -0.00312366  0.00256485]
 [-0.          0.          0.          0.         -0.         -0.          0.         -0.         -0.         -0.         -0.          0.         -0.
  -0.         -0.          0.          0.         -0.          0.         -0.          0.          0.          0.          0.          0.         -0.
   0.         -0.        ]
 [-0.          0.          0.          0.         -0.         -0.          0.         -0.         -0.         -0.         -0.          0.         -0.
  -0.         -0.          0.          0.         -0.          0.         -0.          0.          0.          0.          0.          0.         -0.
   0.         -0.        ]
 [-0.26939958  0.          0.          0.08023336 -0.00945913 -0.          0.         -0.         -0.         -0.02002399 -0.          0.         -0.00145721
  -0.02219759 -0.          0.          0.         -0.          0.00415194 -0.          0.          0.01294491  0.00457507  0.          0.         -0.00522961
   0.0009303  -0.00076387]
 [ 0.03176093 -0.         -0.         -0.00945913  0.00111519  0.         -0.          0.          0.          0.00236073  0.         -0.          0.0001718
   0.00261699  0.         -0.         -0.          0.         -0.00048949  0.         -0.         -0.00152614 -0.00053938 -0.         -0.          0.00061655
  -0.00010968  0.00009006]
 [ 0.         -0.         -0.         -0.          0.          0.         -0.          0.          0.          0.          0.         -0.          0.
   0.          0.         -0.         -0.          0.         -0.          0.         -0.         -0.         -0.         -0.         -0.          0.
  -0.          0.        ]
 [-0.          0.          0.          0.         -0.         -0.          0.         -0.         -0.         -0.         -0.          0.         -0.
  -0.         -0.          0.          0.         -0.          0.         -0.          0.          0.          0.          0.          0.         -0.
   0.         -0.        ]
 [ 0.         -0.         -0.         -0.          0.          0.         -0.          0.          0.          0.          0.         -0.          0.
   0.          0.         -0.         -0.          0.         -0.          0.         -0.         -0.         -0.         -0.         -0.          0.
  -0.          0.        ]
 [ 0.         -0.         -0.         -0.          0.          0.         -0.          0.          0.          0.          0.         -0.          0.
   0.          0.         -0.         -0.          0.         -0.          0.         -0.         -0.         -0.         -0.         -0.          0.
  -0.          0.        ]
 [ 0.06723455 -0.         -0.         -0.02002399  0.00236073  0.         -0.          0.          0.          0.00499742  0.         -0.          0.00036368
   0.00553989  0.         -0.         -0.          0.         -0.00103621  0.         -0.         -0.00323069 -0.00114181 -0.         -0.          0.00130516
  -0.00023218  0.00019064]
 [ 0.         -0.         -0.         -0.          0.          0.         -0.          0.          0.          0.          0.         -0.          0.
   0.          0.         -0.         -0.          0.         -0.          0.         -0.         -0.         -0.         -0.         -0.          0.
  -0.          0.        ]
 [-0.          0.          0.          0.         -0.         -0.          0.         -0.         -0.         -0.         -0.          0.         -0.
  -0.         -0.          0.          0.         -0.          0.         -0.          0.          0.          0.          0.          0.         -0.
   0.         -0.        ]
 [ 0.00489287 -0.         -0.         -0.00145721  0.0001718   0.         -0.          0.          0.          0.00036368  0.         -0.          0.00002647
   0.00040316  0.         -0.         -0.          0.         -0.00007541  0.         -0.         -0.00023511 -0.00008309 -0.         -0.          0.00009498
  -0.0000169   0.00001387]
 [ 0.07453286 -0.         -0.         -0.02219759  0.00261699  0.         -0.          0.          0.          0.00553989  0.         -0.          0.00040316
   0.00614125  0.         -0.         -0.          0.         -0.00114869  0.         -0.         -0.00358138 -0.00126575 -0.         -0.          0.00144684
  -0.00025738  0.00021133]
 [ 0.         -0.         -0.         -0.          0.          0.         -0.          0.          0.          0.          0.         -0.          0.
   0.          0.         -0.         -0.          0.         -0.          0.         -0.         -0.         -0.         -0.         -0.          0.
  -0.          0.        ]
 [-0.          0.          0.          0.         -0.         -0.          0.         -0.         -0.         -0.         -0.          0.         -0.
  -0.         -0.          0.          0.         -0.          0.         -0.          0.          0.          0.          0.          0.         -0.
   0.         -0.        ]
 [-0.          0.          0.          0.         -0.         -0.          0.         -0.         -0.         -0.         -0.          0.         -0.
  -0.         -0.          0.          0.         -0.          0.         -0.          0.          0.          0.          0.          0.         -0.
   0.         -0.        ]
 [ 0.         -0.         -0.         -0.          0.          0.         -0.          0.          0.          0.          0.         -0.          0.
   0.          0.         -0.         -0.          0.         -0.          0.         -0.         -0.         -0.         -0.         -0.          0.
  -0.          0.        ]
 [-0.01394096  0.          0.          0.00415194 -0.00048949 -0.          0.         -0.         -0.         -0.00103621 -0.          0.         -0.00007541
  -0.00114869 -0.          0.          0.         -0.          0.00021486 -0.          0.          0.00066988  0.00023675  0.          0.         -0.00027062
   0.00004814 -0.00003953]
 [ 0.         -0.         -0.         -0.          0.          0.         -0.          0.          0.          0.          0.         -0.          0.
   0.          0.         -0.         -0.          0.         -0.          0.         -0.         -0.         -0.         -0.         -0.          0.
  -0.          0.        ]
 [-0.          0.          0.          0.         -0.         -0.          0.         -0.         -0.         -0.         -0.          0.         -0.
  -0.         -0.          0.          0.         -0.          0.         -0.          0.          0.          0.          0.          0.         -0.
   0.         -0.        ]
 [-0.04346514  0.          0.          0.01294491 -0.00152614 -0.          0.         -0.         -0.         -0.00323069 -0.          0.         -0.00023511
  -0.00358138 -0.          0.          0.         -0.          0.00066988 -0.          0.          0.00208854  0.00073814  0.          0.         -0.00084375
   0.0001501  -0.00012324]
 [-0.01536171  0.          0.          0.00457507 -0.00053938 -0.          0.         -0.         -0.         -0.00114181 -0.          0.         -0.00008309
  -0.00126575 -0.          0.          0.         -0.          0.00023675 -0.          0.          0.00073814  0.00026088  0.          0.         -0.0002982
   0.00005305 -0.00004356]
 [-0.          0.          0.          0.         -0.         -0.          0.         -0.         -0.         -0.         -0.          0.         -0.
  -0.         -0.          0.          0.         -0.          0.         -0.          0.          0.          0.          0.          0.         -0.
   0.         -0.        ]
 [-0.          0.          0.          0.         -0.         -0.          0.         -0.         -0.         -0.         -0.          0.         -0.
  -0.         -0.          0.          0.         -0.          0.         -0.          0.          0.          0.          0.          0.         -0.
   0.         -0.        ]
 [ 0.01755948 -0.         -0.         -0.00522961  0.00061655  0.         -0.          0.          0.          0.00130516  0.         -0.          0.00009498
   0.00144684  0.         -0.         -0.          0.         -0.00027062  0.         -0.         -0.00084375 -0.0002982  -0.         -0.          0.00034087
  -0.00006064  0.00004979]
 [-0.00312366  0.          0.          0.0009303  -0.00010968 -0.          0.         -0.         -0.         -0.00023218 -0.          0.         -0.0000169
  -0.00025738 -0.          0.          0.         -0.          0.00004814 -0.          0.          0.0001501   0.00005305  0.          0.         -0.00006064
   0.00001079 -0.00000886]
 [ 0.00256485 -0.         -0.         -0.00076387  0.00009006  0.         -0.          0.          0.          0.00019064  0.         -0.          0.00001387
   0.00021133  0.         -0.         -0.          0.         -0.00003953  0.         -0.         -0.00012324 -0.00004356 -0.         -0.          0.00004979
  -0.00000886  0.00000727]] 
 [[ 0.90456311  0.          0.          0.26939958  0.03176093 -0.          0.         -0.          0.          0.06723455 -0.          0.         -0.00489287
   0.07453286 -0.          0.          0.         -0.          0.01394096  0.         -0.         -0.04346514 -0.01536171  0.         -0.         -0.01755948
   0.00312366 -0.00256485]
 [ 0.          0.          0.          0.          0.         -0.          0.         -0.          0.          0.         -0.          0.         -0.
   0.         -0.          0.          0.         -0.          0.          0.         -0.         -0.         -0.          0.         -0.         -0.
   0.         -0.        ]
 [ 0.          0.          0.          0.          0.         -0.          0.         -0.          0.          0.         -0.          0.         -0.
   0.         -0.          0.          0.         -0.          0.          0.         -0.         -0.         -0.          0.         -0.         -0.
   0.         -0.        ]
 [ 0.26939958  0.          0.          0.08023336  0.00945913 -0.          0.         -0.          0.          0.02002399 -0.          0.         -0.00145721
   0.02219759 -0.          0.          0.         -0.          0.00415194  0.         -0.         -0.01294491 -0.00457507  0.         -0.         -0.00522961
   0.0009303  -0.00076387]
 [ 0.03176093  0.          0.          0.00945913  0.00111519 -0.          0.         -0.          0.          0.00236073 -0.          0.         -0.0001718
   0.00261699 -0.          0.          0.         -0.          0.00048949  0.         -0.         -0.00152614 -0.00053938  0.         -0.         -0.00061655
   0.00010968 -0.00009006]
 [-0.         -0.         -0.         -0.         -0.          0.         -0.          0.         -0.         -0.          0.         -0.          0.
  -0.          0.         -0.         -0.          0.         -0.         -0.          0.          0.          0.         -0.          0.          0.
  -0.          0.        ]
 [ 0.          0.          0.          0.          0.         -0.          0.         -0.          0.          0.         -0.          0.         -0.
   0.         -0.          0.          0.         -0.          0.          0.         -0.         -0.         -0.          0.         -0.         -0.
   0.         -0.        ]
 [-0.         -0.         -0.         -0.         -0.          0.         -0.          0.         -0.         -0.          0.         -0.          0.
  -0.          0.         -0.         -0.          0.         -0.         -0.          0.          0.          0.         -0.          0.          0.
  -0.          0.        ]
 [ 0.          0.          0.          0.          0.         -0.          0.         -0.          0.          0.         -0.          0.         -0.
   0.         -0.          0.          0.         -0.          0.          0.         -0.         -0.         -0.          0.         -0.         -0.
   0.         -0.        ]
 [ 0.06723455  0.          0.          0.02002399  0.00236073 -0.          0.         -0.          0.          0.00499742 -0.          0.         -0.00036368
   0.00553989 -0.          0.          0.         -0.          0.00103621  0.         -0.         -0.00323069 -0.00114181  0.         -0.         -0.00130516
   0.00023218 -0.00019064]
 [-0.         -0.         -0.         -0.         -0.          0.         -0.          0.         -0.         -0.          0.         -0.          0.
  -0.          0.         -0.         -0.          0.         -0.         -0.          0.          0.          0.         -0.          0.          0.
  -0.          0.        ]
 [ 0.          0.          0.          0.          0.         -0.          0.         -0.          0.          0.         -0.          0.         -0.
   0.         -0.          0.          0.         -0.          0.          0.         -0.         -0.         -0.          0.         -0.         -0.
   0.         -0.        ]
 [-0.00489287 -0.         -0.         -0.00145721 -0.0001718   0.         -0.          0.         -0.         -0.00036368  0.         -0.          0.00002647
  -0.00040316  0.         -0.         -0.          0.         -0.00007541 -0.          0.          0.00023511  0.00008309 -0.          0.          0.00009498
  -0.0000169   0.00001387]
 [ 0.07453286  0.          0.          0.02219759  0.00261699 -0.          0.         -0.          0.          0.00553989 -0.          0.         -0.00040316
   0.00614125 -0.          0.          0.         -0.          0.00114869  0.         -0.         -0.00358138 -0.00126575  0.         -0.         -0.00144684
   0.00025738 -0.00021133]
 [-0.         -0.         -0.         -0.         -0.          0.         -0.          0.         -0.         -0.          0.         -0.          0.
  -0.          0.         -0.         -0.          0.         -0.         -0.          0.          0.          0.         -0.          0.          0.
  -0.          0.        ]
 [ 0.          0.          0.          0.          0.         -0.          0.         -0.          0.          0.         -0.          0.         -0.
   0.         -0.          0.          0.         -0.          0.          0.         -0.         -0.         -0.          0.         -0.         -0.
   0.         -0.        ]
 [ 0.          0.          0.          0.          0.         -0.          0.         -0.          0.          0.         -0.          0.         -0.
   0.         -0.          0.          0.         -0.          0.          0.         -0.         -0.         -0.          0.         -0.         -0.
   0.         -0.        ]
 [-0.         -0.         -0.         -0.         -0.          0.         -0.          0.         -0.         -0.          0.         -0.          0.
  -0.          0.         -0.         -0.          0.         -0.         -0.          0.          0.          0.         -0.          0.          0.
  -0.          0.        ]
 [ 0.01394096  0.          0.          0.00415194  0.00048949 -0.          0.         -0.          0.          0.00103621 -0.          0.         -0.00007541
   0.00114869 -0.          0.          0.         -0.          0.00021486  0.         -0.         -0.00066988 -0.00023675  0.         -0.         -0.00027062
   0.00004814 -0.00003953]
 [ 0.          0.          0.          0.          0.         -0.          0.         -0.          0.          0.         -0.          0.         -0.
   0.         -0.          0.          0.         -0.          0.          0.         -0.         -0.         -0.          0.         -0.         -0.
   0.         -0.        ]
 [-0.         -0.         -0.         -0.         -0.          0.         -0.          0.         -0.         -0.          0.         -0.          0.
  -0.          0.         -0.         -0.          0.         -0.         -0.          0.          0.          0.         -0.          0.          0.
  -0.          0.        ]
 [-0.04346514 -0.         -0.         -0.01294491 -0.00152614  0.         -0.          0.         -0.         -0.00323069  0.         -0.          0.00023511
  -0.00358138  0.         -0.         -0.          0.         -0.00066988 -0.          0.          0.00208854  0.00073814 -0.          0.          0.00084375
  -0.0001501   0.00012324]
 [-0.01536171 -0.         -0.         -0.00457507 -0.00053938  0.         -0.          0.         -0.         -0.00114181  0.         -0.          0.00008309
  -0.00126575  0.         -0.         -0.          0.         -0.00023675 -0.          0.          0.00073814  0.00026088 -0.          0.          0.0002982
  -0.00005305  0.00004356]
 [ 0.          0.          0.          0.          0.         -0.          0.         -0.          0.          0.         -0.          0.         -0.
   0.         -0.          0.          0.         -0.          0.          0.         -0.         -0.         -0.          0.         -0.         -0.
   0.         -0.        ]
 [-0.         -0.         -0.         -0.         -0.          0.         -0.          0.         -0.         -0.          0.         -0.          0.
  -0.          0.         -0.         -0.          0.         -0.         -0.          0.          0.          0.         -0.          0.          0.
  -0.          0.        ]
 [-0.01755948 -0.         -0.         -0.00522961 -0.00061655  0.         -0.          0.         -0.         -0.00130516  0.         -0.          0.00009498
  -0.00144684  0.         -0.         -0.          0.         -0.00027062 -0.          0.          0.00084375  0.0002982  -0.          0.          0.00034087
  -0.00006064  0.00004979]
 [ 0.00312366  0.          0.          0.0009303   0.00010968 -0.          0.         -0.          0.          0.00023218 -0.          0.         -0.0000169
   0.00025738 -0.          0.          0.         -0.          0.00004814  0.         -0.         -0.0001501  -0.00005305  0.         -0.         -0.00006064
   0.00001079 -0.00000886]
 [-0.00256485 -0.         -0.         -0.00076387 -0.00009006  0.         -0.          0.         -0.         -0.00019064  0.         -0.          0.00001387
  -0.00021133  0.         -0.         -0.          0.         -0.00003953 -0.          0.          0.00012324  0.00004356 -0.          0.          0.00004979
  -0.00000886  0.00000727]]
***** Start DFT Correlation for SUHF+DFT **********
tot grids = 20048
E(SUHF) =     -1.13036299
E_c(TPSS) =     -0.03913098
E(SUHF+DFT) =     -1.16949398
