

#INFO: **** input file is /share/home/srwang/ExSCF/test/pytest/scan_h2/scan_dft.py ****
#import phf
from pyscf import gto, scf
#import scipy
#import numpy as np
import sys, os, contextlib

from pyphf import util, sudft

#xyz = 'h2.xyz' #sys.argv[1]
fch = '../../test_carlos/test_uhf.fchk' #sys.argv[2]
bas = '../h2.bas'

for r in [0.6, 0.8, 1.0, 1.2, 1.4, 1.6, 1.8, 2.0]:
    output = 'sudft_%.1f.out' % r
    os.system("echo '\n' > %s" % output)
    with open(output, 'a', encoding='utf-8') as f:
        with contextlib.redirect_stdout(f):
            xyz = '''H 0.0 0.0 0.0; H 0.0 0.0 %f'''%r
            mf = util.guess_from_fchk(xyz, bas, fch)
            #f.flush()
            mf2 = util.SUHF(mf)
            mf2.cut_no = False
            mf2.debug = False
            mf2.max_cycle = 50
            #mf2.output = 'sudft_%.1f.out'%r
            #mf2.kernel()
            
            mf3 = sudft.SUDFT(mf2)
            mf3.kernel()
                    #INFO: ******************** input file end ********************


System: uname_result(system='Linux', node='xcluster', release='3.10.0-693.el7.x86_64', version='#1 SMP Thu Jul 6 19:56:57 EDT 2017', machine='x86_64', processor='x86_64')  Threads 16
Python 3.7.4 (default, Aug 13 2019, 20:35:49) 
[GCC 7.3.0]
numpy 1.17.2  scipy 1.4.1
Date: Thu Nov 19 17:46:17 2020
PySCF version 1.7.3
PySCF path  /share/apps/Python/Anaconda3-2019/lib/python3.7/site-packages/pyscf

[CONFIG] conf_file None
[INPUT] verbose = 4
[INPUT] num. atoms = 2
[INPUT] num. electrons = 2
[INPUT] charge = 0
[INPUT] spin (= nelec alpha-beta = 2S) = 0
[INPUT] symmetry False subgroup None
[INPUT] Mole.unit = angstrom
[INPUT]  1 H      0.000000000000   0.000000000000   0.000000000000 AA    0.000000000000   0.000000000000   0.000000000000 Bohr
[INPUT]  2 H      0.000000000000   0.000000000000   0.600000000000 AA    0.000000000000   0.000000000000   1.133835674739 Bohr

nuclear repulsion = 0.8819620182
number of shells = 4
number of NR pGTOs = 6
number of NR cGTOs = 4
basis = ../h2.bas
ecp = {}
CPU time:         0.86


******** <class 'pyscf.scf.uhf.UHF'> ********
method = UHF
initial guess = minao
damping factor = 0
level_shift factor = 0
DIIS = <class 'pyscf.scf.diis.CDIIS'>
diis_start_cycle = 1
diis_space = 8
SCF conv_tol = 1e-09
SCF conv_tol_grad = None
SCF max_cycles = 1
direct_scf = True
direct_scf_tol = 1e-13
chkfile to save SCF result = /share/home/srwang/ExSCF/test/pytest/scan_h2/tmpwp79422b
max_memory 4000 MB (current use 98 MB)
number electrons alpha = 1  beta = 1
Set gradient conv threshold to 3.16228e-05
init E= -0.802172379177992
  alpha nocc = 1  HOMO = -0.638807232234297  LUMO = 0.242710944473543
  beta  nocc = 1  HOMO = -0.629292266785914  LUMO = 0.244697923014659
cycle= 1 E= -1.10404611456518  delta_E= -0.302  |g|= 0.0294  |ddm|= 0.444
SCF not converged.
SCF energy = -1.10404611456518 after 1 cycles  <S^2> = 8.5933109e-06  2S+1 = 1.0000172


******** <class 'pyscf.scf.uhf.UHF'> ********
method = UHF
initial guess = minao
damping factor = 0
level_shift factor = 0
DIIS = <class 'pyscf.scf.diis.CDIIS'>
diis_start_cycle = 1
diis_space = 8
SCF conv_tol = 1e-09
SCF conv_tol_grad = None
SCF max_cycles = 0
direct_scf = True
direct_scf_tol = 1e-13
chkfile to save SCF result = /share/home/srwang/ExSCF/test/pytest/scan_h2/tmpwp79422b
max_memory 4000 MB (current use 118 MB)
number electrons alpha = 1  beta = 1
Set gradient conv threshold to 3.16228e-05
init E= -1.06933076857465
  alpha nocc = 1  HOMO = -0.640899885099193  LUMO = 0.332490689903523
  beta  nocc = 1  HOMO = -0.640899885099192  LUMO = 0.332490689903523
SCF not converged.
SCF energy = -1.06933076857465 after 0 cycles  <S^2> = 0.14705336  2S+1 = 1.2602434

******** <class 'pyphf.util.SUHF'> ********
SVD: S^(-1/2)
[[-0.27124264  0.73693246  0.96769282  0.73781342]
 [-0.31371809 -0.63715647  0.29198362 -2.44526303]
 [-0.27124264  0.73693246 -0.96769282 -0.73781342]
 [-0.31371809 -0.63715647 -0.29198362  2.44526303]]
C (ortho)
[[-0.99531656 -0.70202478 -0.15652625 -0.22234924]
 [-0.10289055 -0.19882483  0.90377763  0.66244941]
 [ 0.25838991 -0.28005218  0.34606295 -0.5160536 ]
 [-0.10452307  0.19398116  0.28252634 -0.34346343]]
[[-0.99531656 -0.70202478 -0.15652625 -0.22234924]
 [-0.10289055 -0.19882483  0.90377763  0.66244941]
 [-0.25838991  0.28005218 -0.34606295  0.5160536 ]
 [ 0.10452307 -0.19398116 -0.28252634  0.34346343]]
grids:  [0.06237655 0.31939555 0.74529195 1.28265786 1.85893479 2.39630071
 2.8221971  3.07921611] 
weights:  [0.15900941 0.34931531 0.49276925 0.56970235 0.56970235 0.49276925
 0.34931531 0.15900941]
S = 0.0, Sz = 0.0
Wigner small d:  1
value : [1. 1. 1. 1. 1. 1. 1. 1.]
**** Start Cycle 1 ****
dm (ortho)
[[[ 0.99065505  0.10240867 -0.25717976  0.10403354]
  [ 0.10240867  0.01058647 -0.02658588  0.01075444]
  [-0.25717976 -0.02658588  0.06676535 -0.02700771]
  [ 0.10403354  0.01075444 -0.02700771  0.01092507]]

 [[ 0.99065505  0.10240867  0.25717976 -0.10403354]
  [ 0.10240867  0.01058647  0.02658588 -0.01075444]
  [ 0.25717976  0.02658588  0.06676535 -0.02700771]
  [-0.10403354 -0.01075444 -0.02700771  0.01092507]]]
Fock (ortho)
 (array([[-0.60510656,  0.03241372,  0.21167187, -0.01844541],
       [ 0.03241372,  0.87225237, -0.04679645, -0.02629654],
       [ 0.21167187, -0.04679645,  1.05884361,  0.69866056],
       [-0.01844541, -0.02629654,  0.69866056,  0.95530781]]), array([[-0.60510656,  0.03241372, -0.21167187,  0.01844541],
       [ 0.03241372,  0.87225237,  0.04679645,  0.02629654],
       [-0.21167187,  0.04679645,  1.05884361,  0.69866056],
       [ 0.01844541,  0.02629654,  0.69866056,  0.95530781]]))
E(UHF) =    -1.951293
NO eigenvalue
[-1.07893194 -0.         -0.          0.        ] [-1.07893194 -0.         -0.          0.        ]
NO vec
[[ 0.95821774  0.          0.2649655   0.02039933 -0.10581078  0.          0.          0.        ]
 [ 0.09905547  0.         -0.64610966 -0.12881903 -0.74574525  0.          0.          0.        ]
 [-0.24875884  0.          0.61571137  0.39511941 -0.63474341  0.          0.          0.        ]
 [ 0.10062714  0.         -0.36501384  0.90932402  0.17253667  0.          0.          0.        ]
 [ 0.         -0.95821774  0.          0.          0.         -0.2860398  -0.          0.        ]
 [ 0.         -0.09905547  0.          0.          0.          0.33183042  0.49486451  0.79698539]
 [ 0.         -0.24875884  0.          0.          0.          0.83332855 -0.48792406 -0.0749178 ]
 [ 0.          0.10062714  0.          0.          0.         -0.33709543 -0.7190544   0.59933431]]
dm(NO)
[[ 1.07893194  0.         -0.          0.          0.          0.          0.          0.        ]
 [ 0.          1.07893194  0.          0.          0.          0.         -0.         -0.        ]
 [-0.          0.         -0.         -0.          0.          0.          0.          0.        ]
 [-0.          0.         -0.          0.          0.          0.          0.          0.        ]
 [ 0.          0.          0.         -0.         -0.          0.          0.          0.        ]
 [ 0.          0.          0.          0.          0.          0.          0.          0.        ]
 [ 0.         -0.          0.          0.          0.         -0.          0.          0.        ]
 [ 0.         -0.          0.          0.          0.         -0.          0.         -0.        ]]
D(g) (NO)
[[ 0.99951369 -0.02669241 -0.          0.          0.         -0.01504396  0.00305714  0.00492357]
 [ 0.02669241  0.99951369  0.01184301  0.00042327 -0.01093034 -0.         -0.          0.        ]
 [-0.         -0.01184301  0.99951369  0.          0.          0.01078767 -0.011154   -0.0243177 ]
 [-0.         -0.00042327  0.          0.99951369 -0.         -0.00080595 -0.02838888  0.01286996]
 [ 0.          0.01093034  0.         -0.          0.99951369 -0.02508085 -0.00571899 -0.01382624]
 [ 0.01504396  0.         -0.01078767  0.00080595  0.02508085  0.99951369  0.          0.        ]
 [-0.00305714 -0.          0.011154    0.02838888  0.00571899  0.          0.99951369  0.        ]
 [-0.00492357  0.          0.0243177  -0.01286996  0.01382624  0.          0.          0.99951369]]
...
N(g) (NO)
[[ 0.85884252  0.02293573]
 [-0.02293573  0.85884252]]
...
P(g) (NO)
[[ 1.         -0.         -0.          0.          0.         -0.          0.          0.        ]
 [ 0.          1.         -0.          0.          0.          0.         -0.         -0.        ]
 [ 0.0003162  -0.01184033 -0.          0.          0.         -0.          0.          0.        ]
 [ 0.0000113  -0.00042317 -0.          0.          0.         -0.          0.          0.        ]
 [-0.00029183  0.01092786  0.         -0.         -0.          0.         -0.         -0.        ]
 [ 0.01504055  0.00040166 -0.          0.          0.          0.         -0.         -0.        ]
 [-0.00305645 -0.00008162  0.         -0.         -0.         -0.          0.          0.        ]
 [-0.00492245 -0.00013146  0.         -0.         -0.         -0.          0.          0.        ]]
...
Pg_ortho
[[ 0.91829132  0.09492809 -0.23839372  0.09643427  0.00412244  0.00042616  0.00107021 -0.00043292]
 [ 0.09492809  0.00981316 -0.02464388  0.00996886  0.00042616  0.00004405  0.00011063 -0.00004475]
 [-0.2379968  -0.02460285  0.06178534 -0.02499321  0.01379241  0.00142579  0.00358059 -0.00144841]
 [ 0.09627371  0.00995227 -0.02499321  0.01011017 -0.00557926 -0.00057675 -0.00144841  0.00058591]
 [-0.00412244 -0.00042616  0.00107021 -0.00043292  0.91829132  0.09492809  0.23839372 -0.09643427]
 [-0.00042616 -0.00004405  0.00011063 -0.00004475  0.09492809  0.00981316  0.02464388 -0.00996886]
 [ 0.01379241  0.00142579 -0.00358059  0.00144841  0.2379968   0.02460285  0.06178534 -0.02499321]
 [-0.00557926 -0.00057675  0.00144841 -0.00058591 -0.09627371 -0.00995227 -0.02499321  0.01011017]]
G(g) (NO)
[[ 0.55783382  0.0010495   0.14623296  0.00149256  0.06252404 -0.00138159  0.00094177  0.00032045]
 [-0.0010495   0.55783382  0.0009343   0.00063778 -0.00127229  0.11243687  0.0747184   0.08408729]
 [ 0.14609143  0.00771622  1.08947542  0.2413579  -0.00125087 -0.00033823  0.00241329  0.00130046]
 [ 0.00144015  0.00295332  0.24133456  0.99741492 -0.149704    0.0004379   0.00176649  0.00115723]
 [ 0.06264757 -0.00614575 -0.00120947 -0.14968977  0.9785916  -0.00017757 -0.00068158 -0.00098478]
 [-0.00963175  0.11225633 -0.00094895  0.00104091 -0.00276062  1.11446316 -0.19208376  0.19451299]
 [ 0.00354681  0.07478807  0.0010732  -0.00013698  0.00121036 -0.19204434  1.02207914  0.0290988 ]
 [ 0.00082575  0.08411159 -0.00046094  0.00073625 -0.00086706  0.19453647  0.02907993  0.92893965]]
...
C(NO)
[[-1.03871649  0.         -0.60320206 -0.11811852 -0.05362859  0.          0.          0.        ]
 [ 0.          1.03871649  0.          0.          0.          0.60320206  0.11811852  0.05362859]
 [ 0.          0.         -0.30078682 -0.51546464 -0.679301    0.          0.          0.        ]
 [ 0.          0.          0.07702927  0.27402739 -0.60609421  0.          0.          0.        ]
 [-0.          0.          0.4337846  -0.82834074 -0.20218997  0.          0.          0.        ]
 [ 0.          0.          0.          0.          0.          0.43359654  0.15152785  0.59768384]
 [ 0.          0.          0.          0.          0.         -0.09555254  0.81925172 -0.17094116]
 [ 0.          0.          0.          0.          0.         -0.29570095  0.57689611  0.69515032]]
detC -1.0789319374198882
detNg [0.73813653 0.74296637 0.76505062 0.81600934 0.8908296  0.96068654 0.99793492 1.00678333]
xg [1.16379157 1.15622604 1.12284996 1.05272945 0.96431131 0.8941908  0.86081472 0.85324919]
ciS 2.017040762404439
[[-1.20518781  0.         -0.36784051 -0.11784426 -0.11508308  0.          0.          0.        ]
 [ 0.         -1.20518781  0.          0.          0.         -0.30657258 -0.07522599 -0.25058399]
 [-0.36784051  0.         -0.55286152  0.08867181  0.14363512  0.          0.          0.        ]
 [-0.11784426  0.          0.08867181  0.40882549 -0.20626897  0.          0.          0.        ]
 [-0.11508308  0.          0.14363512 -0.20626897 -0.27878695  0.          0.          0.        ]
 [ 0.         -0.30657258  0.          0.          0.         -0.58630429 -0.18152034  0.14124808]
 [ 0.         -0.07522599  0.          0.          0.         -0.18152034  0.30583098 -0.25421202]
 [ 0.         -0.25058399  0.          0.          0.          0.14124808 -0.25421202 -0.14234966]]
ciH -3.9010524211667277
S2 = 0.000000
X(g)
[[ 1.85368505 -0.          0.00029307  0.00001047 -0.00027048 -0.01394022  0.00283285  0.00456234]
 [ 0.          1.85368505  0.01097412  0.00039221 -0.01012841  0.00037228 -0.00007565 -0.00012184]
 [ 0.00029307 -0.01097412  0.          0.          0.          0.          0.          0.        ]
 [ 0.00001047 -0.00039221  0.          0.          0.          0.          0.          0.        ]
 [-0.00027048  0.01012841  0.          0.          0.          0.          0.          0.        ]
 [ 0.01394022  0.00037228  0.          0.          0.          0.          0.          0.        ]
 [-0.00283285 -0.00007565  0.          0.          0.          0.          0.          0.        ]
 [-0.00456234 -0.00012184  0.          0.          0.          0.          0.          0.        ]]
X(g) int
[[ 1.85368505 -0.          0.17389511  0.00621498 -0.16049401 -0.20267977  0.04118737  0.06633276]
 [-0.          1.85368505  0.15955498  0.00570246 -0.14725899  0.22089577 -0.04488911 -0.07229447]
 [ 0.17389511 -0.15955498  0.          0.          0.          0.          0.          0.        ]
 [ 0.00621498 -0.00570246  0.          0.          0.          0.          0.          0.        ]
 [-0.16049401  0.14725899  0.          0.          0.          0.          0.          0.        ]
 [ 0.20267977  0.22089577  0.          0.          0.          0.          0.          0.        ]
 [-0.04118737 -0.04488911  0.          0.          0.          0.          0.          0.        ]
 [-0.06633276 -0.07229447  0.          0.          0.          0.          0.          0.        ]]
Hsp + Hph =  -1.9340473895611456
Feff (mod,ortho)
[[-0.62896351  0.03629323  0.38317363  0.01587777  0.          0.          0.          0.        ]
 [ 0.03629323  0.8733094  -0.03071489 -0.022082    0.          0.          0.          0.        ]
 [ 0.38317363 -0.03071489  0.97140576  0.7071099   0.          0.          0.          0.        ]
 [ 0.01587777 -0.022082    0.7071099   0.9627798   0.          0.          0.          0.        ]
 [ 0.          0.          0.          0.         -0.62896351  0.03629323 -0.38317363 -0.01587777]
 [ 0.          0.          0.          0.          0.03629323  0.8733094   0.03071489  0.022082  ]
 [ 0.          0.          0.          0.         -0.38317363  0.03071489  0.97140576  0.7071099 ]
 [ 0.          0.          0.          0.         -0.01587777  0.022082    0.7071099   0.9627798 ]]
E(SUHF) =     -1.05208537
e_a, e_b
[-0.73098416  0.32597868  0.87310358  1.71043335] [-0.73098416  0.32597868  0.87310358  1.71043335]
P_a, P_b
[[ 0.92340395 -0.02432906 -0.24746261  0.09433689]
 [-0.02432906  0.000641    0.00651993 -0.00248551]
 [-0.24746261  0.00651993  0.0663174  -0.0252813 ]
 [ 0.09433689 -0.00248551 -0.0252813   0.00963766]] 
 [[ 0.92340395 -0.02432906  0.24746261 -0.09433689]
 [-0.02432906  0.000641   -0.00651993  0.00248551]
 [ 0.24746261 -0.00651993  0.0663174  -0.0252813 ]
 [-0.09433689  0.00248551 -0.0252813   0.00963766]]
**** Start Cycle 2 ****
dm (ortho)
[array([[ 0.92340395, -0.02432906, -0.24746261,  0.09433689],
       [-0.02432906,  0.000641  ,  0.00651993, -0.00248551],
       [-0.24746261,  0.00651993,  0.0663174 , -0.0252813 ],
       [ 0.09433689, -0.00248551, -0.0252813 ,  0.00963766]]), array([[ 0.92340395, -0.02432906,  0.24746261, -0.09433689],
       [-0.02432906,  0.000641  , -0.00651993,  0.00248551],
       [ 0.24746261, -0.00651993,  0.0663174 , -0.0252813 ],
       [-0.09433689,  0.00248551, -0.0252813 ,  0.00963766]])]
Fock (ortho)
 (array([[-0.61588188,  0.0712998 ,  0.21325679, -0.01005757],
       [ 0.0712998 ,  0.83442998, -0.06727322, -0.02395008],
       [ 0.21325679, -0.06727322,  1.04663455,  0.70604523],
       [-0.01005757, -0.02395008,  0.70604523,  0.92159598]]), array([[-0.61588188,  0.0712998 , -0.21325679,  0.01005757],
       [ 0.0712998 ,  0.83442998,  0.06727322,  0.02395008],
       [-0.21325679,  0.06727322,  1.04663455,  0.70604523],
       [ 0.01005757,  0.02395008,  0.70604523,  0.92159598]]))
E(UHF) =    -1.908363
NO eigenvalue
[-1. -0. -0.  0.] [-1. -0.  0.  0.]
NO vec
[[ 0.9609391   0.         -0.27313845  0.04364208 -0.00931725  0.          0.          0.        ]
 [-0.025318    0.         -0.14087841 -0.11435538  0.98307432  0.          0.          0.        ]
 [-0.25752164  0.         -0.93187128 -0.19674877 -0.16305965  0.          0.          0.        ]
 [ 0.09817156  0.          0.19278119 -0.97278371 -0.08300373  0.          0.          0.        ]
 [ 0.          0.9609391   0.          0.          0.         -0.23520181 -0.08903823  0.11553508]
 [ 0.         -0.025318    0.          0.          0.         -0.58308336  0.27616092 -0.76361504]
 [ 0.          0.25752164  0.          0.          0.          0.6696      0.63300119 -0.29090883]
 [ 0.         -0.09817156  0.          0.          0.         -0.39538557  0.7177164   0.56472627]]
dm(NO)
[[ 1.  0.  0. -0. -0.  0.  0.  0.]
 [ 0.  1.  0.  0.  0.  0. -0.  0.]
 [ 0.  0.  0. -0.  0.  0.  0.  0.]
 [-0.  0.  0.  0. -0.  0.  0.  0.]
 [-0.  0.  0.  0.  0.  0.  0.  0.]
 [ 0.  0.  0.  0.  0. -0. -0. -0.]
 [ 0.  0.  0.  0.  0. -0. -0.  0.]
 [ 0.  0.  0.  0.  0.  0.  0. -0.]]
D(g) (NO)
[[ 0.99951369  0.02644617  0.         -0.          0.         -0.01317504 -0.00577215  0.0081298 ]
 [-0.02644617  0.99951369  0.01614684 -0.00279605  0.00211065  0.         -0.          0.        ]
 [ 0.         -0.01614684  0.99951369  0.         -0.         -0.01726981 -0.01453446  0.01421886]
 [-0.          0.00279605  0.          0.99951369 -0.          0.00964483 -0.02676117 -0.01246564]
 [ 0.         -0.00211065 -0.         -0.          0.99951369 -0.02018768  0.00341538 -0.02342501]
 [ 0.01317504  0.          0.01726981 -0.00964483  0.02018768  0.99951369 -0.          0.        ]
 [ 0.00577215 -0.          0.01453446  0.02676117 -0.00341538  0.          0.99951369 -0.        ]
 [-0.0081298   0.         -0.01421886  0.01246564  0.02342501  0.         -0.          0.99951369]]
...
N(g) (NO)
[[ 0.99978662 -0.02645339]
 [ 0.02645339  0.99978662]]
...
P(g) (NO)
[[ 1.          0.          0.         -0.         -0.          0.         -0.          0.        ]
 [ 0.          1.          0.         -0.         -0.          0.         -0.          0.        ]
 [-0.00042714 -0.01614339 -0.          0.          0.         -0.          0.         -0.        ]
 [ 0.00007397  0.00279545  0.         -0.         -0.          0.         -0.          0.        ]
 [-0.00005583 -0.0021102  -0.          0.          0.         -0.          0.         -0.        ]
 [ 0.01317223 -0.00034852  0.         -0.         -0.         -0.          0.         -0.        ]
 [ 0.00577092 -0.00015269  0.         -0.         -0.         -0.          0.         -0.        ]
 [-0.00812807  0.00021506 -0.          0.          0.          0.         -0.          0.        ]]
...
Pg_ortho
[[ 0.92351966 -0.02433211 -0.24749362  0.09434872  0.00437327 -0.00011522  0.00117199 -0.00044678]
 [-0.02433211  0.00064108  0.00652075 -0.00248582 -0.00011522  0.00000304 -0.00003088  0.00001177]
 [-0.24708536  0.00650999  0.0662163  -0.02524276  0.01425808 -0.00037566  0.00382102 -0.00145664]
 [ 0.09419308 -0.00248172 -0.02524276  0.00962296 -0.00543542  0.00014321 -0.00145664  0.00055529]
 [-0.00437327  0.00011522  0.00117199 -0.00044678  0.92351966 -0.02433211  0.24749362 -0.09434872]
 [ 0.00011522 -0.00000304 -0.00003088  0.00001177 -0.02433211  0.00064108 -0.00652075  0.00248582]
 [ 0.01425808 -0.00037566 -0.00382102  0.00145664  0.24708536 -0.00650999  0.0662163  -0.02524276]
 [-0.00543542  0.00014321  0.00145664 -0.00055529 -0.09419308  0.00248172 -0.02524276  0.00962296]]
G(g) (NO)
[[ 0.63389665 -0.00138239 -0.05450062  0.0491451  -0.1726977  -0.00143766 -0.00136587  0.00020224]
 [ 0.00138239  0.63389665  0.00187537  0.00067463  0.0000353   0.02963093 -0.06026481  0.17521477]
 [-0.05429399  0.01106038  1.19091649  0.24584103  0.15697114  0.00210535  0.0007828   0.00198775]
 [ 0.04915798  0.00105195  0.24582424  0.90663234  0.04960545  0.00061445  0.00004626  0.00119476]
 [-0.17265236  0.00296898  0.15701649  0.04962575  1.0833666   0.0011314   0.00097948  0.00121715]
 [-0.00768831  0.02978091 -0.0007497  -0.00041111  0.001108    0.95000449  0.21018533  0.04556129]
 [-0.00695256 -0.06014466 -0.0012458  -0.00162789  0.00234718  0.21020537  1.25716663 -0.1807661 ]
 [ 0.00498047  0.17512538  0.00112271  0.00100393 -0.0007656   0.04552715 -0.1808005   0.97374431]]
...
C(NO)
[[-1.0306358   0.         -0.57840628 -0.23467669 -0.13125934  0.          0.          0.        ]
 [ 0.         -1.0306358   0.          0.          0.         -0.57840628 -0.23467669 -0.13125934]
 [ 0.02541806  0.          0.51812859 -0.35258978  0.38208954  0.          0.          0.        ]
 [ 0.01916884  0.         -0.14150293 -0.45310745  0.3501901   0.          0.          0.        ]
 [-0.12533261  0.         -0.1593546   0.81005933  0.76596495  0.          0.          0.        ]
 [ 0.          0.07974923  0.          0.          0.          0.54526924 -0.61017936 -0.12421729]
 [ 0.         -0.02833632  0.          0.          0.          0.04564929 -0.15830716  0.7759121 ]
 [ 0.          0.09776962  0.          0.          0.         -0.12029876 -0.76709975 -0.4877072 ]]
detC 1.0622101511525246
detNg [1.00027307 1.00715001 1.03865238 1.11170725 1.21990036 1.32192872 1.37673591 1.38979715]
xg [0.88605469 0.8800046  0.85331403 0.79723924 0.726532   0.67045721 0.64376664 0.63771655]
ciS 1.5237712402219938
[[-1.2711116   0.          0.19784601  0.01180567  0.24734519  0.          0.          0.        ]
 [ 0.         -1.2711116   0.          0.          0.          0.04282418  0.20336006 -0.23931743]
 [ 0.19784601  0.         -0.43211948  0.39732051 -0.05010516  0.          0.          0.        ]
 [ 0.01180567  0.          0.39732051  0.27413944  0.12471109  0.          0.          0.        ]
 [ 0.24734519  0.         -0.05010516  0.12471109 -0.19891916  0.          0.          0.        ]
 [ 0.          0.04282418  0.          0.          0.         -0.41376323  0.00441903  0.23276688]
 [ 0.          0.20336006  0.          0.          0.          0.00441903  0.38947536  0.23598855]
 [ 0.         -0.23931743  0.          0.          0.          0.23276688  0.23598855 -0.33261132]]
ciH -3.044790366475704
S2 = -0.000000
X(g)
[[ 2.         -0.         -0.00042714  0.00007397 -0.00005583 -0.01317223 -0.00577092  0.00812807]
 [ 0.          2.          0.01614339 -0.00279545  0.0021102  -0.00034852 -0.00015269  0.00021506]
 [-0.00042714 -0.01614339  0.          0.          0.          0.          0.          0.        ]
 [ 0.00007397  0.00279545  0.          0.          0.          0.          0.          0.        ]
 [-0.00005583 -0.0021102   0.          0.          0.          0.          0.          0.        ]
 [ 0.01317223 -0.00034852  0.          0.          0.          0.          0.          0.        ]
 [ 0.00577092 -0.00015269  0.          0.          0.          0.          0.          0.        ]
 [-0.00812807  0.00021506  0.          0.          0.          0.          0.          0.        ]]
X(g) int
[[ 2.         -0.         -0.25542754  0.04423087 -0.03338853 -0.1930102  -0.08456016  0.11909902]
 [ 0.          2.          0.23654606 -0.04096127  0.03092041 -0.20841658 -0.09130988  0.12860569]
 [-0.25542754 -0.23654606  0.          0.          0.          0.          0.          0.        ]
 [ 0.04423087  0.04096127  0.          0.          0.          0.          0.          0.        ]
 [-0.03338853 -0.03092041  0.          0.          0.          0.          0.          0.        ]
 [ 0.1930102  -0.20841658  0.          0.          0.          0.          0.          0.        ]
 [ 0.08456016 -0.09130988  0.          0.          0.          0.          0.          0.        ]
 [-0.11909902  0.12860569  0.          0.          0.          0.          0.          0.        ]]
Hsp + Hph =  -1.998193879832065
Feff (mod,ortho)
[[-0.53948907  0.06681973  0.36239369  0.03713282  0.          0.          0.          0.        ]
 [ 0.06681973  0.83461302 -0.07054133 -0.02544548  0.          0.          0.          0.        ]
 [ 0.36239369 -0.07054133  0.96121388  0.71072635  0.          0.          0.          0.        ]
 [ 0.03713282 -0.02544548  0.71072635  0.9304408   0.          0.          0.          0.        ]
 [ 0.          0.          0.          0.         -0.53948907  0.06681973 -0.36239369 -0.03713282]
 [ 0.          0.          0.          0.          0.06681973  0.83461302  0.07054133  0.02544548]
 [ 0.          0.          0.          0.         -0.36239369  0.07054133  0.96121388  0.71072635]
 [ 0.          0.          0.          0.         -0.03713282  0.02544548  0.71072635  0.9304408 ]]
E(SUHF) =     -1.11623186
e_a, e_b
[-0.63855398  0.29249239  0.83503074  1.69780948] [-0.63855398  0.29249239  0.83503074  1.69780948]
P_a, P_b
[[ 0.91945557 -0.0521527  -0.25106555  0.09112196]
 [-0.0521527   0.00295817  0.01424076 -0.00516855]
 [-0.25106555  0.01424076  0.06855569 -0.02488166]
 [ 0.09112196 -0.00516855 -0.02488166  0.00903057]] 
 [[ 0.91945557 -0.0521527   0.25106555 -0.09112196]
 [-0.0521527   0.00295817 -0.01424076  0.00516855]
 [ 0.25106555 -0.01424076  0.06855569 -0.02488166]
 [-0.09112196  0.00516855 -0.02488166  0.00903057]]
**** Start Cycle 3 ****
dm (ortho)
[array([[ 0.91945557, -0.0521527 , -0.25106555,  0.09112196],
       [-0.0521527 ,  0.00295817,  0.01424076, -0.00516855],
       [-0.25106555,  0.01424076,  0.06855569, -0.02488166],
       [ 0.09112196, -0.00516855, -0.02488166,  0.00903057]]), array([[ 0.91945557, -0.0521527 ,  0.25106555, -0.09112196],
       [-0.0521527 ,  0.00295817, -0.01424076,  0.00516855],
       [ 0.25106555, -0.01424076,  0.06855569, -0.02488166],
       [-0.09112196,  0.00516855, -0.02488166,  0.00903057]])]
Fock (ortho)
 (array([[-0.60365599,  0.07646571,  0.21909441, -0.00690464],
       [ 0.07646571,  0.84229668, -0.07416153, -0.0243142 ],
       [ 0.21909441, -0.07416153,  1.06467864,  0.71079443],
       [-0.00690464, -0.0243142 ,  0.71079443,  0.92812179]]), array([[-0.60365599,  0.07646571, -0.21909441,  0.00690464],
       [ 0.07646571,  0.84229668,  0.07416153,  0.0243142 ],
       [-0.21909441,  0.07416153,  1.06467864,  0.71079443],
       [ 0.00690464,  0.0243142 ,  0.71079443,  0.92812179]]))
E(UHF) =    -1.908082
NO eigenvalue
[-1. -0. -0.  0.] [-1. -0.  0.  0.]
NO vec
[[ 0.95888246  0.          0.00959143  0.06222703 -0.27673133  0.          0.          0.        ]
 [-0.05438904  0.         -0.96526259 -0.08496423 -0.24102083  0.          0.          0.        ]
 [-0.26183141  0.          0.25537711 -0.11304509 -0.92382231  0.          0.          0.        ]
 [ 0.09502933  0.          0.05439363 -0.98799276  0.10900034  0.          0.          0.        ]
 [ 0.          0.95888246  0.          0.          0.         -0.20108436  0.042889   -0.19562731]
 [ 0.         -0.05438904  0.          0.          0.         -0.27647013  0.93339267  0.22222562]
 [ 0.          0.26183141  0.          0.          0.          0.83527696  0.15351211  0.45846563]
 [ 0.         -0.09502933  0.          0.          0.          0.43062947  0.32151624 -0.83794689]]
dm(NO)
[[ 1.  0. -0.  0. -0.  0.  0.  0.]
 [ 0.  1.  0.  0.  0. -0.  0. -0.]
 [-0.  0. -0. -0.  0.  0.  0.  0.]
 [ 0.  0. -0.  0. -0.  0.  0.  0.]
 [-0.  0.  0.  0. -0.  0.  0.  0.]
 [ 0. -0.  0.  0.  0.  0.  0.  0.]
 [ 0.  0.  0.  0.  0. -0. -0.  0.]
 [ 0. -0.  0.  0.  0.  0.  0.  0.]]
D(g) (NO)
[[ 0.99951369  0.02634444 -0.          0.         -0.         -0.01108746 -0.00060126 -0.01245272]
 [-0.02634444  0.99951369 -0.00384781 -0.00400951  0.01573155 -0.          0.         -0.        ]
 [-0.          0.00384781  0.99951369  0.         -0.          0.01564374 -0.02631445 -0.00451782]
 [ 0.          0.00400951  0.          0.99951369  0.         -0.01586931 -0.01283644  0.02323161]
 [-0.         -0.01573155  0.          0.          0.99951369 -0.01878562 -0.01071481 -0.01603759]
 [ 0.01108746 -0.         -0.01564374  0.01586931  0.01878562  0.99951369  0.         -0.        ]
 [ 0.00060126  0.          0.02631445  0.01283644  0.01071481  0.          0.99951369  0.        ]
 [ 0.01245272 -0.          0.00451782 -0.02323161  0.01603759 -0.          0.          0.99951369]]
...
N(g) (NO)
[[ 0.99979199 -0.02635177]
 [ 0.02635177  0.99979199]]
...
P(g) (NO)
[[ 1.         -0.         -0.          0.         -0.          0.         -0.          0.        ]
 [ 0.          1.          0.          0.         -0.         -0.          0.         -0.        ]
 [ 0.0001014   0.00384701 -0.          0.         -0.         -0.          0.         -0.        ]
 [ 0.00010566  0.00400868 -0.          0.         -0.         -0.          0.         -0.        ]
 [-0.00041455 -0.01572828  0.         -0.          0.          0.         -0.          0.        ]
 [ 0.01108516 -0.00029217 -0.          0.         -0.          0.         -0.          0.        ]
 [ 0.00060114 -0.00001584 -0.          0.         -0.          0.         -0.          0.        ]
 [ 0.01245013 -0.00032815 -0.          0.         -0.          0.         -0.          0.        ]]
...
Pg_ortho
[[ 0.91957281 -0.05215935 -0.25109756  0.09113358  0.00444812 -0.0002523   0.0012146  -0.00044083]
 [-0.05215935  0.00295854  0.01424257 -0.00516921 -0.0002523   0.00001431 -0.00006889  0.000025  ]
 [-0.25068494  0.01421917  0.06845176 -0.02484394  0.01444021 -0.00081907  0.00394303 -0.00143109]
 [ 0.09098382 -0.00516072 -0.02484394  0.00901688 -0.00524094  0.00029727 -0.00143109  0.0005194 ]
 [-0.00444812  0.0002523   0.0012146  -0.00044083  0.91957281 -0.05215935  0.25109756 -0.09113358]
 [ 0.0002523  -0.00001431 -0.00006889  0.000025   -0.05215935  0.00295854 -0.01424257  0.00516921]
 [ 0.01444021 -0.00081907 -0.00394303  0.00143109  0.25068494 -0.01421917  0.06845176 -0.02484394]
 [-0.00524094  0.00029727  0.00143109 -0.0005194  -0.09098382  0.00516072 -0.02484394  0.00901688]]
G(g) (NO)
[[ 0.65281523 -0.00147294  0.18232441  0.05070063 -0.03608221 -0.00197479 -0.00010594 -0.00061752]
 [ 0.00147294  0.65281523 -0.00022349  0.0005773   0.00197715  0.00149584 -0.1567373  -0.11200827]
 [ 0.18225629 -0.00423244  1.11482343 -0.06410208 -0.17706553 -0.00189442  0.00094917  0.00064282]
 [ 0.05069823  0.00028981 -0.06408399  0.87243851  0.21931896  0.00048135 -0.00086097 -0.00058055]
 [-0.03587545  0.01113697 -0.17701794  0.21933354  1.21940002  0.0021913  -0.00187397 -0.00062095]
 [-0.00946738  0.00166776 -0.00222423 -0.0012299  -0.001585    1.30839393  0.16436044  0.11142457]
 [-0.00267788 -0.1566996  -0.00109307 -0.00120068 -0.00116244  0.16440397  1.07329031  0.13174838]
 [-0.00672512 -0.11188014 -0.00056783 -0.00057177 -0.0011415   0.11145318  0.13173885  0.82497772]]
...
C(NO)
[[-1.02638282  0.         -0.570585   -0.26300774 -0.14675683  0.          0.          0.        ]
 [ 0.         -1.02638282  0.          0.          0.         -0.570585   -0.26300774 -0.14675683]
 [ 0.15007137  0.          0.12421718 -0.77013986 -0.79204078  0.          0.          0.        ]
 [ 0.02086474  0.         -0.18678538 -0.40478363  0.32755607  0.          0.          0.        ]
 [ 0.05013463  0.          0.52205564 -0.46341872  0.34117108  0.          0.          0.        ]
 [ 0.          0.05777233  0.          0.          0.          0.34652246 -0.62911512  0.44051663]
 [ 0.         -0.14478553  0.          0.          0.         -0.23506748  0.6929045   0.79843864]
 [ 0.         -0.03420149  0.          0.          0.          0.38409146  0.30954746  0.13949954]]
detC 1.0534617028251436
detNg [1.00027844 1.00729169 1.03944277 1.11415571 1.22520064 1.33035417 1.3870157  1.40053702]
xg [0.9008274  0.8945554  0.86688585 0.80875431 0.7354536  0.67732206 0.64965251 0.64338051]
ciS 1.5442079110687146
[[-1.28042899  0.         -0.23641927  0.00727603  0.18884167  0.          0.          0.        ]
 [ 0.         -1.28042899  0.          0.          0.          0.15714174  0.20363081  0.15952791]
 [-0.23641927  0.         -0.19941083 -0.16242548  0.05726301  0.          0.          0.        ]
 [ 0.00727603  0.         -0.16242548  0.20111346  0.43914884  0.          0.          0.        ]
 [ 0.18884167  0.          0.05726301  0.43914884 -0.34928444  0.          0.          0.        ]
 [ 0.          0.15714174  0.          0.          0.          0.1987275   0.17194597 -0.40169621]
 [ 0.          0.20363081  0.          0.          0.          0.17194597 -0.11012002 -0.10841088]
 [ 0.          0.15952791  0.          0.          0.         -0.40169621 -0.10841088 -0.43618928]]
ciH -3.0900624860131183
S2 = -0.000000
X(g)
[[ 2.         -0.          0.0001014   0.00010566 -0.00041455 -0.01108516 -0.00060114 -0.01245013]
 [ 0.          2.         -0.00384701 -0.00400868  0.01572828 -0.00029217 -0.00001584 -0.00032815]
 [ 0.0001014   0.00384701  0.          0.          0.          0.          0.          0.        ]
 [ 0.00010566  0.00400868  0.          0.          0.          0.          0.          0.        ]
 [-0.00041455 -0.01572828  0.          0.          0.          0.          0.          0.        ]
 [ 0.01108516 -0.00029217  0.          0.          0.          0.          0.          0.        ]
 [ 0.00060114 -0.00001584  0.          0.          0.          0.          0.          0.        ]
 [ 0.01245013 -0.00032815  0.          0.          0.          0.          0.          0.        ]]
X(g) int
[[ 2.          0.          0.0608299   0.06338625 -0.24869982 -0.1629513  -0.00883671 -0.18301637]
 [-0.          2.         -0.05655083 -0.05892735  0.23120505 -0.17528146 -0.00950536 -0.1968648 ]
 [ 0.0608299   0.05655083  0.          0.          0.          0.          0.          0.        ]
 [ 0.06338625  0.05892735  0.          0.          0.          0.          0.          0.        ]
 [-0.24869982 -0.23120505  0.          0.          0.          0.          0.          0.        ]
 [ 0.1629513  -0.17528146  0.          0.          0.          0.          0.          0.        ]
 [ 0.00883671 -0.00950536  0.          0.          0.          0.          0.          0.        ]
 [ 0.18301637 -0.1968648   0.          0.          0.          0.          0.          0.        ]]
Hsp + Hph =  -2.001066348555713
Feff (mod,ortho)
[[-0.52558904  0.06655976  0.3709112   0.04636163  0.          0.          0.          0.        ]
 [ 0.06655976  0.84316927 -0.08127698 -0.02787841  0.          0.          0.          0.        ]
 [ 0.3709112  -0.08127698  0.97594801  0.71340788  0.          0.          0.          0.        ]
 [ 0.04636163 -0.02787841  0.71340788  0.93791287  0.          0.          0.          0.        ]
 [ 0.          0.          0.          0.         -0.52558904  0.06655976 -0.3709112  -0.04636163]
 [ 0.          0.          0.          0.          0.06655976  0.84316927  0.08127698  0.02787841]
 [ 0.          0.          0.          0.         -0.3709112   0.08127698  0.97594801  0.71340788]
 [ 0.          0.          0.          0.         -0.04636163  0.02787841  0.71340788  0.93791287]]
E(SUHF) =     -1.11910433
e_a, e_b
[-0.62771337  0.29995565  0.84281349  1.71638535] [-0.62771337  0.29995565  0.84281349  1.71638535]
P_a, P_b
[[ 0.91816132 -0.053927   -0.25407622  0.08762572]
 [-0.053927    0.00316733  0.01492283 -0.00514658]
 [-0.25407622  0.01492283  0.07030869 -0.02424804]
 [ 0.08762572 -0.00514658 -0.02424804  0.00836265]] 
 [[ 0.91816132 -0.053927    0.25407622 -0.08762572]
 [-0.053927    0.00316733 -0.01492283  0.00514658]
 [ 0.25407622 -0.01492283  0.07030869 -0.02424804]
 [-0.08762572  0.00514658 -0.02424804  0.00836265]]
**** Start Cycle 4 ****
dm (ortho)
[array([[ 0.91816132, -0.053927  , -0.25407622,  0.08762572],
       [-0.053927  ,  0.00316733,  0.01492283, -0.00514658],
       [-0.25407622,  0.01492283,  0.07030869, -0.02424804],
       [ 0.08762572, -0.00514658, -0.02424804,  0.00836265]]), array([[ 0.91816132, -0.053927  ,  0.25407622, -0.08762572],
       [-0.053927  ,  0.00316733, -0.01492283,  0.00514658],
       [ 0.25407622, -0.01492283,  0.07030869, -0.02424804],
       [-0.08762572,  0.00514658, -0.02424804,  0.00836265]])]
Fock (ortho)
 (array([[-0.60173633,  0.07639005,  0.22248038, -0.00482022],
       [ 0.07639005,  0.84336564, -0.0762394 , -0.02492501],
       [ 0.22248038, -0.0762394 ,  1.06559019,  0.71093979],
       [-0.00482022, -0.02492501,  0.71093979,  0.92891645]]), array([[-0.60173633,  0.07639005, -0.22248038,  0.00482022],
       [ 0.07639005,  0.84336564,  0.0762394 ,  0.02492501],
       [-0.22248038,  0.0762394 ,  1.06559019,  0.71093979],
       [ 0.00482022,  0.02492501,  0.71093979,  0.92891645]]))
E(UHF) =    -1.905200
NO eigenvalue
[-1. -0. -0.  0.] [-1. -0.  0.  0.]
NO vec
[[ 0.95820735  0.          0.27751284 -0.03670788  0.05897315  0.          0.          0.        ]
 [-0.05627905  0.          0.3818186  -0.06132551 -0.92048162  0.          0.          0.        ]
 [-0.26515787  0.          0.86730735  0.21618471  0.3615708   0.          0.          0.        ]
 [ 0.09144755  0.         -0.1580479   0.97373296 -0.13602323  0.          0.          0.        ]
 [ 0.          0.95820735  0.          0.          0.         -0.27802313  0.01901918  0.0646536 ]
 [ 0.         -0.05627905  0.          0.          0.         -0.41137641 -0.10711286 -0.90339856]
 [ 0.          0.26515787  0.          0.          0.          0.8317909   0.2411293  -0.42387719]
 [ 0.         -0.09144755  0.          0.          0.         -0.24818639  0.96437636  0.00436961]]
dm(NO)
[[ 1.  0. -0.  0.  0.  0.  0.  0.]
 [ 0.  1.  0.  0.  0.  0.  0.  0.]
 [-0.  0.  0.  0.  0.  0.  0.  0.]
 [ 0.  0.  0. -0. -0.  0.  0.  0.]
 [ 0.  0. -0.  0.  0.  0.  0.  0.]
 [ 0.  0.  0.  0.  0. -0. -0.  0.]
 [ 0. -0.  0.  0.  0. -0. -0.  0.]
 [ 0.  0.  0.  0.  0.  0.  0.  0.]]
D(g) (NO)
[[ 0.99951369  0.02627677 -0.          0.          0.         -0.01517076  0.00151254  0.00703456]
 [-0.02627677  0.99951369 -0.01524401  0.00197841 -0.00675505  0.          0.          0.        ]
 [-0.          0.01524401  0.99951369  0.         -0.          0.01641539  0.00065784 -0.02168215]
 [ 0.         -0.00197841  0.          0.99951369 -0.         -0.00082365  0.03109104 -0.00107123]
 [ 0.          0.00675505 -0.         -0.          0.99951369  0.02172781  0.00173768  0.02125194]
 [ 0.01517076  0.         -0.01641539  0.00082365 -0.02172781  0.99951369  0.          0.        ]
 [-0.00151254  0.         -0.00065784 -0.03109104 -0.00173768  0.          0.99951369 -0.        ]
 [-0.00703456  0.          0.02168215  0.00107123 -0.02125194  0.         -0.          0.99951369]]
...
N(g) (NO)
[[ 0.99979555 -0.02628418]
 [ 0.02628418  0.99979555]]
...
P(g) (NO)
[[ 1.          0.         -0.          0.          0.          0.          0.          0.        ]
 [-0.          1.          0.         -0.         -0.          0.          0.          0.        ]
 [ 0.00040068  0.01524089 -0.          0.          0.          0.          0.          0.        ]
 [-0.000052   -0.00197801  0.         -0.         -0.         -0.          0.         -0.        ]
 [ 0.00017755  0.00675367 -0.          0.          0.          0.          0.          0.        ]
 [ 0.01516765 -0.00039875 -0.          0.          0.         -0.          0.         -0.        ]
 [-0.00151223  0.00003976  0.         -0.         -0.          0.          0.          0.        ]
 [-0.00703312  0.0001849   0.         -0.         -0.          0.          0.          0.        ]]
...
Pg_ortho
[[ 0.91827973 -0.05393395 -0.25410898  0.08763702  0.00450399 -0.00026454  0.00124636 -0.00042984]
 [-0.05393395  0.00316774  0.01492476 -0.00514724 -0.00026454  0.00001554 -0.0000732   0.00002525]
 [-0.25369249  0.01490029  0.07020251 -0.02421142  0.01459623 -0.00085729  0.00403911 -0.00139301]
 [ 0.08749338 -0.00513881 -0.02421142  0.00835002 -0.00503394  0.00029566 -0.00139301  0.00048042]
 [-0.00450399  0.00026454  0.00124636 -0.00042984  0.91827973 -0.05393395  0.25410898 -0.08763702]
 [ 0.00026454 -0.00001554 -0.0000732   0.00002525 -0.05393395  0.00316774 -0.01492476  0.00514724]
 [ 0.01459623 -0.00085729 -0.00403911  0.00139301  0.25369249 -0.01490029  0.07020251 -0.02421142]
 [-0.00503394  0.00029566  0.00139301 -0.00048042 -0.08749338  0.00513881 -0.02421142  0.00835002]]
G(g) (NO)
[[ 0.65370753 -0.00148391  0.01029354 -0.01611527  0.19165201 -0.0018155  -0.00085695  0.00058684]
 [ 0.00148391  0.65370753 -0.00190956 -0.00075014 -0.00040697 -0.00648853  0.04247015  0.18775073]
 [ 0.01009766 -0.01048444  1.14623064  0.24736353  0.14131499 -0.00174465 -0.00115038 -0.00152377]
 [-0.01614166 -0.00191866  0.24736035  0.93621171  0.14869843 -0.00073836 -0.00086489 -0.00123597]
 [ 0.19155453 -0.0057713   0.14136316  0.14872107  1.12801956 -0.00163848 -0.00154188 -0.0009651 ]
 [-0.0100838  -0.00629893  0.00164747  0.00065294 -0.00154533  1.08934588  0.23775841 -0.16095255]
 [-0.00202916  0.04250022  0.0006674   0.00049118 -0.00133069  0.23774943  0.94110787 -0.14081637]
 [ 0.00641186  0.18764251 -0.0018946  -0.00132733  0.00147175 -0.16099747 -0.14084368  1.18000816]]
...
C(NO)
[[-1.02600155  0.         -0.56949849 -0.26677332 -0.14491191  0.          0.          0.        ]
 [ 0.         -1.02600155  0.          0.          0.         -0.56949849 -0.26677332 -0.14491191]
 [-0.07487553  0.         -0.54428554  0.55713131 -0.20206266  0.          0.          0.        ]
 [-0.00307183  0.          0.16630573  0.30023985 -0.47846764  0.          0.          0.        ]
 [ 0.14365572  0.          0.01396936 -0.75444543 -0.76275604  0.          0.          0.        ]
 [ 0.          0.07818019  0.          0.          0.          0.55805931 -0.5460077   0.1333079 ]
 [ 0.          0.030585    0.          0.          0.         -0.1115973  -0.45569085  0.3804779 ]
 [ 0.          0.13858269  0.          0.          0.          0.01467429 -0.68113773 -0.83007407]]
detC 1.0526791900635426
detNg [1.000282   1.00738566 1.03996752 1.11578516 1.22874056 1.33600029 1.39391697 1.40775029]
xg [0.90216395 0.89580227 0.86773707 0.8087743  0.73442547 0.6754627  0.6473975  0.64103582]
ciS 1.5431997728255058
[[-1.27943418  0.         -0.15454513 -0.06706667 -0.25511988  0.          0.          0.        ]
 [ 0.         -1.27943418  0.          0.          0.          0.14014638  0.04368783 -0.26817653]
 [-0.15454513  0.         -0.36353456  0.36280767 -0.15385665  0.          0.          0.        ]
 [-0.06706667  0.          0.36280767  0.29818381  0.13071434  0.          0.          0.        ]
 [-0.25511988  0.         -0.15385665  0.13071434 -0.28322587  0.          0.          0.        ]
 [ 0.          0.14014638  0.          0.          0.         -0.41823283  0.30992084  0.12635305]
 [ 0.          0.04368783  0.          0.          0.          0.30992084  0.31361537 -0.2112362 ]
 [ 0.         -0.26817653  0.          0.          0.          0.12635305 -0.2112362  -0.24395916]]
ciH -3.0883905921858066
S2 = 0.000000
X(g)
[[ 2.          0.          0.00040068 -0.000052    0.00017755 -0.01516765  0.00151223  0.00703312]
 [-0.          2.         -0.01524089  0.00197801 -0.00675367 -0.00039875  0.00003976  0.0001849 ]
 [ 0.00040068  0.01524089  0.          0.          0.          0.          0.          0.        ]
 [-0.000052   -0.00197801  0.          0.          0.          0.          0.          0.        ]
 [ 0.00017755  0.00675367  0.          0.          0.          0.          0.          0.        ]
 [ 0.01516765 -0.00039875  0.          0.          0.          0.          0.          0.        ]
 [-0.00151223  0.00003976  0.          0.          0.          0.          0.          0.        ]
 [-0.00703312  0.0001849   0.          0.          0.          0.          0.          0.        ]]
X(g) int
[[ 2.          0.          0.24088789 -0.03126317  0.10674429 -0.22344053  0.02227731  0.10360757]
 [-0.          2.         -0.2245194   0.02913882 -0.09949095 -0.23973038  0.02390142  0.11116104]
 [ 0.24088789  0.2245194   0.          0.          0.          0.          0.          0.        ]
 [-0.03126317 -0.02913882  0.          0.          0.          0.          0.          0.        ]
 [ 0.10674429  0.09949095  0.          0.          0.          0.          0.          0.        ]
 [ 0.22344053 -0.23973038  0.          0.          0.          0.          0.          0.        ]
 [-0.02227731  0.02390142  0.          0.          0.          0.          0.          0.        ]
 [-0.10360757  0.11116104  0.          0.          0.          0.          0.          0.        ]]
Hsp + Hph =  -2.0012902066017997
Feff (mod,ortho)
[[-0.52136559  0.06601975  0.3771251   0.05366001  0.          0.          0.          0.        ]
 [ 0.06601975  0.84430656 -0.08375882 -0.02889897  0.          0.          0.          0.        ]
 [ 0.3771251  -0.08375882  0.97384831  0.7116382   0.          0.          0.          0.        ]
 [ 0.05366001 -0.02889897  0.7116382   0.93934667  0.          0.          0.          0.        ]
 [ 0.          0.          0.          0.         -0.52136559  0.06601975 -0.3771251  -0.05366001]
 [ 0.          0.          0.          0.          0.06601975  0.84430656  0.08375882  0.02889897]
 [ 0.          0.          0.          0.         -0.3771251   0.08375882  0.97384831  0.7116382 ]
 [ 0.          0.          0.          0.         -0.05366001  0.02889897  0.7116382   0.93934667]]
E(SUHF) =     -1.11932819
e_a, e_b
[-0.62581163  0.30104015  0.84369206  1.71721537] [-0.62581163  0.30104015  0.84369206  1.71721537]
P_a, P_b
[[ 0.91732126 -0.05415672 -0.25655494  0.08419963]
 [-0.05415672  0.0031973   0.01514646 -0.00497097]
 [-0.25655494  0.01514646  0.07175287 -0.02354882]
 [ 0.08419963 -0.00497097 -0.02354882  0.00772857]] 
 [[ 0.91732126 -0.05415672  0.25655494 -0.08419963]
 [-0.05415672  0.0031973  -0.01514646  0.00497097]
 [ 0.25655494 -0.01514646  0.07175287 -0.02354882]
 [-0.08419963  0.00497097 -0.02354882  0.00772857]]
**** Start Cycle 5 ****
dm (ortho)
[array([[ 0.91732126, -0.05415672, -0.25655494,  0.08419963],
       [-0.05415672,  0.0031973 ,  0.01514646, -0.00497097],
       [-0.25655494,  0.01514646,  0.07175287, -0.02354882],
       [ 0.08419963, -0.00497097, -0.02354882,  0.00772857]]), array([[ 0.91732126, -0.05415672,  0.25655494, -0.08419963],
       [-0.05415672,  0.0031973 , -0.01514646,  0.00497097],
       [ 0.25655494, -0.01514646,  0.07175287, -0.02354882],
       [-0.08419963,  0.00497097, -0.02354882,  0.00772857]])]
Fock (ortho)
 (array([[-0.60059015,  0.07603987,  0.22524729, -0.00290922],
       [ 0.07603987,  0.84402332, -0.07782651, -0.02548037],
       [ 0.22524729, -0.07782651,  1.06560673,  0.71080908],
       [-0.00290922, -0.02548037,  0.71080908,  0.92935082]]), array([[-0.60059015,  0.07603987, -0.22524729,  0.00290922],
       [ 0.07603987,  0.84402332,  0.07782651,  0.02548037],
       [-0.22524729,  0.07782651,  1.06560673,  0.71080908],
       [ 0.00290922,  0.02548037,  0.71080908,  0.92935082]]))
E(UHF) =    -1.902575
NO eigenvalue
[-1. -0.  0.  0.] [-1. -0. -0.  0.]
NO vec
[[ 0.9577689   0.          0.28586494 -0.0067181   0.03024628  0.          0.          0.        ]
 [-0.05654466  0.          0.27561094 -0.35230577 -0.89259283  0.          0.          0.        ]
 [-0.26786727  0.          0.88862871  0.33689955  0.15838196  0.          0.          0.        ]
 [ 0.08791226  0.         -0.2294752   0.87311752 -0.42104437  0.          0.          0.        ]
 [ 0.          0.9577689   0.          0.          0.          0.25747235  0.00900316 -0.12769366]
 [ 0.         -0.05654466  0.          0.          0.          0.60514894 -0.05220097  0.79238408]
 [ 0.          0.26786727  0.          0.          0.         -0.71628167  0.27211931  0.58407086]
 [ 0.         -0.08791226  0.          0.          0.          0.23333092  0.96080439 -0.12117357]]
dm(NO)
[[ 1.  0. -0.  0.  0.  0.  0.  0.]
 [ 0.  1.  0.  0.  0. -0. -0. -0.]
 [-0.  0.  0.  0.  0.  0.  0.  0.]
 [ 0.  0.  0.  0. -0.  0.  0.  0.]
 [ 0.  0. -0.  0.  0.  0.  0.  0.]
 [ 0. -0.  0.  0.  0. -0. -0.  0.]
 [ 0. -0.  0.  0.  0.  0.  0.  0.]
 [ 0. -0.  0.  0.  0. -0.  0.  0.]]
D(g) (NO)
[[ 0.99951369  0.02622624 -0.          0.          0.          0.01324545  0.00072187 -0.01042181]
 [-0.02622624  0.99951369 -0.01610353 -0.00084111 -0.00495441 -0.          0.         -0.        ]
 [-0.          0.01610353  0.99951369 -0.         -0.         -0.01402197  0.00029683  0.02272368]
 [ 0.          0.00084111 -0.          0.99951369  0.         -0.00787429  0.02958983 -0.00584153]
 [ 0.          0.00495441 -0.          0.          0.99951369 -0.02320196 -0.00980949 -0.0177    ]
 [-0.01324545 -0.          0.01402197  0.00787429  0.02320196  0.99951369 -0.         -0.        ]
 [-0.00072187  0.         -0.00029683 -0.02958983  0.00980949 -0.          0.99951369 -0.        ]
 [ 0.01042181 -0.         -0.02272368  0.00584153  0.0177     -0.         -0.          0.99951369]]
...
N(g) (NO)
[[ 0.9997982  -0.02623371]
 [ 0.02623371  0.9997982 ]]
...
P(g) (NO)
[[ 1.          0.         -0.          0.          0.         -0.         -0.         -0.        ]
 [ 0.          1.          0.          0.         -0.         -0.         -0.         -0.        ]
 [ 0.00042246  0.01610028 -0.          0.          0.         -0.         -0.         -0.        ]
 [ 0.00002207  0.00084094 -0.          0.          0.         -0.         -0.         -0.        ]
 [ 0.00012997  0.00495341 -0.          0.          0.         -0.         -0.         -0.        ]
 [-0.01324278  0.00034748  0.         -0.         -0.         -0.         -0.         -0.        ]
 [-0.00072172  0.00001894  0.         -0.         -0.         -0.         -0.         -0.        ]
 [ 0.01041971 -0.0002734  -0.          0.          0.          0.          0.          0.        ]]
...
Pg_ortho
[[ 0.91744055 -0.05416376 -0.2565883   0.08421058  0.00454622 -0.0002684   0.00127148 -0.00041729]
 [-0.05416376  0.00319771  0.01514843 -0.00497162 -0.0002684   0.00001585 -0.00007507  0.00002464]
 [-0.25616855  0.01512365  0.07164481 -0.02351335  0.01472571 -0.00086937  0.00411846 -0.00135165]
 [ 0.08407282 -0.00496348 -0.02351335  0.00771693 -0.00483288  0.00028532 -0.00135165  0.0004436 ]
 [-0.00454622  0.0002684   0.00127148 -0.00041729  0.91744055 -0.05416376  0.2565883  -0.08421058]
 [ 0.0002684  -0.00001585 -0.00007507  0.00002464 -0.05416376  0.00319771 -0.01514843  0.00497162]
 [ 0.01472571 -0.00086937 -0.00411846  0.00135165  0.25616855 -0.01512365  0.07164481 -0.02351335]
 [-0.00483288  0.00028532  0.00135165 -0.0004436  -0.08407282  0.00496348 -0.02351335  0.00771693]]
G(g) (NO)
[[ 0.6536598  -0.00148668  0.03343383  0.04827381  0.18310172  0.00165278 -0.00090935 -0.00093541]
 [ 0.00148668  0.6536598  -0.00190932 -0.00088187  0.00010184 -0.03616877  0.02961651 -0.18651837]
 [ 0.03322833 -0.01106778  1.14759625  0.3028695   0.03391705  0.00222229 -0.00119141  0.00118537]
 [ 0.04821046 -0.00405263  0.3028792   1.06002227  0.14112745  0.00162651 -0.00127131  0.00128305]
 [ 0.18304442 -0.00346105  0.03396329  0.14115283  1.00514312  0.00114921 -0.00101527  0.00011758]
 [ 0.00846935 -0.03633037 -0.00102539  0.00005093  0.00139596  1.02604287 -0.20648698 -0.11413033]
 [-0.00265065  0.02965772  0.00061454  0.00009385 -0.00166224 -0.20648746  0.96322375  0.20939908]
 [-0.00849368 -0.18637101  0.0019186   0.00082014 -0.0023517  -0.11417563  0.20942778  1.22349501]]
...
C(NO)
[[-1.02586839  0.         -0.56906489 -0.26888119 -0.14237794  0.          0.          0.        ]
 [ 0.         -1.02586839  0.          0.          0.         -0.56906489 -0.26888119 -0.14237794]
 [-0.05928573  0.         -0.54885884  0.44703432 -0.26074725  0.          0.          0.        ]
 [ 0.03872609  0.          0.14978231  0.04591263 -0.70563315  0.          0.          0.        ]
 [ 0.1466679   0.          0.03020609 -0.87558576 -0.53514306  0.          0.          0.        ]
 [ 0.         -0.10906217  0.          0.          0.         -0.54692865  0.68857531  0.05413268]
 [ 0.          0.02652333  0.          0.          0.         -0.10611194 -0.41421026  0.43384698]
 [ 0.         -0.11801667  0.          0.          0.          0.11917419  0.56823585  0.81310013]]
detC 1.052405957768781
detNg [1.00028466 1.00745567 1.04035874 1.11700202 1.23139073 1.34023726 1.39910245 1.41317185]
xg [0.90263007 0.8962052  0.86786122 0.80831278 0.73322544 0.67367699 0.64533302 0.63890815]
ciS 1.5415382159487103
[[-1.27809777  0.         -0.18167427 -0.15642883 -0.19558771  0.          0.          0.        ]
 [ 0.         -1.27809777  0.          0.          0.         -0.07857618  0.06886242  0.29122813]
 [-0.18167427  0.         -0.44015232  0.2664519  -0.24490335  0.          0.          0.        ]
 [-0.15642883  0.          0.2664519   0.32581913 -0.1175131   0.          0.          0.        ]
 [-0.19558771  0.         -0.24490335 -0.1175131  -0.23557983  0.          0.          0.        ]
 [ 0.         -0.07857618  0.          0.          0.         -0.35017925 -0.2489765   0.16628547]
 [ 0.          0.06886242  0.          0.          0.         -0.2489765   0.34166728  0.234265  ]
 [ 0.          0.29122813  0.          0.          0.          0.16628547  0.234265   -0.34140105]]
ciH -3.085334617664349
S2 = 0.000000
X(g)
[[ 2.          0.          0.00042246  0.00002207  0.00012997  0.01324278  0.00072172 -0.01041971]
 [-0.          2.         -0.01610028 -0.00084094 -0.00495341  0.00034748  0.00001894 -0.0002734 ]
 [ 0.00042246  0.01610028  0.          0.          0.          0.          0.          0.        ]
 [ 0.00002207  0.00084094  0.          0.          0.          0.          0.          0.        ]
 [ 0.00012997  0.00495341  0.          0.          0.          0.          0.          0.        ]
 [-0.01324278  0.00034748  0.          0.          0.          0.          0.          0.        ]
 [-0.00072172  0.00001894  0.          0.          0.          0.          0.          0.        ]
 [ 0.01041971 -0.0002734   0.          0.          0.          0.          0.          0.        ]]
X(g) int
[[ 2.          0.          0.25438667  0.01328702  0.07826457  0.1953956   0.01064893 -0.15374157]
 [-0.          2.         -0.23755767 -0.01240801 -0.07308696  0.20923776  0.01140332 -0.16463289]
 [ 0.25438667  0.23755767  0.          0.          0.          0.          0.          0.        ]
 [ 0.01328702  0.01240801  0.          0.          0.          0.          0.          0.        ]
 [ 0.07826457  0.07308696  0.          0.          0.          0.          0.          0.        ]
 [-0.1953956   0.20923776  0.          0.          0.          0.          0.          0.        ]
 [-0.01064893  0.01140332  0.          0.          0.          0.          0.          0.        ]
 [ 0.15374157 -0.16463289  0.          0.          0.          0.          0.          0.        ]]
Hsp + Hph =  -2.0014648911999493
Feff (mod,ortho)
[[-0.51807495  0.06552819  0.38243711  0.06031191  0.          0.          0.          0.        ]
 [ 0.06552819  0.84497689 -0.08552923 -0.02973051  0.          0.          0.          0.        ]
 [ 0.38243711 -0.08552923  0.97122719  0.709674    0.          0.          0.          0.        ]
 [ 0.06031191 -0.02973051  0.709674    0.94026158  0.          0.          0.          0.        ]
 [ 0.          0.          0.          0.         -0.51807495  0.06552819 -0.38243711 -0.06031191]
 [ 0.          0.          0.          0.          0.06552819  0.84497689  0.08552923  0.02973051]
 [ 0.          0.          0.          0.         -0.38243711  0.08552923  0.97122719  0.709674  ]
 [ 0.          0.          0.          0.         -0.06031191  0.02973051  0.709674    0.94026158]]
E(SUHF) =     -1.11950287
e_a, e_b
[-0.62451429  0.30172718  0.84416009  1.71701775] [-0.62451429  0.30172718  0.84416009  1.71701775]
P_a, P_b
[[ 0.91669598 -0.05429153 -0.25859164  0.08091508]
 [-0.05429153  0.00321543  0.01531515 -0.00479221]
 [-0.25859164  0.01531515  0.07294636 -0.02282541]
 [ 0.08091508 -0.00479221 -0.02282541  0.00714223]] 
 [[ 0.91669598 -0.05429153  0.25859164 -0.08091508]
 [-0.05429153  0.00321543 -0.01531515  0.00479221]
 [ 0.25859164 -0.01531515  0.07294636 -0.02282541]
 [-0.08091508  0.00479221 -0.02282541  0.00714223]]
**** Start Cycle 6 ****
dm (ortho)
[array([[ 0.91669598, -0.05429153, -0.25859164,  0.08091508],
       [-0.05429153,  0.00321543,  0.01531515, -0.00479221],
       [-0.25859164,  0.01531515,  0.07294636, -0.02282541],
       [ 0.08091508, -0.00479221, -0.02282541,  0.00714223]]), array([[ 0.91669598, -0.05429153,  0.25859164, -0.08091508],
       [-0.05429153,  0.00321543, -0.01531515,  0.00479221],
       [ 0.25859164, -0.01531515,  0.07294636, -0.02282541],
       [-0.08091508,  0.00479221, -0.02282541,  0.00714223]])]
Fock (ortho)
 (array([[-0.59961631,  0.07570904,  0.22757971, -0.00112804],
       [ 0.07570904,  0.84461553, -0.07920747, -0.02597223],
       [ 0.22757971, -0.07920747,  1.06565158,  0.71066039],
       [-0.00112804, -0.02597223,  0.71066039,  0.92973393]]), array([[-0.59961631,  0.07570904, -0.22757971,  0.00112804],
       [ 0.07570904,  0.84461553,  0.07920747,  0.02597223],
       [-0.22757971,  0.07920747,  1.06565158,  0.71066039],
       [ 0.00112804,  0.02597223,  0.71066039,  0.92973393]]))
E(UHF) =    -1.900214
NO eigenvalue
[-1. -0. -0.  0.] [-1. -0. -0.  0.]
NO vec
[[ 0.95744242  0.         -0.14715084 -0.03503899 -0.24581073  0.          0.          0.        ]
 [-0.05670475  0.          0.74526933 -0.02101755 -0.66401541  0.          0.          0.        ]
 [-0.27008584  0.         -0.6367394   0.18730391 -0.69751976  0.          0.          0.        ]
 [ 0.08451169  0.          0.132224    0.98145187  0.1101218   0.          0.          0.        ]
 [ 0.          0.95744242  0.          0.          0.         -0.10779068 -0.22228178 -0.14925145]
 [ 0.         -0.05670475  0.          0.          0.          0.80037786 -0.59407658 -0.05703401]
 [ 0.          0.27008584  0.          0.          0.          0.4209052   0.47156185  0.72630701]
 [ 0.         -0.08451169  0.          0.          0.         -0.41305601 -0.61261183  0.66854264]]
dm(NO)
[[ 1.  0. -0.  0. -0.  0.  0.  0.]
 [ 0.  1.  0.  0.  0. -0.  0.  0.]
 [-0.  0.  0.  0.  0.  0.  0.  0.]
 [ 0.  0.  0.  0.  0.  0.  0.  0.]
 [-0.  0. -0.  0. -0.  0.  0.  0.]
 [ 0.  0.  0.  0.  0.  0.  0.  0.]
 [ 0.  0.  0.  0.  0.  0. -0.  0.]
 [ 0.  0.  0.  0.  0.  0.  0.  0.]]
D(g) (NO)
[[ 0.99951369  0.02618838 -0.         -0.         -0.         -0.00926694 -0.01117201 -0.00871044]
 [-0.02618838  0.99951369  0.01142234  0.00201793  0.01232964 -0.         -0.          0.        ]
 [-0.         -0.01142234  0.99951369  0.          0.          0.00903489 -0.02467535 -0.01230534]
 [-0.         -0.00201793  0.          0.99951369 -0.         -0.0105899  -0.01536238  0.02490326]
 [-0.         -0.01232964  0.         -0.          0.99951369 -0.02631999  0.00164428 -0.0111771 ]
 [ 0.00926694 -0.         -0.00903489  0.0105899   0.02631999  0.99951369  0.          0.        ]
 [ 0.01117201 -0.          0.02467535  0.01536238 -0.00164428  0.          0.99951369 -0.        ]
 [ 0.00871044  0.          0.01230534 -0.02490326  0.0111771   0.         -0.          0.99951369]]
...
N(g) (NO)
[[ 0.99980019 -0.02619588]
 [ 0.02619588  0.99980019]]
...
P(g) (NO)
[[ 1.         -0.         -0.          0.         -0.          0.         -0.         -0.        ]
 [-0.          1.          0.         -0.          0.         -0.          0.          0.        ]
 [-0.00029922 -0.01142005  0.         -0.          0.          0.         -0.         -0.        ]
 [-0.00005286 -0.00201753  0.         -0.          0.          0.         -0.         -0.        ]
 [-0.00032299 -0.01232718  0.         -0.          0.          0.         -0.         -0.        ]
 [ 0.00926509 -0.00024276 -0.          0.         -0.          0.         -0.         -0.        ]
 [ 0.01116978 -0.00029266 -0.          0.         -0.          0.         -0.         -0.        ]
 [ 0.0087087  -0.00022818 -0.          0.         -0.          0.         -0.         -0.        ]]
...
Pg_ortho
[[ 0.91681593 -0.05429864 -0.25862547  0.08092567  0.00457783 -0.00027112  0.00129137 -0.00040408]
 [-0.05429864  0.00321585  0.01531715 -0.00479284 -0.00027112  0.00001606 -0.00007648  0.00002393]
 [-0.258203    0.01529213  0.07283673 -0.02279111  0.01483285 -0.00087848  0.00418421 -0.00130927]
 [ 0.08079347 -0.00478501 -0.02279111  0.00713149 -0.0046413   0.00027488 -0.00130927  0.00040968]
 [-0.00457783  0.00027112  0.00129137 -0.00040408  0.91681593 -0.05429864  0.25862547 -0.08092567]
 [ 0.00027112 -0.00001606 -0.00007648  0.00002393 -0.05429864  0.00321585 -0.01531715  0.00479284]
 [ 0.01483285 -0.00087848 -0.00418421  0.00130927  0.258203   -0.01529213  0.07283673 -0.02279111]
 [-0.0046413   0.00027488  0.00130927 -0.00040968 -0.08079347  0.00478501 -0.02279111  0.00713149]]
G(g) (NO)
[[ 0.65365791 -0.00148663 -0.18298045 -0.02393383  0.05290207 -0.00049729 -0.00100963 -0.00179353]
 [ 0.00148663  0.65365791  0.00106997 -0.00071503  0.00168146 -0.18736284  0.03723237 -0.01903203]
 [-0.18282014  0.00921322  1.24428499 -0.21069246  0.12543552 -0.00176251  0.00159388  0.00230818]
 [-0.02395898 -0.00179694 -0.21066902  0.91730143 -0.17860143  0.00130428 -0.00063639 -0.00068986]
 [ 0.05305712  0.00813681  0.12538709 -0.17859887  1.0531685  -0.00110551  0.00108428  0.00073975]
 [-0.006701   -0.18724656  0.00037584  0.00116801 -0.00203764  1.06304713 -0.06277635  0.22855293]
 [-0.00565645  0.03734544  0.000124   -0.00007407 -0.00057778 -0.0628016   0.85402932  0.11647072]
 [-0.00879892 -0.0188769   0.001499    0.00119418 -0.00261083  0.22850736  0.11648441  1.29767848]]
...
C(NO)
[[-1.02574479  0.         -0.56884219 -0.27070328 -0.14009853  0.          0.          0.        ]
 [ 0.         -1.02574479  0.          0.          0.         -0.56884219 -0.27070328 -0.14009853]
 [-0.108567    0.          0.15909471  0.51359557  0.80959966  0.          0.          0.        ]
 [-0.01714952  0.          0.16670536  0.32859429 -0.43988385  0.          0.          0.        ]
 [ 0.12123806  0.          0.52129146 -0.77191988 -0.06308602  0.          0.          0.        ]
 [ 0.         -0.12699701  0.          0.          0.          0.11453724  0.71127518  0.62951703]
 [ 0.          0.09648671  0.          0.          0.          0.52506157 -0.4922313  -0.31118007]
 [ 0.          0.03662842  0.          0.          0.          0.18983717 -0.46841315  0.59983709]]
detC 1.0521523717817718
detNg [1.00028664 1.00750806 1.04065165 1.11791425 1.23338114 1.34342509 1.40300765 1.41725577]
xg [0.90306342 0.89659063 0.86803521 0.80804255 0.73239508 0.67240242 0.64384701 0.63737421]
ciS 1.5404376367685728
[[-1.27691639  0.          0.29829732 -0.06646602  0.06667769  0.          0.          0.        ]
 [ 0.         -1.27691639  0.          0.          0.          0.2470033   0.01235324  0.19152468]
 [ 0.29829732  0.         -0.36341517 -0.2723904  -0.13323839  0.          0.          0.        ]
 [-0.06646602  0.         -0.2723904   0.27546993 -0.3021971   0.          0.          0.        ]
 [ 0.06667769  0.         -0.13323839 -0.3021971  -0.26314916  0.          0.          0.        ]
 [ 0.          0.2470033   0.          0.          0.         -0.38478476 -0.19994167 -0.13879443]
 [ 0.          0.01235324  0.          0.          0.         -0.19994167 -0.36773414 -0.20104162]
 [ 0.          0.19152468  0.          0.          0.         -0.13879443 -0.20104162  0.4014245 ]]
ciH -3.0833501656049176
S2 = -0.000000
X(g)
[[ 2.         -0.         -0.00029922 -0.00005286 -0.00032299 -0.00926509 -0.01116978 -0.0087087 ]
 [-0.          2.          0.01142005  0.00201753  0.01232718 -0.00024276 -0.00029266 -0.00022818]
 [-0.00029922 -0.01142005  0.          0.          0.          0.          0.          0.        ]
 [-0.00005286 -0.00201753  0.          0.          0.          0.          0.          0.        ]
 [-0.00032299 -0.01232718  0.          0.          0.          0.          0.          0.        ]
 [ 0.00926509 -0.00024276  0.          0.          0.          0.          0.          0.        ]
 [ 0.01116978 -0.00029266  0.          0.          0.          0.          0.          0.        ]
 [ 0.0087087  -0.00022818  0.          0.          0.          0.          0.          0.        ]]
X(g) int
[[ 2.          0.         -0.18039325 -0.03186922 -0.19472239 -0.13686864 -0.16500573 -0.12864942]
 [ 0.          2.          0.16870288  0.02980394  0.18210342 -0.14635304 -0.17643991 -0.13756426]
 [-0.18039325 -0.16870288  0.          0.          0.          0.          0.          0.        ]
 [-0.03186922 -0.02980394  0.          0.          0.          0.          0.          0.        ]
 [-0.19472239 -0.18210342  0.          0.          0.          0.          0.          0.        ]
 [ 0.13686864 -0.14635304  0.          0.          0.          0.          0.          0.        ]
 [ 0.16500573 -0.17643991  0.          0.          0.          0.          0.          0.        ]
 [ 0.12864942 -0.13756426  0.          0.          0.          0.          0.          0.        ]]
Hsp + Hph =  -2.0016066162035377
Feff (mod,ortho)
[[-0.51516497  0.0650944   0.38702443  0.06640268  0.          0.          0.          0.        ]
 [ 0.0650944   0.84557662 -0.08706725 -0.0304672   0.          0.          0.          0.        ]
 [ 0.38702443 -0.08706725  0.96897552  0.70778729  0.          0.          0.          0.        ]
 [ 0.06640268 -0.0304672   0.70778729  0.94099757  0.          0.          0.          0.        ]
 [ 0.          0.          0.          0.         -0.51516497  0.0650944  -0.38702443 -0.06640268]
 [ 0.          0.          0.          0.          0.0650944   0.84557662  0.08706725  0.0304672 ]
 [ 0.          0.          0.          0.         -0.38702443  0.08706725  0.96897552  0.70778729]
 [ 0.          0.          0.          0.         -0.06640268  0.0304672   0.70778729  0.94099757]]
E(SUHF) =     -1.11964460
e_a, e_b
[-0.62332765  0.30235411  0.84458058  1.71677769] [-0.62332765  0.30235411  0.84458058  1.71677769]
P_a, P_b
[[ 0.91623421 -0.05441559 -0.26025886  0.07780327]
 [-0.05441559  0.00323177  0.0154569  -0.00462077]
 [-0.26025886  0.0154569   0.07392725 -0.02210023]
 [ 0.07780327 -0.00462077 -0.02210023  0.00660677]] 
 [[ 0.91623421 -0.05441559  0.26025886 -0.07780327]
 [-0.05441559  0.00323177 -0.0154569   0.00462077]
 [ 0.26025886 -0.0154569   0.07392725 -0.02210023]
 [-0.07780327  0.00462077 -0.02210023  0.00660677]]
**** Start Cycle 7 ****
dm (ortho)
[array([[ 0.91623421, -0.05441559, -0.26025886,  0.07780327],
       [-0.05441559,  0.00323177,  0.0154569 , -0.00462077],
       [-0.26025886,  0.0154569 ,  0.07392725, -0.02210023],
       [ 0.07780327, -0.00462077, -0.02210023,  0.00660677]]), array([[ 0.91623421, -0.05441559,  0.26025886, -0.07780327],
       [-0.05441559,  0.00323177, -0.0154569 ,  0.00462077],
       [ 0.26025886, -0.0154569 ,  0.07392725, -0.02210023],
       [-0.07780327,  0.00462077, -0.02210023,  0.00660677]])]
Fock (ortho)
 (array([[-0.59876654,  0.07541288,  0.22954696,  0.00052296],
       [ 0.07541288,  0.84516042, -0.08041876, -0.02640648],
       [ 0.22954696, -0.08041876,  1.06575717,  0.71051215],
       [ 0.00052296, -0.02640648,  0.71051215,  0.93008299]]), array([[-0.59876654,  0.07541288, -0.22954696, -0.00052296],
       [ 0.07541288,  0.84516042,  0.08041876,  0.02640648],
       [-0.22954696,  0.08041876,  1.06575717,  0.71051215],
       [-0.00052296,  0.02640648,  0.71051215,  0.93008299]]))
E(UHF) =    -1.898098
NO eigenvalue
[-1. -0.  0.  0.] [-1. -0.  0.  0.]
NO vec
[[ 0.95720124  0.         -0.09183776 -0.03307016 -0.27246647  0.          0.          0.        ]
 [-0.05684864  0.          0.86772137  0.01198138 -0.4936439   0.          0.          0.        ]
 [-0.27189565  0.         -0.48310194  0.17520598 -0.81362653  0.          0.          0.        ]
 [ 0.08128204  0.          0.07237374  0.98390329  0.14173777  0.          0.          0.        ]
 [ 0.          0.95720124  0.          0.          0.          0.00549193  0.03535509 -0.28720314]
 [ 0.         -0.05684864  0.          0.          0.         -0.97122169  0.12866997 -0.19219963]
 [ 0.          0.27189565  0.          0.          0.         -0.17371541  0.193034    0.92662484]
 [ 0.         -0.08128204  0.          0.          0.          0.16285338  0.97207609 -0.14812182]]
dm(NO)
[[ 1.  0.  0. -0. -0.  0.  0.  0.]
 [ 0.  1.  0.  0.  0. -0. -0.  0.]
 [ 0.  0.  0. -0.  0.  0.  0.  0.]
 [-0.  0.  0. -0.  0.  0.  0.  0.]
 [-0.  0.  0.  0.  0.  0.  0.  0.]
 [ 0. -0.  0.  0.  0.  0.  0.  0.]
 [ 0.  0.  0.  0.  0.  0.  0. -0.]
 [ 0.  0.  0.  0.  0.  0. -0. -0.]]
D(g) (NO)
[[ 0.99951369  0.0261606   0.         -0.          0.          0.00377127  0.00165441 -0.0164638 ]
 [-0.0261606   0.99951369  0.00855892  0.00201668  0.0145153  -0.          0.         -0.        ]
 [ 0.         -0.00855892  0.99951369  0.          0.         -0.02331088  0.00266618 -0.0186717 ]
 [-0.         -0.00201668  0.          0.99951369 -0.          0.00367893  0.03089078  0.0007424 ]
 [-0.         -0.0145153   0.         -0.          0.99951369  0.02003095 -0.0028822  -0.01876574]
 [-0.00377127 -0.          0.02331088 -0.00367893 -0.02003095  0.99951369  0.         -0.        ]
 [-0.00165441  0.         -0.00266618 -0.03089078  0.0028822   0.          0.99951369  0.        ]
 [ 0.0164638  -0.          0.0186717  -0.0007424   0.01876574 -0.          0.          0.99951369]]
...
N(g) (NO)
[[ 0.99980164 -0.02616814]
 [ 0.02616814  0.99980164]]
...
P(g) (NO)
[[ 1.          0.          0.         -0.         -0.         -0.         -0.          0.        ]
 [ 0.          1.          0.         -0.         -0.         -0.         -0.          0.        ]
 [-0.00022397 -0.00855722 -0.          0.          0.          0.          0.         -0.        ]
 [-0.00005277 -0.00201628 -0.          0.          0.          0.          0.         -0.        ]
 [-0.00037984 -0.01451243 -0.          0.          0.          0.          0.         -0.        ]
 [-0.00377052  0.00009869 -0.          0.          0.         -0.         -0.          0.        ]
 [-0.00165408  0.00004329 -0.          0.          0.         -0.         -0.          0.        ]
 [ 0.01646053 -0.00043083  0.         -0.         -0.          0.          0.         -0.        ]]
...
Pg_ortho
[[ 0.91635464 -0.05442274 -0.26029306  0.0778135   0.00460098 -0.00027325  0.00130692 -0.0003907 ]
 [-0.05442274  0.00323219  0.01545893 -0.00462138 -0.00027325  0.00001623 -0.00007762  0.0000232 ]
 [-0.25986832  0.0154337   0.07381631 -0.02206707  0.01492128 -0.00088618  0.00423843 -0.00126706]
 [ 0.07768652 -0.00461384 -0.02206707  0.00659686 -0.00446065  0.00026492 -0.00126706  0.00037878]
 [-0.00460098  0.00027325  0.00130692 -0.0003907   0.91635464 -0.05442274  0.26029306 -0.0778135 ]
 [ 0.00027325 -0.00001623 -0.00007762  0.0000232  -0.05442274  0.00323219 -0.01545893  0.00462138]
 [ 0.01492128 -0.00088618 -0.00423843  0.00126706  0.25986832 -0.0154337   0.07381631 -0.02206707]
 [-0.00446065  0.00026492  0.00126706 -0.00037878 -0.07768652  0.00461384 -0.02206707  0.00659686]]
G(g) (NO)
[[ 0.65373321 -0.00148471 -0.18887796 -0.02981499  0.01326502 -0.00000394 -0.00069165 -0.00201195]
 [ 0.00148471  0.65373321  0.00072687 -0.00070416  0.00187141  0.18573043  0.00399792 -0.0472017 ]
 [-0.18875191  0.00744468  1.19786689 -0.16144981  0.16090974  0.00204294  0.00119976  0.00181839]
 [-0.0298395  -0.00172568 -0.16142571  0.90875823 -0.21451101 -0.00143873 -0.0004155  -0.00041787]
 [ 0.01345109  0.00994267  0.16086151 -0.2145149   1.10990139  0.00194021  0.00043214  0.00127191]
 [ 0.00362868  0.18567388 -0.00051899 -0.00109119  0.00148114  1.06481377 -0.10640194 -0.11846049]
 [-0.0021501   0.00402871  0.00123368  0.00077039 -0.001022   -0.10638078  0.93113769  0.27128224]
 [-0.01180965 -0.04698499  0.00167689  0.00115829 -0.00243686 -0.11841094  0.27128662  1.22057506]]
...
C(NO)
[[-1.02562     0.         -0.56876392 -0.27233435 -0.13809699  0.          0.          0.        ]
 [ 0.         -1.02562     0.          0.          0.         -0.56876392 -0.27233435 -0.13809699]
 [-0.13026607  0.          0.04128072  0.65186599  0.81969033  0.          0.          0.        ]
 [-0.02588663  0.          0.16262576  0.35461574 -0.4130603   0.          0.          0.        ]
 [ 0.09693392  0.          0.54477922 -0.6450175   0.10476176  0.          0.          0.        ]
 [ 0.          0.15637157  0.          0.          0.          0.10900765 -0.86452197 -0.67831864]
 [ 0.          0.00329791  0.          0.          0.         -0.1849078  -0.23068397  0.51086465]
 [ 0.          0.05072091  0.          0.          0.          0.52807392 -0.40757311  0.36385052]]
detC 1.0518963842740912
detNg [1.0002881  1.00754645 1.04086638 1.1185836  1.23484365 1.34577052 1.40588295 1.42026318]
xg [0.9035017  0.89699289 0.86827859 0.80795213 0.73188375 0.67155728 0.64284299 0.63633418]
ciS 1.5398358748623888
[[-1.27589618  0.          0.28107966 -0.06359769  0.12936246  0.          0.          0.        ]
 [ 0.         -1.27589618  0.          0.          0.         -0.21435937  0.09289199  0.21261756]
 [ 0.28107966  0.         -0.290237   -0.22091908 -0.13172884  0.          0.          0.        ]
 [-0.06359769  0.         -0.22091908  0.26506287 -0.35268162  0.          0.          0.        ]
 [ 0.12936246  0.         -0.13172884 -0.35268162 -0.32694048  0.          0.          0.        ]
 [ 0.         -0.21435937  0.          0.          0.         -0.23258513 -0.02808851  0.15034798]
 [ 0.          0.09289199  0.          0.          0.         -0.02808851  0.27544768  0.39351546]
 [ 0.          0.21261756  0.          0.          0.          0.15034798  0.39351546 -0.39497716]]
ciH -3.082322340375647
S2 = -0.000000
X(g)
[[ 2.          0.         -0.00022397 -0.00005277 -0.00037984  0.00377052  0.00165408 -0.01646053]
 [-0.          2.          0.00855722  0.00201628  0.01451243  0.00009869  0.00004329 -0.00043083]
 [-0.00022397 -0.00855722  0.          0.          0.          0.          0.          0.        ]
 [-0.00005277 -0.00201628  0.          0.          0.          0.          0.          0.        ]
 [-0.00037984 -0.01451243  0.          0.          0.          0.          0.          0.        ]
 [-0.00377052  0.00009869  0.          0.          0.          0.          0.          0.        ]
 [-0.00165408  0.00004329  0.          0.          0.          0.          0.          0.        ]
 [ 0.01646053 -0.00043083  0.          0.          0.          0.          0.          0.        ]]
X(g) int
[[ 2.         -0.         -0.13514639 -0.03184356 -0.22919842  0.05574887  0.02445633 -0.24337649]
 [ 0.          2.          0.12652245  0.02981156  0.21457284  0.05954878  0.02612331 -0.25996536]
 [-0.13514639 -0.12652245  0.          0.          0.          0.          0.          0.        ]
 [-0.03184356 -0.02981156  0.          0.          0.          0.          0.          0.        ]
 [-0.22919842 -0.21457284  0.          0.          0.          0.          0.          0.        ]
 [-0.05574887  0.05954878  0.          0.          0.          0.          0.          0.        ]
 [-0.02445633  0.02612331  0.          0.          0.          0.          0.          0.        ]
 [ 0.24337649 -0.25996536  0.          0.          0.          0.          0.          0.        ]]
Hsp + Hph =  -2.0017213462123724
Feff (mod,ortho)
[[-0.51257396  0.0647131   0.3909876   0.07195724  0.          0.          0.          0.        ]
 [ 0.0647131   0.84612733 -0.08842156 -0.03112289  0.          0.          0.          0.        ]
 [ 0.3909876  -0.08842156  0.96708732  0.70600903  0.          0.          0.          0.        ]
 [ 0.07195724 -0.03112289  0.70600903  0.94159335  0.          0.          0.          0.        ]
 [ 0.          0.          0.          0.         -0.51257396  0.0647131  -0.3909876  -0.07195724]
 [ 0.          0.          0.          0.          0.0647131   0.84612733  0.08842156  0.03112289]
 [ 0.          0.          0.          0.         -0.3909876   0.08842156  0.96708732  0.70600903]
 [ 0.          0.          0.          0.         -0.07195724  0.03112289  0.70600903  0.94159335]]
E(SUHF) =     -1.11975933
e_a, e_b
[-0.62222625  0.30293646  0.84497145  1.71655237] [-0.62222625  0.30293646  0.84497145  1.71655237]
P_a, P_b
[[ 0.91590134 -0.05453255 -0.26161969  0.07488263]
 [-0.05453255  0.00324686  0.01557678 -0.00445849]
 [-0.26161969  0.01557678  0.07472952 -0.02138961]
 [ 0.07488263 -0.00445849 -0.02138961  0.00612228]] 
 [[ 0.91590134 -0.05453255  0.26161969 -0.07488263]
 [-0.05453255  0.00324686 -0.01557678  0.00445849]
 [ 0.26161969 -0.01557678  0.07472952 -0.02138961]
 [-0.07488263  0.00445849 -0.02138961  0.00612228]]
**** Start Cycle 8 ****
dm (ortho)
[array([[ 0.91590134, -0.05453255, -0.26161969,  0.07488263],
       [-0.05453255,  0.00324686,  0.01557678, -0.00445849],
       [-0.26161969,  0.01557678,  0.07472952, -0.02138961],
       [ 0.07488263, -0.00445849, -0.02138961,  0.00612228]]), array([[ 0.91590134, -0.05453255,  0.26161969, -0.07488263],
       [-0.05453255,  0.00324686, -0.01557678,  0.00445849],
       [ 0.26161969, -0.01557678,  0.07472952, -0.02138961],
       [-0.07488263,  0.00445849, -0.02138961,  0.00612228]])]
Fock (ortho)
 (array([[-0.5980254 ,  0.07514964,  0.23120511,  0.00204429],
       [ 0.07514964,  0.84565874, -0.08148077, -0.02678938],
       [ 0.23120511, -0.08148077,  1.06590705,  0.71036784],
       [ 0.00204429, -0.02678938,  0.71036784,  0.93039928]]), array([[-0.5980254 ,  0.07514964, -0.23120511, -0.00204429],
       [ 0.07514964,  0.84565874,  0.08148077,  0.02678938],
       [-0.23120511,  0.08148077,  1.06590705,  0.71036784],
       [-0.00204429,  0.02678938,  0.71036784,  0.93039928]]))
E(UHF) =    -1.896206
NO eigenvalue
[-1. -0. -0.  0.] [-1. -0. -0.  0.]
NO vec
[[-0.95702735  0.          0.28999768 -0.          0.          0.          0.          0.        ]
 [ 0.05698119  0.          0.18804479  0.34643125  0.91726642  0.          0.          0.        ]
 [ 0.273367    0.          0.90214409 -0.32417164 -0.0794939   0.          0.          0.        ]
 [-0.07824503  0.         -0.25821803 -0.88028299  0.39026021  0.          0.          0.        ]
 [ 0.          0.95702735  0.          0.          0.          0.09045079  0.0229296  -0.27457521]
 [ 0.         -0.05698119  0.          0.          0.         -0.86671786 -0.07260676 -0.49018523]
 [ 0.          0.273367    0.          0.          0.         -0.48983109  0.18503084  0.80690741]
 [ 0.         -0.07824503  0.          0.          0.          0.02615926  0.97977859 -0.18228365]]
dm(NO)
[[ 1.  0.  0. -0. -0.  0.  0.  0.]
 [ 0.  1.  0.  0.  0. -0. -0. -0.]
 [-0.  0.  0.  0.  0.  0.  0.  0.]
 [-0.  0.  0.  0.  0.  0.  0.  0.]
 [ 0.  0.  0.  0.  0.  0.  0.  0.]
 [ 0. -0.  0.  0.  0. -0. -0.  0.]
 [ 0. -0.  0.  0.  0.  0.  0.  0.]
 [ 0. -0.  0.  0.  0. -0. -0.  0.]]
D(g) (NO)
[[ 0.99951369 -0.02614078 -0.         -0.         -0.         -0.00847875 -0.00162661  0.01464642]
[...]
       [-0.01607863,  0.02968073,  0.70874651,  0.93295298]]))
E(UHF) =    -1.880856
NO eigenvalue
[-1. -0. -0.  0.] [-1. -0.  0.  0.]
NO vec
[[ 0.95714452  0.         -0.28226663  0.04650221  0.04513822  0.          0.          0.        ]
 [-0.05817534  0.         -0.23843192 -0.79220386  0.55872971  0.          0.          0.        ]
 [-0.27961636  0.         -0.92718882  0.22707877 -0.10281449  0.          0.          0.        ]
 [ 0.04800716  0.         -0.06161707 -0.56452265 -0.82171335  0.          0.          0.        ]
 [ 0.          0.95714452  0.          0.          0.          0.28785907  0.01407285 -0.02852156]
 [ 0.         -0.05817534  0.          0.          0.          0.29112499 -0.06777524  0.95250637]
 [ 0.          0.27961636  0.          0.          0.         -0.90515232  0.10799778  0.30141407]
 [ 0.         -0.04800716  0.          0.          0.          0.11437947  0.99173835  0.03267563]]
dm(NO)
[[ 1.  0.  0.  0.  0.  0.  0.  0.]
 [ 0.  1.  0.  0.  0. -0. -0. -0.]
 [-0.  0.  0. -0. -0.  0.  0.  0.]
 [ 0.  0. -0. -0. -0.  0.  0.  0.]
 [ 0.  0. -0. -0.  0.  0.  0.  0.]
 [ 0. -0.  0.  0.  0.  0. -0.  0.]
 [ 0. -0.  0.  0.  0.  0. -0. -0.]
 [ 0. -0.  0.  0.  0. -0.  0. -0.]]
D(g) (NO)
[[ 0.99951369  0.02616334  0.          0.          0.          0.01612711  0.00108596 -0.00515843]
 [-0.02616334  0.99951369  0.01598446 -0.00565015 -0.00066729 -0.         -0.         -0.        ]
 [-0.         -0.01598446  0.99951369  0.          0.          0.02125239 -0.00464801 -0.0156084 ]
 [ 0.          0.00565015  0.          0.99951369 -0.         -0.0151973  -0.01499877 -0.02201245]
 [ 0.          0.00066729  0.         -0.          0.99951369  0.00544862 -0.02691926  0.01475173]
 [-0.01612711 -0.         -0.02125239  0.0151973  -0.00544862  0.99951369  0.          0.        ]
 [-0.00108596 -0.          0.00464801  0.01499877  0.02691926  0.          0.99951369  0.        ]
 [ 0.00515843 -0.          0.0156084   0.02201245 -0.01475173  0.          0.          0.99951369]]
...
N(g) (NO)
[[ 0.9998015  -0.02617088]
 [ 0.02617088  0.9998015 ]]
...
P(g) (NO)
[[ 1.         -0.          0.          0.          0.          0.          0.          0.        ]
 [-0.          1.         -0.         -0.         -0.         -0.         -0.         -0.        ]
 [-0.00041833 -0.01598129 -0.         -0.         -0.          0.          0.          0.        ]
 [ 0.00014787  0.00564903  0.          0.          0.         -0.         -0.         -0.        ]
 [ 0.00001746  0.00066716  0.          0.          0.         -0.         -0.         -0.        ]
 [-0.01612391  0.00042206 -0.         -0.         -0.         -0.         -0.         -0.        ]
 [-0.00108575  0.00002842 -0.         -0.         -0.         -0.         -0.         -0.        ]
 [ 0.00515741 -0.000135    0.          0.          0.          0.          0.          0.        ]]
...
Pg_ortho
[[ 0.91624599 -0.05568953 -0.26766843  0.04595583  0.00459792 -0.00027946  0.00134322 -0.00023062]
 [-0.05568953  0.00338482  0.01626892 -0.0027932  -0.00027946  0.00001699 -0.00008164  0.00001402]
 [-0.2672316   0.01624236  0.07806797 -0.01340344  0.0153448  -0.00093266  0.00448277 -0.00076964]
 [ 0.04588083 -0.00278864 -0.01340344  0.00230123 -0.00263454  0.00016013 -0.00076964  0.00013214]
 [-0.00459792  0.00027946  0.00134322 -0.00023062  0.91624599 -0.05568953  0.26766843 -0.04595583]
 [ 0.00027946 -0.00001699 -0.00008164  0.00001402 -0.05568953  0.00338482 -0.01626892  0.0027932 ]
 [ 0.0153448  -0.00093266 -0.00448277  0.00076964  0.2672316  -0.01624236  0.07806797 -0.01340344]
 [-0.00263454  0.00016013  0.00076964 -0.00013214 -0.04588083  0.00278864 -0.01340344  0.00230123]]
G(g) (NO)
[[ 0.65724151 -0.00140345 -0.03056528  0.17065252 -0.0748882   0.00207919 -0.000588   -0.00039615]
 [ 0.00140345  0.65724151  0.00217027 -0.00008245  0.00032991  0.02583975  0.03625813 -0.1835277 ]
 [-0.03033947  0.01233837  1.29774201 -0.06834295  0.24217173 -0.00221224  0.0012462  -0.00246985]
 [ 0.17058882 -0.00400644 -0.06839149  0.96601808 -0.16595518  0.00137888 -0.00081199  0.00042412]
 [-0.07484963  0.00269007  0.24219267 -0.1659414   0.96612921 -0.0012043   0.0010593  -0.00132247]
 [ 0.01186376  0.02562126  0.00204879  0.00231595 -0.0008117   1.20641915 -0.22207978 -0.19371712]
 [-0.00189924  0.03629016 -0.00053471 -0.00129464  0.00035912 -0.22206893  0.87396494  0.0952031 ]
 [-0.00558278 -0.18343956 -0.00208039 -0.00172317  0.00002673 -0.19376536  0.09522632  1.14950519]]
...
C(NO)
[[-1.023944    0.         -0.57275282 -0.2855974  -0.12355025  0.          0.          0.        ]
 [ 0.         -1.023944    0.          0.          0.         -0.57275282 -0.2855974  -0.12355025]
 [ 0.07234122  0.          0.49327305 -0.50958145  0.40445502  0.          0.          0.        ]
 [ 0.15290637  0.         -0.04823657 -0.80416391 -0.45842664  0.          0.          0.        ]
 [-0.04309306  0.         -0.27338099  0.23016615  0.69537999  0.          0.          0.        ]
 [ 0.         -0.07062739  0.          0.          0.         -0.53564442  0.49897923 -0.29897161]
 [ 0.          0.06872049  0.          0.          0.         -0.15853763 -0.38102275  0.34833174]
 [ 0.         -0.14408292  0.          0.          0.         -0.09128587  0.75177835  0.80409773]]
detC 1.0484613155270606
detNg [1.00028796 1.00754266 1.04084517 1.11851745 1.23469903 1.34553848 1.4055984  1.41996554]
xg [0.9094318  0.90288354 0.8739952  0.81330308 0.73677363 0.67608151 0.64719317 0.6406449 ]
ciS 1.55007670407991
[[-1.26903019  0.          0.23583779 -0.16500048  0.18571861  0.          0.          0.        ]
 [ 0.         -1.26903019  0.          0.          0.         -0.20772609  0.09009768  0.25703756]
 [ 0.23583779  0.         -0.19696867  0.33123741  0.37327648  0.          0.          0.        ]
 [-0.16500048  0.          0.33123741 -0.25875129  0.07624661  0.          0.          0.        ]
 [ 0.18571861  0.          0.37327648  0.07624661  0.09673935  0.          0.          0.        ]
 [ 0.         -0.20772609  0.          0.          0.         -0.35054878 -0.41680193  0.07626876]
 [ 0.          0.09009768  0.          0.          0.         -0.41680193  0.20510219  0.16615041]
 [ 0.          0.25703756  0.          0.          0.          0.07626876  0.16615041 -0.21353402]]
ciH -3.103554320422243
S2 = 0.000000
X(g)
[[ 2.          0.         -0.00041833  0.00014787  0.00001746  0.01612391  0.00108575 -0.00515741]
 [-0.          2.          0.01598129 -0.00564903 -0.00066716  0.00042206  0.00002842 -0.000135  ]
 [-0.00041833 -0.01598129  0.          0.          0.          0.          0.          0.        ]
 [ 0.00014787  0.00564903  0.          0.          0.          0.          0.          0.        ]
 [ 0.00001746  0.00066716  0.          0.          0.          0.          0.          0.        ]
 [-0.01612391  0.00042206  0.          0.          0.          0.          0.          0.        ]
 [-0.00108575  0.00002842  0.          0.          0.          0.          0.          0.        ]
 [ 0.00515741 -0.000135    0.          0.          0.          0.          0.          0.        ]]
X(g) int
[[ 2.          0.         -0.25240118  0.08921824  0.01053679  0.23837878  0.01605186 -0.07624801]
 [-0.          2.          0.2362702  -0.0835163  -0.00986338  0.25465373  0.01714778 -0.08145372]
 [-0.25240118 -0.2362702   0.          0.          0.          0.          0.          0.        ]
 [ 0.08921824  0.0835163   0.          0.          0.          0.          0.          0.        ]
 [ 0.01053679  0.00986338  0.          0.          0.          0.          0.          0.        ]
 [-0.23837878  0.25465373  0.          0.          0.          0.          0.          0.        ]
 [-0.01605186  0.01714778  0.          0.          0.          0.          0.          0.        ]
 [ 0.07624801 -0.08145372  0.          0.          0.          0.          0.          0.        ]]
Hsp + Hph =  -2.0021940283687067
Feff (mod,ortho)
[[-0.49205984  0.0619436   0.41783167  0.12098639  0.          0.          0.          0.        ]
 [ 0.0619436   0.85092427 -0.09853034 -0.03631189  0.          0.          0.          0.        ]
 [ 0.41783167 -0.09853034  0.95703988  0.68845898  0.          0.          0.          0.        ]
 [ 0.12098639 -0.03631189  0.68845898  0.943223    0.          0.          0.          0.        ]
 [ 0.          0.          0.          0.         -0.49205984  0.0619436  -0.41783167 -0.12098639]
 [ 0.          0.          0.          0.          0.0619436   0.85092427  0.09853034  0.03631189]
 [ 0.          0.          0.          0.         -0.41783167  0.09853034  0.95703988  0.68845898]
 [ 0.          0.          0.          0.         -0.12098639  0.03631189  0.68845898  0.943223  ]]
E(SUHF) =     -1.12023201
e_a, e_b
[-0.61182542  0.30819791  0.84851562  1.71423921] [-0.61182542  0.30819791  0.84851562  1.71423921]
P_a, P_b
[[ 0.916129   -0.05568369 -0.26763434  0.0459112 ]
 [-0.05568369  0.00338454  0.01626722 -0.00279055]
 [-0.26763434  0.01626722  0.07818565 -0.01341232]
 [ 0.0459112  -0.00279055 -0.01341232  0.00230081]] 
 [[ 0.916129   -0.05568369  0.26763434 -0.0459112 ]
 [-0.05568369  0.00338454 -0.01626722  0.00279055]
 [ 0.26763434 -0.01626722  0.07818565 -0.01341232]
 [-0.0459112   0.00279055 -0.01341232  0.00230081]]
**** Start Cycle 49 ****
dm (ortho)
[array([[ 0.916129  , -0.05568369, -0.26763434,  0.0459112 ],
       [-0.05568369,  0.00338454,  0.01626722, -0.00279055],
       [-0.26763434,  0.01626722,  0.07818565, -0.01341232],
       [ 0.0459112 , -0.00279055, -0.01341232,  0.00230081]]), array([[ 0.916129  , -0.05568369,  0.26763434, -0.0459112 ],
       [-0.05568369,  0.00338454, -0.01626722,  0.00279055],
       [ 0.26763434, -0.01626722,  0.07818565, -0.01341232],
       [-0.0459112 ,  0.00279055, -0.01341232,  0.00230081]])]
Fock (ortho)
 (array([[-0.59287179,  0.0731504 ,  0.24074106,  0.01609638],
       [ 0.0731504 ,  0.84993907, -0.08925856, -0.02968375],
       [ 0.24074106, -0.08925856,  1.06912239,  0.70874418],
       [ 0.01609638, -0.02968375,  0.70874418,  0.93295569]]), array([[-0.59287179,  0.0731504 , -0.24074106, -0.01609638],
       [ 0.0731504 ,  0.84993907,  0.08925856,  0.02968375],
       [-0.24074106,  0.08925856,  1.06912239,  0.70874418],
       [-0.01609638,  0.02968375,  0.70874418,  0.93295569]]))
E(UHF) =    -1.880838
NO eigenvalue
[-1. -0. -0.  0.] [-1. -0. -0.  0.]
NO vec
[[ 0.95714628  0.         -0.2823547  -0.01540519 -0.06252597  0.          0.          0.        ]
 [-0.05817678  0.         -0.39358875 -0.10151628  0.91181018  0.          0.          0.        ]
 [-0.27961697  0.         -0.87149389  0.13739078 -0.37873015  0.          0.          0.        ]
 [ 0.04796676  0.          0.07656446  0.98518064  0.14579497  0.          0.          0.        ]
 [ 0.          0.95714628  0.          0.          0.         -0.28760003  0.02821936  0.01899698]
 [ 0.         -0.05817678  0.          0.          0.         -0.21252137 -0.66994783  0.708957  ]
 [ 0.          0.27961697  0.          0.          0.          0.93288518 -0.1101313   0.19852125]
 [ 0.         -0.04796676  0.          0.          0.         -0.04296656  0.7336516   0.67646759]]
dm(NO)
[[ 1.  0.  0.  0. -0.  0.  0.  0.]
 [ 0.  1.  0.  0.  0.  0. -0. -0.]
 [ 0.  0.  0. -0.  0.  0.  0.  0.]
 [ 0.  0.  0. -0.  0.  0.  0.  0.]
 [-0.  0.  0. -0. -0.  0.  0.  0.]
 [ 0.  0.  0.  0.  0. -0. -0. -0.]
 [ 0. -0.  0.  0.  0.  0. -0.  0.]
 [ 0. -0.  0.  0.  0.  0. -0.  0.]]
D(g) (NO)
[[ 0.99951369  0.02616356  0.          0.         -0.         -0.01639685  0.00411528 -0.00143829]
 [-0.02616356  0.99951369  0.01542678  0.00055126  0.00704071  0.         -0.         -0.        ]
 [ 0.         -0.01542678  0.99951369  0.          0.         -0.02031406  0.01271859 -0.01264848]
 [ 0.         -0.00055126  0.          0.99951369  0.          0.00348768  0.02417399  0.01937895]
 [-0.         -0.00704071 -0.          0.          0.99951369 -0.01669464 -0.01446767  0.02085178]
 [ 0.01639685  0.          0.02031406 -0.00348768  0.01669464  0.99951369 -0.          0.        ]
 [-0.00411528 -0.         -0.01271859 -0.02417399  0.01446767 -0.          0.99951369  0.        ]
 [ 0.00143829 -0.          0.01264848 -0.01937895 -0.02085178  0.         -0.          0.99951369]]
...
N(g) (NO)
[[ 0.99980149 -0.0261711 ]
 [ 0.0261711   0.99980149]]
...
P(g) (NO)
[[ 1.          0.          0.          0.         -0.          0.         -0.         -0.        ]
 [-0.          1.         -0.         -0.          0.          0.         -0.         -0.        ]
 [-0.00040374 -0.01542371 -0.         -0.          0.         -0.          0.          0.        ]
 [-0.00001443 -0.00055116 -0.         -0.          0.         -0.          0.          0.        ]
 [-0.00018426 -0.00703932 -0.         -0.          0.         -0.          0.          0.        ]
 [ 0.0163936  -0.00042912  0.          0.         -0.         -0.          0.          0.        ]
 [-0.00411446  0.0001077  -0.         -0.          0.          0.         -0.         -0.        ]
 [ 0.00143801 -0.00003764  0.          0.         -0.         -0.          0.          0.        ]]
...
Pg_ortho
[[ 0.91624936 -0.05569101 -0.2676695   0.04591723  0.00459774 -0.00027946  0.00134316 -0.00023041]
 [-0.05569101  0.00338498  0.01626935 -0.00279092 -0.00027946  0.00001699 -0.00008164  0.000014  ]
 [-0.26723267  0.0162428   0.0780683  -0.01339219  0.01534492 -0.00093269  0.00448281 -0.000769  ]
 [ 0.0458423  -0.00278636 -0.01339219  0.00229736 -0.00263234  0.00016    -0.000769    0.00013192]
 [-0.00459774  0.00027946  0.00134316 -0.00023041  0.91624936 -0.05569101  0.2676695  -0.04591723]
 [ 0.00027946 -0.00001699 -0.00008164  0.000014   -0.05569101  0.00338498 -0.01626935  0.00279092]
 [ 0.01534492 -0.00093269 -0.00448281  0.000769    0.26723267 -0.0162428   0.0780683  -0.01339219]
 [-0.00263234  0.00016     0.000769   -0.00013192 -0.0458423   0.00278636 -0.01339219  0.00229736]]
G(g) (NO)
[[ 0.65724772 -0.0014033  -0.00460938 -0.00511469 -0.1887224  -0.00214089 -0.00019783 -0.00045101]
 [ 0.0014033   0.65724772  0.00204742 -0.00060019  0.00052329 -0.03889971  0.14647123 -0.11267894]
 [-0.0044004   0.01126848  1.18137004 -0.22860707  0.16425348  0.00170685  0.00210285 -0.00118827]
 [-0.00515637 -0.00255588 -0.22860708  0.90271764 -0.15901958 -0.00073097 -0.00147775  0.00062803]
 [-0.1886169   0.00648262  0.16430337 -0.15904183  1.14581342  0.00202978  0.00187646 -0.00033199]
 [-0.01240031 -0.0386728  -0.00251689  0.00075452  0.00230246  1.26875409  0.03118858  0.27632595]
 [ 0.00213226  0.14643923  0.00086664 -0.00043202  0.00013316  0.03114674  0.89601599 -0.12399421]
 [-0.00414985 -0.11261552 -0.00179748  0.00096599  0.00151203  0.27635559 -0.12397536  1.06513101]]
...
C(NO)
[[-1.02394154  0.         -0.57276144 -0.2856106  -0.12353741  0.          0.          0.        ]
 [ 0.         -1.02394154  0.          0.          0.         -0.57276144 -0.2856106  -0.12353741]
 [ 0.08834089  0.          0.53539104 -0.59148106  0.22548917  0.          0.          0.        ]
 [-0.04169561  0.          0.18362868  0.23654851 -0.4730986   0.          0.          0.        ]
 [-0.1446825   0.         -0.00305004  0.74398704  0.76330054  0.          0.          0.        ]
 [ 0.          0.0625804   0.          0.          0.          0.51374811 -0.45775292  0.3898243 ]
 [ 0.          0.14598444  0.          0.          0.         -0.05976553 -0.77906447 -0.25493226]
 [ 0.         -0.0724424   0.          0.          0.         -0.22992027  0.37794519  0.80021367]]
detC 1.0484562739556038
detNg [1.00028794 1.00754235 1.04084346 1.11851213 1.2346874  1.34551982 1.40557553 1.41994161]
xg [0.90944056 0.9028925  0.87400504 0.81331477 0.73678765 0.67609738 0.64720992 0.64066186]
ciS 1.5501024187136945
[[-1.26902462  0.          0.18264821 -0.12784829  0.26009592  0.          0.          0.        ]
 [ 0.         -1.26902462  0.          0.          0.          0.2346544  -0.09726341  0.22985339]
 [ 0.18264821  0.         -0.29948303 -0.39810872 -0.14878837  0.          0.          0.        ]
 [-0.12784829  0.         -0.39810872  0.23059921 -0.13515615  0.          0.          0.        ]
 [ 0.26009592  0.         -0.14878837 -0.13515615 -0.29010235  0.          0.          0.        ]
 [ 0.          0.2346544   0.          0.          0.         -0.30120976  0.38951703  0.25841747]
 [ 0.         -0.09726341  0.          0.          0.          0.38951703 -0.1323522   0.19235997]
 [ 0.          0.22985339  0.          0.          0.          0.25841747  0.19235997  0.07457579]]
ciH -3.1036058210938764
S2 = -0.000000
X(g)
[[ 2.          0.         -0.00040374 -0.00001443 -0.00018426 -0.0163936   0.00411446 -0.00143801]
 [-0.          2.          0.01542371  0.00055116  0.00703932 -0.00042912  0.0001077  -0.00003764]
 [-0.00040374 -0.01542371  0.          0.          0.          0.          0.          0.        ]
 [-0.00001443 -0.00055116  0.          0.          0.          0.          0.          0.        ]
 [-0.00018426 -0.00703932  0.          0.          0.          0.          0.          0.        ]
 [ 0.0163936  -0.00042912  0.          0.          0.          0.          0.          0.        ]
 [-0.00411446  0.0001077   0.          0.          0.          0.          0.          0.        ]
 [ 0.00143801 -0.00003764  0.          0.          0.          0.          0.          0.        ]]
X(g) int
[[ 2.         -0.         -0.24359546 -0.00870471 -0.11117593 -0.24236416  0.0608285  -0.02125959]
 [-0.          2.          0.22802533  0.00814832  0.10406978 -0.25891339  0.06498202 -0.02271125]
 [-0.24359546 -0.22802533  0.          0.          0.          0.          0.          0.        ]
 [-0.00870471 -0.00814832  0.          0.          0.          0.          0.          0.        ]
 [-0.11117593 -0.10406978  0.          0.          0.          0.          0.          0.        ]
 [ 0.24236416 -0.25891339  0.          0.          0.          0.          0.          0.        ]
 [-0.0608285   0.06498202  0.          0.          0.          0.          0.          0.        ]
 [ 0.02125959 -0.02271125  0.          0.          0.          0.          0.          0.        ]]
Hsp + Hph =  -2.002194038036086
Feff (mod,ortho)
[[-0.49203986  0.06194119  0.41785335  0.12103958  0.          0.          0.          0.        ]
 [ 0.06194119  0.85092918 -0.09853951 -0.03631696  0.          0.          0.          0.        ]
 [ 0.41785335 -0.09853951  0.95703526  0.68843854  0.          0.          0.          0.        ]
 [ 0.12103958 -0.03631696  0.68843854  0.94322078  0.          0.          0.          0.        ]
 [ 0.          0.          0.          0.         -0.49203986  0.06194119 -0.41785335 -0.12103958]
 [ 0.          0.          0.          0.          0.06194119  0.85092918  0.09853951  0.03631696]
 [ 0.          0.          0.          0.         -0.41785335  0.09853951  0.95703526  0.68843854]
 [ 0.          0.          0.          0.         -0.12103958  0.03631696  0.68843854  0.94322078]]
E(SUHF) =     -1.12023202
e_a, e_b
[-0.61181364  0.30820342  0.84851934  1.71423623] [-0.61181364  0.30820342  0.84851934  1.71423623]
P_a, P_b
[[ 0.91613202 -0.05568502 -0.26763528  0.04587673]
 [-0.05568502  0.00338469  0.01626761 -0.00278851]
 [-0.26763528  0.01626761  0.07818594 -0.01340225]
 [ 0.04587673 -0.00278851 -0.01340225  0.00229735]] 
 [[ 0.91613202 -0.05568502  0.26763528 -0.04587673]
 [-0.05568502  0.00338469 -0.01626761  0.00278851]
 [ 0.26763528 -0.01626761  0.07818594 -0.01340225]
 [-0.04587673  0.00278851 -0.01340225  0.00229735]]

***************
SCF converged at cycle 48
Final E(SUHF) =     -1.12023202, delta E = -9.66738e-09
***** Start DFT Correlation for SUHF+DFT **********
tot grids = 20048
E(SUHF) =     -1.12023202
E_c(TPSS) =     -0.03956644
E(SUHF+DFT) =     -1.15979846
