

#INFO: **** input file is /share/home/srwang/ExSCF/test/pytest/scan_h2/scan_dft.py ****
#import phf
from pyscf import lib
#import scipy
import numpy as np
import sys, os, contextlib

from pyphf import util, sudft

#xyz = 'h2.xyz' #sys.argv[1]
fch = 'test_uhf.fchk' #sys.argv[2]
#bas = '../h2.bas'
bas = 'cc-pvtz'

lib.num_threads(4)

for r in np.arange(0.5, 1.4, 0.1):
    output = 'sudft_%.1f_diis.out' % r
    os.system("echo '\n' > %s" % output)
    with open(output, 'a', encoding='utf-8') as f:
        with contextlib.redirect_stdout(f):
            xyz = '''H 0.0 0.0 0.0; H 0.0 0.0 %f'''%r
            mf = util.guess_from_fchk(xyz, bas, fch)
            #mf = util.guess(xyz, bas)
            #f.flush()
            mf2 = util.SUHF(mf)
            #mf2.cut_no = False
            mf2.debug = False
            #mf2.max_cycle = 50
            mf2.diis_on = True
            #mf2.output = 'sudft_%.1f.out'%r
            #mf2.kernel()
            
            mf3 = sudft.SUDFT(mf2)
            mf3.kernel()
                    #INFO: ******************** input file end ********************


System: uname_result(system='Linux', node='xcluster', release='3.10.0-693.el7.x86_64', version='#1 SMP Thu Jul 6 19:56:57 EDT 2017', machine='x86_64', processor='x86_64')  Threads 4
Python 3.7.4 (default, Aug 13 2019, 20:35:49) 
[GCC 7.3.0]
numpy 1.17.2  scipy 1.4.1
Date: Sat Nov 21 21:25:15 2020
PySCF version 1.7.3
PySCF path  /share/apps/Python/Anaconda3-2019/lib/python3.7/site-packages/pyscf

[CONFIG] conf_file None
[INPUT] verbose = 4
[INPUT] num. atoms = 2
[INPUT] num. electrons = 2
[INPUT] charge = 0
[INPUT] spin (= nelec alpha-beta = 2S) = 0
[INPUT] symmetry False subgroup None
[INPUT] Mole.unit = angstrom
[INPUT]  1 H      0.000000000000   0.000000000000   0.000000000000 AA    0.000000000000   0.000000000000   0.000000000000 Bohr
[INPUT]  2 H      0.000000000000   0.000000000000   0.900000000000 AA    0.000000000000   0.000000000000   1.700753512109 Bohr

nuclear repulsion = 0.5879746788
number of shells = 12
number of NR pGTOs = 32
number of NR cGTOs = 28
basis = cc-pvtz
ecp = {}
CPU time:       181.87


******** <class 'pyscf.scf.uhf.UHF'> ********
method = UHF
initial guess = minao
damping factor = 0
level_shift factor = 0
DIIS = <class 'pyscf.scf.diis.CDIIS'>
diis_start_cycle = 1
diis_space = 8
SCF conv_tol = 1e-09
SCF conv_tol_grad = None
SCF max_cycles = 1
direct_scf = True
direct_scf_tol = 1e-13
chkfile to save SCF result = /share/home/srwang/ExSCF/test/pytest/scan_h2/tmpoy3a3c_o
max_memory 4000 MB (current use 136 MB)
number electrons alpha = 1  beta = 1
Set gradient conv threshold to 3.16228e-05
init E= -0.777606275655003
  alpha nocc = 1  HOMO = -0.484832052038408  LUMO = 0.10189358950957
  beta  nocc = 1  HOMO = -0.482896344390348  LUMO = 0.102379264447568
cycle= 1 E= -1.11785381548896  delta_E= -0.34  |g|= 0.0309  |ddm|= 0.326
SCF not converged.
SCF energy = -1.11785381548896 after 1 cycles  <S^2> = 6.3128942e-07  2S+1 = 1.0000013


******** <class 'pyscf.scf.uhf.UHF'> ********
method = UHF
initial guess = minao
damping factor = 0
level_shift factor = 0
DIIS = <class 'pyscf.scf.diis.CDIIS'>
diis_start_cycle = 1
diis_space = 8
SCF conv_tol = 1e-09
SCF conv_tol_grad = None
SCF max_cycles = 1
direct_scf = True
direct_scf_tol = 1e-13
chkfile to save SCF result = /share/home/srwang/ExSCF/test/pytest/scan_h2/tmpoy3a3c_o
max_memory 4000 MB (current use 136 MB)
number electrons alpha = 1  beta = 1
Set gradient conv threshold to 3.16228e-05
init E= -1.19390694018613
  alpha nocc = 1  HOMO = -0.524641677616422  LUMO = 0.20163919459411
  beta  nocc = 1  HOMO = -0.524641677616421  LUMO = 0.201639194594109
cycle= 1 E= -1.10198639790229  delta_E= 0.0919  |g|= 0.0704  |ddm|= 0.117
SCF not converged.
SCF energy = -1.10198639790229 after 1 cycles  <S^2> = 0.16310881  2S+1 = 1.2854708

******** <class 'pyphf.util.SUHF'> ********
SVD: S^(-1/2)
[[-0.14964621  0.         -0.         -0.26424587  0.03380482 -0.         -0.         -0.         -0.         -0.13693896  0.          0.         -0.21455659
   0.          0.         -0.48405346 -0.         -0.          0.75714798  0.          0.         -0.66802072  0.81235055  0.          0.         -0.96842464
   0.33813793 -0.05983575]
 [-0.21165559 -0.          0.         -0.20126086 -0.08918098 -0.          0.          0.         -0.          0.02101152  0.          0.          0.00565436
   0.          0.         -0.12015454  0.          0.         -0.30840663 -0.         -0.         -0.16278234 -0.06271643  0.          0.          1.54092909
  -0.41791593  9.63155515]
 [-0.19586605  0.         -0.         -0.07680316 -0.2150504   0.         -0.         -0.          0.          0.03265694  0.          0.          0.10496721
   0.          0.          0.45004172 -0.          0.         -0.37863707 -0.         -0.          0.2468693   0.16266475  0.         -0.         -0.86298461
   2.92999062 -0.36290037]
 [ 0.          0.11525255  0.23192564  0.         -0.          0.44607209 -0.04332389 -0.10924026  0.03097939  0.          0.         -0.         -0.
  -0.          0.         -0.          0.51126645 -0.67462731  0.         -0.66713153 -0.39853224 -0.          0.         -0.3080158   0.11965336 -0.
  -0.          0.        ]
 [ 0.         -0.23192564  0.11525255 -0.         -0.          0.04332389  0.44607209  0.03097939  0.10924026 -0.         -0.         -0.          0.
  -0.         -0.         -0.          0.67462731  0.51126645 -0.         -0.39853224  0.66713153 -0.         -0.         -0.11965336 -0.3080158   0.
   0.         -0.        ]
 [-0.07488524  0.         -0.          0.15337288  0.37095    -0.         -0.         -0.          0.         -0.28991102 -0.         -0.          0.07609533
  -0.         -0.          0.38940989  0.          0.         -0.45099683 -0.         -0.         -0.7606183   1.24423837  0.         -0.          0.05466912
  -0.42384389  0.59603679]
 [ 0.          0.14262126  0.28700039  0.         -0.          0.28212813 -0.02740115 -0.2306521   0.06541051  0.          0.         -0.         -0.
   0.         -0.          0.         -0.37990227  0.50128939 -0.          0.27437241  0.16390509  0.         -0.          1.36155624 -0.52891695  0.
  -0.         -0.        ]
 [ 0.         -0.28700039  0.14262126  0.          0.          0.02740115  0.28212813  0.06541051  0.2306521  -0.         -0.         -0.          0.
   0.         -0.         -0.         -0.50128939 -0.37990227  0.          0.16390509 -0.27437241  0.          0.          0.52891695  1.36155624 -0.
  -0.         -0.        ]
 [-0.10308907  0.          0.          0.30515777  0.23987289  0.          0.         -0.         -0.         -0.12657649  0.          0.          0.23859148
   0.          0.         -0.2598517  -0.         -0.          0.54638578  0.          0.          1.15444285 -0.19325415 -0.         -0.         -0.20675898
   0.99087656  5.50015117]
 [ 0.          0.         -0.          0.          0.          0.         -0.         -0.         -0.         -0.         -0.64065644 -0.02165076  0.
  -0.1434104  -0.78603481  0.         -0.         -0.         -0.          0.         -0.         -0.         -0.         -0.          0.          0.
   0.          0.        ]
 [ 0.         -0.16580911  0.08239677  0.          0.         -0.02974858 -0.30629778 -0.15655206 -0.55203759  0.          0.          0.         -0.
   0.          0.          0.         -0.07594951 -0.05755836 -0.         -0.42942484  0.71884485  0.          0.          0.3129253   0.8055431  -0.
  -0.         -0.        ]
 [-0.03523066 -0.         -0.          0.09999545  0.09738702 -0.          0.          0.          0.          0.53644124 -0.         -0.         -0.56607798
  -0.         -0.          0.20854186  0.         -0.          0.11359851  0.          0.          0.68167592  0.82675422  0.         -0.          0.1426286
  -0.07093893  1.24947736]
 [ 0.          0.08239677  0.16580911  0.         -0.         -0.30629778  0.02974858  0.55203759 -0.15655206 -0.         -0.          0.          0.
  -0.         -0.          0.         -0.05755836  0.07594951  0.         -0.71884485 -0.42942484  0.         -0.          0.8055431  -0.3129253   0.
  -0.          0.        ]
 [ 0.         -0.          0.          0.          0.          0.          0.         -0.          0.          0.         -0.02165076  0.64065644  0.
  -0.78603481  0.1434104   0.         -0.          0.          0.         -0.          0.          0.          0.          0.          0.          0.
   0.          0.        ]
 [-0.14964621 -0.          0.          0.26424587  0.03380482 -0.          0.          0.         -0.          0.13693896 -0.         -0.         -0.21455659
   0.         -0.         -0.48405346  0.          0.         -0.75714798 -0.         -0.         -0.66802072 -0.81235055 -0.          0.         -0.96842464
  -0.33813793  0.05983575]
 [-0.21165559 -0.         -0.          0.20126086 -0.08918098  0.          0.          0.         -0.         -0.02101152  0.          0.          0.00565436
   0.          0.         -0.12015454  0.         -0.          0.30840663  0.          0.         -0.16278234  0.06271643  0.          0.          1.54092909
   0.41791593 -9.63155515]
 [-0.19586605  0.         -0.          0.07680316 -0.2150504  -0.         -0.         -0.          0.         -0.03265694 -0.         -0.          0.10496721
  -0.         -0.          0.45004172 -0.         -0.          0.37863707  0.          0.          0.2468693  -0.16266475 -0.         -0.         -0.86298461
  -2.92999062  0.36290037]
 [ 0.          0.11525255  0.23192564  0.         -0.         -0.44607209  0.04332389 -0.10924026  0.03097939  0.          0.         -0.          0.
  -0.          0.         -0.          0.51126645 -0.67462731 -0.          0.66713153  0.39853224  0.         -0.          0.3080158  -0.11965336 -0.
   0.          0.        ]
 [ 0.         -0.23192564  0.11525255  0.          0.         -0.04332389 -0.44607209  0.03097939  0.10924026  0.         -0.         -0.         -0.
  -0.         -0.         -0.          0.67462731  0.51126645  0.          0.39853224 -0.66713153  0.          0.          0.11965336  0.3080158  -0.
  -0.         -0.        ]
 [ 0.07488524  0.         -0.          0.15337288 -0.37095    -0.         -0.         -0.         -0.         -0.28991102 -0.         -0.         -0.07609533
  -0.         -0.         -0.38940989 -0.          0.         -0.45099683  0.         -0.          0.7606183   1.24423837  0.         -0.         -0.05466912
  -0.42384389  0.59603679]
 [ 0.          0.14262126  0.28700039  0.         -0.         -0.28212813  0.02740115 -0.2306521   0.06541051  0.          0.         -0.          0.
   0.         -0.          0.         -0.37990227  0.50128939  0.         -0.27437241 -0.16390509 -0.          0.         -1.36155624  0.52891695 -0.
   0.         -0.        ]
 [ 0.         -0.28700039  0.14262126  0.          0.         -0.02740115 -0.28212813  0.06541051  0.2306521   0.         -0.         -0.         -0.
   0.          0.         -0.         -0.50128939 -0.37990227 -0.         -0.16390509  0.27437241 -0.         -0.         -0.52891695 -1.36155624  0.
   0.          0.        ]
 [ 0.10308907 -0.         -0.          0.30515777 -0.23987289 -0.         -0.          0.          0.         -0.12657649  0.          0.         -0.23859148
   0.          0.          0.2598517  -0.         -0.          0.54638578  0.          0.         -1.15444285 -0.19325415  0.          0.          0.20675898
   0.99087656  5.50015117]
 [-0.         -0.          0.          0.          0.          0.          0.         -0.         -0.         -0.         -0.64065644 -0.02165076  0.
   0.1434104   0.78603481 -0.          0.          0.          0.         -0.         -0.          0.          0.         -0.         -0.         -0.
  -0.         -0.        ]
 [ 0.          0.16580911 -0.08239677 -0.         -0.         -0.02974858 -0.30629778  0.15655206  0.55203759  0.         -0.         -0.         -0.
   0.          0.         -0.          0.07594951  0.05755836 -0.         -0.42942484  0.71884485  0.          0.          0.3129253   0.8055431  -0.
  -0.         -0.        ]
 [-0.03523066 -0.         -0.         -0.09999545  0.09738702 -0.          0.         -0.          0.         -0.53644124 -0.         -0.         -0.56607798
  -0.         -0.          0.20854186 -0.         -0.         -0.11359851  0.         -0.          0.68167592 -0.82675422 -0.         -0.          0.1426286
   0.07093893 -1.24947736]
 [-0.         -0.08239677 -0.16580911 -0.          0.         -0.30629778  0.02974858 -0.55203759  0.15655206  0.          0.         -0.          0.
   0.         -0.         -0.          0.05755836 -0.07594951  0.         -0.71884485 -0.42942484  0.         -0.          0.8055431  -0.3129253   0.
  -0.          0.        ]
 [ 0.         -0.          0.          0.          0.          0.          0.         -0.          0.          0.         -0.02165076  0.64065644  0.
   0.78603481 -0.1434104   0.         -0.          0.         -0.          0.         -0.         -0.         -0.          0.         -0.         -0.
  -0.         -0.        ]]
C (ortho)
[[-0.95749463 -0.16483554  0.03319148  0.12455447  0.         -0.         -0.15262508 -0.         -0.          0.01608467  0.00931987  0.04439963 -0.
   0.         -0.          0.         -0.11092758 -0.          0.          0.          0.         -0.         -0.         -0.00312656  0.         -0.
  -0.03854737  0.00242258]
 [-0.         -0.         -0.         -0.          0.26502568 -0.80718009  0.         -0.05102908 -0.01028385 -0.          0.          0.         -0.
   0.         -0.50529237  0.09082206  0.         -0.         -0.         -0.06020627 -0.01756524  0.05408171 -0.07110451 -0.         -0.00389371  0.00371036
   0.          0.        ]
 [ 0.         -0.          0.         -0.          0.80718009  0.26502568  0.         -0.01028385  0.05102908 -0.         -0.          0.         -0.
   0.          0.09082206  0.50529237  0.         -0.         -0.         -0.01756524  0.06020627  0.07110451  0.05408171 -0.         -0.00371036 -0.00389371
  -0.         -0.        ]
 [-0.20078907  0.65553672  0.02826883 -0.70338467  0.          0.         -0.03709845 -0.          0.         -0.03533176  0.1137951  -0.1108105   0.
  -0.          0.         -0.         -0.00791884  0.         -0.          0.         -0.          0.         -0.         -0.03062507 -0.         -0.
  -0.0021696   0.07448494]
 [-0.19033822 -0.05813529 -0.44541068 -0.05118391 -0.          0.          0.63115944  0.          0.         -0.01737997 -0.14066757 -0.18649941  0.
  -0.         -0.         -0.          0.54141064 -0.         -0.         -0.         -0.          0.          0.          0.01624239  0.          0.
   0.1128561  -0.00465823]
 [ 0.          0.          0.         -0.          0.04944015 -0.00233182 -0.          0.39720345 -0.62901065 -0.          0.          0.         -0.
   0.         -0.00164017  0.00869071 -0.         -0.          0.         -0.30239427  0.39923096 -0.42172614 -0.12395492 -0.          0.00114758  0.00054747
  -0.          0.        ]
 [-0.         -0.         -0.         -0.          0.00233182  0.04944015  0.         -0.62901065 -0.39720345 -0.         -0.         -0.          0.
  -0.          0.00869071  0.00164017  0.          0.         -0.          0.39923096  0.30239427  0.12395492 -0.42172614  0.         -0.00054747  0.00114758
   0.         -0.        ]
 [-0.          0.         -0.          0.         -0.32900385  0.14703585 -0.          0.01606789 -0.01182402 -0.          0.         -0.         -0.
   0.         -0.38373184  0.61248889  0.          0.         -0.          0.33479823 -0.20498834 -0.43789166  0.03831716  0.         -0.00432317 -0.00031171
   0.         -0.        ]
 [-0.          0.          0.         -0.          0.14703585  0.32900385 -0.          0.01182402  0.01606789 -0.          0.         -0.         -0.
   0.         -0.61248889 -0.38373184  0.         -0.          0.          0.20498834  0.33479823  0.03831716  0.43789166  0.         -0.00031171  0.00432317
   0.         -0.        ]
 [ 0.00072347 -0.11860847  0.02517375 -0.05278854 -0.         -0.         -0.01952445 -0.          0.         -0.58472036  0.24071083 -0.20726182 -0.
  -0.          0.          0.         -0.02263322 -0.          0.         -0.          0.          0.          0.          0.72218441 -0.         -0.
  -0.00857095 -0.1311367 ]
 [ 0.         -0.         -0.         -0.          0.         -0.          0.         -0.          0.          0.         -0.         -0.         -0.99545209
   0.09284725  0.         -0.          0.         -0.0007859  -0.02130497 -0.          0.          0.         -0.         -0.         -0.          0.
  -0.         -0.        ]
 [-0.         -0.         -0.         -0.         -0.         -0.          0.          0.          0.         -0.          0.         -0.          0.09284725
   0.99545209  0.         -0.         -0.          0.02130497 -0.0007859   0.         -0.         -0.         -0.         -0.          0.          0.
  -0.         -0.        ]
 [-0.02587252  0.02786807  0.21994376  0.00588447 -0.          0.          0.50234047  0.          0.         -0.01344879  0.4130855   0.50360945 -0.
   0.          0.          0.         -0.02094259 -0.          0.          0.         -0.          0.         -0.          0.00036316  0.         -0.
  -0.5224112   0.00173021]
 [ 0.         -0.         -0.         -0.          0.          0.          0.          0.         -0.          0.         -0.          0.         -0.00644777
  -0.02032106 -0.         -0.          0.          0.98408678  0.1764049  -0.          0.          0.          0.          0.         -0.          0.
  -0.         -0.        ]
 [ 0.         -0.         -0.         -0.          0.         -0.          0.          0.          0.          0.         -0.          0.         -0.02032106
   0.00644777 -0.          0.          0.         -0.1764049   0.98408678  0.         -0.         -0.         -0.          0.         -0.         -0.
  -0.         -0.        ]
 [-0.04444785  0.05555391  0.70166826  0.08520387 -0.         -0.         -0.07077721 -0.         -0.          0.00679235  0.04609577  0.05898031 -0.
   0.          0.          0.          0.62724029 -0.          0.         -0.         -0.         -0.         -0.          0.01898173 -0.          0.
   0.30147447 -0.00187528]
 [-0.          0.         -0.         -0.         -0.27066167 -0.26686814  0.         -0.00720915 -0.02685866  0.         -0.         -0.         -0.
   0.          0.27573085  0.37115752  0.         -0.          0.          0.09191305  0.51318641  0.26943175  0.54456125 -0.         -0.0011888  -0.00384043
  -0.         -0.        ]
 [-0.         -0.         -0.         -0.          0.26686814 -0.27066167  0.         -0.02685866  0.00720915  0.         -0.         -0.         -0.
  -0.          0.37115752 -0.27573085  0.          0.          0.          0.51318641 -0.09191305 -0.54456125  0.26943175  0.          0.00384043 -0.0011888
  -0.          0.        ]
 [-0.03470394  0.45891048 -0.07851462  0.24160265  0.         -0.          0.00306346 -0.          0.          0.13121724 -0.52395456  0.43370792  0.
   0.         -0.          0.         -0.00604112 -0.         -0.         -0.          0.         -0.          0.          0.48018923  0.         -0.
  -0.00057899 -0.11481992]
 [ 0.          0.          0.          0.          0.01390451  0.0057895  -0.          0.03496899 -0.28623119  0.         -0.          0.          0.
   0.         -0.00292954 -0.01123186 -0.          0.         -0.          0.05008797 -0.23901079  0.15581391  0.13875319  0.         -0.56986817 -0.69897938
   0.          0.        ]
 [-0.          0.         -0.          0.          0.0057895  -0.01390451 -0.          0.28623119  0.03496899  0.         -0.          0.          0.
   0.          0.01123186 -0.00292954  0.         -0.         -0.          0.23901079  0.05008797  0.13875319 -0.15581391  0.         -0.69897938  0.56986817
  -0.         -0.        ]
 [-0.03323009  0.01545793  0.14353488  0.00709705 -0.          0.          0.44148455  0.         -0.         -0.01274277  0.108064    0.13369644 -0.
   0.          0.          0.         -0.48246897  0.          0.         -0.         -0.         -0.          0.         -0.00402133 -0.          0.
   0.72151313  0.00263879]
 [ 0.0149353  -0.11555758  0.01619399 -0.06952691 -0.          0.         -0.00537614 -0.          0.         -0.30596332 -0.23403911  0.18749806 -0.
   0.          0.          0.          0.00680307  0.          0.         -0.          0.         -0.         -0.          0.02165622 -0.         -0.
   0.00022576  0.89288271]
 [ 0.         -0.         -0.         -0.          0.03383508  0.00780008 -0.          0.17119638 -0.57466045 -0.         -0.          0.          0.
   0.         -0.00054952 -0.00628798  0.          0.          0.          0.18643358 -0.47426595  0.37222957  0.23314922  0.          0.32510185  0.28446684
  -0.          0.        ]
 [ 0.          0.         -0.          0.         -0.00780008  0.03383508  0.         -0.57466045 -0.17119638  0.          0.         -0.         -0.
  -0.         -0.00628798  0.00054952  0.         -0.          0.         -0.47426595 -0.18643358 -0.23314922  0.37222957 -0.         -0.28446684  0.32510185
  -0.         -0.        ]
 [ 0.02519818 -0.03915931 -0.46642555 -0.05879751  0.          0.         -0.35207552 -0.         -0.          0.00157185  0.45079694  0.53023583 -0.
   0.          0.         -0.          0.25896445  0.         -0.         -0.         -0.          0.         -0.          0.01130649  0.          0.
   0.31827972  0.00129845]
 [ 0.0274477  -0.54403766  0.11681235 -0.63481875 -0.          0.         -0.00121815 -0.          0.          0.26898474 -0.29328403  0.23695668  0.
  -0.         -0.         -0.         -0.00499609 -0.         -0.          0.          0.          0.         -0.          0.21407691 -0.         -0.
  -0.00011493 -0.16204175]
 [ 0.00967649  0.00941011 -0.0115862   0.08559939  0.          0.          0.01802634  0.          0.          0.68754405  0.3259699  -0.26921689  0.
  -0.         -0.          0.         -0.01337954 -0.         -0.          0.          0.          0.         -0.          0.44705048  0.         -0.
  -0.00394239  0.37487565]]
[[-0.95749463 -0.16483554  0.03319148  0.12455447  0.          0.          0.15262508  0.         -0.          0.01608467  0.00931987  0.04439963 -0.
   0.          0.         -0.          0.11092758 -0.         -0.          0.         -0.         -0.         -0.         -0.00312656  0.         -0.
  -0.03854737  0.00242258]
 [-0.         -0.         -0.         -0.         -0.80603151 -0.26849862  0.          0.03467477 -0.03882505 -0.          0.         -0.          0.
   0.         -0.01354687  0.51321098  0.         -0.          0.          0.03013426 -0.05500236  0.06358135 -0.06275424  0.         -0.00523479 -0.0012348
  -0.          0.        ]
 [-0.          0.         -0.         -0.         -0.26849862  0.80603151 -0.          0.03882505  0.03467477  0.         -0.         -0.         -0.
  -0.         -0.51321098 -0.01354687  0.          0.          0.          0.05500236  0.03013426  0.06275424  0.06358135  0.         -0.0012348   0.00523479
  -0.          0.        ]
 [ 0.20078907 -0.65553672 -0.02826883  0.70338467  0.          0.         -0.03709845  0.          0.          0.03533176 -0.1137951   0.1108105  -0.
  -0.          0.          0.         -0.00791884  0.          0.         -0.          0.          0.          0.          0.03062507  0.         -0.
   0.0021696  -0.07448494]
 [-0.19033822 -0.05813529 -0.44541068 -0.05118391  0.         -0.         -0.63115944 -0.          0.         -0.01737997 -0.14066757 -0.18649941  0.
  -0.         -0.          0.         -0.54141064  0.         -0.         -0.          0.         -0.          0.          0.01624239 -0.         -0.
   0.1128561  -0.00465823]
 [-0.         -0.          0.         -0.          0.03134971 -0.03830093  0.          0.6950202   0.26527704  0.          0.         -0.          0.
   0.          0.00834376 -0.00293259  0.         -0.          0.         -0.49614574 -0.0683159   0.39999406  0.18227043  0.         -0.00071376  0.00105225
  -0.          0.        ]
 [-0.          0.         -0.          0.         -0.03830093 -0.03134971  0.         -0.26527704  0.6950202   0.         -0.          0.          0.
  -0.          0.00293259  0.00834376 -0.         -0.         -0.          0.0683159  -0.49614574 -0.18227043  0.39999406 -0.          0.00105225  0.00071376
   0.          0.        ]
 [ 0.          0.          0.          0.          0.31420433 -0.17646165  0.         -0.01994882  0.00017031  0.          0.          0.         -0.
  -0.         -0.54758251  0.47174799  0.         -0.         -0.         -0.3816575   0.09191099 -0.43891426 -0.02390765 -0.         -0.00357337  0.00245317
   0.          0.        ]
 [-0.          0.          0.          0.          0.17646165  0.31420433 -0.          0.00017031  0.01994882  0.          0.          0.         -0.
   0.          0.47174799  0.54758251 -0.          0.          0.          0.09191099  0.3816575  -0.02390765  0.43891426 -0.         -0.00245317 -0.00357337
   0.          0.        ]
 [-0.00072347  0.11860847 -0.02517375  0.05278854 -0.         -0.         -0.01952445 -0.         -0.          0.58472036 -0.24071083  0.20726182 -0.
   0.          0.         -0.         -0.02263322  0.         -0.          0.          0.          0.         -0.         -0.72218441  0.         -0.
   0.00857095  0.1311367 ]
 [-0.         -0.         -0.          0.         -0.          0.          0.          0.         -0.         -0.          0.         -0.         -0.99884133
   0.04314491  0.         -0.         -0.         -0.02130881 -0.00067381  0.         -0.          0.         -0.         -0.         -0.          0.
  -0.          0.        ]
 [ 0.         -0.         -0.          0.          0.         -0.         -0.         -0.         -0.         -0.          0.          0.          0.04314491
   0.99884133 -0.         -0.         -0.         -0.00067381  0.02130881 -0.         -0.         -0.         -0.         -0.         -0.         -0.
  -0.          0.        ]
 [-0.02587252  0.02786807  0.21994376  0.00588447 -0.         -0.         -0.50234047 -0.          0.         -0.01344879  0.4130855   0.50360945  0.
  -0.         -0.         -0.          0.02094259  0.         -0.          0.         -0.         -0.          0.          0.00036316  0.          0.
  -0.5224112   0.00173021]
 [ 0.          0.         -0.          0.         -0.          0.          0.          0.          0.         -0.          0.          0.          0.0054275
   0.02061702  0.         -0.         -0.         -0.18157928 -0.98314518 -0.          0.          0.          0.         -0.          0.          0.
  -0.          0.        ]
 [ 0.          0.         -0.          0.         -0.         -0.          0.          0.         -0.         -0.          0.          0.          0.02061702
  -0.0054275  -0.          0.         -0.         -0.98314518  0.18157928  0.          0.         -0.         -0.         -0.         -0.         -0.
  -0.          0.        ]
 [-0.04444785  0.05555391  0.70166826  0.08520387 -0.          0.          0.07077721  0.         -0.          0.00679235  0.04609577  0.05898031  0.
  -0.         -0.         -0.         -0.62724029 -0.         -0.         -0.         -0.          0.         -0.          0.01898173 -0.          0.
   0.30147447 -0.00187528]
 [-0.         -0.         -0.         -0.         -0.05286884 -0.37640567  0.         -0.01033337 -0.02581823 -0.         -0.         -0.         -0.
  -0.         -0.40850952 -0.21657649  0.          0.          0.          0.29802148  0.42777506  0.18982633  0.57715369  0.          0.00091435  0.00391486
  -0.          0.        ]
 [-0.          0.         -0.          0.         -0.37640567  0.05286884 -0.          0.02581823 -0.01033337 -0.         -0.          0.         -0.
  -0.          0.21657649 -0.40850952 -0.         -0.         -0.         -0.42777506  0.29802148 -0.57715369  0.18982633  0.          0.00391486 -0.00091435
  -0.         -0.        ]
 [ 0.03470394 -0.45891048  0.07851462 -0.24160265  0.          0.          0.00306346 -0.          0.         -0.13121724  0.52395456 -0.43370792  0.
  -0.         -0.         -0.         -0.00604112  0.         -0.         -0.          0.         -0.         -0.         -0.48018923 -0.         -0.
   0.00057899  0.11481992]
 [ 0.         -0.          0.         -0.          0.00364239 -0.0146146   0.          0.19959699  0.20811574  0.          0.         -0.         -0.
  -0.         -0.01154528 -0.00120141  0.          0.         -0.          0.20446622  0.13352351 -0.13465702 -0.15936721  0.          0.13864931 -0.89112192
   0.         -0.        ]
 [ 0.         -0.         -0.         -0.          0.0146146   0.00364239 -0.          0.20811574 -0.19959699 -0.          0.         -0.         -0.
  -0.         -0.00120141  0.01154528 -0.         -0.         -0.          0.13352351 -0.20446622 -0.15936721  0.13465702 -0.          0.89112192  0.13864931
   0.          0.        ]
 [-0.03323009  0.01545793  0.14353488  0.00709705 -0.         -0.         -0.44148455 -0.          0.         -0.01274277  0.108064    0.13369644 -0.
   0.         -0.         -0.          0.48246897 -0.          0.          0.          0.          0.         -0.         -0.00402133  0.          0.
   0.72151313  0.00263879]
 [-0.0149353   0.11555758 -0.01619399  0.06952691 -0.          0.         -0.00537614 -0.         -0.          0.30596332  0.23403911 -0.18749806  0.
  -0.         -0.         -0.          0.00680307 -0.         -0.         -0.          0.          0.          0.         -0.02165622  0.         -0.
  -0.00022576 -0.89288271]
 [-0.          0.         -0.          0.          0.01391147 -0.03181391  0.          0.48155268  0.35728118  0.          0.         -0.         -0.
  -0.         -0.00629891  0.00040546 -0.          0.         -0.          0.4672499   0.20337945 -0.33557271 -0.28338025 -0.         -0.13684003  0.40974066
  -0.         -0.        ]
 [ 0.         -0.         -0.         -0.         -0.03181391 -0.01391147  0.         -0.35728118  0.48155268 -0.         -0.         -0.         -0.
   0.         -0.00040546 -0.00629891 -0.          0.          0.         -0.20337945  0.4672499   0.28338025 -0.33557271  0.          0.40974066  0.13684003
  -0.          0.        ]
 [ 0.02519818 -0.03915931 -0.46642555 -0.05879751  0.          0.          0.35207552  0.         -0.          0.00157185  0.45079694  0.53023583  0.
  -0.         -0.         -0.         -0.25896445  0.         -0.          0.         -0.          0.         -0.          0.01130649 -0.          0.
   0.31827972  0.00129845]
 [-0.0274477   0.54403766 -0.11681235  0.63481875 -0.         -0.         -0.00121815 -0.         -0.         -0.26898474  0.29328403 -0.23695668  0.
  -0.         -0.         -0.         -0.00499609  0.         -0.          0.         -0.         -0.          0.         -0.21407691  0.         -0.
   0.00011493  0.16204175]
 [-0.00967649 -0.00941011  0.0115862  -0.08559939  0.         -0.          0.01802634 -0.         -0.         -0.68754405 -0.3259699   0.26921689  0.
  -0.         -0.          0.         -0.01337954  0.         -0.          0.         -0.          0.          0.         -0.44705048 -0.         -0.
   0.00394239 -0.37487565]]
grids:  [0.06237655 0.31939555 0.74529195 1.28265786 1.85893479 2.39630071 2.8221971  3.07921611] 
weights:  [0.15900941 0.34931531 0.49276925 0.56970235 0.56970235 0.49276925 0.34931531 0.15900941]
S = 0.0, Sz = 0.0
Wigner small d:  1
value : [1. 1. 1. 1. 1. 1. 1. 1.]
**** Start Cycle 1 ****
dm (ortho)
[[[ 0.91679596  0.         -0.         ... -0.02412713 -0.02628103 -0.00926518]
  [ 0.          0.         -0.         ... -0.         -0.         -0.        ]
  [-0.         -0.          0.         ...  0.          0.          0.        ]
  ...
  [-0.02412713 -0.          0.         ...  0.00063495  0.00069163  0.00024383]
  [-0.02628103 -0.          0.         ...  0.00069163  0.00075338  0.0002656 ]
  [-0.00926518 -0.          0.         ...  0.00024383  0.0002656   0.00009363]]

 [[ 0.91679596  0.          0.         ... -0.02412713  0.02628103  0.00926518]
  [ 0.          0.          0.         ... -0.          0.          0.        ]
  [ 0.          0.          0.         ... -0.          0.          0.        ]
  ...
  [-0.02412713 -0.         -0.         ...  0.00063495 -0.00069163 -0.00024383]
  [ 0.02628103  0.          0.         ... -0.00069163  0.00075338  0.0002656 ]
  [ 0.00926518  0.          0.         ... -0.00024383  0.0002656   0.00009363]]]
Fock (ortho)
 (array([[-0.4433061 ,  0.        ,  0.        , -0.13438524, -0.45388887,  0.        , -0.        , -0.        , -0.        , -0.02145953, -0.        ,
        -0.        ,  0.07576046, -0.        , -0.        , -0.31761653, -0.        ,  0.        ,  0.01364565,  0.        , -0.        , -0.0311987 ,
         0.01799155,  0.        ,  0.        , -0.03761345,  0.00415781,  0.00635978],
       [ 0.        ,  1.39017492, -0.        ,  0.        , -0.        , -0.00855533,  0.02243101,  0.5092663 ,  0.56051528, -0.        , -0.        ,
        -0.        ,  0.        ,  0.        ,  0.        , -0.        , -0.40261856, -0.81040137, -0.        , -0.00067746,  0.00874689, -0.        ,
         0.        , -0.00041407,  0.00455414,  0.        , -0.        ,  0.        ],
       [ 0.        , -0.        ,  1.39017492,  0.        ,  0.        , -0.02243101, -0.00855533,  0.56051528, -0.5092663 ,  0.        , -0.        ,
         0.        ,  0.        , -0.        ,  0.        ,  0.        ,  0.81040137, -0.40261856,  0.        ,  0.00874689,  0.00067746,  0.        ,
         0.        , -0.00455414, -0.00041407, -0.        , -0.        ,  0.        ],
       [-0.13438524,  0.        ,  0.        ,  0.42650362, -0.0296502 , -0.        , -0.        ,  0.        , -0.        ,  0.00968708, -0.        ,
        -0.        , -0.03026785, -0.        , -0.        , -0.04326908,  0.        ,  0.        , -0.44411378, -0.        , -0.        , -0.01654657,
         0.34134447,  0.        , -0.        , -0.00128804, -0.05225291,  0.2161599 ],
       [-0.45388887, -0.        ,  0.        , -0.0296502 ,  1.69720487, -0.        ,  0.        ,  0.        ,  0.        ,  0.01545906,  0.        ,
         0.        , -0.42663856,  0.        ,  0.        ,  1.18861417, -0.        , -0.        , -0.00263522, -0.        ,  0.        , -0.33413362,
        -0.00939913,  0.        ,  0.        ,  0.12646945,  0.00131539, -0.00045798],
       [ 0.        , -0.00855533, -0.02243101, -0.        , -0.        ,  2.35810347, -0.        ,  0.01461929, -0.00572339,  0.        ,  0.        ,
         0.        ,  0.        ,  0.        , -0.        , -0.        , -0.0068844 ,  0.0074595 ,  0.        , -0.56251368, -0.26597088, -0.        ,
         0.        , -1.24616092,  0.34985914, -0.        , -0.        , -0.        ],
       [-0.        ,  0.02243101, -0.00855533, -0.        ,  0.        , -0.        ,  2.35810347, -0.00572339, -0.01461929,  0.        , -0.        ,
        -0.        , -0.        ,  0.        ,  0.        ,  0.        , -0.0074595 , -0.0068844 , -0.        , -0.26597088,  0.56251368, -0.        ,
        -0.        , -0.34985914, -1.24616092,  0.        ,  0.        ,  0.        ],
       [-0.        ,  0.5092663 ,  0.56051528,  0.        ,  0.        ,  0.01461929, -0.00572339,  3.18194477, -0.        , -0.        , -0.        ,
         0.        , -0.        , -0.        , -0.        ,  0.        , -0.24932064,  0.63868715,  0.        ,  0.00371376,  0.00393903,  0.        ,
        -0.        , -0.00109487,  0.00082691, -0.        ,  0.        ,  0.        ],
       [-0.        ,  0.56051528, -0.5092663 , -0.        ,  0.        , -0.00572339, -0.01461929, -0.        ,  3.18194477,  0.        , -0.        ,
        -0.        , -0.        ,  0.        ,  0.        , -0.        ,  0.63868715,  0.24932064,  0.        , -0.00393903,  0.00371376,  0.        ,
        -0.        ,  0.00082691,  0.00109487,  0.        ,  0.        ,  0.        ],
       [-0.02145953, -0.        ,  0.        ,  0.00968708,  0.01545906,  0.        ,  0.        , -0.        ,  0.        ,  3.06337225,  0.        ,
         0.        ,  0.00583936,  0.        ,  0.        , -0.00796153,  0.        , -0.        ,  0.89798612, -0.        ,  0.        , -0.00859346,
        -0.64663658, -0.        ,  0.        , -0.00624551,  0.28957034,  0.77637038],
       [-0.        , -0.        , -0.        , -0.        ,  0.        ,  0.        , -0.        , -0.        , -0.        ,  0.        ,  3.16272675,
         0.        ,  0.        , -0.0025255 , -0.01160703,  0.        , -0.        , -0.        ,  0.        , -0.        ,  0.        ,  0.        ,
        -0.        ,  0.        , -0.        , -0.        , -0.        , -0.        ],
       [-0.        , -0.        ,  0.        , -0.        ,  0.        ,  0.        , -0.        ,  0.        , -0.        ,  0.        ,  0.        ,
         3.16272675,  0.        ,  0.01160703, -0.0025255 ,  0.        , -0.        ,  0.        ,  0.        ,  0.        ,  0.        ,  0.        ,
        -0.        ,  0.        , -0.        , -0.        , -0.        , -0.        ],
       [ 0.07576046,  0.        ,  0.        , -0.03026785, -0.42663856,  0.        , -0.        , -0.        , -0.        ,  0.00583936,  0.        ,
         0.        ,  2.74467911,  0.        ,  0.        , -0.74172759,  0.        ,  0.        ,  0.01305524, -0.        ,  0.        , -1.41532678,
         0.01045135,  0.        ,  0.        ,  0.01309566,  0.00094596,  0.00033617],
       [-0.        ,  0.        , -0.        , -0.        ,  0.        ,  0.        ,  0.        , -0.        ,  0.        ,  0.        , -0.0025255 ,
         0.01160703,  0.        ,  3.90340512, -0.        ,  0.        ,  0.        ,  0.        ,  0.        ,  0.        , -0.        ,  0.        ,
        -0.        ,  0.        , -0.        , -0.        , -0.        , -0.        ],
       [-0.        ,  0.        ,  0.        , -0.        ,  0.        , -0.        ,  0.        , -0.        ,  0.        ,  0.        , -0.01160703,
        -0.0025255 ,  0.        , -0.        ,  3.90340512,  0.        ,  0.        ,  0.        ,  0.        , -0.        ,  0.        ,  0.        ,
         0.        ,  0.        , -0.        , -0.        , -0.        , -0.        ],
       [-0.31761653, -0.        ,  0.        , -0.04326908,  1.18861417, -0.        ,  0.        ,  0.        , -0.        , -0.00796153,  0.        ,
         0.        , -0.74172759,  0.        ,  0.        ,  2.04615934, -0.        , -0.        ,  0.02179977,  0.        ,  0.        ,  0.08739846,
         0.00369575, -0.        , -0.        ,  1.12274514,  0.00259835, -0.00014362],
       [-0.        , -0.40261856,  0.81040137,  0.        , -0.        , -0.0068844 , -0.0074595 , -0.24932064,  0.63868715,  0.        , -0.        ,
        -0.        ,  0.        ,  0.        ,  0.        , -0.        ,  3.35039006,  0.        ,  0.        ,  0.00688461, -0.00278016,  0.        ,
        -0.        ,  0.00508461,  0.00312978, -0.        ,  0.        ,  0.        ],
       [ 0.        , -0.81040137, -0.40261856,  0.        , -0.        ,  0.0074595 , -0.0068844 ,  0.63868715,  0.24932064, -0.        , -0.        ,
         0.        ,  0.        ,  0.        ,  0.        , -0.        ,  0.        ,  3.35039006,  0.        , -0.00278016, -0.00688461, -0.        ,
        -0.        , -0.00312978,  0.00508461, -0.        ,  0.        , -0.        ],
       [ 0.01364565, -0.        ,  0.        , -0.44411378, -0.00263522,  0.        , -0.        ,  0.        ,  0.        ,  0.89798612,  0.        ,
         0.        ,  0.01305524,  0.        ,  0.        ,  0.02179977,  0.        ,  0.        ,  2.27956466, -0.        , -0.        ,  0.00169818,
        -0.19126365, -0.        , -0.        ,  0.01272061,  1.10588557,  0.07169982],
       [ 0.        , -0.00067746,  0.00874689, -0.        , -0.        , -0.56251368, -0.26597088,  0.00371376, -0.00393903, -0.        , -0.        ,
         0.        , -0.        ,  0.        , -0.        ,  0.        ,  0.00688461, -0.00278016, -0.        ,  4.70426932, -0.        , -0.        ,
         0.        , -0.9528824 , -0.16157723, -0.        ,  0.        ,  0.        ],
       [-0.        ,  0.00874689,  0.00067746, -0.        ,  0.        , -0.26597088,  0.56251368,  0.00393903,  0.00371376,  0.        ,  0.        ,
         0.        ,  0.        , -0.        ,  0.        ,  0.        , -0.00278016, -0.00688461, -0.        ,  0.        ,  4.70426932,  0.        ,
         0.        , -0.16157723,  0.9528824 , -0.        ,  0.        , -0.        ],
       [-0.0311987 , -0.        ,  0.        , -0.01654657, -0.33413362, -0.        , -0.        ,  0.        ,  0.        , -0.00859346,  0.        ,
         0.        , -1.41532678,  0.        ,  0.        ,  0.08739846,  0.        , -0.        ,  0.00169818, -0.        ,  0.        ,  3.82787368,
         0.00672109, -0.        , -0.        ,  0.86396838,  0.00018183, -0.00158849],
       [ 0.01799155,  0.        ,  0.        ,  0.34134447, -0.00939913,  0.        , -0.        , -0.        , -0.        , -0.64663658, -0.        ,
        -0.        ,  0.01045135, -0.        ,  0.        ,  0.00369575, -0.        , -0.        , -0.19126365,  0.        ,  0.        ,  0.00672109,
         5.46642922,  0.        , -0.        ,  0.00687383, -0.71628986,  1.55494906],
       [ 0.        , -0.00041407, -0.00455414,  0.        ,  0.        , -1.24616092, -0.34985914, -0.00109487,  0.00082691, -0.        ,  0.        ,
         0.        ,  0.        ,  0.        ,  0.        , -0.        ,  0.00508461, -0.00312978, -0.        , -0.9528824 , -0.16157723, -0.        ,
         0.        ,  3.15647678,  0.        , -0.        , -0.        ,  0.        ],
       [ 0.        ,  0.00455414, -0.00041407, -0.        ,  0.        ,  0.34985914, -1.24616092,  0.00082691,  0.00109487,  0.        , -0.        ,
        -0.        ,  0.        , -0.        , -0.        , -0.        ,  0.00312978,  0.00508461, -0.        , -0.16157723,  0.9528824 , -0.        ,
        -0.        , -0.        ,  3.15647678, -0.        ,  0.        , -0.        ],
       [-0.03761345,  0.        , -0.        , -0.00128804,  0.12646945, -0.        ,  0.        , -0.        ,  0.        , -0.00624551, -0.        ,
        -0.        ,  0.01309566, -0.        , -0.        ,  1.12274514, -0.        , -0.        ,  0.01272061, -0.        , -0.        ,  0.86396838,
         0.00687383, -0.        , -0.        ,  2.16892464,  0.00386836, -0.00041776],
       [ 0.00415781, -0.        , -0.        , -0.05225291,  0.00131539, -0.        ,  0.        ,  0.        ,  0.        ,  0.28957034, -0.        ,
        -0.        ,  0.00094596, -0.        , -0.        ,  0.00259835,  0.        ,  0.        ,  1.10588557,  0.        ,  0.        ,  0.00018183,
        -0.71628986, -0.        ,  0.        ,  0.00386836,  1.11386867, -0.13576455],
       [ 0.00635978,  0.        ,  0.        ,  0.2161599 , -0.00045798, -0.        ,  0.        ,  0.        ,  0.        ,  0.77637038, -0.        ,
        -0.        ,  0.00033617, -0.        , -0.        , -0.00014362,  0.        , -0.        ,  0.07169982,  0.        , -0.        , -0.00158849,
         1.55494906,  0.        , -0.        , -0.00041776, -0.13576455,  2.89664287]]), array([[-0.4433061 , -0.        , -0.        ,  0.13438524, -0.45388887,  0.        , -0.        , -0.        , -0.        ,  0.02145953,  0.        ,
         0.        ,  0.07576046,  0.        ,  0.        , -0.31761653, -0.        ,  0.        , -0.01364565,  0.        , -0.        , -0.0311987 ,
        -0.01799155, -0.        ,  0.        , -0.03761345, -0.00415781, -0.00635978],
       [-0.        ,  1.39017492, -0.        ,  0.        , -0.        ,  0.00855533, -0.02243101,  0.5092663 ,  0.56051528, -0.        , -0.        ,
        -0.        ,  0.        ,  0.        ,  0.        , -0.        , -0.40261856, -0.81040137, -0.        ,  0.00067746, -0.00874689, -0.        ,
         0.        ,  0.00041407, -0.00455414,  0.        , -0.        ,  0.        ],
       [-0.        , -0.        ,  1.39017492,  0.        ,  0.        ,  0.02243101,  0.00855533,  0.56051528, -0.5092663 ,  0.        , -0.        ,
         0.        ,  0.        , -0.        ,  0.        ,  0.        ,  0.81040137, -0.40261856,  0.        , -0.00874689, -0.00067746,  0.        ,
         0.        ,  0.00455414,  0.00041407, -0.        , -0.        ,  0.        ],
       [ 0.13438524,  0.        ,  0.        ,  0.42650362,  0.0296502 , -0.        , -0.        ,  0.        , -0.        ,  0.00968708, -0.        ,
        -0.        ,  0.03026785, -0.        , -0.        ,  0.04326908,  0.        ,  0.        , -0.44411378, -0.        , -0.        ,  0.01654657,
         0.34134447,  0.        , -0.        ,  0.00128804, -0.05225291,  0.2161599 ],
       [-0.45388887, -0.        ,  0.        ,  0.0296502 ,  1.69720487, -0.        ,  0.        ,  0.        ,  0.        , -0.01545906,  0.        ,
         0.        , -0.42663856,  0.        ,  0.        ,  1.18861417, -0.        , -0.        ,  0.00263522, -0.        ,  0.        , -0.33413362,
         0.00939913,  0.        ,  0.        ,  0.12646945, -0.00131539,  0.00045798],
       [ 0.        ,  0.00855533,  0.02243101, -0.        , -0.        ,  2.35810347, -0.        , -0.01461929,  0.00572339,  0.        ,  0.        ,
         0.        ,  0.        ,  0.        , -0.        , -0.        ,  0.0068844 , -0.0074595 ,  0.        , -0.56251368, -0.26597088, -0.        ,
         0.        , -1.24616092,  0.34985914, -0.        , -0.        , -0.        ],
       [-0.        , -0.02243101,  0.00855533, -0.        ,  0.        , -0.        ,  2.35810347,  0.00572339,  0.01461929,  0.        , -0.        ,
        -0.        , -0.        ,  0.        ,  0.        ,  0.        ,  0.0074595 ,  0.0068844 , -0.        , -0.26597088,  0.56251368, -0.        ,
        -0.        , -0.34985914, -1.24616092,  0.        ,  0.        ,  0.        ],
       [-0.        ,  0.5092663 ,  0.56051528,  0.        ,  0.        , -0.01461929,  0.00572339,  3.18194477, -0.        , -0.        , -0.        ,
         0.        , -0.        , -0.        , -0.        ,  0.        , -0.24932064,  0.63868715,  0.        , -0.00371376, -0.00393903,  0.        ,
        -0.        ,  0.00109487, -0.00082691, -0.        ,  0.        ,  0.        ],
       [-0.        ,  0.56051528, -0.5092663 , -0.        ,  0.        ,  0.00572339,  0.01461929, -0.        ,  3.18194477,  0.        , -0.        ,
        -0.        , -0.        ,  0.        ,  0.        , -0.        ,  0.63868715,  0.24932064,  0.        ,  0.00393903, -0.00371376, -0.        ,
        -0.        , -0.00082691, -0.00109487,  0.        , -0.        ,  0.        ],
       [ 0.02145953, -0.        ,  0.        ,  0.00968708, -0.01545906,  0.        ,  0.        , -0.        ,  0.        ,  3.06337225,  0.        ,
         0.        , -0.00583936,  0.        ,  0.        ,  0.00796153,  0.        , -0.        ,  0.89798612, -0.        ,  0.        ,  0.00859346,
        -0.64663658, -0.        ,  0.        ,  0.00624551,  0.28957034,  0.77637038],
       [ 0.        , -0.        , -0.        , -0.        ,  0.        ,  0.        , -0.        , -0.        , -0.        ,  0.        ,  3.16272675,
         0.        ,  0.        ,  0.0025255 ,  0.01160703,  0.        , -0.        , -0.        ,  0.        , -0.        ,  0.        ,  0.        ,
        -0.        ,  0.        , -0.        , -0.        , -0.        , -0.        ],
       [ 0.        , -0.        ,  0.        , -0.        ,  0.        ,  0.        , -0.        ,  0.        , -0.        ,  0.        ,  0.        ,
         3.16272675,  0.        , -0.01160703,  0.0025255 ,  0.        , -0.        ,  0.        ,  0.        ,  0.        ,  0.        ,  0.        ,
        -0.        ,  0.        , -0.        , -0.        , -0.        , -0.        ],
       [ 0.07576046,  0.        ,  0.        ,  0.03026785, -0.42663856,  0.        , -0.        , -0.        , -0.        , -0.00583936,  0.        ,
         0.        ,  2.74467911,  0.        ,  0.        , -0.74172759,  0.        ,  0.        , -0.01305524, -0.        ,  0.        , -1.41532678,
        -0.01045135,  0.        ,  0.        ,  0.01309566, -0.00094596, -0.00033617],
       [ 0.        ,  0.        , -0.        , -0.        ,  0.        ,  0.        ,  0.        , -0.        ,  0.        ,  0.        ,  0.0025255 ,
        -0.01160703,  0.        ,  3.90340512,  0.        ,  0.        ,  0.        ,  0.        ,  0.        ,  0.        , -0.        ,  0.        ,
        -0.        ,  0.        , -0.        , -0.        , -0.        , -0.        ],
       [ 0.        ,  0.        ,  0.        , -0.        ,  0.        , -0.        ,  0.        , -0.        ,  0.        ,  0.        ,  0.01160703,
         0.0025255 ,  0.        , -0.        ,  3.90340512,  0.        ,  0.        ,  0.        ,  0.        , -0.        ,  0.        ,  0.        ,
         0.        ,  0.        , -0.        , -0.        , -0.        , -0.        ],
       [-0.31761653, -0.        ,  0.        ,  0.04326908,  1.18861417, -0.        ,  0.        ,  0.        , -0.        ,  0.00796153,  0.        ,
         0.        , -0.74172759,  0.        ,  0.        ,  2.04615934, -0.        , -0.        , -0.02179977,  0.        , -0.        ,  0.08739846,
        -0.00369575, -0.        , -0.        ,  1.12274514, -0.00259835,  0.00014362],
       [-0.        , -0.40261856,  0.81040137,  0.        , -0.        ,  0.0068844 ,  0.0074595 , -0.24932064,  0.63868715,  0.        , -0.        ,
        -0.        ,  0.        ,  0.        ,  0.        , -0.        ,  3.35039006,  0.        ,  0.        , -0.00688461,  0.00278016,  0.        ,
        -0.        , -0.00508461, -0.00312978, -0.        ,  0.        ,  0.        ],
       [ 0.        , -0.81040137, -0.40261856,  0.        , -0.        , -0.0074595 ,  0.0068844 ,  0.63868715,  0.24932064, -0.        , -0.        ,
         0.        ,  0.        ,  0.        ,  0.        , -0.        ,  0.        ,  3.35039006,  0.        ,  0.00278016,  0.00688461, -0.        ,
        -0.        ,  0.00312978, -0.00508461, -0.        ,  0.        , -0.        ],
       [-0.01364565, -0.        ,  0.        , -0.44411378,  0.00263522,  0.        , -0.        ,  0.        ,  0.        ,  0.89798612,  0.        ,
         0.        , -0.01305524,  0.        ,  0.        , -0.02179977,  0.        ,  0.        ,  2.27956466, -0.        , -0.        , -0.00169818,
        -0.19126365, -0.        ,  0.        , -0.01272061,  1.10588557,  0.07169982],
       [ 0.        ,  0.00067746, -0.00874689, -0.        , -0.        , -0.56251368, -0.26597088, -0.00371376,  0.00393903, -0.        , -0.        ,
         0.        , -0.        ,  0.        , -0.        ,  0.        , -0.00688461,  0.00278016, -0.        ,  4.70426932, -0.        , -0.        ,
         0.        , -0.9528824 , -0.16157723, -0.        ,  0.        ,  0.        ],
       [-0.        , -0.00874689, -0.00067746, -0.        ,  0.        , -0.26597088,  0.56251368, -0.00393903, -0.00371376,  0.        ,  0.        ,
         0.        ,  0.        , -0.        ,  0.        , -0.        ,  0.00278016,  0.00688461, -0.        ,  0.        ,  4.70426932,  0.        ,
         0.        , -0.16157723,  0.9528824 , -0.        ,  0.        , -0.        ],
       [-0.0311987 , -0.        ,  0.        ,  0.01654657, -0.33413362, -0.        , -0.        ,  0.        , -0.        ,  0.00859346,  0.        ,
         0.        , -1.41532678,  0.        ,  0.        ,  0.08739846,  0.        , -0.        , -0.00169818, -0.        ,  0.        ,  3.82787368,
        -0.00672109, -0.        , -0.        ,  0.86396838, -0.00018183,  0.00158849],
       [-0.01799155,  0.        ,  0.        ,  0.34134447,  0.00939913,  0.        , -0.        , -0.        , -0.        , -0.64663658, -0.        ,
        -0.        , -0.01045135, -0.        ,  0.        , -0.00369575, -0.        , -0.        , -0.19126365,  0.        ,  0.        , -0.00672109,
         5.46642922,  0.        , -0.        , -0.00687383, -0.71628986,  1.55494906],
       [-0.        ,  0.00041407,  0.00455414,  0.        ,  0.        , -1.24616092, -0.34985914,  0.00109487, -0.00082691, -0.        ,  0.        ,
         0.        ,  0.        ,  0.        ,  0.        , -0.        , -0.00508461,  0.00312978, -0.        , -0.9528824 , -0.16157723, -0.        ,
         0.        ,  3.15647678,  0.        , -0.        , -0.        ,  0.        ],
       [ 0.        , -0.00455414,  0.00041407, -0.        ,  0.        ,  0.34985914, -1.24616092, -0.00082691, -0.00109487,  0.        , -0.        ,
        -0.        ,  0.        , -0.        , -0.        , -0.        , -0.00312978, -0.00508461,  0.        , -0.16157723,  0.9528824 , -0.        ,
        -0.        , -0.        ,  3.15647678, -0.        ,  0.        , -0.        ],
       [-0.03761345,  0.        , -0.        ,  0.00128804,  0.12646945, -0.        ,  0.        , -0.        ,  0.        ,  0.00624551, -0.        ,
        -0.        ,  0.01309566, -0.        , -0.        ,  1.12274514, -0.        , -0.        , -0.01272061, -0.        , -0.        ,  0.86396838,
        -0.00687383, -0.        , -0.        ,  2.16892464, -0.00386836,  0.00041776],
       [-0.00415781, -0.        , -0.        , -0.05225291, -0.00131539, -0.        ,  0.        ,  0.        , -0.        ,  0.28957034, -0.        ,
        -0.        , -0.00094596, -0.        , -0.        , -0.00259835,  0.        ,  0.        ,  1.10588557,  0.        ,  0.        , -0.00018183,
        -0.71628986, -0.        ,  0.        , -0.00386836,  1.11386867, -0.13576455],
       [-0.00635978,  0.        ,  0.        ,  0.2161599 ,  0.00045798, -0.        ,  0.        ,  0.        ,  0.        ,  0.77637038, -0.        ,
        -0.        , -0.00033617, -0.        , -0.        ,  0.00014362,  0.        , -0.        ,  0.07169982,  0.        , -0.        ,  0.00158849,
         1.55494906,  0.        , -0.        ,  0.00041776, -0.13576455,  2.89664287]]))
E(UHF) =    -1.689961
NO eigenvalue
[-1. -0. -0. -0. -0. -0. -0. -0. -0. -0. -0. -0. -0. -0. -0.  0.  0.  0.  0.  0.  0.  0.  0.  0.  0.  0.  0.  0.] [-1. -0. -0. -0. -0. -0. -0. -0. -0. -0. -0. -0. -0. -0. -0. -0.  0.  0.  0.  0.  0.  0.  0.  0.  0.  0.  0.  0.]
NO vec
[[ 0.95749463  0.          0.03161304 ...  0.          0.          0.        ]
 [ 0.          0.         -0.34729809 ...  0.          0.          0.        ]
 [-0.          0.          0.         ...  0.          0.          0.        ]
 ...
 [ 0.         -0.02519818  0.         ... -0.118149   -0.10513526 -0.06433157]
 [ 0.          0.0274477   0.         ... -0.64167124 -0.00588781  0.12456261]
 [ 0.          0.00967649  0.         ... -0.02241387 -0.00987892  0.03414415]]
dm(NO)
[[ 1.  0. -0. ...  0.  0.  0.]
 [ 0.  1.  0. ...  0.  0. -0.]
 [-0.  0. -0. ...  0.  0.  0.]
 ...
 [ 0.  0.  0. ...  0. -0.  0.]
 [ 0.  0.  0. ... -0. -0.  0.]
 [ 0. -0.  0. ... -0. -0.  0.]]
D(g) (NO)
[[ 0.99951369  0.02852696 -0.         ...  0.00021718  0.01064918 -0.00638201]
 [-0.02852696  0.99951369 -0.00584158 ...  0.          0.         -0.        ]
 [-0.          0.00584158  0.99951369 ... -0.00266466 -0.01022521  0.01243362]
 ...
 [-0.00021718  0.          0.00266466 ...  0.99951369  0.          0.        ]
 [-0.01064918  0.          0.01022521 ...  0.          0.99951369  0.        ]
 [ 0.00638201 -0.         -0.01243362 ...  0.          0.          0.99951369]]
...
N(g) (NO)
[[ 0.99967224 -0.02853148]
 [ 0.02853148  0.99967224]]
...
P(g) (NO)
[[ 1.          0.         -0.         ...  0.         -0.          0.        ]
 [-0.          1.          0.         ...  0.          0.         -0.        ]
 [ 0.00016667  0.00583966 -0.         ...  0.          0.         -0.        ]
 ...
 [-0.00021711  0.0000062   0.         ...  0.          0.         -0.        ]
 [-0.01064569  0.00030384  0.         ...  0.          0.         -0.        ]
 [ 0.00637992 -0.00018209 -0.         ... -0.         -0.          0.        ]]
...
Pg_ortho
[[ 0.91686544  0.         -0.         ... -0.00006407  0.00006979  0.0000246 ]
 [ 0.          0.         -0.         ... -0.          0.          0.        ]
 [-0.         -0.          0.         ... -0.          0.          0.        ]
 ...
 [ 0.00006407  0.         -0.         ...  0.000635   -0.00069168 -0.00024385]
 [ 0.00156873  0.         -0.         ... -0.00069045  0.00075209  0.00026514]
 [ 0.00055304  0.         -0.         ... -0.00024341  0.00026514  0.00009347]]
G(g) (NO)
[[ 0.56347103 -0.00079075 -0.04592141 ... -0.00017109  0.00120773 -0.00070697]
 [ 0.00079075  0.56347103 -0.00059123 ...  0.00885128  0.02437812 -0.10293102]
 [-0.04597639 -0.00270855  0.91817075 ... -0.00015544  0.00020771 -0.00035927]
 ...
 [-0.00004728  0.00885807 -0.00004101 ...  0.85340048 -0.03913963 -0.03028506]
 [ 0.00614513  0.02426037 -0.00083348 ... -0.03913284  1.02925009  0.11074754]
 [-0.00326543 -0.10285545  0.00009129 ... -0.03028533  0.11071634  1.1212506 ]]
...
C(NO)
[[-1.          0.         -0.         ...  0.          0.          0.        ]
 [ 0.         -1.          0.         ...  0.          0.         -0.        ]
 [ 0.          0.         -0.55966358 ...  0.          0.          0.        ]
 ...
 [ 0.         -0.          0.         ...  0.0003946  -0.24375058 -0.31286332]
 [ 0.         -0.          0.         ... -0.00027948  0.05510801 -0.09895868]
 [ 0.          0.          0.         ... -0.00042011  0.10847731  0.00717069]]
detC 0.9999999999999996
detNg [1.00015863 1.00414167 1.02209869 1.0619987  1.11698091 1.16480596 1.18903834 1.19467205]
xg [0.99984139 0.99587542 0.97837911 0.94162074 0.89527045 0.85851209 0.84101578 0.8370498 ]
ciS 1.836891194833812
[[-1.12670477  0.          0.04347471 ...  0.          0.          0.        ]
 [ 0.         -1.12670477  0.         ... -0.00913313 -0.05348034  0.13290173]
 [ 0.04347471  0.          1.13392665 ...  0.          0.          0.        ]
 ...
 [ 0.         -0.00913313  0.         ...  1.17171256 -0.04372427 -0.26269894]
 [ 0.         -0.05348034  0.         ... -0.04372427 -0.18767473  0.6372522 ]
 [ 0.          0.13290173  0.         ... -0.26269894  0.6372522   0.37023015]]
ciH -3.152430994538407
S2 = -0.000000
X(g)
[[ 2.          0.          0.00016667 ...  0.00021711  0.01064569 -0.00637992]
 [-0.          2.         -0.00583966 ...  0.0000062   0.00030384 -0.00018209]
 [ 0.00016667  0.00583966  0.         ...  0.          0.          0.        ]
 ...
 [-0.00021711  0.0000062   0.         ...  0.          0.          0.        ]
 [-0.01064569  0.00030384  0.         ...  0.          0.          0.        ]
 [ 0.00637992 -0.00018209  0.         ...  0.          0.          0.        ]]
X(g) int
[[ 2.         -0.          0.09329541 ...  0.0029779   0.14601647 -0.08750707]
 [ 0.          2.         -0.08009689 ...  0.0034686   0.17007734 -0.10192665]
 [ 0.09329541  0.08009689  0.         ...  0.          0.          0.        ]
 ...
 [-0.0029779   0.0034686   0.         ...  0.          0.          0.        ]
 [-0.14601647  0.17007734  0.         ...  0.          0.          0.        ]
 [ 0.08750707 -0.10192665  0.         ...  0.          0.          0.        ]]
Hsp + Hph =  -1.7161773127360518
Feff (mod,ortho)
[[-0.42014355  0.          0.         ...  0.          0.          0.        ]
 [ 0.          1.39017492 -0.         ...  0.          0.          0.        ]
 [ 0.         -0.          1.39017492 ...  0.          0.          0.        ]
 ...
 [ 0.          0.          0.         ...  2.16892125 -0.0038245   0.00047738]
 [ 0.          0.          0.         ... -0.0038245   1.11377714 -0.13584492]
 [ 0.          0.          0.         ...  0.00047738 -0.13584492  2.89659758]]
E(SUHF) =     -1.12820263
e_a, e_b
[-0.56434278  0.13989521  0.31530763  0.57630654  0.66632857  0.66632857  1.03829625  1.08020269  1.08020269  1.48824242  2.43153832  2.48379364  3.1625363
  3.1625363   3.27897164  3.27897164  3.54929371  3.90359557  3.90359557  3.95554871  3.95554871  3.99171814  3.99171814  4.21183676  5.16858957  5.16858957
  5.21842334  6.3993258 ] [-0.56434278  0.13989521  0.31530763  0.57630654  0.66632857  0.66632857  1.03829625  1.08020269  1.08020269  1.48824242  2.43153832  2.48379364  3.1625363
  3.1625363   3.27897164  3.27897164  3.54929371  3.90359557  3.90359557  3.95554871  3.95554871  3.99171814  3.99171814  4.21183676  5.16858957  5.16858957
  5.21842334  6.3993258 ]
P_a, P_b
[[ 0.90989049 -0.         -0.          0.2143456   0.16642476 -0.          0.          0.          0.          0.00048449 -0.          0.          0.0292147
  -0.         -0.          0.05717078 -0.         -0.          0.03392397  0.          0.          0.0337086  -0.01571497 -0.         -0.         -0.02947551
  -0.02671602 -0.01047356]
 [-0.          0.          0.         -0.         -0.          0.         -0.         -0.         -0.         -0.          0.         -0.         -0.
   0.          0.         -0.          0.          0.         -0.         -0.         -0.         -0.          0.          0.          0.          0.
   0.          0.        ]
 [-0.          0.          0.         -0.         -0.          0.         -0.         -0.         -0.         -0.          0.         -0.         -0.
   0.          0.         -0.          0.          0.         -0.         -0.         -0.         -0.          0.          0.          0.          0.
   0.          0.        ]
 [ 0.2143456  -0.         -0.          0.05049403  0.03920518 -0.          0.          0.          0.          0.00011413 -0.          0.          0.00688219
  -0.         -0.          0.01346789 -0.         -0.          0.00799157  0.          0.          0.00794083 -0.00370202 -0.         -0.         -0.00694363
  -0.00629357 -0.00246729]
 [ 0.16642476 -0.         -0.          0.03920518  0.03044015 -0.          0.          0.          0.          0.00008862 -0.          0.          0.00534356
  -0.         -0.          0.0104569  -0.         -0.          0.00620491  0.          0.          0.00616552 -0.00287437 -0.         -0.         -0.00539126
  -0.00488653 -0.00191568]
 [-0.          0.          0.         -0.         -0.          0.         -0.         -0.         -0.         -0.          0.         -0.         -0.
   0.          0.         -0.          0.          0.         -0.         -0.         -0.         -0.          0.          0.          0.          0.
   0.          0.        ]
 [ 0.         -0.         -0.          0.          0.         -0.          0.          0.          0.          0.         -0.          0.          0.
  -0.         -0.          0.         -0.         -0.          0.          0.          0.          0.         -0.         -0.         -0.         -0.
  -0.         -0.        ]
 [ 0.         -0.         -0.          0.          0.         -0.          0.          0.          0.          0.         -0.          0.          0.
  -0.         -0.          0.         -0.         -0.          0.          0.          0.          0.         -0.         -0.         -0.         -0.
  -0.         -0.        ]
 [ 0.         -0.         -0.          0.          0.         -0.          0.          0.          0.          0.         -0.          0.          0.
  -0.         -0.          0.         -0.         -0.          0.          0.          0.          0.         -0.         -0.         -0.         -0.
  -0.         -0.        ]
 [ 0.00048449 -0.         -0.          0.00011413  0.00008862 -0.          0.          0.          0.          0.00000026 -0.          0.          0.00001556
  -0.         -0.          0.00003044 -0.         -0.          0.00001806  0.          0.          0.00001795 -0.00000837 -0.         -0.         -0.00001569
  -0.00001423 -0.00000558]
 [-0.          0.          0.         -0.         -0.          0.         -0.         -0.         -0.         -0.          0.         -0.         -0.
   0.          0.         -0.          0.          0.         -0.         -0.         -0.         -0.          0.          0.          0.          0.
   0.          0.        ]
 [ 0.         -0.         -0.          0.          0.         -0.          0.          0.          0.          0.         -0.          0.          0.
  -0.         -0.          0.         -0.         -0.          0.          0.          0.          0.         -0.         -0.         -0.         -0.
  -0.         -0.        ]
 [ 0.0292147  -0.         -0.          0.00688219  0.00534356 -0.          0.          0.          0.          0.00001556 -0.          0.          0.00093802
  -0.         -0.          0.00183564 -0.         -0.          0.00108923  0.          0.          0.00108231 -0.00050458 -0.         -0.         -0.0009464
  -0.0008578  -0.00033628]
 [-0.          0.          0.         -0.         -0.          0.         -0.         -0.         -0.         -0.          0.         -0.         -0.
   0.          0.         -0.          0.          0.         -0.         -0.         -0.         -0.          0.          0.          0.          0.
   0.          0.        ]
 [-0.          0.          0.         -0.         -0.          0.         -0.         -0.         -0.         -0.          0.         -0.         -0.
   0.          0.         -0.          0.          0.         -0.         -0.         -0.         -0.          0.          0.          0.          0.
   0.          0.        ]
 [ 0.05717078 -0.         -0.          0.01346789  0.0104569  -0.          0.          0.          0.          0.00003044 -0.          0.          0.00183564
  -0.         -0.          0.00359219 -0.         -0.          0.00213153  0.          0.          0.002118   -0.00098741 -0.         -0.         -0.00185202
  -0.00167864 -0.00065808]
 [-0.          0.          0.         -0.         -0.          0.         -0.         -0.         -0.         -0.          0.         -0.         -0.
   0.          0.         -0.          0.          0.         -0.         -0.         -0.         -0.          0.          0.          0.          0.
   0.          0.        ]
 [-0.          0.          0.         -0.         -0.          0.         -0.         -0.         -0.         -0.          0.         -0.         -0.
   0.          0.         -0.          0.          0.         -0.         -0.         -0.         -0.          0.          0.          0.          0.
   0.          0.        ]
 [ 0.03392397 -0.         -0.          0.00799157  0.00620491 -0.          0.          0.          0.          0.00001806 -0.          0.          0.00108923
  -0.         -0.          0.00213153 -0.         -0.          0.00126481  0.          0.          0.00125678 -0.00058591 -0.         -0.         -0.00109895
  -0.00099607 -0.00039049]
 [ 0.         -0.         -0.          0.          0.         -0.          0.          0.          0.          0.         -0.          0.          0.
  -0.         -0.          0.         -0.         -0.          0.          0.          0.          0.         -0.         -0.         -0.         -0.
  -0.         -0.        ]
 [ 0.         -0.         -0.          0.          0.         -0.          0.          0.          0.          0.         -0.          0.          0.
  -0.         -0.          0.         -0.         -0.          0.          0.          0.          0.         -0.         -0.         -0.         -0.
  -0.         -0.        ]
 [ 0.0337086  -0.         -0.          0.00794083  0.00616552 -0.          0.          0.          0.          0.00001795 -0.          0.          0.00108231
  -0.         -0.          0.002118   -0.         -0.          0.00125678  0.          0.          0.0012488  -0.00058219 -0.         -0.         -0.00109198
  -0.00098974 -0.00038801]
 [-0.01571497  0.          0.         -0.00370202 -0.00287437  0.         -0.         -0.         -0.         -0.00000837  0.         -0.         -0.00050458
   0.          0.         -0.00098741  0.          0.         -0.00058591 -0.         -0.         -0.00058219  0.00027142  0.          0.          0.00050908
   0.00046142  0.00018089]
 [-0.          0.          0.         -0.         -0.          0.         -0.         -0.         -0.         -0.          0.         -0.         -0.
   0.          0.         -0.          0.          0.         -0.         -0.         -0.         -0.          0.          0.          0.          0.
   0.          0.        ]
 [-0.          0.          0.         -0.         -0.          0.         -0.         -0.         -0.         -0.          0.         -0.         -0.
   0.          0.         -0.          0.          0.         -0.         -0.         -0.         -0.          0.          0.          0.          0.
   0.          0.        ]
 [-0.02947551  0.          0.         -0.00694363 -0.00539126  0.         -0.         -0.         -0.         -0.00001569  0.         -0.         -0.0009464
   0.          0.         -0.00185202  0.          0.         -0.00109895 -0.         -0.         -0.00109198  0.00050908  0.          0.          0.00095485
   0.00086545  0.00033929]
 [-0.02671602  0.          0.         -0.00629357 -0.00488653  0.         -0.         -0.         -0.         -0.00001423  0.         -0.         -0.0008578
   0.          0.         -0.00167864  0.          0.         -0.00099607 -0.         -0.         -0.00098974  0.00046142  0.          0.          0.00086545
   0.00078443  0.00030752]
 [-0.01047356  0.          0.         -0.00246729 -0.00191568  0.         -0.         -0.         -0.         -0.00000558  0.         -0.         -0.00033628
   0.          0.         -0.00065808  0.          0.         -0.00039049 -0.         -0.         -0.00038801  0.00018089  0.          0.          0.00033929
   0.00030752  0.00012056]] 
 [[ 0.90989049  0.          0.         -0.2143456   0.16642476  0.          0.         -0.          0.         -0.00048449 -0.         -0.          0.0292147
  -0.         -0.          0.05717078  0.          0.         -0.03392397 -0.         -0.          0.0337086   0.01571497  0.         -0.         -0.02947551
   0.02671602  0.01047356]
 [ 0.          0.          0.         -0.          0.          0.          0.         -0.          0.         -0.         -0.         -0.          0.
  -0.         -0.          0.          0.          0.         -0.         -0.         -0.          0.          0.          0.         -0.         -0.
   0.          0.        ]
 [ 0.          0.          0.         -0.          0.          0.          0.         -0.          0.         -0.         -0.         -0.          0.
  -0.         -0.          0.          0.          0.         -0.         -0.         -0.          0.          0.          0.         -0.         -0.
   0.          0.        ]
 [-0.2143456  -0.         -0.          0.05049403 -0.03920518 -0.         -0.          0.         -0.          0.00011413  0.          0.         -0.00688219
   0.          0.         -0.01346789 -0.         -0.          0.00799157  0.          0.         -0.00794083 -0.00370202 -0.          0.          0.00694363
  -0.00629357 -0.00246729]
 [ 0.16642476  0.          0.         -0.03920518  0.03044015  0.          0.         -0.          0.         -0.00008862 -0.         -0.          0.00534356
  -0.         -0.          0.0104569   0.          0.         -0.00620491 -0.         -0.          0.00616552  0.00287437  0.         -0.         -0.00539126
   0.00488653  0.00191568]
 [ 0.          0.          0.         -0.          0.          0.          0.         -0.          0.         -0.         -0.         -0.          0.
  -0.         -0.          0.          0.          0.         -0.         -0.         -0.          0.          0.          0.         -0.         -0.
   0.          0.        ]
 [ 0.          0.          0.         -0.          0.          0.          0.         -0.          0.         -0.         -0.         -0.          0.
  -0.         -0.          0.          0.          0.         -0.         -0.         -0.          0.          0.          0.         -0.         -0.
   0.          0.        ]
 [-0.         -0.         -0.          0.         -0.         -0.         -0.          0.         -0.          0.          0.          0.         -0.
   0.          0.         -0.         -0.         -0.          0.          0.          0.         -0.         -0.         -0.          0.          0.
  -0.         -0.        ]
 [ 0.          0.          0.         -0.          0.          0.          0.         -0.          0.         -0.         -0.         -0.          0.
  -0.         -0.          0.          0.          0.         -0.         -0.         -0.          0.          0.          0.         -0.         -0.
   0.          0.        ]
 [-0.00048449 -0.         -0.          0.00011413 -0.00008862 -0.         -0.          0.         -0.          0.00000026  0.          0.         -0.00001556
   0.          0.         -0.00003044 -0.         -0.          0.00001806  0.          0.         -0.00001795 -0.00000837 -0.          0.          0.00001569
  -0.00001423 -0.00000558]
 [-0.         -0.         -0.          0.         -0.         -0.         -0.          0.         -0.          0.          0.          0.         -0.
   0.          0.         -0.         -0.         -0.          0.          0.          0.         -0.         -0.         -0.          0.          0.
  -0.         -0.        ]
 [-0.         -0.         -0.          0.         -0.         -0.         -0.          0.         -0.          0.          0.          0.         -0.
   0.          0.         -0.         -0.         -0.          0.          0.          0.         -0.         -0.         -0.          0.          0.
  -0.         -0.        ]
 [ 0.0292147   0.          0.         -0.00688219  0.00534356  0.          0.         -0.          0.         -0.00001556 -0.         -0.          0.00093802
  -0.         -0.          0.00183564  0.          0.         -0.00108923 -0.         -0.          0.00108231  0.00050458  0.         -0.         -0.0009464
   0.0008578   0.00033628]
 [-0.         -0.         -0.          0.         -0.         -0.         -0.          0.         -0.          0.          0.          0.         -0.
   0.          0.         -0.         -0.         -0.          0.          0.          0.         -0.         -0.         -0.          0.          0.
  -0.         -0.        ]
 [-0.         -0.         -0.          0.         -0.         -0.         -0.          0.         -0.          0.          0.          0.         -0.
   0.          0.         -0.         -0.         -0.          0.          0.          0.         -0.         -0.         -0.          0.          0.
  -0.         -0.        ]
 [ 0.05717078  0.          0.         -0.01346789  0.0104569   0.          0.         -0.          0.         -0.00003044 -0.         -0.          0.00183564
  -0.         -0.          0.00359219  0.          0.         -0.00213153 -0.         -0.          0.002118    0.00098741  0.         -0.         -0.00185202
   0.00167864  0.00065808]
 [ 0.          0.          0.         -0.          0.          0.          0.         -0.          0.         -0.         -0.         -0.          0.
  -0.         -0.          0.          0.          0.         -0.         -0.         -0.          0.          0.          0.         -0.         -0.
   0.          0.        ]
 [ 0.          0.          0.         -0.          0.          0.          0.         -0.          0.         -0.         -0.         -0.          0.
  -0.         -0.          0.          0.          0.         -0.         -0.         -0.          0.          0.          0.         -0.         -0.
   0.          0.        ]
 [-0.03392397 -0.         -0.          0.00799157 -0.00620491 -0.         -0.          0.         -0.          0.00001806  0.          0.         -0.00108923
   0.          0.         -0.00213153 -0.         -0.          0.00126481  0.          0.         -0.00125678 -0.00058591 -0.          0.          0.00109895
  -0.00099607 -0.00039049]
 [-0.         -0.         -0.          0.         -0.         -0.         -0.          0.         -0.          0.          0.          0.         -0.
   0.          0.         -0.         -0.         -0.          0.          0.          0.         -0.         -0.         -0.          0.          0.
  -0.         -0.        ]
 [-0.         -0.         -0.          0.         -0.         -0.         -0.          0.         -0.          0.          0.          0.         -0.
   0.          0.         -0.         -0.         -0.          0.          0.          0.         -0.         -0.         -0.          0.          0.
  -0.         -0.        ]
 [ 0.0337086   0.          0.         -0.00794083  0.00616552  0.          0.         -0.          0.         -0.00001795 -0.         -0.          0.00108231
  -0.         -0.          0.002118    0.          0.         -0.00125678 -0.         -0.          0.0012488   0.00058219  0.         -0.         -0.00109198
   0.00098974  0.00038801]
 [ 0.01571497  0.          0.         -0.00370202  0.00287437  0.          0.         -0.          0.         -0.00000837 -0.         -0.          0.00050458
  -0.         -0.          0.00098741  0.          0.         -0.00058591 -0.         -0.          0.00058219  0.00027142  0.         -0.         -0.00050908
   0.00046142  0.00018089]
 [ 0.          0.          0.         -0.          0.          0.          0.         -0.          0.         -0.         -0.         -0.          0.
  -0.         -0.          0.          0.          0.         -0.         -0.         -0.          0.          0.          0.         -0.         -0.
   0.          0.        ]
 [-0.         -0.         -0.          0.         -0.         -0.         -0.          0.         -0.          0.          0.          0.         -0.
   0.          0.         -0.         -0.         -0.          0.          0.          0.         -0.         -0.         -0.          0.          0.
  -0.         -0.        ]
 [-0.02947551 -0.         -0.          0.00694363 -0.00539126 -0.         -0.          0.         -0.          0.00001569  0.          0.         -0.0009464
   0.          0.         -0.00185202 -0.         -0.          0.00109895  0.          0.         -0.00109198 -0.00050908 -0.          0.          0.00095485
  -0.00086545 -0.00033929]
 [ 0.02671602  0.          0.         -0.00629357  0.00488653  0.          0.         -0.          0.         -0.00001423 -0.         -0.          0.0008578
  -0.         -0.          0.00167864  0.          0.         -0.00099607 -0.         -0.          0.00098974  0.00046142  0.         -0.         -0.00086545
   0.00078443  0.00030752]
 [ 0.01047356  0.          0.         -0.00246729  0.00191568  0.          0.         -0.          0.         -0.00000558 -0.         -0.          0.00033628
[...]
 [ 0.         -0.          1.41414249 ...  0.          0.          0.        ]
 ...
 [ 0.          0.          0.         ...  2.18400513 -0.00723028  0.00073202]
 [ 0.          0.          0.         ... -0.00723028  1.11921047 -0.13640713]
 [ 0.          0.          0.         ...  0.00073202 -0.13640713  2.90529591]]
E(SUHF) =     -1.14207549
e_a, e_b
[-0.55102376  0.15321906  0.31748917  0.59095619  0.68101686  0.68101686  1.05185992  1.09185077  1.09185077  1.49733854  2.42403893  2.53300877  3.18233834
  3.18233834  3.30214885  3.30214885  3.57731337  3.92419452  3.92419452  3.96593808  3.96593808  4.03356104  4.03356104  4.23747833  5.19244949  5.19244949
  5.24480094  6.42982407] [-0.55102376  0.15321906  0.31748917  0.59095619  0.68101686  0.68101686  1.05185992  1.09185077  1.09185077  1.49733854  2.42403893  2.53300877  3.18233834
  3.18233834  3.30214885  3.30214885  3.57731337  3.92419452  3.92419452  3.96593808  3.96593808  4.03356104  4.03356104  4.23747833  5.19244949  5.19244949
  5.24480094  6.42982407]
P_a, P_b
[[ 0.84011906  0.         -0.          0.32028878  0.15207465 -0.          0.          0.          0.          0.02622284 -0.          0.          0.03253149
  -0.         -0.          0.06199356  0.         -0.          0.00068675 -0.         -0.          0.03428363 -0.02274501 -0.         -0.         -0.03110954
  -0.00515955 -0.01818487]
 [ 0.          0.         -0.          0.          0.         -0.          0.          0.          0.          0.         -0.          0.          0.
  -0.         -0.          0.          0.         -0.          0.         -0.         -0.          0.         -0.         -0.         -0.         -0.
  -0.         -0.        ]
 [-0.         -0.          0.         -0.         -0.          0.         -0.         -0.         -0.         -0.          0.         -0.         -0.
   0.          0.         -0.         -0.          0.         -0.          0.          0.         -0.          0.          0.          0.          0.
   0.          0.        ]
 [ 0.32028878  0.         -0.          0.12210758  0.05797726 -0.          0.          0.          0.          0.00999725 -0.          0.          0.01240237
  -0.         -0.          0.02363456  0.         -0.          0.00026182 -0.         -0.          0.01307036 -0.00867136 -0.         -0.         -0.01186027
  -0.00196704 -0.00693284]
 [ 0.15207465  0.         -0.          0.05797726  0.02752788 -0.          0.          0.          0.          0.00474674 -0.          0.          0.00588871
  -0.         -0.          0.0112218   0.         -0.          0.00012431 -0.         -0.          0.00620587 -0.0041172  -0.         -0.         -0.00563131
  -0.00093396 -0.00329175]
 [-0.         -0.          0.         -0.         -0.          0.         -0.         -0.         -0.         -0.          0.         -0.         -0.
   0.          0.         -0.         -0.          0.         -0.          0.          0.         -0.          0.          0.          0.          0.
   0.          0.        ]
 [ 0.          0.         -0.          0.          0.         -0.          0.          0.          0.          0.         -0.          0.          0.
  -0.         -0.          0.          0.         -0.          0.         -0.         -0.          0.         -0.         -0.         -0.         -0.
  -0.         -0.        ]
 [ 0.          0.         -0.          0.          0.         -0.          0.          0.          0.          0.         -0.          0.          0.
  -0.         -0.          0.          0.         -0.          0.         -0.         -0.          0.         -0.         -0.         -0.         -0.
  -0.         -0.        ]
 [ 0.          0.         -0.          0.          0.         -0.          0.          0.          0.          0.         -0.          0.          0.
  -0.         -0.          0.          0.         -0.          0.         -0.         -0.          0.         -0.         -0.         -0.         -0.
  -0.         -0.        ]
 [ 0.02622284  0.         -0.          0.00999725  0.00474674 -0.          0.          0.          0.          0.0008185  -0.          0.          0.00101541
  -0.         -0.          0.00193502  0.         -0.          0.00002144 -0.         -0.          0.0010701  -0.00070995 -0.         -0.         -0.00097103
  -0.00016105 -0.00056761]
 [-0.         -0.          0.         -0.         -0.          0.         -0.         -0.         -0.         -0.          0.         -0.         -0.
   0.          0.         -0.         -0.          0.         -0.          0.          0.         -0.          0.          0.          0.          0.
   0.          0.        ]
 [ 0.          0.         -0.          0.          0.         -0.          0.          0.          0.          0.         -0.          0.          0.
  -0.         -0.          0.          0.         -0.          0.         -0.         -0.          0.         -0.         -0.         -0.         -0.
  -0.         -0.        ]
 [ 0.03253149  0.         -0.          0.01240237  0.00588871 -0.          0.          0.          0.          0.00101541 -0.          0.          0.0012597
  -0.         -0.          0.00240054  0.         -0.          0.00002659 -0.         -0.          0.00132755 -0.00088074 -0.         -0.         -0.00120464
  -0.00019979 -0.00070416]
 [-0.         -0.          0.         -0.         -0.          0.         -0.         -0.         -0.         -0.          0.         -0.         -0.
   0.          0.         -0.         -0.          0.         -0.          0.          0.         -0.          0.          0.          0.          0.
   0.          0.        ]
 [-0.         -0.          0.         -0.         -0.          0.         -0.         -0.         -0.         -0.          0.         -0.         -0.
   0.          0.         -0.         -0.          0.         -0.          0.          0.         -0.          0.          0.          0.          0.
   0.          0.        ]
 [ 0.06199356  0.         -0.          0.02363456  0.0112218  -0.          0.          0.          0.          0.00193502 -0.          0.          0.00240054
  -0.         -0.          0.00457459  0.         -0.          0.00005068 -0.         -0.          0.00252984 -0.00167839 -0.         -0.         -0.00229562
  -0.00038073 -0.00134189]
 [ 0.          0.         -0.          0.          0.         -0.          0.          0.          0.          0.         -0.          0.          0.
  -0.         -0.          0.          0.         -0.          0.         -0.         -0.          0.         -0.         -0.         -0.         -0.
  -0.         -0.        ]
 [-0.         -0.          0.         -0.         -0.          0.         -0.         -0.         -0.         -0.          0.         -0.         -0.
   0.          0.         -0.         -0.          0.         -0.          0.          0.         -0.          0.          0.          0.          0.
   0.          0.        ]
 [ 0.00068675  0.         -0.          0.00026182  0.00012431 -0.          0.          0.          0.          0.00002144 -0.          0.          0.00002659
  -0.         -0.          0.00005068  0.         -0.          0.00000056 -0.         -0.          0.00002802 -0.00001859 -0.         -0.         -0.00002543
  -0.00000422 -0.00001487]
 [-0.         -0.          0.         -0.         -0.          0.         -0.         -0.         -0.         -0.          0.         -0.         -0.
   0.          0.         -0.         -0.          0.         -0.          0.          0.         -0.          0.          0.          0.          0.
   0.          0.        ]
 [-0.         -0.          0.         -0.         -0.          0.         -0.         -0.         -0.         -0.          0.         -0.         -0.
   0.          0.         -0.         -0.          0.         -0.          0.          0.         -0.          0.          0.          0.          0.
   0.          0.        ]
 [ 0.03428363  0.         -0.          0.01307036  0.00620587 -0.          0.          0.          0.          0.0010701  -0.          0.          0.00132755
  -0.         -0.          0.00252984  0.         -0.          0.00002802 -0.         -0.          0.00139905 -0.00092818 -0.         -0.         -0.00126952
  -0.00021055 -0.00074209]
 [-0.02274501 -0.          0.         -0.00867136 -0.0041172   0.         -0.         -0.         -0.         -0.00070995  0.         -0.         -0.00088074
   0.          0.         -0.00167839 -0.          0.         -0.00001859  0.          0.         -0.00092818  0.00061579  0.          0.          0.00084225
   0.00013969  0.00049233]
 [-0.         -0.          0.         -0.         -0.          0.         -0.         -0.         -0.         -0.          0.         -0.         -0.
   0.          0.         -0.         -0.          0.         -0.          0.          0.         -0.          0.          0.          0.          0.
   0.          0.        ]
 [-0.         -0.          0.         -0.         -0.          0.         -0.         -0.         -0.         -0.          0.         -0.         -0.
   0.          0.         -0.         -0.          0.         -0.          0.          0.         -0.          0.          0.          0.          0.
   0.          0.        ]
 [-0.03110954 -0.          0.         -0.01186027 -0.00563131  0.         -0.         -0.         -0.         -0.00097103  0.         -0.         -0.00120464
   0.          0.         -0.00229562 -0.          0.         -0.00002543  0.          0.         -0.00126952  0.00084225  0.          0.          0.00115198
   0.00019106  0.00067338]
 [-0.00515955 -0.          0.         -0.00196704 -0.00093396  0.         -0.         -0.         -0.         -0.00016105  0.         -0.         -0.00019979
   0.          0.         -0.00038073 -0.          0.         -0.00000422  0.          0.         -0.00021055  0.00013969  0.          0.          0.00019106
   0.00003169  0.00011168]
 [-0.01818487 -0.          0.         -0.00693284 -0.00329175  0.         -0.         -0.         -0.         -0.00056761  0.         -0.         -0.00070416
   0.          0.         -0.00134189 -0.          0.         -0.00001487  0.          0.         -0.00074209  0.00049233  0.          0.          0.00067338
   0.00011168  0.00039362]] 
 [[ 0.84011906  0.         -0.         -0.32028878  0.15207465  0.         -0.         -0.          0.         -0.02622284  0.          0.          0.03253149
   0.          0.          0.06199356 -0.         -0.         -0.00068675  0.          0.          0.03428363  0.02274501  0.         -0.         -0.03110954
   0.00515955  0.01818487]
 [ 0.          0.         -0.         -0.          0.          0.         -0.         -0.          0.         -0.          0.          0.          0.
   0.          0.          0.         -0.         -0.         -0.          0.          0.          0.          0.          0.         -0.         -0.
   0.          0.        ]
 [-0.         -0.          0.          0.         -0.         -0.          0.          0.         -0.          0.         -0.         -0.         -0.
  -0.         -0.         -0.          0.          0.          0.         -0.         -0.         -0.         -0.         -0.          0.          0.
  -0.         -0.        ]
 [-0.32028878 -0.          0.          0.12210758 -0.05797726 -0.          0.          0.         -0.          0.00999725 -0.         -0.         -0.01240237
  -0.         -0.         -0.02363456  0.          0.          0.00026182 -0.         -0.         -0.01307036 -0.00867136 -0.          0.          0.01186027
  -0.00196704 -0.00693284]
 [ 0.15207465  0.         -0.         -0.05797726  0.02752788  0.         -0.         -0.          0.         -0.00474674  0.          0.          0.00588871
   0.          0.          0.0112218  -0.         -0.         -0.00012431  0.          0.          0.00620587  0.0041172   0.         -0.         -0.00563131
   0.00093396  0.00329175]
 [ 0.          0.         -0.         -0.          0.          0.         -0.         -0.          0.         -0.          0.          0.          0.
   0.          0.          0.         -0.         -0.         -0.          0.          0.          0.          0.          0.         -0.         -0.
   0.          0.        ]
 [-0.         -0.          0.          0.         -0.         -0.          0.          0.         -0.          0.         -0.         -0.         -0.
  -0.         -0.         -0.          0.          0.          0.         -0.         -0.         -0.         -0.         -0.          0.          0.
  -0.         -0.        ]
 [-0.         -0.          0.          0.         -0.         -0.          0.          0.         -0.          0.         -0.         -0.         -0.
  -0.         -0.         -0.          0.          0.          0.         -0.         -0.         -0.         -0.         -0.          0.          0.
  -0.         -0.        ]
 [ 0.          0.         -0.         -0.          0.          0.         -0.         -0.          0.         -0.          0.          0.          0.
   0.          0.          0.         -0.         -0.         -0.          0.          0.          0.          0.          0.         -0.         -0.
   0.          0.        ]
 [-0.02622284 -0.          0.          0.00999725 -0.00474674 -0.          0.          0.         -0.          0.0008185  -0.         -0.         -0.00101541
  -0.         -0.         -0.00193502  0.          0.          0.00002144 -0.         -0.         -0.0010701  -0.00070995 -0.          0.          0.00097103
  -0.00016105 -0.00056761]
 [ 0.          0.         -0.         -0.          0.          0.         -0.         -0.          0.         -0.          0.          0.          0.
   0.          0.          0.         -0.         -0.         -0.          0.          0.          0.          0.          0.         -0.         -0.
   0.          0.        ]
 [ 0.          0.         -0.         -0.          0.          0.         -0.         -0.          0.         -0.          0.          0.          0.
   0.          0.          0.         -0.         -0.         -0.          0.          0.          0.          0.          0.         -0.         -0.
   0.          0.        ]
 [ 0.03253149  0.         -0.         -0.01240237  0.00588871  0.         -0.         -0.          0.         -0.00101541  0.          0.          0.0012597
   0.          0.          0.00240054 -0.         -0.         -0.00002659  0.          0.          0.00132755  0.00088074  0.         -0.         -0.00120464
   0.00019979  0.00070416]
 [ 0.          0.         -0.         -0.          0.          0.         -0.         -0.          0.         -0.          0.          0.          0.
   0.          0.          0.         -0.         -0.         -0.          0.          0.          0.          0.          0.         -0.         -0.
   0.          0.        ]
 [ 0.          0.         -0.         -0.          0.          0.         -0.         -0.          0.         -0.          0.          0.          0.
   0.          0.          0.         -0.         -0.         -0.          0.          0.          0.          0.          0.         -0.         -0.
   0.          0.        ]
 [ 0.06199356  0.         -0.         -0.02363456  0.0112218   0.         -0.         -0.          0.         -0.00193502  0.          0.          0.00240054
   0.          0.          0.00457459 -0.         -0.         -0.00005068  0.          0.          0.00252984  0.00167839  0.         -0.         -0.00229562
   0.00038073  0.00134189]
 [-0.         -0.          0.          0.         -0.         -0.          0.          0.         -0.          0.         -0.         -0.         -0.
  -0.         -0.         -0.          0.          0.          0.         -0.         -0.         -0.         -0.         -0.          0.          0.
  -0.         -0.        ]
 [-0.         -0.          0.          0.         -0.         -0.          0.          0.         -0.          0.         -0.         -0.         -0.
  -0.         -0.         -0.          0.          0.          0.         -0.         -0.         -0.         -0.         -0.          0.          0.
  -0.         -0.        ]
 [-0.00068675 -0.          0.          0.00026182 -0.00012431 -0.          0.          0.         -0.          0.00002144 -0.         -0.         -0.00002659
  -0.         -0.         -0.00005068  0.          0.          0.00000056 -0.         -0.         -0.00002802 -0.00001859 -0.          0.          0.00002543
  -0.00000422 -0.00001487]
 [ 0.          0.         -0.         -0.          0.          0.         -0.         -0.          0.         -0.          0.          0.          0.
   0.          0.          0.         -0.         -0.         -0.          0.          0.          0.          0.          0.         -0.         -0.
   0.          0.        ]
 [ 0.          0.         -0.         -0.          0.          0.         -0.         -0.          0.         -0.          0.          0.          0.
   0.          0.          0.         -0.         -0.         -0.          0.          0.          0.          0.          0.         -0.         -0.
   0.          0.        ]
 [ 0.03428363  0.         -0.         -0.01307036  0.00620587  0.         -0.         -0.          0.         -0.0010701   0.          0.          0.00132755
   0.          0.          0.00252984 -0.         -0.         -0.00002802  0.          0.          0.00139905  0.00092818  0.         -0.         -0.00126952
   0.00021055  0.00074209]
 [ 0.02274501  0.         -0.         -0.00867136  0.0041172   0.         -0.         -0.          0.         -0.00070995  0.          0.          0.00088074
   0.          0.          0.00167839 -0.         -0.         -0.00001859  0.          0.          0.00092818  0.00061579  0.         -0.         -0.00084225
   0.00013969  0.00049233]
 [ 0.          0.         -0.         -0.          0.          0.         -0.         -0.          0.         -0.          0.          0.          0.
   0.          0.          0.         -0.         -0.         -0.          0.          0.          0.          0.          0.         -0.         -0.
   0.          0.        ]
 [-0.         -0.          0.          0.         -0.         -0.          0.          0.         -0.          0.         -0.         -0.         -0.
  -0.         -0.         -0.          0.          0.          0.         -0.         -0.         -0.         -0.         -0.          0.          0.
  -0.         -0.        ]
 [-0.03110954 -0.          0.          0.01186027 -0.00563131 -0.          0.          0.         -0.          0.00097103 -0.         -0.         -0.00120464
  -0.         -0.         -0.00229562  0.          0.          0.00002543 -0.         -0.         -0.00126952 -0.00084225 -0.          0.          0.00115198
  -0.00019106 -0.00067338]
 [ 0.00515955  0.         -0.         -0.00196704  0.00093396  0.         -0.         -0.          0.         -0.00016105  0.          0.          0.00019979
   0.          0.          0.00038073 -0.         -0.         -0.00000422  0.          0.          0.00021055  0.00013969  0.         -0.         -0.00019106
   0.00003169  0.00011168]
 [ 0.01818487  0.         -0.         -0.00693284  0.00329175  0.         -0.         -0.          0.         -0.00056761  0.          0.          0.00070416
   0.          0.          0.00134189 -0.         -0.         -0.00001487  0.          0.          0.00074209  0.00049233  0.         -0.         -0.00067338
   0.00011168  0.00039362]]

***************
SCF converged at cycle 39
Final E(SUHF) =     -1.14207549, delta E = -8.41871e-09
***** Start DFT Correlation for SUHF+DFT **********
tot grids = 20048
E(SUHF) =     -1.14207549
E_c(TPSS) =     -0.03426418
E(SUHF+DFT) =     -1.17633968
