

#INFO: **** input file is /share/home/srwang/ExSCF/test/pytest/scan_h2/scan_dft.py ****
#import phf
from pyscf import gto, scf
#import scipy
import numpy as np
import sys, os, contextlib

from pyphf import util, sudft

#xyz = 'h2.xyz' #sys.argv[1]
fch = 'test_uhf.fchk' #sys.argv[2]
#bas = '../h2.bas'
bas = 'cc-pvtz'

for r in np.arange(0.5, 2.6, 0.1):
    output = 'sudft_%.1f.out' % r
    os.system("echo '\n' > %s" % output)
    with open(output, 'a', encoding='utf-8') as f:
        with contextlib.redirect_stdout(f):
            xyz = '''H 0.0 0.0 0.0; H 0.0 0.0 %f'''%r
            mf = util.guess_from_fchk(xyz, bas, fch)
            #mf = util.guess(xyz, bas)
            #f.flush()
            mf2 = util.SUHF(mf)
            mf2.cut_no = False
            mf2.debug = False
            mf2.max_cycle = 50
            #mf2.output = 'sudft_%.1f.out'%r
            #mf2.kernel()
            
            mf3 = sudft.SUDFT(mf2)
            mf3.kernel()
                    #INFO: ******************** input file end ********************


System: uname_result(system='Linux', node='xc02n18', release='3.10.0-693.el7.x86_64', version='#1 SMP Thu Jul 6 19:56:57 EDT 2017', machine='x86_64', processor='x86_64')  Threads 24
Python 3.7.4 (default, Aug 13 2019, 20:35:49) 
[GCC 7.3.0]
numpy 1.17.2  scipy 1.4.1
Date: Fri Nov 20 22:49:18 2020
PySCF version 1.7.3
PySCF path  /share/apps/Python/Anaconda3-2019/lib/python3.7/site-packages/pyscf

[CONFIG] conf_file None
[INPUT] verbose = 4
[INPUT] num. atoms = 2
[INPUT] num. electrons = 2
[INPUT] charge = 0
[INPUT] spin (= nelec alpha-beta = 2S) = 0
[INPUT] symmetry False subgroup None
[INPUT] Mole.unit = angstrom
[INPUT]  1 H      0.000000000000   0.000000000000   0.000000000000 AA    0.000000000000   0.000000000000   0.000000000000 Bohr
[INPUT]  2 H      0.000000000000   0.000000000000   1.400000000000 AA    0.000000000000   0.000000000000   2.645616574391 Bohr

nuclear repulsion = 0.377983722085714
number of shells = 12
number of NR pGTOs = 32
number of NR cGTOs = 28
basis = cc-pvtz
ecp = {}
CPU time:      1921.54


******** <class 'pyscf.scf.uhf.UHF'> ********
method = UHF
initial guess = minao
damping factor = 0
level_shift factor = 0
DIIS = <class 'pyscf.scf.diis.CDIIS'>
diis_start_cycle = 1
diis_space = 8
SCF conv_tol = 1e-09
SCF conv_tol_grad = None
SCF max_cycles = 1
direct_scf = True
direct_scf_tol = 1e-13
chkfile to save SCF result = /share/home/srwang/ExSCF/test/pytest/scan_h2/tmpxoe92lvj
max_memory 4000 MB (current use 145 MB)
number electrons alpha = 1  beta = 1
Set gradient conv threshold to 3.16228e-05
init E= -0.688729809904902
  alpha nocc = 1  HOMO = -0.339469358961427  LUMO = -0.0103331027226323
  beta  nocc = 1  HOMO = -0.33730775009623  LUMO = -0.00962911758123788
cycle= 1 E= -1.02201752742189  delta_E= -0.333  |g|= 0.0346  |ddm|= 0.356
SCF not converged.
SCF energy = -1.02201752742189 after 1 cycles  <S^2> = 3.1186678e-07  2S+1 = 1.0000006


******** <class 'pyscf.scf.uhf.UHF'> ********
method = UHF
initial guess = minao
damping factor = 0
level_shift factor = 0
DIIS = <class 'pyscf.scf.diis.CDIIS'>
diis_start_cycle = 1
diis_space = 8
SCF conv_tol = 1e-09
SCF conv_tol_grad = None
SCF max_cycles = 1
direct_scf = True
direct_scf_tol = 1e-13
chkfile to save SCF result = /share/home/srwang/ExSCF/test/pytest/scan_h2/tmpxoe92lvj
max_memory 4000 MB (current use 146 MB)
number electrons alpha = 1  beta = 1
Set gradient conv threshold to 3.16228e-05
init E= -1.03195644532977
  alpha nocc = 1  HOMO = -0.490961940972594  LUMO = 0.0798103532854506
  beta  nocc = 1  HOMO = -0.490961940972595  LUMO = 0.07981035328545
cycle= 1 E= -1.03195644714102  delta_E= -1.81e-09  |g|= 2.71e-05  |ddm|= 4.26e-05
SCF not converged.
SCF energy = -1.03195644714102 after 1 cycles  <S^2> = 0.42973767  2S+1 = 1.6489241

******** <class 'pyphf.util.SUHF'> ********
SVD: S^(-1/2)
[[-0.14266614  0.07564016 -0.         -0.          0.29570577  0.          0.         -0.05008837  0.24735178  0.         -0.          0.          0.
   0.          0.          0.          0.         -0.66804081 -0.2601153   0.63910242  0.          0.         -0.24847929 -0.         -0.          0.82552889
  -0.31894762  0.88436591]
 [-0.221526    0.09727418 -0.          0.          0.29058089 -0.         -0.         -0.01719709  0.11888201  0.          0.         -0.         -0.
   0.          0.          0.         -0.         -0.07296041  0.02117945 -0.276827   -0.         -0.          0.03007292  0.          0.         -1.62548499
   0.63116999 -2.36532636]
 [-0.22854246  0.15825468  0.         -0.          0.14631477  0.         -0.          0.04442484  0.00872194 -0.          0.         -0.         -0.
  -0.          0.         -0.          0.          0.48218813  0.03181428 -0.518416   -0.         -0.         -0.03111038  0.          0.          0.94534619
  -2.11068663  0.38497534]
 [ 0.         -0.          0.31704382 -0.05716736  0.          0.08344148 -0.43573325 -0.          0.         -0.10821394 -0.06824649 -0.          0.
  -0.         -0.         -0.10481483  0.17593033 -0.          0.          0.          0.00980935 -0.82101321  0.          0.41258196  0.65936467 -0.
  -0.          0.        ]
 [ 0.          0.         -0.05716736 -0.31704382 -0.          0.43573325  0.08344148 -0.         -0.          0.06824649 -0.10821394 -0.         -0.
  -0.         -0.          0.17593033  0.10481483  0.         -0.          0.         -0.82101321 -0.00980935  0.         -0.65936467  0.41258196 -0.
   0.         -0.        ]
 [-0.07015688 -0.30412018  0.         -0.         -0.15436734  0.          0.          0.09097769  0.44222526  0.          0.         -0.          0.
   0.          0.         -0.          0.          0.10910254 -0.43548726 -0.44418216 -0.         -0.         -0.89462271  0.         -0.         -0.11304909
   0.38406133  0.39632789]
 [ 0.         -0.          0.38658113 -0.06970589  0.          0.06864454 -0.35846328 -0.          0.         -0.05532656 -0.03489239 -0.          0.
   0.         -0.          0.0002086  -0.00035013 -0.          0.         -0.         -0.00833277  0.69742739  0.         -0.53906239 -0.86149839  0.
   0.         -0.        ]
 [-0.          0.         -0.06970589 -0.38658113 -0.          0.35846328  0.06864454 -0.         -0.          0.03489239 -0.05532656 -0.         -0.
   0.          0.         -0.00035013 -0.0002086  -0.          0.         -0.          0.69742739  0.00833277  0.          0.86149839 -0.53906239  0.
   0.         -0.        ]
 [-0.13024467 -0.33056553  0.         -0.         -0.22806257  0.          0.          0.13371333  0.18352917  0.          0.          0.         -0.
  -0.         -0.          0.         -0.         -0.07426757  0.01530707  0.44377027  0.          0.          0.74459561 -0.          0.          0.2398591
  -1.22027154 -1.8788655 ]
 [ 0.          0.         -0.          0.          0.         -0.          0.          0.          0.         -0.          0.         -0.69851712  0.
  -0.6836581  -0.2128336   0.          0.         -0.          0.          0.         -0.         -0.          0.         -0.         -0.         -0.
  -0.          0.        ]
 [-0.          0.         -0.01832026 -0.1016021  -0.         -0.11896855 -0.02278209  0.          0.         -0.34571988  0.54818514  0.          0.
   0.         -0.          0.64330601  0.38326542  0.          0.          0.         -0.09168219 -0.00109541  0.          0.18079091 -0.11312567 -0.
  -0.          0.        ]
 [-0.03669929 -0.11219404 -0.          0.         -0.00330606 -0.         -0.         -0.6265953  -0.34994357 -0.         -0.         -0.         -0.
   0.          0.         -0.          0.          0.08958294 -0.71816957  0.01619688  0.          0.          0.04583234  0.         -0.          0.08041633
  -0.21826543 -0.65338522]
 [ 0.         -0.          0.1016021  -0.01832026  0.         -0.02278209  0.11896855 -0.         -0.          0.54818514  0.34571988  0.          0.
   0.         -0.         -0.38326542  0.64330601  0.          0.          0.          0.00109541 -0.09168219  0.         -0.11312567 -0.18079091  0.
  -0.          0.        ]
 [ 0.          0.          0.          0.          0.          0.          0.          0.          0.          0.         -0.          0.          0.69851712
   0.2128336  -0.6836581  -0.         -0.          0.          0.          0.         -0.          0.          0.          0.         -0.          0.
   0.          0.        ]
 [-0.14266614  0.07564016  0.          0.         -0.29570577 -0.         -0.         -0.05008837 -0.24735178  0.         -0.         -0.          0.
   0.          0.          0.         -0.         -0.66804081  0.2601153  -0.63910242 -0.         -0.         -0.24847929  0.          0.          0.82552889
   0.31894762 -0.88436591]
 [-0.221526    0.09727418  0.          0.         -0.29058089  0.         -0.         -0.01719709 -0.11888201 -0.         -0.          0.          0.
   0.          0.         -0.         -0.         -0.07296041 -0.02117945  0.276827    0.          0.          0.03007292 -0.         -0.         -1.62548499
  -0.63116999  2.36532636]
 [-0.22854246  0.15825468  0.          0.         -0.14631477 -0.         -0.          0.04442484 -0.00872194 -0.          0.         -0.          0.
  -0.         -0.         -0.          0.          0.48218813 -0.03181428  0.518416    0.          0.         -0.03111038 -0.          0.          0.94534619
   2.11068663 -0.38497534]
 [ 0.         -0.          0.31704382 -0.05716736  0.         -0.08344148  0.43573325 -0.          0.         -0.10821394 -0.06824649 -0.         -0.
   0.          0.          0.10481483 -0.17593033 -0.         -0.          0.          0.00980935 -0.82101321  0.         -0.41258196 -0.65936467  0.
  -0.          0.        ]
 [-0.          0.         -0.05716736 -0.31704382 -0.         -0.43573325 -0.08344148  0.          0.          0.06824649 -0.10821394 -0.         -0.
   0.          0.         -0.17593033 -0.10481483 -0.         -0.          0.         -0.82101321 -0.00980935  0.          0.65936467 -0.41258196 -0.
   0.          0.        ]
 [ 0.07015688  0.30412018 -0.         -0.         -0.15436734  0.          0.         -0.09097769  0.44222526  0.          0.          0.          0.
  -0.         -0.          0.         -0.         -0.10910254 -0.43548726 -0.44418216 -0.         -0.          0.89462271 -0.          0.          0.11304909
   0.38406133  0.39632789]
 [ 0.         -0.          0.38658113 -0.06970589  0.         -0.06864454  0.35846328 -0.          0.         -0.05532656 -0.03489239 -0.         -0.
  -0.          0.         -0.0002086   0.00035013 -0.          0.         -0.         -0.00833277  0.69742739 -0.          0.53906239  0.86149839 -0.
  -0.          0.        ]
 [ 0.          0.         -0.06970589 -0.38658113 -0.         -0.35846328 -0.06864454  0.          0.          0.03489239 -0.05532656 -0.          0.
  -0.         -0.          0.00035013  0.0002086   0.         -0.         -0.          0.69742739  0.00833277 -0.         -0.86149839  0.53906239 -0.
   0.         -0.        ]
 [ 0.13024467  0.33056553 -0.         -0.         -0.22806257  0.         -0.         -0.13371333  0.18352917 -0.         -0.         -0.         -0.
   0.          0.         -0.          0.          0.07426757  0.01530707  0.44377027  0.          0.         -0.74459561  0.         -0.         -0.2398591
  -1.22027154 -1.8788655 ]
 [ 0.          0.         -0.          0.          0.         -0.          0.          0.          0.         -0.          0.         -0.69851712  0.
   0.6836581   0.2128336  -0.          0.          0.          0.          0.         -0.          0.          0.         -0.          0.          0.
   0.          0.        ]
 [ 0.         -0.          0.01832026  0.1016021   0.         -0.11896855 -0.02278209 -0.         -0.          0.34571988 -0.54818514 -0.         -0.
  -0.         -0.          0.64330601  0.38326542  0.          0.         -0.          0.09168219  0.00109541  0.          0.18079091 -0.11312567  0.
   0.          0.        ]
 [-0.03669929 -0.11219404 -0.          0.          0.00330606 -0.          0.         -0.6265953   0.34994357 -0.         -0.          0.          0.
  -0.         -0.         -0.         -0.          0.08958294  0.71816957 -0.01619688 -0.         -0.          0.04583234 -0.          0.          0.08041633
   0.21826543  0.65338522]
 [-0.          0.         -0.1016021   0.01832026 -0.         -0.02278209  0.11896855  0.          0.         -0.54818514 -0.34571988 -0.          0.
  -0.         -0.         -0.38326542  0.64330601 -0.          0.         -0.         -0.00109541  0.09168219  0.         -0.11312567 -0.18079091  0.
   0.          0.        ]
 [ 0.          0.         -0.          0.          0.          0.          0.          0.          0.          0.         -0.          0.          0.69851712
  -0.2128336   0.6836581   0.          0.          0.         -0.         -0.          0.         -0.         -0.          0.         -0.         -0.
  -0.         -0.        ]]
C (ortho)
[[-0.90221893 -0.3115979   0.04287022  0.15891964 -0.          0.         -0.22024952 -0.          0.          0.02680949 -0.00358899  0.00926684 -0.10230116
   0.          0.          0.         -0.         -0.          0.          0.         -0.         -0.         -0.         -0.00031231  0.          0.
   0.04496037 -0.00016295]
 [ 0.24904589  0.09362513  0.28425841  0.10026321  0.          0.         -0.79751796 -0.          0.          0.03175097 -0.06486206 -0.02517284 -0.38457843
  -0.          0.          0.         -0.         -0.          0.          0.          0.         -0.         -0.          0.0073734  -0.          0.
   0.22025555 -0.00192376]
 [-0.          0.          0.          0.          0.7930071   0.40247814  0.         -0.04605899  0.08126905 -0.         -0.         -0.         -0.
   0.14420547 -0.0270822  -0.          0.         -0.          0.          0.261968    0.09497904 -0.15873754  0.27490922  0.          0.02157243 -0.00316668
  -0.         -0.        ]
 [-0.         -0.          0.          0.          0.40247814 -0.7930071  -0.         -0.08126905 -0.04605899 -0.         -0.         -0.          0.
  -0.0270822  -0.14420547 -0.          0.          0.          0.          0.09497904 -0.261968   -0.27490922 -0.15873754  0.         -0.00316668 -0.02157243
  -0.          0.        ]
 [ 0.33068171 -0.77819328 -0.0455459   0.44312667 -0.          0.          0.0402403  -0.          0.         -0.16672881 -0.02250388  0.13704021 -0.00176138
   0.         -0.         -0.          0.          0.          0.         -0.          0.          0.          0.          0.1904809  -0.         -0.
  -0.01640568  0.03700964]
 [ 0.          0.         -0.          0.         -0.04026813  0.08151211  0.         -0.71052875 -0.41290022  0.          0.          0.         -0.
   0.00033416  0.00167905 -0.          0.         -0.         -0.         -0.10414517  0.29723764 -0.226956   -0.13434033 -0.         -0.05991179 -0.37954108
  -0.         -0.        ]
 [ 0.         -0.          0.         -0.         -0.08151211 -0.04026813  0.         -0.41290022  0.71052875  0.          0.          0.         -0.
  -0.00167905  0.00033416  0.          0.          0.          0.         -0.29723764 -0.10414517 -0.13434033  0.226956   -0.          0.37954108 -0.05991179
  -0.          0.        ]
 [-0.00246169  0.02307662  0.09662349  0.02227656 -0.         -0.          0.29079851  0.         -0.         -0.00741651  0.08283147  0.0178131  -0.81439476
  -0.          0.         -0.         -0.         -0.         -0.          0.         -0.         -0.         -0.         -0.04874107 -0.          0.
  -0.48183464 -0.00726615]
 [ 0.08644623 -0.10585051 -0.08380903  0.24027269  0.         -0.          0.04635911  0.         -0.          0.73432458  0.02581392 -0.03685216  0.00807655
  -0.          0.          0.         -0.         -0.         -0.          0.         -0.         -0.         -0.         -0.54698828  0.          0.
   0.04618302  0.26789426]
 [ 0.         -0.         -0.         -0.         -0.08033356 -0.00687661  0.          0.00392919 -0.00311882  0.         -0.         -0.         -0.
   0.82673901 -0.52980247 -0.          0.          0.         -0.         -0.12172272  0.00443808  0.09302986 -0.07263159 -0.         -0.01967475  0.0115282
  -0.          0.        ]
 [ 0.         -0.          0.          0.          0.00687661 -0.08033356 -0.         -0.00311882 -0.00392919 -0.          0.          0.         -0.
   0.52980247  0.82673901  0.         -0.         -0.         -0.         -0.00443808 -0.12172272 -0.07263159 -0.09302986  0.         -0.0115282  -0.01967475
  -0.          0.        ]
 [-0.          0.         -0.         -0.          0.         -0.         -0.          0.          0.          0.          0.          0.          0.
   0.          0.         -0.95755254  0.27075471 -0.03804709 -0.09130954  0.         -0.         -0.         -0.         -0.          0.          0.
   0.          0.        ]
 [-0.         -0.          0.          0.         -0.         -0.          0.          0.         -0.         -0.         -0.         -0.         -0.
   0.          0.          0.27075471  0.95755254  0.09130954 -0.03804709  0.          0.          0.         -0.          0.          0.          0.
  -0.         -0.        ]
 [ 0.         -0.          0.         -0.          0.         -0.         -0.          0.         -0.         -0.         -0.         -0.          0.
   0.          0.         -0.08288457  0.05399224  0.09240949  0.99079537  0.          0.          0.         -0.         -0.         -0.          0.
  -0.         -0.        ]
 [ 0.         -0.          0.          0.         -0.          0.         -0.         -0.          0.         -0.         -0.         -0.         -0.
  -0.          0.         -0.05399224 -0.08288457  0.99079537 -0.09240949  0.          0.          0.          0.         -0.         -0.         -0.
  -0.         -0.        ]
 [ 0.         -0.         -0.         -0.          0.00204128 -0.00082821 -0.          0.04163371 -0.00844364  0.         -0.          0.          0.
  -0.00913302  0.01558531 -0.         -0.         -0.          0.         -0.45051188  0.25038722 -0.50464187  0.09812798  0.         -0.36910446  0.57591565
  -0.          0.        ]
 [ 0.          0.          0.         -0.         -0.00082821 -0.00204128 -0.          0.00844364  0.04163371  0.          0.          0.          0.
   0.01558531  0.00913302 -0.         -0.          0.         -0.          0.25038722  0.45051188 -0.09812798 -0.50464187  0.          0.57591565  0.36910446
  -0.         -0.        ]
 [-0.01957972  0.10790699  0.72569886  0.24173229 -0.         -0.          0.14392287  0.         -0.          0.00058524  0.55763532  0.16647724  0.20854116
   0.         -0.          0.          0.          0.          0.         -0.          0.         -0.          0.          0.00341536 -0.          0.
  -0.00202529  0.00287001]
 [-0.01248956 -0.00908292  0.0309183  -0.07228273 -0.          0.         -0.00035761 -0.         -0.          0.09204709  0.13523146 -0.49245401 -0.00661542
  -0.         -0.         -0.          0.          0.          0.         -0.          0.          0.         -0.          0.46978894 -0.         -0.
  -0.04112824  0.70842963]
 [-0.06229025  0.40455164 -0.22168799  0.44060111 -0.         -0.          0.00839154  0.          0.          0.23841301 -0.14229476  0.5284995  -0.01185566
   0.         -0.         -0.          0.          0.         -0.          0.          0.          0.          0.          0.46819698 -0.         -0.
  -0.03689573  0.10955379]
 [-0.          0.         -0.          0.         -0.26811924  0.34546719  0.          0.04901993  0.01653166  0.         -0.          0.          0.
   0.00055536 -0.11806974 -0.          0.          0.          0.          0.30579264 -0.51226998 -0.62270721 -0.21559515  0.          0.00197968 -0.044366
   0.          0.        ]
 [-0.          0.         -0.          0.          0.34546719  0.26811924  0.         -0.01653166  0.04901993  0.         -0.          0.         -0.
  -0.11806974 -0.00055536 -0.         -0.          0.         -0.         -0.51226998 -0.30579264  0.21559515 -0.62270721  0.         -0.044366   -0.00197968
   0.          0.        ]
 [-0.01571365 -0.00049777 -0.06733413 -0.03922839 -0.         -0.          0.36132857 -0.         -0.         -0.02048919  0.13928984  0.03650876 -0.36529075
   0.          0.         -0.         -0.         -0.         -0.          0.          0.          0.          0.          0.06471025  0.          0.
   0.83924694  0.00268663]
 [ 0.          0.          0.         -0.         -0.0524069   0.01994307  0.         -0.54437519  0.12282428  0.          0.          0.          0.
  -0.00190974  0.00310177 -0.         -0.         -0.          0.          0.38220069 -0.20163693  0.33454954 -0.07266094  0.         -0.34453471  0.51261134
  -0.         -0.        ]
 [ 0.         -0.          0.         -0.         -0.01994307 -0.0524069  -0.          0.12282428  0.54437519 -0.          0.         -0.         -0.
  -0.00310177 -0.00190974 -0.          0.         -0.         -0.          0.20163693  0.38220069 -0.07266094 -0.33454954 -0.         -0.51261134 -0.34453471
   0.          0.        ]
 [-0.03032129  0.06057958  0.50035754  0.18409507 -0.         -0.          0.27425355  0.         -0.          0.00820045 -0.76512312 -0.20689776  0.0337058
   0.         -0.         -0.          0.          0.          0.         -0.         -0.         -0.          0.          0.00661968  0.          0.
   0.08049231 -0.00090877]
 [-0.03031698  0.31183815 -0.24560032  0.60474493 -0.          0.         -0.00113344 -0.         -0.         -0.48388739  0.09541642 -0.33419353  0.00738361
  -0.         -0.         -0.          0.          0.          0.          0.          0.         -0.         -0.         -0.32945785  0.          0.
   0.02382627  0.10816335]
 [-0.02535537 -0.02275582  0.08350689 -0.22620446  0.          0.         -0.02375014  0.          0.         -0.36226953 -0.15599472  0.52293672 -0.00500811
  -0.          0.          0.         -0.         -0.         -0.          0.          0.         -0.          0.         -0.33074955 -0.          0.
   0.02145601  0.63341634]]
[[-0.90221893 -0.3115979   0.04287022  0.15891964 -0.         -0.          0.22024952 -0.          0.         -0.02680949 -0.00358899  0.00926684 -0.10230116
  -0.          0.         -0.          0.         -0.         -0.         -0.         -0.          0.          0.          0.00031231 -0.          0.
  -0.04496037 -0.00016295]
 [ 0.24904589  0.09362513  0.28425841  0.10026321 -0.          0.          0.79751796 -0.          0.         -0.03175097 -0.06486206 -0.02517284 -0.38457843
  -0.          0.         -0.         -0.         -0.         -0.         -0.         -0.          0.          0.         -0.0073734  -0.          0.
  -0.22025555 -0.00192376]
 [ 0.         -0.          0.          0.          0.8688211   0.18973354  0.          0.08747743 -0.0327687  -0.          0.         -0.         -0.
  -0.14352201  0.03049747  0.          0.          0.          0.          0.22629059 -0.16260633  0.09415503  0.30316253 -0.         -0.02136922  0.0043306
   0.          0.        ]
 [-0.          0.          0.         -0.          0.18973354 -0.8688211   0.         -0.0327687  -0.08747743 -0.         -0.          0.         -0.
   0.03049747  0.14352201  0.          0.         -0.          0.         -0.16260633 -0.22629059 -0.30316253  0.09415503 -0.          0.0043306   0.02136922
   0.         -0.        ]
 [-0.33068171  0.77819328  0.0455459  -0.44312667  0.          0.          0.0402403   0.          0.         -0.16672881  0.02250388 -0.13704021  0.00176138
  -0.          0.         -0.         -0.         -0.         -0.          0.          0.         -0.          0.          0.1904809  -0.          0.
  -0.01640568 -0.03700964]
 [ 0.         -0.          0.         -0.          0.01843594 -0.08902731 -0.          0.29657843  0.7664065   0.          0.         -0.         -0.
   0.00037392  0.00167064  0.         -0.         -0.         -0.         -0.18654294 -0.25376792  0.25269852 -0.07549706  0.         -0.0803833  -0.37573845
   0.         -0.        ]
 [-0.          0.          0.         -0.          0.08902731  0.01843594 -0.         -0.7664065   0.29657843  0.         -0.          0.         -0.
  -0.00167064  0.00037392  0.         -0.         -0.         -0.          0.25376792 -0.18654294 -0.07549706 -0.25269852  0.          0.37573845 -0.0803833
  -0.         -0.        ]
 [-0.00246169  0.02307662  0.09662349  0.02227656 -0.         -0.         -0.29079851 -0.         -0.          0.00741651  0.08283147  0.0178131  -0.81439476
   0.         -0.         -0.          0.         -0.          0.         -0.          0.          0.          0.          0.04874107 -0.          0.
   0.48183464 -0.00726615]
 [-0.08644623  0.10585051  0.08380903 -0.24027269  0.          0.          0.04635911  0.         -0.          0.73432458 -0.02581392  0.03685216 -0.00807655
   0.         -0.          0.          0.          0.          0.         -0.         -0.          0.         -0.         -0.54698828  0.         -0.
   0.04618302 -0.26789426]
 [-0.          0.         -0.         -0.         -0.07947517  0.01358185 -0.         -0.00369547  0.00339251  0.         -0.         -0.         -0.
  -0.81393055  0.5492769  -0.          0.         -0.         -0.         -0.06505599  0.10297493  0.00980047 -0.1176174  -0.          0.01902139 -0.01257704
   0.         -0.        ]
 [-0.          0.          0.          0.         -0.01358185 -0.07947517 -0.         -0.00339251 -0.00369547  0.         -0.          0.         -0.
  -0.5492769  -0.81393055  0.         -0.          0.         -0.         -0.10297493 -0.06505599 -0.1176174  -0.00980047  0.          0.01257704  0.01902139
   0.         -0.        ]
 [ 0.         -0.         -0.         -0.         -0.         -0.         -0.          0.         -0.          0.          0.         -0.          0.
  -0.         -0.         -0.99095506 -0.09068104 -0.09891133 -0.00124991  0.         -0.          0.          0.         -0.          0.         -0.
  -0.         -0.        ]
 [ 0.         -0.          0.         -0.         -0.          0.         -0.          0.         -0.          0.          0.         -0.          0.
  -0.         -0.         -0.09068104  0.99095506 -0.00124991  0.09891133  0.         -0.          0.         -0.         -0.          0.          0.
  -0.         -0.        ]
 [-0.         -0.          0.         -0.         -0.         -0.         -0.          0.          0.          0.          0.         -0.          0.
   0.         -0.          0.09673468 -0.02067401 -0.95378007  0.28375793  0.         -0.          0.          0.         -0.          0.          0.
   0.          0.        ]
 [ 0.         -0.         -0.         -0.          0.         -0.         -0.         -0.         -0.          0.          0.         -0.          0.
   0.          0.          0.02067401  0.09673468 -0.28375793 -0.95378007 -0.          0.         -0.          0.         -0.         -0.         -0.
  -0.          0.        ]
 [ 0.         -0.         -0.         -0.         -0.00176682  0.00131572  0.          0.01485715 -0.03979856 -0.         -0.         -0.          0.
  -0.00876051  0.0157977   0.         -0.         -0.         -0.          0.04767021 -0.51320782  0.27044443 -0.43720971  0.         -0.33736558  0.5950642
   0.         -0.        ]
 [ 0.         -0.          0.         -0.          0.00131572  0.00176682 -0.         -0.03979856 -0.01485715  0.          0.         -0.          0.
   0.0157977   0.00876051  0.         -0.          0.         -0.         -0.51320782 -0.04767021  0.43720971  0.27044443  0.          0.5950642   0.33736558
  -0.          0.        ]
 [-0.01957972  0.10790699  0.72569886  0.24173229 -0.          0.         -0.14392287  0.         -0.         -0.00058524  0.55763532  0.16647724  0.20854116
  -0.          0.          0.         -0.         -0.         -0.          0.         -0.         -0.         -0.         -0.00341536 -0.          0.
   0.00202529  0.00287001]
 [ 0.01248956  0.00908292 -0.0309183   0.07228273  0.         -0.         -0.00035761 -0.         -0.          0.09204709 -0.13523146  0.49245401  0.00661542
   0.          0.         -0.         -0.         -0.         -0.          0.          0.         -0.          0.          0.46978894 -0.          0.
  -0.04112824 -0.70842963]
 [ 0.06229025 -0.40455164  0.22168799 -0.44060111 -0.         -0.          0.00839154 -0.         -0.          0.23841301  0.14229476 -0.5284995   0.01185566
  -0.         -0.         -0.         -0.         -0.         -0.          0.         -0.          0.          0.          0.46819698 -0.          0.
  -0.03689573 -0.10955379]
 [ 0.         -0.         -0.         -0.         -0.17244662  0.40186773 -0.          0.00865392  0.05100351  0.          0.         -0.         -0.
   0.00224733  0.11804966  0.          0.         -0.          0.         -0.25018861 -0.5416044  -0.58097545  0.31098724 -0.          0.0004265   0.0444081
  -0.         -0.        ]
 [ 0.         -0.          0.         -0.          0.40186773  0.17244662  0.          0.05100351 -0.00865392  0.          0.         -0.         -0.
   0.11804966 -0.00224733 -0.         -0.         -0.         -0.         -0.5416044   0.25018861 -0.31098724 -0.58097545  0.          0.0444081  -0.0004265
  -0.         -0.        ]
 [-0.01571365 -0.00049777 -0.06733413 -0.03922839  0.         -0.         -0.36132857  0.          0.          0.02048919  0.13928984  0.03650876 -0.36529075
  -0.         -0.         -0.          0.          0.          0.          0.          0.          0.          0.         -0.06471025  0.          0.
  -0.83924694  0.00268663]
 [ 0.          0.          0.         -0.          0.04569301 -0.03250166 -0.         -0.20653008  0.5184356   0.         -0.          0.          0.
  -0.00183557  0.00314623 -0.          0.          0.          0.         -0.04934305  0.42930185 -0.17370267  0.29500913 -0.         -0.31626105  0.53052191
   0.          0.        ]
 [ 0.          0.          0.         -0.          0.03250166  0.04569301 -0.         -0.5184356  -0.20653008  0.          0.          0.         -0.
  -0.00314623 -0.00183557  0.          0.         -0.          0.         -0.42930185 -0.04934305  0.29500913  0.17370267  0.         -0.53052191 -0.31626105
  -0.         -0.        ]
 [-0.03032129  0.06057958  0.50035754  0.18409507  0.          0.         -0.27425355  0.         -0.         -0.00820045 -0.76512312 -0.20689776  0.0337058
  -0.          0.         -0.         -0.         -0.         -0.          0.         -0.         -0.          0.         -0.00661968  0.         -0.
  -0.08049231 -0.00090877]
 [ 0.03031698 -0.31183815  0.24560032 -0.60474493 -0.          0.         -0.00113344  0.         -0.         -0.48388739 -0.09541642  0.33419353 -0.00738361
   0.         -0.          0.         -0.          0.          0.         -0.          0.          0.         -0.         -0.32945785  0.         -0.
   0.02382627 -0.10816335]
 [ 0.02535537  0.02275582 -0.08350689  0.22620446  0.         -0.         -0.02375014 -0.         -0.         -0.36226953  0.15599472 -0.52293672  0.00500811
   0.         -0.          0.          0.          0.          0.         -0.         -0.          0.          0.         -0.33074955  0.          0.
   0.02145601 -0.63341634]]
grids:  [0.06237655 0.31939555 0.74529195 1.28265786 1.85893479 2.39630071 2.8221971  3.07921611] 
weights:  [0.15900941 0.34931531 0.49276925 0.56970235 0.56970235 0.49276925 0.34931531 0.15900941]
S = 0.0, Sz = 0.0
Wigner small d:  1
value : [1. 1. 1. 1. 1. 1. 1. 1.]
**** Start Cycle 1 ****
dm (ortho)
[[[ 0.813999   -0.22469392  0.         ...  0.02735644  0.02735256  0.02287609]
  [-0.22469392  0.06202385 -0.         ... -0.00755139 -0.00755032 -0.00631465]
  [ 0.         -0.          0.         ...  0.          0.          0.        ]
  ...
  [ 0.02735644 -0.00755139  0.         ...  0.00091938  0.00091925  0.00076881]
  [ 0.02735256 -0.00755032  0.         ...  0.00091925  0.00091912  0.0007687 ]
  [ 0.02287609 -0.00631465  0.         ...  0.00076881  0.0007687   0.00064289]]

 [[ 0.813999   -0.22469392 -0.         ...  0.02735644 -0.02735256 -0.02287609]
  [-0.22469392  0.06202385  0.         ... -0.00755139  0.00755032  0.00631465]
  [-0.          0.          0.         ... -0.          0.          0.        ]
  ...
  [ 0.02735644 -0.00755139 -0.         ...  0.00091938 -0.00091925 -0.00076881]
  [-0.02735256  0.00755032  0.         ... -0.00091925  0.00091912  0.0007687 ]
  [-0.02287609  0.00631465  0.         ... -0.00076881  0.0007687   0.00064289]]]
Fock (ortho)
 (array([[-0.29501781,  0.43681057,  0.        , -0.        ,  0.18597346,  0.        , -0.        ,  0.11163714,  0.08203972,  0.        ,  0.        ,
         0.        , -0.        , -0.        , -0.        ,  0.        ,  0.        , -0.07688696, -0.02767381,  0.01024614,  0.        ,  0.        ,
         0.20083864, -0.        ,  0.        , -0.03782509, -0.00298964, -0.0152606 ],
       [ 0.43681057,  1.23305538,  0.        , -0.        , -0.07809494,  0.        ,  0.        ,  0.310559  ,  0.00605319,  0.        ,  0.        ,
         0.        ,  0.        , -0.        , -0.        ,  0.        , -0.        , -0.36630457, -0.00813832, -0.0064758 ,  0.        ,  0.        ,
         0.96623131, -0.        ,  0.        ,  0.05436881,  0.00041585,  0.001155  ],
       [ 0.        ,  0.        ,  1.29701311, -0.        ,  0.        , -0.00046761,  0.0432582 ,  0.        , -0.        ,  0.11367642,  0.04596683,
         0.        ,  0.        ,  0.        ,  0.        ,  0.00721148, -0.00829387, -0.        , -0.        ,  0.        ,  0.23691129, -1.22957925,
        -0.        , -0.00069348, -0.00076328, -0.        , -0.        ,  0.        ],
       [-0.        , -0.        , -0.        ,  1.29701311,  0.        ,  0.0432582 ,  0.00046761, -0.        , -0.        ,  0.04596683, -0.11367642,
        -0.        ,  0.        , -0.        ,  0.        ,  0.00829387,  0.00721148,  0.        ,  0.        , -0.        ,  1.22957925,  0.23691129,
        -0.        , -0.00076328,  0.00069348,  0.        , -0.        ,  0.        ],
       [ 0.18597346, -0.07809494,  0.        ,  0.        ,  0.33684028, -0.        , -0.        ,  0.01556738, -0.50988163, -0.        , -0.        ,
         0.        , -0.        , -0.        , -0.        , -0.        , -0.        ,  0.07314882,  0.27923055,  0.61832613,  0.        ,  0.        ,
         0.01050069, -0.        , -0.        ,  0.00585927, -0.13607639,  0.10850234],
       [ 0.        ,  0.        , -0.00046761,  0.0432582 , -0.        ,  1.92711865,  0.        ,  0.        ,  0.        , -0.00532593,  0.013592  ,
         0.        ,  0.        , -0.        , -0.        ,  0.01969276,  0.01750012, -0.        , -0.        ,  0.        ,  0.01032821,  0.00210604,
        -0.        , -1.04002984,  0.96564447, -0.        ,  0.        , -0.        ],
       [-0.        ,  0.        ,  0.0432582 ,  0.00046761, -0.        , -0.        ,  1.92711865, -0.        ,  0.        , -0.013592  , -0.00532593,
         0.        , -0.        ,  0.        ,  0.        ,  0.01750012, -0.01969276,  0.        ,  0.        , -0.        ,  0.00210604, -0.01032821,
         0.        , -0.96564447, -1.04002984,  0.        ,  0.        , -0.        ],
       [ 0.11163714,  0.310559  ,  0.        , -0.        ,  0.01556738,  0.        , -0.        ,  3.18357913, -0.01232656,  0.        , -0.        ,
        -0.        ,  0.        ,  0.        ,  0.        ,  0.        ,  0.        , -0.33702626, -0.01289547,  0.00382286, -0.        ,  0.        ,
        -0.72910723,  0.        , -0.        , -0.34054937, -0.00049696, -0.0008797 ],
       [ 0.08203972,  0.00605319, -0.        , -0.        , -0.50988163,  0.        ,  0.        , -0.01232656,  2.37607748, -0.        , -0.        ,
         0.        , -0.        ,  0.        ,  0.        , -0.        , -0.        ,  0.03414493,  0.09534628, -0.65608057, -0.        , -0.        ,
         0.01732333,  0.        ,  0.        , -0.00224456,  0.51672949,  1.17925803],
       [ 0.        ,  0.        ,  0.11367642,  0.04596683, -0.        , -0.00532593, -0.013592  ,  0.        , -0.        ,  3.12966548, -0.        ,
         0.        , -0.        , -0.        ,  0.        ,  0.01302528, -0.00662998,  0.        ,  0.        , -0.        , -0.10987593,  0.16969534,
        -0.        ,  0.00251212,  0.00121044, -0.        ,  0.        ,  0.        ],
       [ 0.        ,  0.        ,  0.04596683, -0.11367642, -0.        ,  0.013592  , -0.00532593, -0.        , -0.        , -0.        ,  3.12966548,
         0.        ,  0.        ,  0.        , -0.        , -0.00662998, -0.01302528, -0.        ,  0.        , -0.        ,  0.16969534,  0.10987593,
        -0.        , -0.00121044,  0.00251212, -0.        , -0.        ,  0.        ],
       [ 0.        ,  0.        ,  0.        , -0.        ,  0.        ,  0.        ,  0.        , -0.        ,  0.        ,  0.        ,  0.        ,
         3.36304204, -0.        , -0.01832037, -0.00570342, -0.        , -0.        ,  0.        ,  0.        ,  0.        ,  0.        ,  0.        ,
         0.        ,  0.        ,  0.        ,  0.        ,  0.        , -0.        ],
       [-0.        ,  0.        ,  0.        ,  0.        , -0.        ,  0.        , -0.        ,  0.        , -0.        , -0.        ,  0.        ,
        -0.        ,  3.36304204, -0.00570342,  0.01832037, -0.        ,  0.        , -0.        , -0.        , -0.        , -0.        ,  0.        ,
         0.        ,  0.        , -0.        , -0.        , -0.        ,  0.        ],
       [-0.        , -0.        ,  0.        , -0.        , -0.        , -0.        ,  0.        ,  0.        ,  0.        , -0.        ,  0.        ,
        -0.01832037, -0.00570342,  3.55414006,  0.        ,  0.        ,  0.        ,  0.        , -0.        , -0.        ,  0.        ,  0.        ,
        -0.        ,  0.        ,  0.        ,  0.        ,  0.        , -0.        ],
       [-0.        , -0.        ,  0.        ,  0.        , -0.        , -0.        ,  0.        ,  0.        ,  0.        ,  0.        , -0.        ,
        -0.00570342,  0.01832037,  0.        ,  3.55414006,  0.        ,  0.        ,  0.        , -0.        , -0.        ,  0.        ,  0.        ,
        -0.        ,  0.        ,  0.        ,  0.        ,  0.        , -0.        ],
       [ 0.        ,  0.        ,  0.00721148,  0.00829387, -0.        ,  0.01969276,  0.01750012,  0.        , -0.        ,  0.01302528, -0.00662998,
        -0.        , -0.        ,  0.        ,  0.        ,  4.00805339,  0.        ,  0.        ,  0.        ,  0.        ,  0.00557282, -0.00323056,
         0.        ,  0.19159051, -0.00418016,  0.        , -0.        ,  0.        ],
       [ 0.        , -0.        , -0.00829387,  0.00721148, -0.        ,  0.01750012, -0.01969276,  0.        , -0.        , -0.00662998, -0.01302528,
        -0.        ,  0.        ,  0.        ,  0.        ,  0.        ,  4.00805339, -0.        ,  0.        , -0.        ,  0.00323056,  0.00557282,
         0.        , -0.00418016, -0.19159051, -0.        ,  0.        ,  0.        ],
       [-0.07688696, -0.36630457, -0.        ,  0.        ,  0.07314882, -0.        ,  0.        , -0.33702626,  0.03414493,  0.        , -0.        ,
         0.        , -0.        ,  0.        ,  0.        ,  0.        , -0.        ,  1.23566324, -0.01733825,  0.0357036 , -0.        ,  0.        ,
        -0.00676576,  0.        , -0.        , -0.97809533, -0.00405567,  0.0071791 ],
       [-0.02767381, -0.00813832, -0.        ,  0.        ,  0.27923055, -0.        ,  0.        , -0.01289547,  0.09534628,  0.        ,  0.        ,
         0.        , -0.        , -0.        , -0.        ,  0.        ,  0.        , -0.01733825,  4.27469467,  0.56555189,  0.        ,  0.        ,
        -0.01243516, -0.        ,  0.        ,  0.00623233,  0.16745795,  0.94927176],
       [ 0.01024614, -0.0064758 ,  0.        , -0.        ,  0.61832613,  0.        , -0.        ,  0.00382286, -0.65608057, -0.        , -0.        ,
         0.        , -0.        , -0.        , -0.        ,  0.        , -0.        ,  0.0357036 ,  0.56555189,  1.96747955, -0.        , -0.        ,
        -0.00293174, -0.        , -0.        , -0.0153204 , -1.08273996,  0.36773059],
       [ 0.        ,  0.        ,  0.23691129,  1.22957925,  0.        ,  0.01032821,  0.00210604, -0.        , -0.        , -0.10987593,  0.16969534,
         0.        , -0.        ,  0.        ,  0.        ,  0.00557282,  0.00323056, -0.        ,  0.        , -0.        ,  3.24926851,  0.        ,
        -0.        , -0.01266117,  0.00771349,  0.        , -0.        ,  0.        ],
       [ 0.        ,  0.        , -1.22957925,  0.23691129,  0.        ,  0.00210604, -0.01032821,  0.        , -0.        ,  0.16969534,  0.10987593,
         0.        ,  0.        ,  0.        ,  0.        , -0.00323056,  0.00557282,  0.        ,  0.        , -0.        ,  0.        ,  3.24926851,
        -0.        ,  0.00771349,  0.01266117, -0.        , -0.        ,  0.        ],
       [ 0.20083864,  0.96623131, -0.        , -0.        ,  0.01050069, -0.        ,  0.        , -0.72910723,  0.01732333, -0.        , -0.        ,
         0.        ,  0.        , -0.        , -0.        ,  0.        ,  0.        , -0.00676576, -0.01243516, -0.00293174, -0.        , -0.        ,
         3.66960674, -0.        ,  0.        ,  0.03412166,  0.00206788,  0.00768455],
       [-0.        , -0.        , -0.00069348, -0.00076328, -0.        , -1.04002984, -0.96564447,  0.        ,  0.        ,  0.00251212, -0.00121044,
         0.        ,  0.        ,  0.        ,  0.        ,  0.19159051, -0.00418016,  0.        , -0.        , -0.        , -0.01266117,  0.00771349,
        -0.        ,  3.0696537 ,  0.        ,  0.        , -0.        ,  0.        ],
       [ 0.        ,  0.        , -0.00076328,  0.00069348, -0.        ,  0.96564447, -1.04002984, -0.        ,  0.        ,  0.00121044,  0.00251212,
         0.        , -0.        ,  0.        ,  0.        , -0.00418016, -0.19159051, -0.        ,  0.        , -0.        ,  0.00771349,  0.01266117,
         0.        ,  0.        ,  3.0696537 , -0.        ,  0.        ,  0.        ],
       [-0.03782509,  0.05436881, -0.        ,  0.        ,  0.00585927, -0.        ,  0.        , -0.34054937, -0.00224456, -0.        , -0.        ,
         0.        , -0.        ,  0.        ,  0.        ,  0.        , -0.        , -0.97809533,  0.00623233, -0.0153204 ,  0.        , -0.        ,
         0.03412166,  0.        , -0.        ,  1.81014712,  0.00668037, -0.0093075 ],
       [-0.00298964,  0.00041585, -0.        , -0.        , -0.13607639,  0.        ,  0.        , -0.00049696,  0.51672949,  0.        , -0.        ,
         0.        , -0.        ,  0.        ,  0.        , -0.        ,  0.        , -0.00405567,  0.16745795, -1.08273996, -0.        , -0.        ,
         0.00206788, -0.        ,  0.        ,  0.00668037,  1.3558138 ,  0.46072248],
       [-0.0152606 ,  0.001155  ,  0.        ,  0.        ,  0.10850234, -0.        , -0.        , -0.0008797 ,  1.17925803,  0.        ,  0.        ,
        -0.        ,  0.        , -0.        , -0.        ,  0.        ,  0.        ,  0.0071791 ,  0.94927176,  0.36773059,  0.        ,  0.        ,
         0.00768455,  0.        ,  0.        , -0.0093075 ,  0.46072248,  3.57801122]]), array([[-0.29501781,  0.43681057,  0.        , -0.        , -0.18597346,  0.        , -0.        ,  0.11163714, -0.08203972,  0.        ,  0.        ,
         0.        ,  0.        , -0.        , -0.        ,  0.        ,  0.        , -0.07688696,  0.02767381, -0.01024614,  0.        , -0.        ,
         0.20083864, -0.        ,  0.        , -0.03782509,  0.00298964,  0.0152606 ],
       [ 0.43681057,  1.23305538,  0.        , -0.        ,  0.07809494,  0.        ,  0.        ,  0.310559  , -0.00605319,  0.        ,  0.        ,
         0.        , -0.        , -0.        , -0.        ,  0.        , -0.        , -0.36630457,  0.00813832,  0.0064758 ,  0.        ,  0.        ,
         0.96623131, -0.        ,  0.        ,  0.05436881, -0.00041585, -0.001155  ],
       [ 0.        ,  0.        ,  1.29701311, -0.        ,  0.        ,  0.00046761, -0.0432582 ,  0.        , -0.        ,  0.11367642,  0.04596683,
         0.        ,  0.        ,  0.        , -0.        , -0.00721148,  0.00829387, -0.        , -0.        ,  0.        ,  0.23691129, -1.22957925,
        -0.        ,  0.00069348,  0.00076328, -0.        , -0.        ,  0.        ],
       [-0.        , -0.        , -0.        ,  1.29701311,  0.        , -0.0432582 , -0.00046761, -0.        , -0.        ,  0.04596683, -0.11367642,
        -0.        ,  0.        , -0.        ,  0.        , -0.00829387, -0.00721148, -0.        ,  0.        , -0.        ,  1.22957925,  0.23691129,
        -0.        ,  0.00076328, -0.00069348,  0.        , -0.        ,  0.        ],
       [-0.18597346,  0.07809494,  0.        ,  0.        ,  0.33684028, -0.        , -0.        , -0.01556738, -0.50988163, -0.        , -0.        ,
         0.        ,  0.        , -0.        , -0.        ,  0.        ,  0.        , -0.07314882,  0.27923055,  0.61832613,  0.        ,  0.        ,
        -0.01050069, -0.        , -0.        , -0.00585927, -0.13607639,  0.10850234],
       [ 0.        ,  0.        ,  0.00046761, -0.0432582 , -0.        ,  1.92711865,  0.        ,  0.        ,  0.        ,  0.00532593, -0.013592  ,
         0.        ,  0.        , -0.        , -0.        ,  0.01969276,  0.01750012, -0.        , -0.        ,  0.        , -0.01032821, -0.00210604,
        -0.        , -1.04002984,  0.96564447, -0.        ,  0.        , -0.        ],
       [-0.        ,  0.        , -0.0432582 , -0.00046761, -0.        ,  0.        ,  1.92711865, -0.        ,  0.        ,  0.013592  ,  0.00532593,
         0.        , -0.        ,  0.        ,  0.        ,  0.01750012, -0.01969276,  0.        ,  0.        , -0.        , -0.00210604,  0.01032821,
         0.        , -0.96564447, -1.04002984,  0.        ,  0.        , -0.        ],
       [ 0.11163714,  0.310559  ,  0.        , -0.        , -0.01556738,  0.        , -0.        ,  3.18357913,  0.01232656,  0.        , -0.        ,
        -0.        ,  0.        ,  0.        ,  0.        ,  0.        , -0.        , -0.33702626,  0.01289547, -0.00382286, -0.        ,  0.        ,
        -0.72910723,  0.        , -0.        , -0.34054937,  0.00049696,  0.0008797 ],
       [-0.08203972, -0.00605319, -0.        , -0.        , -0.50988163,  0.        ,  0.        ,  0.01232656,  2.37607748, -0.        , -0.        ,
         0.        ,  0.        ,  0.        ,  0.        ,  0.        , -0.        , -0.03414493,  0.09534628, -0.65608057, -0.        , -0.        ,
        -0.01732333,  0.        ,  0.        ,  0.00224456,  0.51672949,  1.17925803],
       [ 0.        ,  0.        ,  0.11367642,  0.04596683, -0.        ,  0.00532593,  0.013592  ,  0.        , -0.        ,  3.12966548, -0.        ,
         0.        , -0.        , -0.        ,  0.        , -0.01302528,  0.00662998,  0.        ,  0.        , -0.        , -0.10987593,  0.16969534,
        -0.        , -0.00251212, -0.00121044, -0.        ,  0.        ,  0.        ],
       [ 0.        ,  0.        ,  0.04596683, -0.11367642, -0.        , -0.013592  ,  0.00532593, -0.        , -0.        , -0.        ,  3.12966548,
         0.        ,  0.        ,  0.        , -0.        ,  0.00662998,  0.01302528, -0.        ,  0.        , -0.        ,  0.16969534,  0.10987593,
        -0.        ,  0.00121044, -0.00251212, -0.        , -0.        ,  0.        ],
       [ 0.        ,  0.        ,  0.        , -0.        ,  0.        ,  0.        ,  0.        , -0.        ,  0.        ,  0.        ,  0.        ,
         3.36304204, -0.        ,  0.01832037,  0.00570342, -0.        , -0.        ,  0.        ,  0.        ,  0.        ,  0.        ,  0.        ,
         0.        ,  0.        ,  0.        ,  0.        ,  0.        , -0.        ],
       [ 0.        , -0.        ,  0.        ,  0.        ,  0.        ,  0.        , -0.        ,  0.        ,  0.        , -0.        ,  0.        ,
        -0.        ,  3.36304204,  0.00570342, -0.01832037, -0.        ,  0.        ,  0.        , -0.        ,  0.        , -0.        ,  0.        ,
         0.        ,  0.        , -0.        ,  0.        , -0.        , -0.        ],
       [-0.        , -0.        ,  0.        , -0.        , -0.        , -0.        ,  0.        ,  0.        ,  0.        , -0.        ,  0.        ,
         0.01832037,  0.00570342,  3.55414006,  0.        ,  0.        ,  0.        ,  0.        , -0.        , -0.        ,  0.        ,  0.        ,
        -0.        ,  0.        ,  0.        ,  0.        ,  0.        , -0.        ],
       [-0.        , -0.        , -0.        ,  0.        , -0.        , -0.        ,  0.        ,  0.        ,  0.        ,  0.        , -0.        ,
         0.00570342, -0.01832037,  0.        ,  3.55414006,  0.        ,  0.        ,  0.        , -0.        , -0.        ,  0.        ,  0.        ,
        -0.        ,  0.        ,  0.        ,  0.        ,  0.        , -0.        ],
       [ 0.        ,  0.        , -0.00721148, -0.00829387,  0.        ,  0.01969276,  0.01750012,  0.        ,  0.        , -0.01302528,  0.00662998,
        -0.        , -0.        ,  0.        ,  0.        ,  4.00805339,  0.        ,  0.        , -0.        ,  0.        , -0.00557282,  0.00323056,
         0.        ,  0.19159051, -0.00418016,  0.        , -0.        ,  0.        ],
       [ 0.        , -0.        ,  0.00829387, -0.00721148,  0.        ,  0.01750012, -0.01969276, -0.        , -0.        ,  0.00662998,  0.01302528,
        -0.        ,  0.        ,  0.        ,  0.        ,  0.        ,  4.00805339, -0.        ,  0.        , -0.        , -0.00323056, -0.00557282,
         0.        , -0.00418016, -0.19159051, -0.        ,  0.        ,  0.        ],
       [-0.07688696, -0.36630457, -0.        , -0.        , -0.07314882, -0.        ,  0.        , -0.33702626, -0.03414493,  0.        , -0.        ,
         0.        ,  0.        ,  0.        ,  0.        ,  0.        , -0.        ,  1.23566324,  0.01733825, -0.0357036 , -0.        ,  0.        ,
        -0.00676576,  0.        , -0.        , -0.97809533,  0.00405567, -0.0071791 ],
       [ 0.02767381,  0.00813832, -0.        ,  0.        ,  0.27923055, -0.        ,  0.        ,  0.01289547,  0.09534628,  0.        ,  0.        ,
         0.        , -0.        , -0.        , -0.        , -0.        ,  0.        ,  0.01733825,  4.27469467,  0.56555189,  0.        ,  0.        ,
         0.01243516, -0.        ,  0.        , -0.00623233,  0.16745795,  0.94927176],
       [-0.01024614,  0.0064758 ,  0.        , -0.        ,  0.61832613,  0.        , -0.        , -0.00382286, -0.65608057, -0.        , -0.        ,
         0.        ,  0.        , -0.        , -0.        ,  0.        , -0.        , -0.0357036 ,  0.56555189,  1.96747955, -0.        , -0.        ,
         0.00293174, -0.        , -0.        ,  0.0153204 , -1.08273996,  0.36773059],
       [ 0.        ,  0.        ,  0.23691129,  1.22957925,  0.        , -0.01032821, -0.00210604, -0.        , -0.        , -0.10987593,  0.16969534,
         0.        , -0.        ,  0.        ,  0.        , -0.00557282, -0.00323056, -0.        ,  0.        , -0.        ,  3.24926851,  0.        ,
        -0.        ,  0.01266117, -0.00771349,  0.        , -0.        ,  0.        ],
       [-0.        ,  0.        , -1.22957925,  0.23691129,  0.        , -0.00210604,  0.01032821,  0.        , -0.        ,  0.16969534,  0.10987593,
         0.        ,  0.        ,  0.        ,  0.        ,  0.00323056, -0.00557282,  0.        ,  0.        , -0.        ,  0.        ,  3.24926851,
        -0.        , -0.00771349, -0.01266117, -0.        , -0.        ,  0.        ],
       [ 0.20083864,  0.96623131, -0.        , -0.        , -0.01050069, -0.        ,  0.        , -0.72910723, -0.01732333, -0.        , -0.        ,
         0.        ,  0.        , -0.        , -0.        ,  0.        ,  0.        , -0.00676576,  0.01243516,  0.00293174, -0.        , -0.        ,
         3.66960674, -0.        ,  0.        ,  0.03412166, -0.00206788, -0.00768455],
       [-0.        , -0.        ,  0.00069348,  0.00076328, -0.        , -1.04002984, -0.96564447,  0.        ,  0.        , -0.00251212,  0.00121044,
         0.        ,  0.        ,  0.        ,  0.        ,  0.19159051, -0.00418016,  0.        , -0.        , -0.        ,  0.01266117, -0.00771349,
        -0.        ,  3.0696537 ,  0.        ,  0.        , -0.        ,  0.        ],
       [ 0.        ,  0.        ,  0.00076328, -0.00069348, -0.        ,  0.96564447, -1.04002984, -0.        ,  0.        , -0.00121044, -0.00251212,
         0.        , -0.        ,  0.        ,  0.        , -0.00418016, -0.19159051, -0.        ,  0.        , -0.        , -0.00771349, -0.01266117,
         0.        ,  0.        ,  3.0696537 , -0.        ,  0.        ,  0.        ],
       [-0.03782509,  0.05436881, -0.        ,  0.        , -0.00585927, -0.        ,  0.        , -0.34054937,  0.00224456, -0.        , -0.        ,
         0.        ,  0.        ,  0.        ,  0.        ,  0.        , -0.        , -0.97809533, -0.00623233,  0.0153204 ,  0.        , -0.        ,
         0.03412166,  0.        , -0.        ,  1.81014712, -0.00668037,  0.0093075 ],
       [ 0.00298964, -0.00041585, -0.        , -0.        , -0.13607639,  0.        ,  0.        ,  0.00049696,  0.51672949,  0.        , -0.        ,
         0.        , -0.        ,  0.        ,  0.        , -0.        ,  0.        ,  0.00405567,  0.16745795, -1.08273996, -0.        , -0.        ,
        -0.00206788, -0.        ,  0.        , -0.00668037,  1.3558138 ,  0.46072248],
       [ 0.0152606 , -0.001155  ,  0.        ,  0.        ,  0.10850234, -0.        , -0.        ,  0.0008797 ,  1.17925803,  0.        ,  0.        ,
        -0.        , -0.        , -0.        , -0.        ,  0.        ,  0.        , -0.0071791 ,  0.94927176,  0.36773059,  0.        ,  0.        ,
        -0.00768455,  0.        ,  0.        ,  0.0093075 ,  0.46072248,  3.57801122]]))
E(UHF) =    -1.409940
NO eigenvalue
[-1. -0. -0. -0. -0. -0. -0. -0. -0. -0. -0. -0. -0. -0.  0.  0.  0.  0.  0.  0.  0.  0.  0.  0.  0.  0.  0.  0.] [-1. -0. -0. -0. -0. -0. -0. -0. -0. -0. -0. -0. -0. -0. -0. -0. -0.  0.  0.  0.  0.  0.  0.  0.  0.  0.  0.  0.]
NO vec
[[ 0.90221893  0.         -0.02906091 ...  0.          0.          0.        ]
 [-0.24904589  0.          0.21859594 ...  0.          0.          0.        ]
 [ 0.          0.          0.         ...  0.          0.          0.        ]
 ...
 [ 0.          0.03032129  0.         ...  0.10644976 -0.26061649 -0.09018496]
 [ 0.         -0.03031698  0.         ... -0.44178646  0.64834498 -0.05968375]
 [ 0.         -0.02535537  0.         ... -0.07035687  0.36591841  0.04054695]]
dm(NO)
[[ 1.  0.  0. ...  0.  0.  0.]
 [ 0.  1.  0. ...  0.  0. -0.]
 [-0.  0.  0. ...  0.  0.  0.]
 ...
 [ 0.  0.  0. ...  0.  0. -0.]
 [ 0.  0.  0. ...  0. -0.  0.]
 [ 0. -0.  0. ...  0. -0.  0.]]
D(g) (NO)
[[ 0.99951369  0.02354823  0.         ... -0.00008915  0.00428839 -0.01365175]
 [-0.02354823  0.99951369  0.00536373 ...  0.          0.         -0.        ]
 [ 0.         -0.00536373  0.99951369 ...  0.00527756  0.01440547 -0.00567845]
 ...
 [ 0.00008915  0.         -0.00527756 ...  0.99951369  0.          0.        ]
 [-0.00428839  0.         -0.01440547 ...  0.          0.99951369  0.        ]
 [ 0.01365175 -0.          0.00567845 ...  0.          0.          0.99951369]]
...
N(g) (NO)
[[ 0.99993153 -0.02355807]
 [ 0.02355807  0.99993153]]
...
P(g) (NO)
[[ 1.          0.          0.         ...  0.          0.         -0.        ]
 [-0.          1.          0.         ...  0.          0.         -0.        ]
 [-0.00012636 -0.00536336 -0.         ... -0.         -0.          0.        ]
 ...
 [ 0.00008914 -0.0000021   0.         ... -0.         -0.          0.        ]
 [-0.0042881   0.00010103 -0.         ...  0.          0.         -0.        ]
 [ 0.01365082 -0.00032161  0.         ... -0.         -0.          0.        ]]
...
Pg_ortho
[[ 0.81414541 -0.22473433  0.         ...  0.00020885 -0.00020882 -0.00017465]
 [-0.22473433  0.06203501 -0.         ... -0.00005765  0.00005764  0.00004821]
 [ 0.         -0.          0.         ... -0.          0.          0.        ]
 ...
 [-0.00020885  0.00005765 -0.         ...  0.00091955 -0.00091942 -0.00076895]
 [-0.00149694  0.00041321 -0.         ... -0.00091806  0.00091793  0.00076771]
 [-0.00125196  0.00034559 -0.         ... -0.00076782  0.00076771  0.00064207]]
G(g) (NO)
[[ 0.42804602 -0.00170862 -0.00760637 ...  0.00013955 -0.00004986 -0.00139256]
 [ 0.00170862  0.42804602 -0.00032758 ... -0.03989686  0.00666258 -0.10516564]
 [-0.00759311  0.00075106  0.75363489 ...  0.00026099 -0.00028317  0.00072788]
 ...
 [-0.00123769 -0.03989294  0.00066193 ...  0.88071939  0.08365273  0.01113742]
 [ 0.00098582  0.00664534  0.00008367 ...  0.08365281  0.74037094  0.07039778]
 [-0.00749967 -0.10504967  0.00068417 ...  0.01113456  0.07039704  0.95997338]]
...
C(NO)
[[-1.          0.          0.         ...  0.          0.          0.        ]
 [ 0.         -1.          0.         ...  0.         -0.          0.        ]
 [-0.          0.          0.50987368 ...  0.          0.          0.        ]
 ...
 [ 0.         -0.          0.         ...  0.         -0.24373737 -0.35290359]
 [ 0.         -0.          0.         ...  0.          0.10406704 -0.65350691]
 [ 0.          0.          0.         ...  0.          0.11292682 -0.02769949]]
detC 0.9999999999999999
detNg [1.00041805 1.0109863  1.06040478 1.1817677  1.38107749 1.59432111 1.72078763 1.75229489]
xg [0.99958213 0.98913309 0.94303611 0.84618999 0.72407233 0.62722622 0.58112924 0.5706802 ]
ciS 1.5702623270425953
[[-0.91897297  0.          0.00759801 ...  0.          0.          0.        ]
 [ 0.         -0.91897297  0.         ...  0.03989481 -0.0066598   0.10518417]
 [ 0.00759801  0.          0.28074433 ...  0.          0.          0.        ]
 ...
 [ 0.          0.03989481  0.         ...  1.74269227  0.44737167 -0.07013352]
 [ 0.         -0.0066598   0.         ...  0.44737167  1.93250743  0.16889093]
 [ 0.          0.10518417  0.         ... -0.07013352  0.16889093 -0.02486045]]
ciH -2.2515710190767493
S2 = -0.000000
X(g)
[[ 2.          0.         -0.00012636 ... -0.00008914  0.0042881  -0.01365082]
 [-0.          2.          0.00536336 ... -0.0000021   0.00010103 -0.00032161]
 [-0.00012636 -0.00536336  0.         ...  0.          0.          0.        ]
 ...
 [ 0.00008914 -0.0000021   0.         ...  0.          0.          0.        ]
 [-0.0042881   0.00010103  0.         ...  0.          0.          0.        ]
 [ 0.01365082 -0.00032161  0.         ...  0.          0.          0.        ]]
X(g) int
[[ 2.         -0.         -0.08272005 ... -0.00142989  0.06878455 -0.21897029]
 [-0.          2.          0.08603266 ... -0.00137484  0.06613607 -0.21053905]
 [-0.08272005 -0.08603266  0.         ...  0.          0.          0.        ]
 ...
 [ 0.00142989 -0.00137484  0.         ...  0.          0.          0.        ]
 [-0.06878455  0.06613607  0.         ...  0.          0.          0.        ]
 [ 0.21897029 -0.21053905  0.         ...  0.          0.          0.        ]]
Hsp + Hph =  -1.433882084732504
Feff (mod,ortho)
[[-0.27483083  0.42972831  0.         ...  0.          0.          0.        ]
 [ 0.42972831  1.23542714  0.         ...  0.          0.          0.        ]
 [ 0.          0.          1.29701311 ...  0.          0.          0.        ]
 ...
 [ 0.          0.          0.         ...  1.81017759 -0.0067308   0.00934376]
 [ 0.          0.          0.         ... -0.0067308   1.35588419  0.46070292]
 [ 0.          0.          0.         ...  0.00934376  0.46070292  3.57792926]]
E(SUHF) =     -1.05589836
e_a, e_b
[-0.49297717  0.08093003  0.35103089  0.48052366  0.66580805  0.66580805  0.85380875  0.96635101  0.96635101  1.37145219  2.55165665  2.71281327  3.11772316
  3.12342528  3.12342528  3.3611345   3.3611345   3.5560476   3.5560476   3.85353898  3.85353898  3.90564322  3.90564322  4.05425303  4.1660063   4.1660063
  4.3575799   5.28715644] [-0.49297717  0.08093003  0.35103089  0.48052366  0.66580805  0.66580805  0.85380875  0.96635101  0.96635101  1.37145219  2.55165665  2.71281327  3.11772316
  3.12342528  3.12342528  3.3611345   3.3611345   3.5560476   3.5560476   3.85353898  3.85353898  3.90564322  3.90564322  4.05425303  4.1660063   4.1660063
  4.3575799   5.28715644]
P_a, P_b
[[ 0.7807544  -0.21540389 -0.         -0.         -0.33302064 -0.         -0.          0.00132015 -0.08949408 -0.         -0.          0.          0.
  -0.          0.         -0.          0.          0.01342403  0.01371599  0.05730263  0.          0.          0.01310118 -0.         -0.          0.02457464
   0.02686689  0.02674222]
 [-0.21540389  0.05942821  0.          0.          0.09187773  0.          0.         -0.00036422  0.0246907   0.          0.         -0.         -0.
   0.         -0.          0.         -0.         -0.00370358 -0.00378413 -0.01580934 -0.         -0.         -0.00361451  0.          0.         -0.00677995
  -0.00741236 -0.00737796]
 [-0.          0.          0.          0.          0.          0.          0.         -0.          0.          0.          0.         -0.         -0.
   0.         -0.          0.         -0.         -0.         -0.         -0.         -0.         -0.         -0.          0.          0.         -0.
  -0.         -0.        ]
 [-0.          0.          0.          0.          0.          0.          0.         -0.          0.          0.          0.         -0.         -0.
   0.         -0.          0.         -0.         -0.         -0.         -0.         -0.         -0.         -0.          0.          0.         -0.
  -0.         -0.        ]
 [-0.33302064  0.09187773  0.          0.          0.14204562  0.          0.         -0.00056309  0.03817254  0.          0.         -0.         -0.
   0.         -0.          0.         -0.         -0.00572584 -0.00585038 -0.02444169 -0.         -0.         -0.00558814  0.          0.         -0.01048199
  -0.01145972 -0.01140654]
 [-0.          0.          0.          0.          0.          0.          0.         -0.          0.          0.          0.         -0.         -0.
   0.         -0.          0.         -0.         -0.         -0.         -0.         -0.         -0.         -0.          0.          0.         -0.
  -0.         -0.        ]
 [-0.          0.          0.          0.          0.          0.          0.         -0.          0.          0.          0.         -0.         -0.
   0.         -0.          0.         -0.         -0.         -0.         -0.         -0.         -0.         -0.          0.          0.         -0.
  -0.         -0.        ]
 [ 0.00132015 -0.00036422 -0.         -0.         -0.00056309 -0.         -0.          0.00000223 -0.00015132 -0.         -0.          0.          0.
  -0.          0.         -0.          0.          0.0000227   0.00002319  0.00009689  0.          0.          0.00002215 -0.         -0.          0.00004155
   0.00004543  0.00004522]
 [-0.08949408  0.0246907   0.          0.          0.03817254  0.          0.         -0.00015132  0.01025827  0.          0.         -0.         -0.
   0.         -0.          0.         -0.         -0.00153873 -0.0015722  -0.00656832 -0.         -0.         -0.00150172  0.          0.         -0.00281687
  -0.00307962 -0.00306533]
 [-0.          0.          0.          0.          0.          0.          0.         -0.          0.          0.          0.         -0.         -0.
   0.         -0.          0.         -0.         -0.         -0.         -0.         -0.         -0.         -0.          0.          0.         -0.
  -0.         -0.        ]
 [-0.          0.          0.          0.          0.          0.          0.         -0.          0.          0.          0.         -0.         -0.
   0.         -0.          0.         -0.         -0.         -0.         -0.         -0.         -0.         -0.          0.          0.         -0.
  -0.         -0.        ]
 [ 0.         -0.         -0.         -0.         -0.         -0.         -0.          0.         -0.         -0.         -0.          0.          0.
  -0.          0.         -0.          0.          0.          0.          0.          0.          0.          0.         -0.         -0.          0.
   0.          0.        ]
 [ 0.         -0.         -0.         -0.         -0.         -0.         -0.          0.         -0.         -0.         -0.          0.          0.
  -0.          0.         -0.          0.          0.          0.          0.          0.          0.          0.         -0.         -0.          0.
   0.          0.        ]
 [-0.          0.          0.          0.          0.          0.          0.         -0.          0.          0.          0.         -0.         -0.
   0.         -0.          0.         -0.         -0.         -0.         -0.         -0.         -0.         -0.          0.          0.         -0.
  -0.         -0.        ]
 [ 0.         -0.         -0.         -0.         -0.         -0.         -0.          0.         -0.         -0.         -0.          0.          0.
  -0.          0.         -0.          0.          0.          0.          0.          0.          0.          0.         -0.         -0.          0.
   0.          0.        ]
 [-0.          0.          0.          0.          0.          0.          0.         -0.          0.          0.          0.         -0.         -0.
   0.         -0.          0.         -0.         -0.         -0.         -0.         -0.         -0.         -0.          0.          0.         -0.
  -0.         -0.        ]
 [ 0.         -0.         -0.         -0.         -0.         -0.         -0.          0.         -0.         -0.         -0.          0.          0.
  -0.          0.         -0.          0.          0.          0.          0.          0.          0.          0.         -0.         -0.          0.
   0.          0.        ]
 [ 0.01342403 -0.00370358 -0.         -0.         -0.00572584 -0.         -0.          0.0000227  -0.00153873 -0.         -0.          0.          0.
  -0.          0.         -0.          0.          0.00023081  0.00023583  0.00098524  0.          0.          0.00022526 -0.         -0.          0.00042253
   0.00046194  0.0004598 ]
 [ 0.01371599 -0.00378413 -0.         -0.         -0.00585038 -0.         -0.          0.00002319 -0.0015722  -0.         -0.          0.          0.
  -0.          0.         -0.          0.          0.00023583  0.00024096  0.00100667  0.          0.          0.00023016 -0.         -0.          0.00043172
   0.00047199  0.0004698 ]
 [ 0.05730263 -0.01580934 -0.         -0.         -0.02444169 -0.         -0.          0.00009689 -0.00656832 -0.         -0.          0.          0.
  -0.          0.         -0.          0.          0.00098524  0.00100667  0.00420567  0.          0.          0.00096155 -0.         -0.          0.00180363
   0.00197187  0.00196272]
 [ 0.         -0.         -0.         -0.         -0.         -0.         -0.          0.         -0.         -0.         -0.          0.          0.
  -0.          0.         -0.          0.          0.          0.          0.          0.          0.          0.         -0.         -0.          0.
   0.          0.        ]
 [ 0.         -0.         -0.         -0.         -0.         -0.         -0.          0.         -0.         -0.         -0.          0.          0.
  -0.          0.         -0.          0.          0.          0.          0.          0.          0.          0.         -0.         -0.          0.
   0.          0.        ]
 [ 0.01310118 -0.00361451 -0.         -0.         -0.00558814 -0.         -0.          0.00002215 -0.00150172 -0.         -0.          0.          0.
  -0.          0.         -0.          0.          0.00022526  0.00023016  0.00096155  0.          0.          0.00021984 -0.         -0.          0.00041237
   0.00045083  0.00044874]
 [-0.          0.          0.          0.          0.          0.          0.         -0.          0.          0.          0.         -0.         -0.
   0.         -0.          0.         -0.         -0.         -0.         -0.         -0.         -0.         -0.          0.          0.         -0.
  -0.         -0.        ]
 [-0.          0.          0.          0.          0.          0.          0.         -0.          0.          0.          0.         -0.         -0.
   0.         -0.          0.         -0.         -0.         -0.         -0.         -0.         -0.         -0.          0.          0.         -0.
  -0.         -0.        ]
 [ 0.02457464 -0.00677995 -0.         -0.         -0.01048199 -0.         -0.          0.00004155 -0.00281687 -0.         -0.          0.          0.
  -0.          0.         -0.          0.          0.00042253  0.00043172  0.00180363  0.          0.          0.00041237 -0.         -0.          0.0007735
   0.00084565  0.00084172]
 [ 0.02686689 -0.00741236 -0.         -0.         -0.01145972 -0.         -0.          0.00004543 -0.00307962 -0.         -0.          0.          0.
  -0.          0.         -0.          0.          0.00046194  0.00047199  0.00197187  0.          0.          0.00045083 -0.         -0.          0.00084565
   0.00092453  0.00092024]
 [ 0.02674222 -0.00737796 -0.         -0.         -0.01140654 -0.         -0.          0.00004522 -0.00306533 -0.         -0.          0.          0.
  -0.          0.         -0.          0.          0.0004598   0.0004698   0.00196272  0.          0.          0.00044874 -0.         -0.          0.00084172
   0.00092024  0.00091597]] 
 [[ 0.7807544  -0.21540389 -0.          0.          0.33302064 -0.          0.          0.00132015  0.08949408  0.          0.         -0.         -0.
  -0.         -0.         -0.         -0.          0.01342403 -0.01371599 -0.05730263 -0.         -0.          0.01310118  0.          0.          0.02457464
  -0.02686689 -0.02674222]
 [-0.21540389  0.05942821  0.         -0.         -0.09187773  0.         -0.         -0.00036422 -0.0246907  -0.         -0.          0.          0.
   0.          0.          0.          0.         -0.00370358  0.00378413  0.01580934  0.          0.         -0.00361451 -0.         -0.         -0.00677995
   0.00741236  0.00737796]
 [-0.          0.          0.         -0.         -0.          0.         -0.         -0.         -0.         -0.         -0.          0.          0.
   0.          0.          0.          0.         -0.          0.          0.          0.          0.         -0.         -0.         -0.         -0.
   0.          0.        ]
 [ 0.         -0.         -0.          0.          0.         -0.          0.          0.          0.          0.          0.         -0.         -0.
  -0.         -0.         -0.         -0.          0.         -0.         -0.         -0.         -0.          0.          0.          0.          0.
  -0.         -0.        ]
 [ 0.33302064 -0.09187773 -0.          0.          0.14204562 -0.          0.          0.00056309  0.03817254  0.          0.         -0.         -0.
  -0.         -0.         -0.         -0.          0.00572584 -0.00585038 -0.02444169 -0.         -0.          0.00558814  0.          0.          0.01048199
  -0.01145972 -0.01140654]
 [-0.          0.          0.         -0.         -0.          0.         -0.         -0.         -0.         -0.         -0.          0.          0.
   0.          0.          0.          0.         -0.          0.          0.          0.          0.         -0.         -0.         -0.         -0.
   0.          0.        ]
 [ 0.         -0.         -0.          0.          0.         -0.          0.          0.          0.          0.          0.         -0.         -0.
  -0.         -0.         -0.         -0.          0.         -0.         -0.         -0.         -0.          0.          0.          0.          0.
  -0.         -0.        ]
 [ 0.00132015 -0.00036422 -0.          0.          0.00056309 -0.          0.          0.00000223  0.00015132  0.          0.         -0.         -0.
  -0.         -0.         -0.         -0.          0.0000227  -0.00002319 -0.00009689 -0.         -0.          0.00002215  0.          0.          0.00004155
  -0.00004543 -0.00004522]
 [ 0.08949408 -0.0246907  -0.          0.          0.03817254 -0.          0.          0.00015132  0.01025827  0.          0.         -0.         -0.
  -0.         -0.         -0.         -0.          0.00153873 -0.0015722  -0.00656832 -0.         -0.          0.00150172  0.          0.          0.00281687
  -0.00307962 -0.00306533]
 [ 0.         -0.         -0.          0.          0.         -0.          0.          0.          0.          0.          0.         -0.         -0.
  -0.         -0.         -0.         -0.          0.         -0.         -0.         -0.         -0.          0.          0.          0.          0.
  -0.         -0.        ]
 [ 0.         -0.         -0.          0.          0.         -0.          0.          0.          0.          0.          0.         -0.         -0.
  -0.         -0.         -0.         -0.          0.         -0.         -0.         -0.         -0.          0.          0.          0.          0.
  -0.         -0.        ]
 [-0.          0.          0.         -0.         -0.          0.         -0.         -0.         -0.         -0.         -0.          0.          0.
   0.          0.          0.          0.         -0.          0.          0.          0.          0.         -0.         -0.         -0.         -0.
   0.          0.        ]
 [-0.          0.          0.         -0.         -0.          0.         -0.         -0.         -0.         -0.         -0.          0.          0.
   0.          0.          0.          0.         -0.          0.          0.          0.          0.         -0.         -0.         -0.         -0.
   0.          0.        ]
 [-0.          0.          0.         -0.         -0.          0.         -0.         -0.         -0.         -0.         -0.          0.          0.
   0.          0.          0.          0.         -0.          0.          0.          0.          0.         -0.         -0.         -0.         -0.
   0.          0.        ]
 [-0.          0.          0.         -0.         -0.          0.         -0.         -0.         -0.         -0.         -0.          0.          0.
   0.          0.          0.          0.         -0.          0.          0.          0.          0.         -0.         -0.         -0.         -0.
   0.          0.        ]
 [-0.          0.          0.         -0.         -0.          0.         -0.         -0.         -0.         -0.         -0.          0.          0.
   0.          0.          0.          0.         -0.          0.          0.          0.          0.         -0.         -0.         -0.         -0.
   0.          0.        ]
 [-0.          0.          0.         -0.         -0.          0.         -0.         -0.         -0.         -0.         -0.          0.          0.
   0.          0.          0.          0.         -0.          0.          0.          0.          0.         -0.         -0.         -0.         -0.
   0.          0.        ]
 [ 0.01342403 -0.00370358 -0.          0.          0.00572584 -0.          0.          0.0000227   0.00153873  0.          0.         -0.         -0.
  -0.         -0.         -0.         -0.          0.00023081 -0.00023583 -0.00098524 -0.         -0.          0.00022526  0.          0.          0.00042253
  -0.00046194 -0.0004598 ]
 [-0.01371599  0.00378413  0.         -0.         -0.00585038  0.         -0.         -0.00002319 -0.0015722  -0.         -0.          0.          0.
   0.          0.          0.          0.         -0.00023583  0.00024096  0.00100667  0.          0.         -0.00023016 -0.         -0.         -0.00043172
   0.00047199  0.0004698 ]
 [-0.05730263  0.01580934  0.         -0.         -0.02444169  0.         -0.         -0.00009689 -0.00656832 -0.         -0.          0.          0.
   0.          0.          0.          0.         -0.00098524  0.00100667  0.00420567  0.          0.         -0.00096155 -0.         -0.         -0.00180363
   0.00197187  0.00196272]
 [-0.          0.          0.         -0.         -0.          0.         -0.         -0.         -0.         -0.         -0.          0.          0.
   0.          0.          0.          0.         -0.          0.          0.          0.          0.         -0.         -0.         -0.         -0.
   0.          0.        ]
 [-0.          0.          0.         -0.         -0.          0.         -0.         -0.         -0.         -0.         -0.          0.          0.
   0.          0.          0.          0.         -0.          0.          0.          0.          0.         -0.         -0.         -0.         -0.
   0.          0.        ]
 [ 0.01310118 -0.00361451 -0.          0.          0.00558814 -0.          0.          0.00002215  0.00150172  0.          0.         -0.         -0.
  -0.         -0.         -0.         -0.          0.00022526 -0.00023016 -0.00096155 -0.         -0.          0.00021984  0.          0.          0.00041237
  -0.00045083 -0.00044874]
 [ 0.         -0.         -0.          0.          0.         -0.          0.          0.          0.          0.          0.         -0.         -0.
  -0.         -0.         -0.         -0.          0.         -0.         -0.         -0.         -0.          0.          0.          0.          0.
  -0.         -0.        ]
 [ 0.         -0.         -0.          0.          0.         -0.          0.          0.          0.          0.          0.         -0.         -0.
  -0.         -0.         -0.         -0.          0.         -0.         -0.         -0.         -0.          0.          0.          0.          0.
  -0.         -0.        ]
 [ 0.02457464 -0.00677995 -0.          0.          0.01048199 -0.          0.          0.00004155  0.00281687  0.          0.         -0.         -0.
  -0.         -0.         -0.         -0.          0.00042253 -0.00043172 -0.00180363 -0.         -0.          0.00041237  0.          0.          0.0007735
  -0.00084565 -0.00084172]
 [-0.02686689  0.00741236  0.         -0.         -0.01145972  0.         -0.         -0.00004543 -0.00307962 -0.         -0.          0.          0.
   0.          0.          0.          0.         -0.00046194  0.00047199  0.00197187  0.          0.         -0.00045083 -0.         -0.         -0.00084565
   0.00092453  0.00092024]
 [-0.02674222  0.00737796  0.         -0.         -0.01140654  0.         -0.         -0.00004522 -0.00306533 -0.         -0.          0.          0.
   0.          0.          0.          0.         -0.0004598   0.0004698   0.00196272  0.          0.         -0.00044874 -0.         -0.         -0.00084172
   0.00092024  0.00091597]]
**** Start Cycle 2 ****
dm (ortho)
[...]
Feff (mod,ortho)
[[-0.2298645   0.42837478  0.         ...  0.          0.          0.        ]
 [ 0.42837478  1.24431158  0.         ...  0.          0.          0.        ]
 [ 0.          0.          1.30776743 ...  0.          0.          0.        ]
 ...
 [ 0.          0.          0.         ...  1.81756957 -0.00901076  0.01296658]
 [ 0.          0.          0.         ... -0.00901076  1.36043179  0.46075875]
 [ 0.          0.          0.         ...  0.01296658  0.46075875  3.58507775]]
E(SUHF) =     -1.06996817
e_a, e_b
[-0.50603194  0.09802311  0.34704172  0.49779622  0.67098744  0.67098744  0.86101562  0.97329748  0.97329748  1.37824426  2.55554625  2.73539906  3.12577525
  3.13304989  3.13304989  3.36997526  3.36997526  3.56767954  3.56767954  3.85611107  3.85611107  3.92789724  3.92789724  4.06763864  4.18075049  4.18075049
  4.37471837  5.2983579 ] [-0.50603194  0.09802311  0.34704172  0.49779622  0.67098744  0.67098744  0.86101562  0.97329748  0.97329748  1.37824426  2.55554625  2.73539906  3.12577525
  3.13304989  3.13304989  3.36997526  3.36997526  3.56767954  3.56767954  3.85611107  3.85611107  3.92789724  3.92789724  4.06763864  4.18075049  4.18075049
  4.37471837  5.2983579 ]
P_a, P_b
[[ 0.7192752  -0.20222772  0.          0.         -0.37725172 -0.         -0.          0.0035578  -0.11690541 -0.         -0.          0.         -0.
  -0.          0.         -0.         -0.          0.02243618  0.02147545  0.03923946  0.          0.          0.01414471 -0.         -0.          0.02654471
   0.01390094  0.03770544]
 [-0.20222772  0.05685731 -0.         -0.          0.10606616  0.          0.         -0.00100029  0.03286853  0.          0.         -0.          0.
   0.         -0.          0.          0.         -0.00630804 -0.00603793 -0.01103237 -0.         -0.         -0.00397685  0.          0.         -0.00746318
  -0.00390832 -0.01060107]
 [ 0.         -0.          0.          0.         -0.         -0.         -0.          0.         -0.         -0.         -0.          0.         -0.
  -0.          0.         -0.         -0.          0.          0.          0.          0.          0.          0.         -0.         -0.          0.
   0.          0.        ]
 [ 0.         -0.          0.          0.         -0.         -0.         -0.          0.         -0.         -0.         -0.          0.         -0.
  -0.          0.         -0.         -0.          0.          0.          0.          0.          0.          0.         -0.         -0.          0.
   0.          0.        ]
 [-0.37725172  0.10606616 -0.         -0.          0.19786427  0.          0.         -0.00186603  0.06131557  0.          0.         -0.          0.
   0.         -0.          0.          0.         -0.01176752 -0.01126363 -0.02058065 -0.         -0.         -0.00741874  0.          0.         -0.0139224
  -0.00729089 -0.01977608]
 [-0.          0.         -0.         -0.          0.          0.          0.         -0.          0.          0.          0.         -0.          0.
   0.         -0.          0.          0.         -0.         -0.         -0.         -0.         -0.         -0.          0.          0.         -0.
  -0.         -0.        ]
 [-0.          0.         -0.         -0.          0.          0.          0.         -0.          0.          0.          0.         -0.          0.
   0.         -0.          0.          0.         -0.         -0.         -0.         -0.         -0.         -0.          0.          0.         -0.
  -0.         -0.        ]
 [ 0.0035578  -0.00100029  0.          0.         -0.00186603 -0.         -0.          0.0000176  -0.00057826 -0.         -0.          0.         -0.
  -0.          0.         -0.         -0.          0.00011098  0.00010623  0.00019409  0.          0.          0.00006996 -0.         -0.          0.0001313
   0.00006876  0.0001865 ]
 [-0.11690541  0.03286853 -0.         -0.          0.06131557  0.          0.         -0.00057826  0.0190009   0.          0.         -0.          0.
   0.         -0.          0.          0.         -0.0036466  -0.00349045 -0.00637768 -0.         -0.         -0.00229897  0.          0.         -0.00431437
  -0.00225935 -0.00612835]
 [-0.          0.         -0.         -0.          0.          0.          0.         -0.          0.          0.          0.         -0.          0.
   0.         -0.          0.          0.         -0.         -0.         -0.         -0.         -0.         -0.          0.          0.         -0.
  -0.         -0.        ]
 [-0.          0.         -0.         -0.          0.          0.          0.         -0.          0.          0.          0.         -0.          0.
   0.         -0.          0.          0.         -0.         -0.         -0.         -0.         -0.         -0.          0.          0.         -0.
  -0.         -0.        ]
 [ 0.         -0.          0.          0.         -0.         -0.         -0.          0.         -0.         -0.         -0.          0.         -0.
  -0.          0.         -0.         -0.          0.          0.          0.          0.          0.          0.         -0.         -0.          0.
   0.          0.        ]
 [-0.          0.         -0.         -0.          0.          0.          0.         -0.          0.          0.          0.         -0.          0.
   0.         -0.          0.          0.         -0.         -0.         -0.         -0.         -0.         -0.          0.          0.         -0.
  -0.         -0.        ]
 [-0.          0.         -0.         -0.          0.          0.          0.         -0.          0.          0.          0.         -0.          0.
   0.         -0.          0.          0.         -0.         -0.         -0.         -0.         -0.         -0.          0.          0.         -0.
  -0.         -0.        ]
 [ 0.         -0.          0.          0.         -0.         -0.         -0.          0.         -0.         -0.         -0.          0.         -0.
  -0.          0.         -0.         -0.          0.          0.          0.          0.          0.          0.         -0.         -0.          0.
   0.          0.        ]
 [-0.          0.         -0.         -0.          0.          0.          0.         -0.          0.          0.          0.         -0.          0.
   0.         -0.          0.          0.         -0.         -0.         -0.         -0.         -0.         -0.          0.          0.         -0.
  -0.         -0.        ]
 [-0.          0.         -0.         -0.          0.          0.          0.         -0.          0.          0.          0.         -0.          0.
   0.         -0.          0.          0.         -0.         -0.         -0.         -0.         -0.         -0.          0.          0.         -0.
  -0.         -0.        ]
 [ 0.02243618 -0.00630804  0.          0.         -0.01176752 -0.         -0.          0.00011098 -0.0036466  -0.         -0.          0.         -0.
  -0.          0.         -0.         -0.          0.00069985  0.00066988  0.00122399  0.          0.          0.00044121 -0.         -0.          0.000828
   0.00043361  0.00117614]
 [ 0.02147545 -0.00603793  0.          0.         -0.01126363 -0.         -0.          0.00010623 -0.00349045 -0.         -0.          0.         -0.
  -0.          0.         -0.         -0.          0.00066988  0.00064119  0.00117158  0.          0.          0.00042232 -0.         -0.          0.00079255
   0.00041504  0.00112577]
 [ 0.03923946 -0.01103237  0.          0.         -0.02058065 -0.         -0.          0.00019409 -0.00637768 -0.         -0.          0.         -0.
  -0.          0.         -0.         -0.          0.00122399  0.00117158  0.00214068  0.          0.          0.00077165 -0.         -0.          0.00144812
   0.00075835  0.00205699]
 [ 0.         -0.          0.          0.         -0.         -0.         -0.          0.         -0.         -0.         -0.          0.         -0.
  -0.          0.         -0.         -0.          0.          0.          0.          0.          0.          0.         -0.         -0.          0.
   0.          0.        ]
 [ 0.         -0.          0.          0.         -0.         -0.         -0.          0.         -0.         -0.         -0.          0.         -0.
  -0.          0.         -0.         -0.          0.          0.          0.          0.          0.          0.         -0.         -0.          0.
   0.          0.        ]
 [ 0.01414471 -0.00397685  0.          0.         -0.00741874 -0.         -0.          0.00006996 -0.00229897 -0.         -0.          0.         -0.
  -0.          0.         -0.         -0.          0.00044121  0.00042232  0.00077165  0.          0.          0.00027816 -0.         -0.          0.00052201
   0.00027337  0.00074149]
 [-0.          0.         -0.         -0.          0.          0.          0.         -0.          0.          0.          0.         -0.          0.
   0.         -0.          0.          0.         -0.         -0.         -0.         -0.         -0.         -0.          0.          0.         -0.
  -0.         -0.        ]
 [-0.          0.         -0.         -0.          0.          0.          0.         -0.          0.          0.          0.         -0.          0.
   0.         -0.          0.          0.         -0.         -0.         -0.         -0.         -0.         -0.          0.          0.         -0.
  -0.         -0.        ]
 [ 0.02654471 -0.00746318  0.          0.         -0.0139224  -0.         -0.          0.0001313  -0.00431437 -0.         -0.          0.         -0.
  -0.          0.         -0.         -0.          0.000828    0.00079255  0.00144812  0.          0.          0.00052201 -0.         -0.          0.00097963
   0.00051301  0.00139151]
 [ 0.01390094 -0.00390832  0.          0.         -0.00729089 -0.         -0.          0.00006876 -0.00225935 -0.         -0.          0.         -0.
  -0.          0.         -0.         -0.          0.00043361  0.00041504  0.00075835  0.          0.          0.00027337 -0.         -0.          0.00051301
   0.00026865  0.00072871]
 [ 0.03770544 -0.01060107  0.          0.         -0.01977608 -0.         -0.          0.0001865  -0.00612835 -0.         -0.          0.         -0.
  -0.          0.         -0.         -0.          0.00117614  0.00112577  0.00205699  0.          0.          0.00074149 -0.         -0.          0.00139151
   0.00072871  0.00197657]] 
 [[ 0.7192752  -0.20222772 -0.          0.          0.37725172  0.          0.          0.0035578   0.11690541  0.          0.         -0.         -0.
  -0.         -0.         -0.          0.          0.02243618 -0.02147545 -0.03923946 -0.         -0.          0.01414471  0.          0.          0.02654471
  -0.01390094 -0.03770544]
 [-0.20222772  0.05685731  0.         -0.         -0.10606616 -0.         -0.         -0.00100029 -0.03286853 -0.         -0.          0.          0.
   0.          0.          0.         -0.         -0.00630804  0.00603793  0.01103237  0.          0.         -0.00397685 -0.         -0.         -0.00746318
   0.00390832  0.01060107]
 [-0.          0.          0.         -0.         -0.         -0.         -0.         -0.         -0.         -0.         -0.          0.          0.
   0.          0.          0.         -0.         -0.          0.          0.          0.          0.         -0.         -0.         -0.         -0.
   0.          0.        ]
 [ 0.         -0.         -0.          0.          0.          0.          0.          0.          0.          0.          0.         -0.         -0.
  -0.         -0.         -0.          0.          0.         -0.         -0.         -0.         -0.          0.          0.          0.          0.
  -0.         -0.        ]
 [ 0.37725172 -0.10606616 -0.          0.          0.19786427  0.          0.          0.00186603  0.06131557  0.          0.         -0.         -0.
  -0.         -0.         -0.          0.          0.01176752 -0.01126363 -0.02058065 -0.         -0.          0.00741874  0.          0.          0.0139224
  -0.00729089 -0.01977608]
 [ 0.         -0.         -0.          0.          0.          0.          0.          0.          0.          0.          0.         -0.         -0.
  -0.         -0.         -0.          0.          0.         -0.         -0.         -0.         -0.          0.          0.          0.          0.
  -0.         -0.        ]
 [ 0.         -0.         -0.          0.          0.          0.          0.          0.          0.          0.          0.         -0.         -0.
  -0.         -0.         -0.          0.          0.         -0.         -0.         -0.         -0.          0.          0.          0.          0.
  -0.         -0.        ]
 [ 0.0035578  -0.00100029 -0.          0.          0.00186603  0.          0.          0.0000176   0.00057826  0.          0.         -0.         -0.
  -0.         -0.         -0.          0.          0.00011098 -0.00010623 -0.00019409 -0.         -0.          0.00006996  0.          0.          0.0001313
  -0.00006876 -0.0001865 ]
 [ 0.11690541 -0.03286853 -0.          0.          0.06131557  0.          0.          0.00057826  0.0190009   0.          0.         -0.         -0.
  -0.         -0.         -0.          0.          0.0036466  -0.00349045 -0.00637768 -0.         -0.          0.00229897  0.          0.          0.00431437
  -0.00225935 -0.00612835]
 [ 0.         -0.         -0.          0.          0.          0.          0.          0.          0.          0.          0.         -0.         -0.
  -0.         -0.         -0.          0.          0.         -0.         -0.         -0.         -0.          0.          0.          0.          0.
  -0.         -0.        ]
 [ 0.         -0.         -0.          0.          0.          0.          0.          0.          0.          0.          0.         -0.         -0.
  -0.         -0.         -0.          0.          0.         -0.         -0.         -0.         -0.          0.          0.          0.          0.
  -0.         -0.        ]
 [-0.          0.          0.         -0.         -0.         -0.         -0.         -0.         -0.         -0.         -0.          0.          0.
   0.          0.          0.         -0.         -0.          0.          0.          0.          0.         -0.         -0.         -0.         -0.
   0.          0.        ]
 [-0.          0.          0.         -0.         -0.         -0.         -0.         -0.         -0.         -0.         -0.          0.          0.
   0.          0.          0.         -0.         -0.          0.          0.          0.          0.         -0.         -0.         -0.         -0.
   0.          0.        ]
 [-0.          0.          0.         -0.         -0.         -0.         -0.         -0.         -0.         -0.         -0.          0.          0.
   0.          0.          0.         -0.         -0.          0.          0.          0.          0.         -0.         -0.         -0.         -0.
   0.          0.        ]
 [-0.          0.          0.         -0.         -0.         -0.         -0.         -0.         -0.         -0.         -0.          0.          0.
   0.          0.          0.         -0.         -0.          0.          0.          0.          0.         -0.         -0.         -0.         -0.
   0.          0.        ]
 [-0.          0.          0.         -0.         -0.         -0.         -0.         -0.         -0.         -0.         -0.          0.          0.
   0.          0.          0.         -0.         -0.          0.          0.          0.          0.         -0.         -0.         -0.         -0.
   0.          0.        ]
 [ 0.         -0.         -0.          0.          0.          0.          0.          0.          0.          0.          0.         -0.         -0.
  -0.         -0.         -0.          0.          0.         -0.         -0.         -0.         -0.          0.          0.          0.          0.
  -0.         -0.        ]
 [ 0.02243618 -0.00630804 -0.          0.          0.01176752  0.          0.          0.00011098  0.0036466   0.          0.         -0.         -0.
  -0.         -0.         -0.          0.          0.00069985 -0.00066988 -0.00122399 -0.         -0.          0.00044121  0.          0.          0.000828
  -0.00043361 -0.00117614]
 [-0.02147545  0.00603793  0.         -0.         -0.01126363 -0.         -0.         -0.00010623 -0.00349045 -0.         -0.          0.          0.
   0.          0.          0.         -0.         -0.00066988  0.00064119  0.00117158  0.          0.         -0.00042232 -0.         -0.         -0.00079255
   0.00041504  0.00112577]
 [-0.03923946  0.01103237  0.         -0.         -0.02058065 -0.         -0.         -0.00019409 -0.00637768 -0.         -0.          0.          0.
   0.          0.          0.         -0.         -0.00122399  0.00117158  0.00214068  0.          0.         -0.00077165 -0.         -0.         -0.00144812
   0.00075835  0.00205699]
 [-0.          0.          0.         -0.         -0.         -0.         -0.         -0.         -0.         -0.         -0.          0.          0.
   0.          0.          0.         -0.         -0.          0.          0.          0.          0.         -0.         -0.         -0.         -0.
   0.          0.        ]
 [-0.          0.          0.         -0.         -0.         -0.         -0.         -0.         -0.         -0.         -0.          0.          0.
   0.          0.          0.         -0.         -0.          0.          0.          0.          0.         -0.         -0.         -0.         -0.
   0.          0.        ]
 [ 0.01414471 -0.00397685 -0.          0.          0.00741874  0.          0.          0.00006996  0.00229897  0.          0.         -0.         -0.
  -0.         -0.         -0.          0.          0.00044121 -0.00042232 -0.00077165 -0.         -0.          0.00027816  0.          0.          0.00052201
  -0.00027337 -0.00074149]
 [ 0.         -0.         -0.          0.          0.          0.          0.          0.          0.          0.          0.         -0.         -0.
  -0.         -0.         -0.          0.          0.         -0.         -0.         -0.         -0.          0.          0.          0.          0.
  -0.         -0.        ]
 [ 0.         -0.         -0.          0.          0.          0.          0.          0.          0.          0.          0.         -0.         -0.
  -0.         -0.         -0.          0.          0.         -0.         -0.         -0.         -0.          0.          0.          0.          0.
  -0.         -0.        ]
 [ 0.02654471 -0.00746318 -0.          0.          0.0139224   0.          0.          0.0001313   0.00431437  0.          0.         -0.         -0.
  -0.         -0.         -0.          0.          0.000828   -0.00079255 -0.00144812 -0.         -0.          0.00052201  0.          0.          0.00097963
  -0.00051301 -0.00139151]
 [-0.01390094  0.00390832  0.         -0.         -0.00729089 -0.         -0.         -0.00006876 -0.00225935 -0.         -0.          0.          0.
   0.          0.          0.         -0.         -0.00043361  0.00041504  0.00075835  0.          0.         -0.00027337 -0.         -0.         -0.00051301
   0.00026865  0.00072871]
 [-0.03770544  0.01060107  0.         -0.         -0.01977608 -0.         -0.         -0.0001865  -0.00612835 -0.         -0.          0.          0.
   0.          0.          0.         -0.         -0.00117614  0.00112577  0.00205699  0.          0.         -0.00074149 -0.         -0.         -0.00139151
   0.00072871  0.00197657]]

***************
SCF converged at cycle 19
Final E(SUHF) =     -1.06996817, delta E = -5.61478e-09
***** Start DFT Correlation for SUHF+DFT **********
tot grids = 20048
E(SUHF) =     -1.06996817
E_c(TPSS) =     -0.02136098
E(SUHF+DFT) =     -1.09132915
