

#INFO: **** input file is /share/home/srwang/ExSCF/test/pytest/scan_h2/scan_dft.py ****
#import phf
from pyscf import lib
#import scipy
import numpy as np
import sys, os, contextlib

from pyphf import util, sudft

#xyz = 'h2.xyz' #sys.argv[1]
fch = 'test_uhf.fchk' #sys.argv[2]
#bas = '../h2.bas'
bas = 'cc-pvtz'

lib.num_threads(4)

for r in np.arange(0.5, 1.4, 0.1):
    output = 'sudft_%.1f_diis.out' % r
    os.system("echo '\n' > %s" % output)
    with open(output, 'a', encoding='utf-8') as f:
        with contextlib.redirect_stdout(f):
            xyz = '''H 0.0 0.0 0.0; H 0.0 0.0 %f'''%r
            mf = util.guess_from_fchk(xyz, bas, fch)
            #mf = util.guess(xyz, bas)
            #f.flush()
            mf2 = util.SUHF(mf)
            #mf2.cut_no = False
            mf2.debug = False
            #mf2.max_cycle = 50
            mf2.diis_on = True
            #mf2.output = 'sudft_%.1f.out'%r
            #mf2.kernel()
            
            mf3 = sudft.SUDFT(mf2)
            mf3.kernel()
                    #INFO: ******************** input file end ********************


System: uname_result(system='Linux', node='xcluster', release='3.10.0-693.el7.x86_64', version='#1 SMP Thu Jul 6 19:56:57 EDT 2017', machine='x86_64', processor='x86_64')  Threads 4
Python 3.7.4 (default, Aug 13 2019, 20:35:49) 
[GCC 7.3.0]
numpy 1.17.2  scipy 1.4.1
Date: Sat Nov 21 21:25:25 2020
PySCF version 1.7.3
PySCF path  /share/apps/Python/Anaconda3-2019/lib/python3.7/site-packages/pyscf

[CONFIG] conf_file None
[INPUT] verbose = 4
[INPUT] num. atoms = 2
[INPUT] num. electrons = 2
[INPUT] charge = 0
[INPUT] spin (= nelec alpha-beta = 2S) = 0
[INPUT] symmetry False subgroup None
[INPUT] Mole.unit = angstrom
[INPUT]  1 H      0.000000000000   0.000000000000   0.000000000000 AA    0.000000000000   0.000000000000   0.000000000000 Bohr
[INPUT]  2 H      0.000000000000   0.000000000000   1.000000000000 AA    0.000000000000   0.000000000000   1.889726124565 Bohr

nuclear repulsion = 0.52917721092
number of shells = 12
number of NR pGTOs = 32
number of NR cGTOs = 28
basis = cc-pvtz
ecp = {}
CPU time:       221.73


******** <class 'pyscf.scf.uhf.UHF'> ********
method = UHF
initial guess = minao
damping factor = 0
level_shift factor = 0
DIIS = <class 'pyscf.scf.diis.CDIIS'>
diis_start_cycle = 1
diis_space = 8
SCF conv_tol = 1e-09
SCF conv_tol_grad = None
SCF max_cycles = 1
direct_scf = True
direct_scf_tol = 1e-13
chkfile to save SCF result = /share/home/srwang/ExSCF/test/pytest/scan_h2/tmpss_v684u
max_memory 4000 MB (current use 135 MB)
number electrons alpha = 1  beta = 1
Set gradient conv threshold to 3.16228e-05
init E= -0.753847083746815
  alpha nocc = 1  HOMO = -0.449035299313778  LUMO = 0.0782140344719786
  beta  nocc = 1  HOMO = -0.445259135077179  LUMO = 0.0789212455995745
cycle= 1 E= -1.10117863940732  delta_E= -0.347  |g|= 0.0314  |ddm|= 0.327
SCF not converged.
SCF energy = -1.10117863940732 after 1 cycles  <S^2> = 2.4987993e-07  2S+1 = 1.0000005


******** <class 'pyscf.scf.uhf.UHF'> ********
method = UHF
initial guess = minao
damping factor = 0
level_shift factor = 0
DIIS = <class 'pyscf.scf.diis.CDIIS'>
diis_start_cycle = 1
diis_space = 8
SCF conv_tol = 1e-09
SCF conv_tol_grad = None
SCF max_cycles = 1
direct_scf = True
direct_scf_tol = 1e-13
chkfile to save SCF result = /share/home/srwang/ExSCF/test/pytest/scan_h2/tmpss_v684u
max_memory 4000 MB (current use 135 MB)
number electrons alpha = 1  beta = 1
Set gradient conv threshold to 3.16228e-05
init E= -1.16157987233707
  alpha nocc = 1  HOMO = -0.512402562789846  LUMO = 0.176733594154164
  beta  nocc = 1  HOMO = -0.512402562789846  LUMO = 0.176733594154164
cycle= 1 E= -1.08773944078048  delta_E= 0.0738  |g|= 0.0555  |ddm|= 0.0897
SCF not converged.
SCF energy = -1.08773944078048 after 1 cycles  <S^2> = 0.20893904  2S+1 = 1.3549008

******** <class 'pyphf.util.SUHF'> ********
SVD: S^(-1/2)
[[-0.14617541 -0.         -0.         -0.2784682   0.00330328 -0.         -0.          0.          0.         -0.1673554  -0.16637221 -0.         -0.
  -0.         -0.         -0.5458093   0.          0.          0.          0.         -0.77503289  0.52976356 -0.61951449 -0.         -0.          0.86020288
  -0.40536716  0.42766631]
 [-0.21243221  0.         -0.         -0.22880618 -0.09213069  0.          0.          0.         -0.         -0.01399236 -0.00136771  0.          0.
   0.          0.         -0.10356017 -0.         -0.         -0.         -0.          0.30476849 -0.02548063 -0.00598712  0.         -0.         -1.56578287
   0.53337152 -7.04276703]
 [-0.20033735 -0.         -0.         -0.09278292 -0.20513688  0.         -0.         -0.          0.          0.02226298  0.07392054 -0.          0.
  -0.          0.          0.46132955 -0.         -0.         -0.          0.          0.41163684  0.11903992  0.1169417  -0.          0.          0.90129456
  -2.71162582  0.16885175]
 [ 0.          0.00967217  0.26503558  0.         -0.          0.45541282 -0.02153829 -0.13711574  0.00204668  0.         -0.          0.          0.
  -0.         -0.          0.          0.47937837 -0.35805216 -0.0735765  -0.84122817 -0.          0.          0.         -0.13386889 -0.51947027  0.
  -0.          0.        ]
 [ 0.         -0.26503558  0.00967217  0.          0.         -0.02153829 -0.45541282  0.00204668  0.13711574 -0.          0.          0.         -0.
  -0.         -0.          0.          0.35805216  0.47937837  0.84122817 -0.0735765   0.          0.         -0.          0.51947027 -0.13386889  0.
  -0.         -0.        ]
 [-0.07612827  0.          0.          0.15319047  0.35274654 -0.          0.         -0.         -0.         -0.33019662  0.06267651  0.          0.
   0.          0.          0.33754699 -0.         -0.         -0.          0.          0.36280684  1.03298179 -0.82469768 -0.         -0.         -0.12447543
   0.33563256 -0.34376411]
 [-0.          0.01229316  0.33685539 -0.         -0.          0.30867819 -0.01459863 -0.20635882  0.00308025  0.          0.         -0.          0.
   0.         -0.         -0.         -0.12890122  0.09627752  0.05642973  0.64518263 -0.          0.         -0.          0.3326609   1.29087086 -0.
   0.          0.        ]
 [-0.         -0.33685539  0.01229316  0.          0.         -0.01459863 -0.30867819  0.00308025  0.20635882 -0.          0.          0.          0.
   0.          0.         -0.         -0.09627752 -0.12890122 -0.64518263  0.05642973 -0.         -0.          0.         -1.29087086  0.3326609  -0.
   0.          0.        ]
 [-0.11210448  0.          0.          0.29571922  0.2565245  -0.          0.          0.          0.         -0.10761651  0.24327419  0.          0.
   0.          0.         -0.20301958  0.         -0.          0.         -0.         -0.52113729 -0.19964384  0.99184375  0.          0.          0.32161697
  -0.99533743 -4.53306513]
 [ 0.         -0.          0.          0.          0.         -0.         -0.         -0.         -0.          0.          0.          0.65330769  0.08609986
   0.76740446  0.01873649  0.          0.          0.         -0.         -0.          0.          0.          0.          0.          0.          0.
   0.          0.        ]
 [-0.         -0.18288304  0.00667411  0.          0.          0.01247455  0.26376593 -0.00863963 -0.57880508  0.         -0.         -0.          0.
  -0.         -0.          0.          0.50553448  0.67683517 -0.03074178  0.00268877  0.         -0.          0.         -0.61376486  0.15816886 -0.
   0.         -0.        ]
 [-0.03841771 -0.         -0.          0.0676723   0.11905241 -0.         -0.         -0.          0.          0.51229494 -0.57896618  0.          0.
  -0.          0.          0.16722516 -0.         -0.         -0.          0.         -0.13837957  0.79105641  0.52045075  0.          0.         -0.00675121
   0.00722554 -1.23380926]
 [-0.          0.00667411  0.18288304 -0.         -0.         -0.26376593  0.01247455  0.57880508 -0.00863963 -0.         -0.          0.         -0.
   0.         -0.          0.          0.67683517 -0.50553448  0.00268877  0.03074178  0.         -0.         -0.          0.15816886  0.61376486 -0.
   0.          0.        ]
 [ 0.          0.         -0.          0.          0.          0.         -0.          0.          0.          0.          0.         -0.08609986  0.65330769
   0.01873649 -0.76740446  0.         -0.          0.          0.         -0.          0.          0.          0.         -0.          0.          0.
   0.          0.        ]
 [-0.14617541  0.          0.          0.2784682   0.00330328  0.         -0.          0.          0.          0.1673554  -0.16637221  0.         -0.
   0.         -0.         -0.5458093   0.         -0.         -0.         -0.          0.77503289 -0.52976356 -0.61951449 -0.         -0.          0.86020288
   0.40536716 -0.42766631]
 [-0.21243221 -0.         -0.          0.22880618 -0.09213069 -0.          0.          0.         -0.          0.01399236 -0.00136771 -0.         -0.
  -0.         -0.         -0.10356017  0.          0.          0.          0.         -0.30476849  0.02548063 -0.00598712  0.         -0.         -1.56578287
  -0.53337152  7.04276703]
 [-0.20033735 -0.         -0.          0.09278292 -0.20513688 -0.          0.         -0.         -0.         -0.02226298  0.07392054  0.         -0.
  -0.         -0.          0.46132955  0.          0.          0.          0.         -0.41163684 -0.11903992  0.1169417   0.          0.          0.90129456
   2.71162582 -0.16885175]
 [-0.          0.00967217  0.26503558 -0.         -0.         -0.45541282  0.02153829 -0.13711574  0.00204668 -0.          0.          0.         -0.
  -0.          0.         -0.         -0.47937837  0.35805216 -0.0735765  -0.84122817  0.         -0.         -0.          0.13386889  0.51947027  0.
   0.          0.        ]
 [-0.         -0.26503558  0.00967217  0.          0.          0.02153829  0.45541282  0.00204668  0.13711574  0.         -0.          0.         -0.
   0.          0.          0.         -0.35805216 -0.47937837  0.84122817 -0.0735765   0.         -0.          0.         -0.51947027  0.13386889 -0.
   0.          0.        ]
 [ 0.07612827 -0.          0.          0.15319047 -0.35274654 -0.          0.          0.          0.         -0.33019662 -0.06267651  0.          0.
  -0.          0.         -0.33754699  0.         -0.         -0.         -0.          0.36280684  1.03298179  0.82469768  0.          0.          0.12447543
   0.33563256 -0.34376411]
 [-0.          0.01229316  0.33685539 -0.         -0.         -0.30867819  0.01459863 -0.20635882  0.00308025 -0.          0.         -0.          0.
   0.         -0.         -0.          0.12890122 -0.09627752  0.05642973  0.64518263  0.         -0.          0.         -0.3326609  -1.29087086  0.
  -0.         -0.        ]
 [-0.         -0.33685539  0.01229316  0.          0.          0.01459863  0.30867819  0.00308025  0.20635882  0.         -0.         -0.          0.
  -0.         -0.         -0.          0.09627752  0.12890122 -0.64518263  0.05642973 -0.          0.         -0.          1.29087086 -0.3326609   0.
  -0.         -0.        ]
 [ 0.11210448 -0.         -0.          0.29571922 -0.2565245  -0.         -0.         -0.         -0.         -0.10761651 -0.24327419  0.          0.
   0.          0.          0.20301958 -0.          0.          0.          0.         -0.52113729 -0.19964384 -0.99184375 -0.         -0.         -0.32161697
  -0.99533743 -4.53306513]
 [-0.         -0.          0.          0.          0.         -0.          0.         -0.         -0.         -0.          0.          0.65330769  0.08609986
  -0.76740446 -0.01873649 -0.         -0.          0.         -0.          0.         -0.         -0.         -0.         -0.          0.         -0.
   0.         -0.        ]
 [ 0.          0.18288304 -0.00667411 -0.         -0.          0.01247455  0.26376593  0.00863963  0.57880508  0.         -0.          0.         -0.
  -0.         -0.          0.          0.50553448  0.67683517  0.03074178 -0.00268877  0.         -0.          0.         -0.61376486  0.15816886 -0.
   0.         -0.        ]
 [-0.03841771  0.          0.         -0.0676723   0.11905241  0.         -0.         -0.          0.         -0.51229494 -0.57896618 -0.         -0.
  -0.         -0.          0.16722516  0.         -0.         -0.          0.          0.13837957 -0.79105641  0.52045075  0.          0.         -0.00675121
  -0.00722554  1.23380926]
 [ 0.         -0.00667411 -0.18288304  0.          0.         -0.26376593  0.01247455 -0.57880508  0.00863963 -0.          0.         -0.          0.
   0.         -0.         -0.          0.67683517 -0.50553448 -0.00268877 -0.03074178  0.         -0.         -0.          0.15816886  0.61376486 -0.
   0.          0.        ]
 [ 0.          0.         -0.          0.          0.          0.         -0.          0.          0.          0.          0.         -0.08609986  0.65330769
  -0.01873649  0.76740446  0.          0.         -0.          0.          0.         -0.         -0.         -0.         -0.          0.         -0.
  -0.         -0.        ]]
C (ortho)
[[-0.94536658 -0.19232994  0.04360337  0.13502565  0.         -0.         -0.17607837  0.          0.         -0.02170475  0.02917406  0.03178816 -0.
  -0.         -0.          0.         -0.12315874  0.         -0.         -0.         -0.          0.          0.         -0.00445899  0.          0.
  -0.02508798  0.00209436]
 [-0.         -0.          0.          0.          0.04865212 -0.85838822  0.         -0.05752013 -0.01302613  0.         -0.         -0.         -0.
  -0.         -0.45550346 -0.11350547  0.         -0.         -0.         -0.10000491 -0.14563494 -0.07531305  0.00672543 -0.          0.00522403  0.00155024
  -0.         -0.        ]
 [-0.         -0.         -0.         -0.          0.85838822  0.04865212  0.         -0.01302613  0.05752013 -0.         -0.          0.          0.
   0.         -0.11350547  0.45550346  0.         -0.         -0.          0.14563494 -0.10000491  0.00672543  0.07531305 -0.          0.00155024 -0.00522403
   0.          0.        ]
 [-0.22843336  0.69824397  0.03125866 -0.65421166 -0.         -0.         -0.03803516  0.          0.          0.00159067  0.03232808 -0.11569837  0.
   0.         -0.          0.         -0.0065456  -0.         -0.         -0.          0.          0.          0.         -0.08336605 -0.         -0.
  -0.00056658  0.09181548]
 [-0.21730594 -0.06957662 -0.41332745 -0.05887778 -0.          0.          0.65740146 -0.         -0.          0.01986457 -0.17532531 -0.08184664  0.
   0.          0.         -0.          0.54808274 -0.          0.          0.          0.         -0.         -0.          0.01719736 -0.          0.
   0.05393663 -0.00472678]
 [ 0.         -0.         -0.         -0.          0.05641537 -0.00153028 -0.          0.23126546 -0.73090662 -0.          0.         -0.         -0.
   0.         -0.00189615  0.00557305 -0.          0.          0.          0.1700493  -0.13905709 -0.00318441 -0.59778364 -0.          0.02140144 -0.05481818
  -0.         -0.        ]
 [ 0.          0.          0.          0.         -0.00153028 -0.05641537  0.          0.73090662  0.23126546  0.         -0.          0.          0.
   0.         -0.00557305 -0.00189615  0.         -0.         -0.         -0.13905709 -0.1700493   0.59778364 -0.00318441 -0.          0.05481818  0.02140144
  -0.         -0.        ]
 [ 0.          0.         -0.          0.         -0.31727179 -0.00165447 -0.          0.00517787 -0.01841434 -0.         -0.          0.          0.
   0.         -0.2315288   0.76025818  0.          0.          0.         -0.38619228  0.29550003 -0.00661554 -0.17558097  0.          0.00196386 -0.00555392
  -0.          0.        ]
 [-0.          0.         -0.         -0.         -0.00165447  0.31727179 -0.          0.01841434  0.00517787 -0.          0.         -0.         -0.
  -0.         -0.76025818 -0.2315288  -0.          0.          0.          0.29550003  0.38619228  0.17558097 -0.00661554  0.          0.00555392  0.00196386
   0.          0.        ]
 [-0.01842169 -0.0510924   0.0325221  -0.11378168  0.          0.         -0.02559088  0.         -0.          0.63948852  0.05802468 -0.16804974 -0.
   0.          0.          0.         -0.02277646  0.         -0.          0.         -0.          0.         -0.          0.73231112  0.         -0.
  -0.013271   -0.0697406 ]
 [-0.02191062  0.02547329  0.15813942  0.00459262 -0.          0.          0.49758277 -0.         -0.          0.01568407  0.5340506   0.22362884 -0.
  -0.          0.         -0.         -0.22100862  0.          0.         -0.          0.         -0.          0.         -0.00965454  0.          0.
  -0.58467494  0.00213713]
 [ 0.          0.         -0.         -0.         -0.         -0.         -0.          0.          0.         -0.          0.         -0.          0.99268142
  -0.11766547 -0.         -0.         -0.          0.02696164 -0.00339268  0.          0.         -0.         -0.         -0.          0.         -0.
  -0.          0.        ]
 [-0.         -0.         -0.         -0.         -0.         -0.         -0.          0.          0.         -0.          0.         -0.          0.11766547
   0.99268142 -0.         -0.         -0.          0.00339268  0.02696164 -0.          0.         -0.          0.         -0.          0.          0.
  -0.          0.        ]
 [ 0.         -0.          0.          0.          0.         -0.         -0.         -0.         -0.         -0.          0.         -0.          0.02715519
   0.00101781  0.         -0.         -0.         -0.99917277 -0.0302546   0.          0.         -0.         -0.         -0.         -0.          0.
  -0.         -0.        ]
 [-0.         -0.          0.          0.          0.          0.         -0.         -0.          0.         -0.          0.         -0.          0.00101781
  -0.02715519  0.          0.         -0.         -0.0302546   0.99917277  0.         -0.          0.          0.          0.         -0.         -0.
  -0.          0.        ]
 [-0.04029832  0.06900506  0.72451341  0.10880006  0.          0.         -0.00117582  0.         -0.         -0.00603484  0.20356268  0.08295165 -0.
   0.         -0.          0.          0.61101519  0.          0.          0.         -0.         -0.         -0.          0.01884236 -0.          0.
   0.18655119 -0.00217249]
 [ 0.          0.         -0.          0.         -0.00812903 -0.00633064  0.          0.07016032  0.17447399 -0.          0.         -0.          0.
   0.          0.00391005  0.01036186 -0.          0.          0.          0.11185528  0.00037032 -0.18714271 -0.22486024 -0.          0.28975239  0.88450824
   0.          0.        ]
 [ 0.          0.         -0.          0.          0.00633064 -0.00812903 -0.          0.17447399 -0.07016032 -0.          0.         -0.          0.
  -0.          0.01036186 -0.00391005  0.         -0.         -0.         -0.00037032  0.11185528 -0.22486024  0.18714271  0.          0.88450824 -0.28975239
   0.         -0.        ]
 [-0.          0.          0.          0.          0.04223426 -0.39179793  0.         -0.03126318 -0.00542907 -0.          0.         -0.          0.
   0.          0.37735985  0.07392461 -0.          0.          0.          0.4085841   0.66497183  0.29156769 -0.04103682  0.         -0.00366852 -0.00088885
   0.         -0.        ]
 [-0.         -0.         -0.         -0.          0.39179793  0.04223426  0.         -0.00542907  0.03126318 -0.          0.         -0.         -0.
  -0.          0.07392461 -0.37735985  0.          0.          0.         -0.66497183  0.4085841  -0.04103682 -0.29156769  0.         -0.00088885  0.00366852
   0.         -0.        ]
 [ 0.03846055 -0.45074334  0.10128207 -0.29739026 -0.         -0.         -0.00548994 -0.          0.          0.22187764  0.25159928 -0.62478172 -0.
   0.          0.          0.          0.00223292  0.          0.         -0.          0.          0.          0.         -0.42891408  0.          0.
   0.00270346  0.09878461]
 [ 0.01743808 -0.10860332  0.01782375 -0.05545952  0.         -0.         -0.00498281  0.         -0.          0.27854719 -0.14546696  0.34573425  0.
  -0.          0.         -0.          0.01161299 -0.          0.          0.          0.         -0.         -0.         -0.0857507   0.         -0.
   0.00180789  0.87103978]
 [-0.02816251  0.01028255  0.06408478 -0.00149064 -0.          0.          0.39046684 -0.          0.          0.01450645  0.24931334  0.10396131 -0.
  -0.         -0.          0.         -0.41159855  0.          0.         -0.         -0.          0.         -0.          0.00349643  0.         -0.
   0.77454481  0.00263031]
 [-0.          0.          0.          0.          0.01061774 -0.03801617  0.          0.60996647  0.00425053 -0.          0.          0.         -0.
  -0.          0.0035205   0.00010028 -0.          0.          0.          0.09406807  0.23147799 -0.62825793  0.19765263  0.         -0.35980507 -0.02621709
   0.         -0.        ]
 [-0.          0.          0.         -0.          0.03801617  0.01061774  0.          0.00425053 -0.60996647 -0.          0.          0.          0.
  -0.          0.00010028 -0.0035205  -0.         -0.         -0.         -0.23147799  0.09406807  0.19765263  0.62825793  0.         -0.02621709  0.35980507
   0.         -0.        ]
 [-0.0295135   0.04628101  0.4901624   0.0792779  -0.          0.          0.36644963 -0.         -0.         -0.00247061 -0.66160757 -0.25830753  0.
   0.          0.         -0.         -0.30319159 -0.         -0.         -0.          0.         -0.          0.         -0.01086671  0.         -0.
  -0.14021645 -0.00043444]
 [-0.02862393  0.49536619 -0.14189476  0.64874415  0.          0.          0.00102794 -0.          0.          0.32311794  0.14434575 -0.34565789 -0.
   0.          0.          0.          0.00378849  0.          0.         -0.          0.          0.          0.         -0.21818562 -0.          0.
   0.00124684  0.14299544]
 [-0.01296822 -0.00175147  0.01485658 -0.082649    0.         -0.         -0.01795738 -0.         -0.          0.59871849 -0.17935966  0.43229445  0.
  -0.         -0.         -0.          0.01409054 -0.          0.         -0.          0.         -0.          0.         -0.46577989 -0.          0.
   0.00681268 -0.44468714]]
[[-0.94536658 -0.19232994  0.04360337  0.13502565  0.         -0.          0.17607837 -0.         -0.         -0.02170475  0.02917406  0.03178816  0.
   0.          0.         -0.          0.12315874  0.         -0.          0.          0.          0.         -0.         -0.00445899  0.          0.
  -0.02508798  0.00209436]
 [-0.          0.         -0.          0.         -0.27333186 -0.81516076 -0.         -0.05293736 -0.02599771  0.          0.          0.          0.
  -0.          0.35090902 -0.31181685 -0.          0.          0.          0.08149512 -0.15674522 -0.05876466  0.04758153  0.         -0.00534481 -0.00106146
   0.         -0.        ]
 [ 0.         -0.          0.         -0.          0.81516076 -0.27333186 -0.         -0.02599771  0.05293736  0.          0.         -0.          0.
  -0.         -0.31181685 -0.35090902 -0.          0.          0.          0.15674522  0.08149512  0.04758153  0.05876466 -0.         -0.00106146  0.00534481
   0.         -0.        ]
 [ 0.22843336 -0.69824397 -0.03125866  0.65421166 -0.         -0.         -0.03803516 -0.         -0.         -0.00159067 -0.03232808  0.11569837 -0.
  -0.         -0.         -0.         -0.0065456  -0.          0.         -0.          0.          0.          0.          0.08336605 -0.         -0.
   0.00056658 -0.09181548]
 [-0.21730594 -0.06957662 -0.41332745 -0.05887778 -0.          0.         -0.65740146  0.          0.          0.01986457 -0.17532531 -0.08184664 -0.
  -0.         -0.          0.         -0.54808274 -0.         -0.         -0.         -0.         -0.          0.          0.01719736 -0.         -0.
   0.05393663 -0.00472678]
 [ 0.          0.         -0.          0.         -0.05182007  0.02235434 -0.         -0.39430632  0.65744256  0.         -0.          0.          0.
   0.          0.0035285   0.0047121  -0.         -0.          0.         -0.20269102 -0.08467579  0.33600229  0.49442682  0.          0.01625057 -0.05655947
  -0.          0.        ]
 [-0.          0.          0.         -0.          0.02235434  0.05182007 -0.         -0.65744256 -0.39430632  0.         -0.          0.         -0.
   0.         -0.0047121   0.0035285   0.          0.          0.         -0.08467579  0.20269102 -0.49442682  0.33600229  0.          0.05655947  0.01625057
  -0.         -0.        ]
 [ 0.         -0.         -0.         -0.         -0.29523572  0.11618947  0.          0.00930314 -0.01671376  0.          0.         -0.          0.
  -0.         -0.49667287 -0.6204145   0.         -0.         -0.         -0.44240227 -0.20185383 -0.10340555 -0.1420554   0.         -0.00144287  0.00571147
  -0.         -0.        ]
 [ 0.         -0.         -0.         -0.          0.11618947  0.29523572  0.          0.01671376  0.00930314 -0.          0.          0.          0.
  -0.          0.6204145  -0.49667287 -0.         -0.          0.         -0.20185383  0.44240227  0.1420554  -0.10340555 -0.         -0.00571147 -0.00144287
   0.          0.        ]
 [ 0.01842169  0.0510924  -0.0325221   0.11378168  0.         -0.         -0.02559088 -0.          0.         -0.63948852 -0.05802468  0.16804974 -0.
  -0.         -0.         -0.         -0.02277646  0.         -0.         -0.         -0.         -0.          0.         -0.73231112  0.         -0.
   0.013271    0.0697406 ]
 [-0.02191062  0.02547329  0.15813942  0.00459262 -0.          0.         -0.49758277  0.          0.          0.01568407  0.5340506   0.22362884  0.
   0.          0.          0.          0.22100862  0.         -0.          0.         -0.         -0.         -0.         -0.00965454 -0.          0.
  -0.58467494  0.00213713]
 [-0.         -0.         -0.          0.         -0.         -0.         -0.          0.          0.          0.         -0.          0.          0.99327357
  -0.11255739 -0.          0.         -0.          0.02694207 -0.00354469 -0.          0.          0.         -0.         -0.         -0.         -0.
   0.         -0.        ]
 [ 0.         -0.         -0.          0.          0.          0.         -0.          0.         -0.          0.         -0.          0.          0.11255739
   0.99327357  0.         -0.         -0.          0.00354469  0.02694207  0.         -0.         -0.         -0.         -0.         -0.          0.
   0.         -0.        ]
 [ 0.         -0.         -0.          0.          0.         -0.          0.          0.         -0.          0.         -0.          0.         -0.02714959
  -0.00115748  0.         -0.         -0.          0.99932751  0.02461868 -0.         -0.          0.         -0.          0.          0.          0.
  -0.          0.        ]
 [ 0.         -0.         -0.          0.         -0.         -0.          0.          0.         -0.          0.         -0.          0.         -0.00115748
   0.02714959  0.         -0.         -0.          0.02461868 -0.99932751  0.          0.          0.          0.          0.         -0.         -0.
   0.         -0.        ]
 [-0.04029832  0.06900506  0.72451341  0.10880006 -0.          0.          0.00117582  0.         -0.         -0.00603484  0.20356268  0.08295165  0.
   0.         -0.         -0.         -0.61101519  0.         -0.         -0.         -0.         -0.          0.          0.01884236 -0.         -0.
   0.18655119 -0.00217249]
 [ 0.         -0.         -0.         -0.          0.00989773  0.00286236 -0.         -0.0278302  -0.18598151 -0.         -0.          0.          0.
  -0.          0.01075952  0.00262476 -0.         -0.         -0.         -0.05227644 -0.0988884   0.28073684  0.0822882  -0.          0.37015261  0.85398965
  -0.          0.        ]
 [ 0.         -0.          0.         -0.         -0.00286236  0.00989773 -0.         -0.18598151  0.0278302   0.          0.         -0.          0.
  -0.          0.00262476 -0.01075952 -0.          0.         -0.          0.0988884  -0.05227644  0.0822882  -0.28073684 -0.          0.85398965 -0.37015261
  -0.          0.        ]
 [ 0.         -0.          0.         -0.         -0.10616009 -0.37949886 -0.         -0.02915483 -0.01252426  0.          0.         -0.         -0.
   0.         -0.27411396  0.26967914 -0.         -0.          0.         -0.39470054  0.67330527  0.21913725 -0.19665859 -0.          0.0037349   0.00054646
  -0.          0.        ]
 [-0.         -0.          0.         -0.          0.37949886 -0.10616009 -0.         -0.01252426  0.02915483  0.         -0.          0.         -0.
   0.          0.26967914  0.27411396 -0.         -0.         -0.         -0.67330527 -0.39470054 -0.19665859 -0.21913725  0.          0.00054646 -0.0037349
  -0.          0.        ]
 [-0.03846055  0.45074334 -0.10128207  0.29739026  0.         -0.         -0.00548994  0.         -0.         -0.22187764 -0.25159928  0.62478172 -0.
  -0.         -0.          0.          0.00223292 -0.          0.          0.          0.          0.         -0.          0.42891408  0.          0.
  -0.00270346 -0.09878461]
 [-0.01743808  0.10860332 -0.01782375  0.05545952 -0.          0.         -0.00498281 -0.          0.         -0.27854719  0.14546696 -0.34573425  0.
   0.          0.          0.          0.01161299  0.         -0.         -0.         -0.          0.          0.          0.0857507   0.          0.
  -0.00180789 -0.87103978]
 [-0.02816251  0.01028255  0.06408478 -0.00149064  0.          0.         -0.39046684  0.         -0.          0.01450645  0.24931334  0.10396131  0.
   0.          0.          0.          0.41159855  0.          0.         -0.          0.          0.          0.          0.00349643  0.         -0.
   0.77454481  0.00263031]
 [-0.         -0.          0.         -0.          0.00424641  0.03924199 -0.         -0.5923865  -0.14544892  0.          0.          0.          0.
  -0.          0.00207088 -0.00284876  0.          0.         -0.          0.16004509 -0.19187608  0.41127582 -0.51441888 -0.         -0.36068901  0.00710356
   0.          0.        ]
 [-0.         -0.          0.         -0.         -0.03924199  0.00424641 -0.         -0.14544892  0.5923865   0.          0.          0.         -0.
   0.         -0.00284876 -0.00207088  0.          0.         -0.          0.19187608  0.16004509 -0.51441888 -0.41127582 -0.          0.00710356  0.36068901
   0.          0.        ]
 [-0.0295135   0.04628101  0.4901624   0.0792779  -0.          0.         -0.36644963  0.          0.         -0.00247061 -0.66160757 -0.25830753 -0.
   0.          0.         -0.          0.30319159 -0.          0.          0.          0.          0.         -0.         -0.01086671 -0.         -0.
  -0.14021645 -0.00043444]
 [ 0.02862393 -0.49536619  0.14189476 -0.64874415 -0.         -0.          0.00102794  0.          0.         -0.32311794 -0.14434575  0.34565789 -0.
  -0.         -0.          0.          0.00378849 -0.          0.         -0.          0.          0.         -0.          0.21818562 -0.          0.
  -0.00124684 -0.14299544]
 [ 0.01296822  0.00175147 -0.01485658  0.082649    0.         -0.         -0.01795738 -0.          0.         -0.59871849  0.17935966 -0.43229445  0.
   0.          0.         -0.          0.01409054  0.          0.          0.          0.          0.         -0.          0.46577989 -0.          0.
  -0.00681268  0.44468714]]
grids:  [0.06237655 0.31939555 0.74529195 1.28265786 1.85893479 2.39630071 2.8221971  3.07921611] 
weights:  [0.15900941 0.34931531 0.49276925 0.56970235 0.56970235 0.49276925 0.34931531 0.15900941]
S = 0.0, Sz = 0.0
Wigner small d:  1
value : [1. 1. 1. 1. 1. 1. 1. 1.]
**** Start Cycle 1 ****
dm (ortho)
[[[ 0.89371797  0.          0.         ...  0.02790108  0.0270601   0.01225973]
  [ 0.          0.          0.         ...  0.          0.          0.        ]
  [ 0.          0.          0.         ...  0.          0.          0.        ]
  ...
  [ 0.02790108  0.          0.         ...  0.00087105  0.00084479  0.00038274]
  [ 0.0270601   0.          0.         ...  0.00084479  0.00081933  0.0003712 ]
  [ 0.01225973  0.          0.         ...  0.00038274  0.0003712   0.00016817]]

 [[ 0.89371797  0.         -0.         ...  0.02790108 -0.0270601  -0.01225973]
  [ 0.          0.         -0.         ...  0.         -0.         -0.        ]
  [-0.         -0.          0.         ... -0.          0.          0.        ]
  ...
  [ 0.02790108  0.         -0.         ...  0.00087105 -0.00084479 -0.00038274]
  [-0.0270601  -0.          0.         ... -0.00084479  0.00081933  0.0003712 ]
  [-0.01225973 -0.          0.         ... -0.00038274  0.0003712   0.00016817]]]
Fock (ortho)
 (array([[-0.39592389, -0.        , -0.        , -0.14627952, -0.4850632 ,  0.        ,  0.        ,  0.        , -0.        , -0.03552671,  0.12006296,
        -0.        , -0.        , -0.        , -0.        , -0.27898894,  0.        ,  0.        ,  0.        , -0.        , -0.01568523,  0.01955328,
         0.01602872,  0.        , -0.        ,  0.00853215, -0.00410971, -0.00833491],
       [-0.        ,  1.34127493, -0.        , -0.        ,  0.        , -0.00228013, -0.02716613,  0.03210512,  0.62402361, -0.        ,  0.        ,
        -0.        , -0.        , -0.        ,  0.        ,  0.        ,  0.00601364,  0.0086957 , -0.97894553,  0.04973744, -0.        , -0.        ,
        -0.        , -0.00344367,  0.00075467, -0.        , -0.        ,  0.        ],
       [-0.        , -0.        ,  1.34127493,  0.        ,  0.        , -0.02716613,  0.00228013,  0.62402361, -0.03210512,  0.        , -0.        ,
         0.        , -0.        , -0.        ,  0.        ,  0.        , -0.0086957 ,  0.00601364, -0.04973744, -0.97894553,  0.        , -0.        ,
         0.        , -0.00075467, -0.00344367,  0.        , -0.        ,  0.        ],
       [-0.14627952, -0.        ,  0.        ,  0.38730217, -0.04086536,  0.        ,  0.        ,  0.        , -0.        , -0.19784967, -0.02761693,
         0.        ,  0.        , -0.        ,  0.        , -0.05163945,  0.        , -0.        , -0.        , -0.        ,  0.47938641,  0.42266243,
        -0.01725502, -0.        , -0.        , -0.00162006,  0.07826594, -0.20963442],
       [-0.4850632 ,  0.        ,  0.        , -0.04086536,  1.6071183 ,  0.        , -0.        , -0.        , -0.        ,  0.01364223, -0.55065439,
        -0.        , -0.        ,  0.        , -0.        ,  0.99060185, -0.        ,  0.        ,  0.        ,  0.        ,  0.00179592, -0.00944553,
        -0.45279968, -0.        , -0.        , -0.0973045 , -0.00116516,  0.00009343],
       [ 0.        , -0.00228013, -0.02716613,  0.        ,  0.        ,  2.25665563, -0.        ,  0.01741381,  0.00056324, -0.        , -0.        ,
         0.        ,  0.        ,  0.        , -0.        ,  0.        ,  0.2884748 , -0.23749706,  0.00137991,  0.0101976 , -0.        ,  0.        ,
         0.        , -0.41265047, -1.33647735,  0.        , -0.        ,  0.        ],
       [ 0.        , -0.02716613,  0.00228013,  0.        , -0.        , -0.        ,  2.25665563, -0.00056324,  0.01741381, -0.        ,  0.        ,
         0.        , -0.        , -0.        ,  0.        , -0.        , -0.23749706, -0.2884748 ,  0.0101976 , -0.00137991, -0.        , -0.        ,
         0.        , -1.33647735,  0.41265047, -0.        ,  0.        ,  0.        ],
       [ 0.        ,  0.03210512,  0.62402361,  0.        , -0.        ,  0.01741381, -0.00056324,  3.14632266,  0.        ,  0.        ,  0.        ,
        -0.        , -0.        ,  0.        , -0.        ,  0.        , -0.00498677,  0.00384193,  0.06423502,  0.62653813,  0.        , -0.        ,
        -0.        , -0.00040906, -0.00149465,  0.        ,  0.        ,  0.        ],
       [-0.        ,  0.62402361, -0.03210512, -0.        , -0.        ,  0.00056324,  0.01741381,  0.        ,  3.14632266,  0.        , -0.        ,
         0.        , -0.        , -0.        ,  0.        ,  0.        ,  0.00384193,  0.00498677,  0.62653813, -0.06423502,  0.        ,  0.        ,
         0.        , -0.00149465,  0.00040906,  0.        ,  0.        ,  0.        ],
       [-0.03552671, -0.        ,  0.        , -0.19784967,  0.01364223, -0.        , -0.        ,  0.        ,  0.        ,  2.91164456,  0.00664398,
         0.        ,  0.        ,  0.        ,  0.        , -0.01262117,  0.        ,  0.        ,  0.        ,  0.        , -0.7866885 , -0.5389062 ,
        -0.01211948,  0.        ,  0.        ,  0.00459689, -0.28525125, -0.8501707 ],
       [ 0.12006296,  0.        , -0.        , -0.02761693, -0.55065439, -0.        ,  0.        ,  0.        , -0.        ,  0.00664398,  2.96228822,
        -0.        , -0.        ,  0.        , -0.        , -0.65547376, -0.        ,  0.        ,  0.        , -0.        , -0.01106942,  0.01016086,
        -1.34551893, -0.        , -0.        , -0.18456307, -0.00079257, -0.00045893],
       [-0.        , -0.        ,  0.        ,  0.        , -0.        ,  0.        ,  0.        , -0.        ,  0.        ,  0.        , -0.        ,
         3.19363853,  0.        , -0.01333747, -0.00209012, -0.        ,  0.        ,  0.        , -0.        ,  0.        ,  0.        ,  0.        ,
        -0.        ,  0.        ,  0.        ,  0.        ,  0.        , -0.        ],
       [-0.        , -0.        , -0.        ,  0.        , -0.        ,  0.        , -0.        , -0.        , -0.        ,  0.        , -0.        ,
         0.        ,  3.19363853, -0.00209012,  0.01333747, -0.        , -0.        ,  0.        ,  0.        , -0.        , -0.        ,  0.        ,
         0.        , -0.        ,  0.        ,  0.        ,  0.        , -0.        ],
       [-0.        , -0.        , -0.        , -0.        ,  0.        ,  0.        , -0.        ,  0.        , -0.        ,  0.        ,  0.        ,
        -0.01333747, -0.00209012,  3.81147235,  0.        ,  0.        ,  0.        , -0.        ,  0.        ,  0.        , -0.        , -0.        ,
        -0.        ,  0.        ,  0.        ,  0.        , -0.        ,  0.        ],
       [-0.        ,  0.        ,  0.        ,  0.        , -0.        , -0.        ,  0.        , -0.        ,  0.        ,  0.        , -0.        ,
        -0.00209012,  0.01333747,  0.        ,  3.81147235, -0.        ,  0.        , -0.        ,  0.        ,  0.        , -0.        ,  0.        ,
         0.        ,  0.        , -0.        ,  0.        , -0.        , -0.        ],
       [-0.27898894,  0.        ,  0.        , -0.05163945,  0.99060185,  0.        , -0.        ,  0.        ,  0.        , -0.01262117, -0.65547376,
        -0.        , -0.        ,  0.        , -0.        ,  1.75289604,  0.        , -0.        ,  0.        ,  0.        , -0.02684724,  0.00509483,
         0.01093671,  0.        ,  0.        , -1.03845925, -0.00340064,  0.00080852],
       [ 0.        ,  0.00601364, -0.0086957 ,  0.        , -0.        ,  0.2884748 , -0.23749706, -0.00498677,  0.00384193,  0.        , -0.        ,
         0.        , -0.        ,  0.        ,  0.        ,  0.        ,  4.67189793, -0.        , -0.00399019,  0.00644611, -0.        ,  0.        ,
        -0.        , -0.24315844,  0.59271832, -0.        , -0.        , -0.        ],
       [ 0.        ,  0.0086957 ,  0.00601364, -0.        ,  0.        , -0.23749706, -0.2884748 ,  0.00384193,  0.00498677,  0.        ,  0.        ,
         0.        ,  0.        , -0.        , -0.        , -0.        , -0.        ,  4.67189793, -0.00644611, -0.00399019,  0.        , -0.        ,
         0.        , -0.59271832, -0.24315844,  0.        , -0.        , -0.        ],
       [ 0.        , -0.97894553, -0.04973744, -0.        ,  0.        ,  0.00137991,  0.0101976 ,  0.06423502,  0.62653813,  0.        ,  0.        ,
        -0.        ,  0.        ,  0.        ,  0.        ,  0.        , -0.00399019, -0.00644611,  3.31815431, -0.        ,  0.        ,  0.        ,
         0.        , -0.00803895,  0.00133838,  0.        , -0.        , -0.        ],
       [-0.        ,  0.04973744, -0.97894553, -0.        ,  0.        ,  0.0101976 , -0.00137991,  0.62653813, -0.06423502,  0.        , -0.        ,
         0.        , -0.        ,  0.        ,  0.        ,  0.        ,  0.00644611, -0.00399019, -0.        ,  3.31815431,  0.        ,  0.        ,
         0.        , -0.00133838, -0.00803895, -0.        ,  0.        , -0.        ],
       [-0.01568523, -0.        ,  0.        ,  0.47938641,  0.00179592, -0.        , -0.        ,  0.        ,  0.        , -0.7866885 , -0.01106942,
         0.        , -0.        , -0.        , -0.        , -0.02684724, -0.        ,  0.        ,  0.        ,  0.        ,  2.13404246,  0.1399717 ,
        -0.00392454,  0.        ,  0.        ,  0.0138453 ,  1.0874756 , -0.05992997],
       [ 0.01955328, -0.        , -0.        ,  0.42266243, -0.00944553,  0.        , -0.        , -0.        ,  0.        , -0.5389062 ,  0.01016086,
         0.        ,  0.        , -0.        ,  0.        ,  0.00509483,  0.        , -0.        ,  0.        ,  0.        ,  0.1399717 ,  5.21952229,
         0.00889063, -0.        , -0.        , -0.00561157,  0.59161447, -1.53814615],
       [ 0.01602872, -0.        ,  0.        , -0.01725502, -0.45279968,  0.        ,  0.        , -0.        ,  0.        , -0.01211948, -1.34551893,
        -0.        ,  0.        , -0.        ,  0.        ,  0.01093671, -0.        ,  0.        ,  0.        ,  0.        , -0.00392454,  0.00889063,
         3.90249263,  0.        ,  0.        , -0.43579243, -0.00076188,  0.00273034],
       [ 0.        , -0.00344367, -0.00075467, -0.        , -0.        , -0.41265047, -1.33647735, -0.00040906, -0.00149465,  0.        , -0.        ,
         0.        , -0.        ,  0.        ,  0.        ,  0.        , -0.24315844, -0.59271832, -0.00803895, -0.00133838,  0.        , -0.        ,
         0.        ,  3.01822674,  0.        , -0.        , -0.        ,  0.        ],
       [-0.        ,  0.00075467, -0.00344367, -0.        , -0.        , -1.33647735,  0.41265047, -0.00149465,  0.00040906,  0.        , -0.        ,
         0.        ,  0.        ,  0.        , -0.        ,  0.        ,  0.59271832, -0.24315844,  0.00133838, -0.00803895,  0.        , -0.        ,
         0.        ,  0.        ,  3.01822674, -0.        ,  0.        ,  0.        ],
       [ 0.00853215, -0.        ,  0.        , -0.00162006, -0.0973045 ,  0.        , -0.        ,  0.        ,  0.        ,  0.00459689, -0.18456307,
         0.        ,  0.        ,  0.        ,  0.        , -1.03845925, -0.        ,  0.        ,  0.        , -0.        ,  0.0138453 , -0.00561157,
        -0.43579243, -0.        , -0.        ,  1.90361821,  0.00483402, -0.00170033],
       [-0.00410971, -0.        , -0.        ,  0.07826594, -0.00116516, -0.        ,  0.        ,  0.        ,  0.        , -0.28525125, -0.00079257,
         0.        ,  0.        , -0.        , -0.        , -0.00340064, -0.        , -0.        , -0.        ,  0.        ,  1.0874756 ,  0.59161447,
        -0.00076188, -0.        ,  0.        ,  0.00483402,  1.120855  , -0.17867282],
       [-0.00833491,  0.        ,  0.        , -0.20963442,  0.00009343,  0.        ,  0.        ,  0.        ,  0.        , -0.8501707 , -0.00045893,
        -0.        , -0.        ,  0.        , -0.        ,  0.00080852, -0.        , -0.        , -0.        , -0.        , -0.05992997, -1.53814615,
         0.00273034,  0.        ,  0.        , -0.00170033, -0.17867282,  3.22087043]]), array([[-0.39592389, -0.        , -0.        ,  0.14627952, -0.4850632 ,  0.        ,  0.        ,  0.        , -0.        ,  0.03552671,  0.12006296,
        -0.        ,  0.        , -0.        ,  0.        , -0.27898894,  0.        , -0.        ,  0.        , -0.        ,  0.01568523, -0.01955328,
         0.01602872,  0.        , -0.        ,  0.00853215,  0.00410971,  0.00833491],
       [-0.        ,  1.34127493, -0.        ,  0.        ,  0.        ,  0.00228013,  0.02716613,  0.03210512,  0.62402361, -0.        ,  0.        ,
        -0.        , -0.        , -0.        ,  0.        ,  0.        , -0.00601364, -0.0086957 , -0.97894553,  0.04973744, -0.        , -0.        ,
        -0.        ,  0.00344367, -0.00075467, -0.        , -0.        ,  0.        ],
       [-0.        , -0.        ,  1.34127493,  0.        ,  0.        ,  0.02716613, -0.00228013,  0.62402361, -0.03210512,  0.        , -0.        ,
         0.        , -0.        , -0.        ,  0.        ,  0.        ,  0.0086957 , -0.00601364, -0.04973744, -0.97894553, -0.        , -0.        ,
         0.        ,  0.00075467,  0.00344367,  0.        , -0.        ,  0.        ],
       [ 0.14627952,  0.        ,  0.        ,  0.38730217,  0.04086536,  0.        ,  0.        , -0.        , -0.        , -0.19784967,  0.02761693,
         0.        ,  0.        , -0.        , -0.        ,  0.05163945, -0.        , -0.        , -0.        , -0.        ,  0.47938641,  0.42266243,
         0.01725502, -0.        , -0.        ,  0.00162006,  0.07826594, -0.20963442],
       [-0.4850632 ,  0.        ,  0.        ,  0.04086536,  1.6071183 ,  0.        , -0.        , -0.        , -0.        , -0.01364223, -0.55065439,
        -0.        , -0.        ,  0.        , -0.        ,  0.99060185, -0.        ,  0.        ,  0.        ,  0.        , -0.00179592,  0.00944553,
        -0.45279968, -0.        , -0.        , -0.0973045 ,  0.00116516, -0.00009343],
       [ 0.        ,  0.00228013,  0.02716613,  0.        ,  0.        ,  2.25665563, -0.        , -0.01741381, -0.00056324, -0.        , -0.        ,
         0.        ,  0.        ,  0.        , -0.        ,  0.        ,  0.2884748 , -0.23749706, -0.00137991, -0.0101976 , -0.        ,  0.        ,
         0.        , -0.41265047, -1.33647735,  0.        , -0.        ,  0.        ],
       [ 0.        ,  0.02716613, -0.00228013,  0.        , -0.        , -0.        ,  2.25665563,  0.00056324, -0.01741381, -0.        ,  0.        ,
         0.        , -0.        , -0.        ,  0.        , -0.        , -0.23749706, -0.2884748 , -0.0101976 ,  0.00137991, -0.        , -0.        ,
         0.        , -1.33647735,  0.41265047, -0.        ,  0.        ,  0.        ],
       [ 0.        ,  0.03210512,  0.62402361, -0.        , -0.        , -0.01741381,  0.00056324,  3.14632266, -0.        ,  0.        ,  0.        ,
        -0.        , -0.        ,  0.        , -0.        ,  0.        ,  0.00498677, -0.00384193,  0.06423502,  0.62653813,  0.        , -0.        ,
        -0.        ,  0.00040906,  0.00149465,  0.        ,  0.        ,  0.        ],
       [-0.        ,  0.62402361, -0.03210512, -0.        , -0.        , -0.00056324, -0.01741381, -0.        ,  3.14632266,  0.        , -0.        ,
         0.        , -0.        , -0.        ,  0.        ,  0.        , -0.00384193, -0.00498677,  0.62653813, -0.06423502,  0.        ,  0.        ,
         0.        ,  0.00149465, -0.00040906,  0.        ,  0.        ,  0.        ],
       [ 0.03552671, -0.        ,  0.        , -0.19784967, -0.01364223, -0.        , -0.        ,  0.        ,  0.        ,  2.91164456, -0.00664398,
         0.        ,  0.        ,  0.        ,  0.        ,  0.01262117,  0.        , -0.        ,  0.        ,  0.        , -0.7866885 , -0.5389062 ,
         0.01211948,  0.        ,  0.        , -0.00459689, -0.28525125, -0.8501707 ],
       [ 0.12006296,  0.        , -0.        ,  0.02761693, -0.55065439, -0.        ,  0.        ,  0.        , -0.        , -0.00664398,  2.96228822,
        -0.        , -0.        ,  0.        , -0.        , -0.65547376, -0.        ,  0.        ,  0.        , -0.        ,  0.01106942, -0.01016086,
        -1.34551893, -0.        , -0.        , -0.18456307,  0.00079257,  0.00045893],
       [-0.        , -0.        ,  0.        ,  0.        , -0.        ,  0.        ,  0.        , -0.        ,  0.        ,  0.        , -0.        ,
         3.19363853,  0.        ,  0.01333747,  0.00209012, -0.        ,  0.        ,  0.        , -0.        ,  0.        ,  0.        ,  0.        ,
        -0.        ,  0.        ,  0.        ,  0.        ,  0.        , -0.        ],
       [ 0.        , -0.        , -0.        ,  0.        , -0.        ,  0.        , -0.        , -0.        , -0.        ,  0.        , -0.        ,
         0.        ,  3.19363853,  0.00209012, -0.01333747, -0.        , -0.        ,  0.        ,  0.        , -0.        , -0.        ,  0.        ,
         0.        , -0.        ,  0.        ,  0.        ,  0.        , -0.        ],
       [-0.        , -0.        , -0.        , -0.        ,  0.        ,  0.        , -0.        ,  0.        , -0.        ,  0.        ,  0.        ,
         0.01333747,  0.00209012,  3.81147235,  0.        ,  0.        ,  0.        , -0.        ,  0.        ,  0.        , -0.        , -0.        ,
        -0.        ,  0.        ,  0.        ,  0.        , -0.        ,  0.        ],
       [ 0.        ,  0.        ,  0.        , -0.        , -0.        , -0.        ,  0.        , -0.        ,  0.        ,  0.        , -0.        ,
         0.00209012, -0.01333747,  0.        ,  3.81147235,  0.        ,  0.        , -0.        ,  0.        ,  0.        , -0.        ,  0.        ,
         0.        ,  0.        , -0.        ,  0.        , -0.        , -0.        ],
       [-0.27898894,  0.        ,  0.        ,  0.05163945,  0.99060185,  0.        , -0.        ,  0.        ,  0.        ,  0.01262117, -0.65547376,
        -0.        , -0.        ,  0.        ,  0.        ,  1.75289604,  0.        , -0.        , -0.        ,  0.        ,  0.02684724, -0.00509483,
         0.01093671,  0.        ,  0.        , -1.03845925,  0.00340064, -0.00080852],
       [ 0.        , -0.00601364,  0.0086957 , -0.        , -0.        ,  0.2884748 , -0.23749706,  0.00498677, -0.00384193,  0.        , -0.        ,
         0.        , -0.        ,  0.        ,  0.        ,  0.        ,  4.67189793, -0.        ,  0.00399019, -0.00644611, -0.        ,  0.        ,
        -0.        , -0.24315844,  0.59271832, -0.        , -0.        , -0.        ],
       [-0.        , -0.0086957 , -0.00601364, -0.        ,  0.        , -0.23749706, -0.2884748 , -0.00384193, -0.00498677, -0.        ,  0.        ,
         0.        ,  0.        , -0.        , -0.        , -0.        , -0.        ,  4.67189793,  0.00644611,  0.00399019,  0.        , -0.        ,
         0.        , -0.59271832, -0.24315844,  0.        , -0.        , -0.        ],
       [ 0.        , -0.97894553, -0.04973744, -0.        ,  0.        , -0.00137991, -0.0101976 ,  0.06423502,  0.62653813,  0.        ,  0.        ,
        -0.        ,  0.        ,  0.        ,  0.        , -0.        ,  0.00399019,  0.00644611,  3.31815431, -0.        ,  0.        ,  0.        ,
         0.        ,  0.00803895, -0.00133838,  0.        , -0.        , -0.        ],
       [-0.        ,  0.04973744, -0.97894553, -0.        ,  0.        , -0.0101976 ,  0.00137991,  0.62653813, -0.06423502,  0.        , -0.        ,
         0.        , -0.        ,  0.        ,  0.        ,  0.        , -0.00644611,  0.00399019, -0.        ,  3.31815431,  0.        ,  0.        ,
         0.        ,  0.00133838,  0.00803895, -0.        ,  0.        , -0.        ],
       [ 0.01568523, -0.        , -0.        ,  0.47938641, -0.00179592, -0.        , -0.        ,  0.        ,  0.        , -0.7866885 ,  0.01106942,
         0.        , -0.        , -0.        , -0.        ,  0.02684724, -0.        ,  0.        ,  0.        ,  0.        ,  2.13404246,  0.1399717 ,
         0.00392454,  0.        ,  0.        , -0.0138453 ,  1.0874756 , -0.05992997],
       [-0.01955328, -0.        , -0.        ,  0.42266243,  0.00944553,  0.        , -0.        , -0.        ,  0.        , -0.5389062 , -0.01016086,
         0.        ,  0.        , -0.        ,  0.        , -0.00509483,  0.        , -0.        ,  0.        ,  0.        ,  0.1399717 ,  5.21952229,
        -0.00889063, -0.        , -0.        ,  0.00561157,  0.59161447, -1.53814615],
       [ 0.01602872, -0.        ,  0.        ,  0.01725502, -0.45279968,  0.        ,  0.        , -0.        ,  0.        ,  0.01211948, -1.34551893,
        -0.        ,  0.        , -0.        ,  0.        ,  0.01093671, -0.        ,  0.        ,  0.        ,  0.        ,  0.00392454, -0.00889063,
         3.90249263,  0.        ,  0.        , -0.43579243,  0.00076188, -0.00273034],
       [ 0.        ,  0.00344367,  0.00075467, -0.        , -0.        , -0.41265047, -1.33647735,  0.00040906,  0.00149465,  0.        , -0.        ,
         0.        , -0.        ,  0.        ,  0.        ,  0.        , -0.24315844, -0.59271832,  0.00803895,  0.00133838,  0.        , -0.        ,
         0.        ,  3.01822674,  0.        , -0.        , -0.        ,  0.        ],
       [-0.        , -0.00075467,  0.00344367, -0.        , -0.        , -1.33647735,  0.41265047,  0.00149465, -0.00040906,  0.        , -0.        ,
         0.        ,  0.        ,  0.        , -0.        ,  0.        ,  0.59271832, -0.24315844, -0.00133838,  0.00803895,  0.        , -0.        ,
         0.        ,  0.        ,  3.01822674, -0.        ,  0.        ,  0.        ],
       [ 0.00853215, -0.        ,  0.        ,  0.00162006, -0.0973045 ,  0.        , -0.        ,  0.        ,  0.        , -0.00459689, -0.18456307,
         0.        ,  0.        ,  0.        ,  0.        , -1.03845925, -0.        ,  0.        ,  0.        , -0.        , -0.0138453 ,  0.00561157,
        -0.43579243, -0.        , -0.        ,  1.90361821, -0.00483402,  0.00170033],
       [ 0.00410971, -0.        , -0.        ,  0.07826594,  0.00116516, -0.        ,  0.        ,  0.        ,  0.        , -0.28525125,  0.00079257,
         0.        ,  0.        , -0.        , -0.        ,  0.00340064, -0.        , -0.        , -0.        ,  0.        ,  1.0874756 ,  0.59161447,
         0.00076188, -0.        ,  0.        , -0.00483402,  1.120855  , -0.17867282],
       [ 0.00833491,  0.        ,  0.        , -0.20963442, -0.00009343,  0.        ,  0.        ,  0.        ,  0.        , -0.8501707 ,  0.00045893,
        -0.        , -0.        ,  0.        , -0.        , -0.00080852, -0.        , -0.        , -0.        , -0.        , -0.05992997, -1.53814615,
        -0.00273034,  0.        ,  0.        ,  0.00170033, -0.17867282,  3.22087043]]))
E(UHF) =    -1.616917
NO eigenvalue
[-1. -0. -0. -0. -0. -0. -0. -0. -0. -0. -0. -0. -0. -0.  0.  0.  0.  0.  0.  0.  0.  0.  0.  0.  0.  0.  0.  0.] [-1. -0. -0. -0. -0. -0. -0. -0. -0. -0. -0. -0. -0. -0. -0.  0.  0.  0.  0.  0.  0.  0.  0.  0.  0.  0.  0.  0.]
NO vec
[[ 0.94536658  0.         -0.04288219 ...  0.          0.          0.        ]
 [ 0.          0.          0.68262511 ...  0.          0.          0.        ]
 [ 0.          0.         -0.         ...  0.          0.          0.        ]
 ...
 [ 0.          0.0295135   0.         ... -0.55697394  0.04618708  0.04352781]
 [ 0.         -0.02862393  0.         ... -0.27584992  0.15291284  0.029623  ]
 [ 0.         -0.01296822  0.         ... -0.43698429  0.02700136  0.04975991]]
dm(NO)
[[ 1.  0. -0. ...  0.  0.  0.]
 [ 0.  1.  0. ...  0. -0.  0.]
 [-0.  0.  0. ...  0.  0.  0.]
 ...
 [ 0.  0.  0. ... -0. -0.  0.]
 [ 0. -0.  0. ... -0. -0. -0.]
 [ 0.  0.  0. ... -0. -0.  0.]]
D(g) (NO)
[[ 0.99951369  0.02773486 -0.         ... -0.0010366   0.00140095  0.01128876]
 [-0.02773486  0.99951369 -0.00555412 ... -0.         -0.          0.        ]
 [-0.          0.00555412  0.99951369 ... -0.00007577  0.00455757 -0.0255707 ]
 ...
 [ 0.0010366   0.          0.00007577 ...  0.99951369  0.          0.        ]
 [-0.00140095 -0.         -0.00455757 ...  0.          0.99951369  0.        ]
 [-0.01128876  0.          0.0255707  ...  0.          0.          0.99951369]]
...
N(g) (NO)
[[ 0.9997168  -0.02774049]
 [ 0.02774049  0.9997168 ]]
...
P(g) (NO)
[[ 1.          0.         -0.         ...  0.         -0.          0.        ]
 [-0.          1.         -0.         ...  0.         -0.          0.        ]
 [ 0.00015407  0.00555255 -0.         ...  0.         -0.          0.        ]
 ...
 [ 0.00103631 -0.00002876 -0.         ... -0.          0.         -0.        ]
 [-0.00140055  0.00003886  0.         ...  0.         -0.          0.        ]
 [-0.01128557  0.00031316  0.         ...  0.         -0.          0.        ]]
...
Pg_ortho
[[ 0.89380346 -0.          0.         ...  0.00009619 -0.00009329 -0.00004226]
 [-0.          0.         -0.         ...  0.         -0.         -0.        ]
 [ 0.         -0.          0.         ... -0.          0.          0.        ]
 ...
 [-0.00009619  0.         -0.         ...  0.00087113 -0.00084487 -0.00038277]
 [-0.00159388  0.         -0.         ... -0.00084341  0.00081799  0.00037059]
 [-0.00072211  0.         -0.         ... -0.00038211  0.00037059  0.0001679 ]]
G(g) (NO)
[[ 0.53397496 -0.00097645 -0.04172666 ...  0.00027821  0.00066821  0.00135003]
 [ 0.00097645  0.53397496 -0.00065331 ...  0.01004421 -0.08390114  0.09606245]
 [-0.04177951 -0.00316588  1.05300414 ...  0.000027    0.0007759   0.0009098 ]
 ...
 [ 0.00085036  0.01003854 -0.00038476 ...  0.97342468 -0.07987511  0.11422349]
 [ 0.0008157  -0.08392377  0.00017275 ... -0.07987775  0.93027339  0.04114004]
 [ 0.00656523  0.09593626 -0.00077396 ...  0.11423085  0.04115684  1.04509836]]
...
C(NO)
[[-1.          0.         -0.         ...  0.          0.          0.        ]
 [ 0.         -1.          0.         ... -0.          0.          0.        ]
 [ 0.          0.         -0.31760574 ...  0.          0.          0.        ]
 ...
 [ 0.          0.          0.         ... -0.00000434  0.38587667 -0.04144347]
 [ 0.          0.          0.         ... -0.00008989  0.10040829 -0.27771775]
 [ 0.         -0.          0.         ...  0.0004918  -0.05248248 -0.05795097]]
detC 1.0000000000000009
detNg [1.00020321 1.00531157 1.02848483 1.0808271  1.154943   1.22136378 1.25573799 1.2638005 ]
xg [0.99979683 0.99471649 0.97230408 0.92521737 0.86584359 0.81875688 0.79634446 0.79126413]
ciS 1.791060958063626
[[-1.07543226  0.          0.03726624 ...  0.          0.          0.        ]
 [ 0.         -1.07543226  0.         ... -0.01806293  0.08909697 -0.12827326]
 [ 0.03726624  0.          0.16786776 ...  0.          0.          0.        ]
 ...
 [ 0.         -0.01806293  0.         ...  1.44200747 -0.09112169 -0.02632896]
 [ 0.          0.08909697  0.         ... -0.09112169  0.90317747  0.201317  ]
 [ 0.         -0.12827326  0.         ... -0.02632896  0.201317   -0.31235023]]
ciH -2.945639404545071
S2 = 0.000000
X(g)
[[ 2.          0.          0.00015407 ... -0.00103631  0.00140055  0.01128557]
 [-0.          2.         -0.00555255 ... -0.00002876  0.00003886  0.00031316]
 [ 0.00015407  0.00555255  0.         ...  0.          0.          0.        ]
 ...
 [ 0.00103631 -0.00002876  0.         ...  0.          0.          0.        ]
 [-0.00140055  0.00003886  0.         ...  0.          0.          0.        ]
 [-0.01128557  0.00031316  0.         ...  0.          0.          0.        ]]
X(g) int
[[ 2.          0.          0.08844821 ... -0.01457704  0.0197007   0.1587468 ]
 [ 0.          2.         -0.07810412 ... -0.01650762  0.02230985  0.17977118]
 [ 0.08844821  0.07810412  0.         ...  0.          0.          0.        ]
 ...
 [ 0.01457704 -0.01650762  0.         ...  0.          0.          0.        ]
 [-0.0197007   0.02230985  0.         ...  0.          0.          0.        ]
 [-0.1587468   0.17977118  0.         ...  0.          0.          0.        ]]
Hsp + Hph =  -1.644633808404655
Feff (mod,ortho)
[[-0.37215935 -0.         -0.         ...  0.          0.          0.        ]
 [-0.          1.34127493 -0.         ...  0.          0.          0.        ]
 [-0.         -0.          1.34127493 ...  0.          0.          0.        ]
 ...
 [ 0.          0.          0.         ...  1.90362378 -0.00480519  0.00176675]
 [ 0.          0.          0.         ... -0.00480519  1.12079385 -0.17875228]
 [ 0.          0.          0.         ...  0.00176675 -0.17875228  3.22081098]]
E(SUHF) =     -1.11545660
e_a, e_b
[-0.54250927  0.12625605  0.32398879  0.54643977  0.66280437  0.66280437  1.00269921  1.05789287  1.05789287  1.47244165  2.49739685  2.59482658  3.19334368
  3.19334368  3.20900578  3.20900578  3.44284775  3.81176721  3.81176721  3.92602487  3.92602487  3.99968815  3.99968815  4.08802768  4.89711616  4.89711616
  4.96673456  6.2075768 ] [-0.54250927  0.12625605  0.32398879  0.54643977  0.66280437  0.66280437  1.00269921  1.05789287  1.05789287  1.47244165  2.49739685  2.59482658  3.19334368
  3.19334368  3.20900578  3.20900578  3.44284775  3.81176721  3.81176721  3.92602487  3.92602487  3.99968815  3.99968815  4.08802768  4.89711616  4.89711616
  4.96673456  6.2075768 ]
P_a, P_b
[[ 0.88327143  0.          0.          0.24139495  0.19281041 -0.         -0.         -0.          0.          0.02088822  0.02226261 -0.          0.
  -0.          0.          0.04848938  0.          0.         -0.          0.         -0.0369594  -0.01817538  0.02681927  0.          0.          0.03185926
   0.02732951  0.01396214]
 [ 0.          0.          0.          0.          0.         -0.         -0.         -0.          0.          0.          0.         -0.          0.
  -0.          0.          0.          0.          0.         -0.          0.         -0.         -0.          0.          0.          0.          0.
   0.          0.        ]
 [ 0.          0.          0.          0.          0.         -0.         -0.         -0.          0.          0.          0.         -0.          0.
  -0.          0.          0.          0.          0.         -0.          0.         -0.         -0.          0.          0.          0.          0.
   0.          0.        ]
 [ 0.24139495  0.          0.          0.06597238  0.0526944  -0.         -0.         -0.          0.          0.00570868  0.00608429 -0.          0.
  -0.          0.          0.01325198  0.          0.         -0.          0.         -0.01010087 -0.00496727  0.00732961  0.          0.          0.00870702
   0.00746906  0.0038158 ]
 [ 0.19281041  0.          0.          0.0526944   0.04208882 -0.         -0.         -0.          0.          0.00455971  0.00485973 -0.          0.
  -0.          0.          0.01058481  0.          0.         -0.          0.         -0.00806791 -0.00396753  0.00585441  0.          0.          0.0069546
   0.00596579  0.00304781]
 [-0.         -0.         -0.         -0.         -0.          0.          0.          0.         -0.         -0.         -0.          0.         -0.
   0.         -0.         -0.         -0.         -0.          0.         -0.          0.          0.         -0.         -0.         -0.         -0.
  -0.         -0.        ]
 [-0.         -0.         -0.         -0.         -0.          0.          0.          0.         -0.         -0.         -0.          0.         -0.
   0.         -0.         -0.         -0.         -0.          0.         -0.          0.          0.         -0.         -0.         -0.         -0.
  -0.         -0.        ]
 [-0.         -0.         -0.         -0.         -0.          0.          0.          0.         -0.         -0.         -0.          0.         -0.
   0.         -0.         -0.         -0.         -0.          0.         -0.          0.          0.         -0.         -0.         -0.         -0.
  -0.         -0.        ]
 [ 0.          0.          0.          0.          0.         -0.         -0.         -0.          0.          0.          0.         -0.          0.
  -0.          0.          0.          0.          0.         -0.          0.         -0.         -0.          0.          0.          0.          0.
   0.          0.        ]
 [ 0.02088822  0.          0.          0.00570868  0.00455971 -0.         -0.         -0.          0.          0.00049398  0.00052648 -0.          0.
  -0.          0.          0.00114671  0.          0.         -0.          0.         -0.00087404 -0.00042982  0.00063424  0.          0.          0.00075343
   0.00064631  0.00033019]
 [ 0.02226261  0.          0.          0.00608429  0.00485973 -0.         -0.         -0.          0.          0.00052648  0.00056112 -0.          0.
  -0.          0.          0.00122216  0.          0.         -0.          0.         -0.00093155 -0.00045811  0.00067597  0.          0.          0.000803
   0.00068883  0.00035191]
 [-0.         -0.         -0.         -0.         -0.          0.          0.          0.         -0.         -0.         -0.          0.         -0.
   0.         -0.         -0.         -0.         -0.          0.         -0.          0.          0.         -0.         -0.         -0.         -0.
  -0.         -0.        ]
 [ 0.          0.          0.          0.          0.         -0.         -0.         -0.          0.          0.          0.         -0.          0.
  -0.          0.          0.          0.          0.         -0.          0.         -0.         -0.          0.          0.          0.          0.
   0.          0.        ]
 [-0.         -0.         -0.         -0.         -0.          0.          0.          0.         -0.         -0.         -0.          0.         -0.
   0.         -0.         -0.         -0.         -0.          0.         -0.          0.          0.         -0.         -0.         -0.         -0.
  -0.         -0.        ]
 [ 0.          0.          0.          0.          0.         -0.         -0.         -0.          0.          0.          0.         -0.          0.
  -0.          0.          0.          0.          0.         -0.          0.         -0.         -0.          0.          0.          0.          0.
   0.          0.        ]
 [ 0.04848938  0.          0.          0.01325198  0.01058481 -0.         -0.         -0.          0.          0.00114671  0.00122216 -0.          0.
  -0.          0.          0.00266195  0.          0.         -0.          0.         -0.00202898 -0.00099778  0.00147231  0.          0.          0.00174899
   0.00150032  0.00076649]
 [ 0.          0.          0.          0.          0.         -0.         -0.         -0.          0.          0.          0.         -0.          0.
  -0.          0.          0.          0.          0.         -0.          0.         -0.         -0.          0.          0.          0.          0.
   0.          0.        ]
 [ 0.          0.          0.          0.          0.         -0.         -0.         -0.          0.          0.          0.         -0.          0.
  -0.          0.          0.          0.          0.         -0.          0.         -0.         -0.          0.          0.          0.          0.
   0.          0.        ]
 [-0.         -0.         -0.         -0.         -0.          0.          0.          0.         -0.         -0.         -0.          0.         -0.
   0.         -0.         -0.         -0.         -0.          0.         -0.          0.          0.         -0.         -0.         -0.         -0.
  -0.         -0.        ]
 [ 0.          0.          0.          0.          0.         -0.         -0.         -0.          0.          0.          0.         -0.          0.
  -0.          0.          0.          0.          0.         -0.          0.         -0.         -0.          0.          0.          0.          0.
   0.          0.        ]
 [-0.0369594  -0.         -0.         -0.01010087 -0.00806791  0.          0.          0.         -0.         -0.00087404 -0.00093155  0.         -0.
   0.         -0.         -0.00202898 -0.         -0.          0.         -0.          0.00154652  0.00076053 -0.00112222 -0.         -0.         -0.00133311
  -0.00114357 -0.00058423]
 [-0.01817538 -0.         -0.         -0.00496727 -0.00396753  0.          0.          0.         -0.         -0.00042982 -0.00045811  0.         -0.
   0.         -0.         -0.00099778 -0.         -0.          0.         -0.          0.00076053  0.000374   -0.00055187 -0.         -0.         -0.00065558
  -0.00056237 -0.0002873 ]
 [ 0.02681927  0.          0.          0.00732961  0.00585441 -0.         -0.         -0.          0.          0.00063424  0.00067597 -0.          0.
  -0.          0.          0.00147231  0.          0.         -0.          0.         -0.00112222 -0.00055187  0.00081433  0.          0.          0.00096736
   0.00082982  0.00042394]
 [ 0.          0.          0.          0.          0.         -0.         -0.         -0.          0.          0.          0.         -0.          0.
  -0.          0.          0.          0.          0.         -0.          0.         -0.         -0.          0.          0.          0.          0.
   0.          0.        ]
 [ 0.          0.          0.          0.          0.         -0.         -0.         -0.          0.          0.          0.         -0.          0.
  -0.          0.          0.          0.          0.         -0.          0.         -0.         -0.          0.          0.          0.          0.
   0.          0.        ]
 [ 0.03185926  0.          0.          0.00870702  0.0069546  -0.         -0.         -0.          0.          0.00075343  0.000803   -0.          0.
  -0.          0.          0.00174899  0.          0.         -0.          0.         -0.00133311 -0.00065558  0.00096736  0.          0.          0.00114915
   0.00098576  0.00050361]
 [ 0.02732951  0.          0.          0.00746906  0.00596579 -0.         -0.         -0.          0.          0.00064631  0.00068883 -0.          0.
  -0.          0.          0.00150032  0.          0.         -0.          0.         -0.00114357 -0.00056237  0.00082982  0.          0.          0.00098576
   0.00084561  0.00043201]
 [ 0.01396214  0.          0.          0.0038158   0.00304781 -0.         -0.         -0.          0.          0.00033019  0.00035191 -0.          0.
  -0.          0.          0.00076649  0.          0.         -0.          0.         -0.00058423 -0.0002873   0.00042394  0.          0.          0.00050361
   0.00043201  0.0002207 ]] 
 [[ 0.88327143  0.          0.         -0.24139495  0.19281041  0.          0.         -0.          0.         -0.02088822  0.02226261 -0.         -0.
  -0.         -0.          0.04848938 -0.         -0.         -0.          0.          0.0369594   0.01817538  0.02681927  0.          0.          0.03185926
  -0.02732951 -0.01396214]
 [ 0.          0.          0.         -0.          0.          0.          0.         -0.          0.         -0.          0.         -0.         -0.
  -0.         -0.          0.         -0.         -0.         -0.          0.          0.          0.          0.          0.          0.          0.
  -0.         -0.        ]
 [ 0.          0.          0.         -0.          0.          0.          0.         -0.          0.         -0.          0.         -0.         -0.
  -0.         -0.          0.         -0.         -0.         -0.          0.          0.          0.          0.          0.          0.          0.
  -0.         -0.        ]
 [-0.24139495 -0.         -0.          0.06597238 -0.0526944  -0.         -0.          0.         -0.          0.00570868 -0.00608429  0.          0.
   0.          0.         -0.01325198  0.          0.          0.         -0.         -0.01010087 -0.00496727 -0.00732961 -0.         -0.         -0.00870702
   0.00746906  0.0038158 ]
 [ 0.19281041  0.          0.         -0.0526944   0.04208882  0.          0.         -0.          0.         -0.00455971  0.00485973 -0.         -0.
  -0.         -0.          0.01058481 -0.         -0.         -0.          0.          0.00806791  0.00396753  0.00585441  0.          0.          0.0069546
  -0.00596579 -0.00304781]
 [ 0.          0.          0.         -0.          0.          0.          0.         -0.          0.         -0.          0.         -0.         -0.
  -0.         -0.          0.         -0.         -0.         -0.          0.          0.          0.          0.          0.          0.          0.
  -0.         -0.        ]
 [ 0.          0.          0.         -0.          0.          0.          0.         -0.          0.         -0.          0.         -0.         -0.
  -0.         -0.          0.         -0.         -0.         -0.          0.          0.          0.          0.          0.          0.          0.
  -0.         -0.        ]
 [-0.         -0.         -0.          0.         -0.         -0.         -0.          0.         -0.          0.         -0.          0.          0.
   0.          0.         -0.          0.          0.          0.         -0.         -0.         -0.         -0.         -0.         -0.         -0.
   0.          0.        ]
 [ 0.          0.          0.         -0.          0.          0.          0.         -0.          0.         -0.          0.         -0.         -0.
  -0.         -0.          0.         -0.         -0.         -0.          0.          0.          0.          0.          0.          0.          0.
  -0.         -0.        ]
 [-0.02088822 -0.         -0.          0.00570868 -0.00455971 -0.         -0.          0.         -0.          0.00049398 -0.00052648  0.          0.
   0.          0.         -0.00114671  0.          0.          0.         -0.         -0.00087404 -0.00042982 -0.00063424 -0.         -0.         -0.00075343
   0.00064631  0.00033019]
 [ 0.02226261  0.          0.         -0.00608429  0.00485973  0.          0.         -0.          0.         -0.00052648  0.00056112 -0.         -0.
  -0.         -0.          0.00122216 -0.         -0.         -0.          0.          0.00093155  0.00045811  0.00067597  0.          0.          0.000803
  -0.00068883 -0.00035191]
 [-0.         -0.         -0.          0.         -0.         -0.         -0.          0.         -0.          0.         -0.          0.          0.
   0.          0.         -0.          0.          0.          0.         -0.         -0.         -0.         -0.         -0.         -0.         -0.
   0.          0.        ]
 [-0.         -0.         -0.          0.         -0.         -0.         -0.          0.         -0.          0.         -0.          0.          0.
   0.          0.         -0.          0.          0.          0.         -0.         -0.         -0.         -0.         -0.         -0.         -0.
   0.          0.        ]
 [-0.         -0.         -0.          0.         -0.         -0.         -0.          0.         -0.          0.         -0.          0.          0.
   0.          0.         -0.          0.          0.          0.         -0.         -0.         -0.         -0.         -0.         -0.         -0.
   0.          0.        ]
 [-0.         -0.         -0.          0.         -0.         -0.         -0.          0.         -0.          0.         -0.          0.          0.
   0.          0.         -0.          0.          0.          0.         -0.         -0.         -0.         -0.         -0.         -0.         -0.
   0.          0.        ]
 [ 0.04848938  0.          0.         -0.01325198  0.01058481  0.          0.         -0.          0.         -0.00114671  0.00122216 -0.         -0.
  -0.         -0.          0.00266195 -0.         -0.         -0.          0.          0.00202898  0.00099778  0.00147231  0.          0.          0.00174899
  -0.00150032 -0.00076649]
 [-0.         -0.         -0.          0.         -0.         -0.         -0.          0.         -0.          0.         -0.          0.          0.
   0.          0.         -0.          0.          0.          0.         -0.         -0.         -0.         -0.         -0.         -0.         -0.
   0.          0.        ]
 [-0.         -0.         -0.          0.         -0.         -0.         -0.          0.         -0.          0.         -0.          0.          0.
   0.          0.         -0.          0.          0.          0.         -0.         -0.         -0.         -0.         -0.         -0.         -0.
   0.          0.        ]
 [-0.         -0.         -0.          0.         -0.         -0.         -0.          0.         -0.          0.         -0.          0.          0.
   0.          0.         -0.          0.          0.          0.         -0.         -0.         -0.         -0.         -0.         -0.         -0.
   0.          0.        ]
 [ 0.          0.          0.         -0.          0.          0.          0.         -0.          0.         -0.          0.         -0.         -0.
  -0.         -0.          0.         -0.         -0.         -0.          0.          0.          0.          0.          0.          0.          0.
  -0.         -0.        ]
 [ 0.0369594   0.          0.         -0.01010087  0.00806791  0.          0.         -0.          0.         -0.00087404  0.00093155 -0.         -0.
  -0.         -0.          0.00202898 -0.         -0.         -0.          0.          0.00154652  0.00076053  0.00112222  0.          0.          0.00133311
  -0.00114357 -0.00058423]
 [ 0.01817538  0.          0.         -0.00496727  0.00396753  0.          0.         -0.          0.         -0.00042982  0.00045811 -0.         -0.
  -0.         -0.          0.00099778 -0.         -0.         -0.          0.          0.00076053  0.000374    0.00055187  0.          0.          0.00065558
  -0.00056237 -0.0002873 ]
 [ 0.02681927  0.          0.         -0.00732961  0.00585441  0.          0.         -0.          0.         -0.00063424  0.00067597 -0.         -0.
  -0.         -0.          0.00147231 -0.         -0.         -0.          0.          0.00112222  0.00055187  0.00081433  0.          0.          0.00096736
  -0.00082982 -0.00042394]
 [ 0.          0.          0.         -0.          0.          0.          0.         -0.          0.         -0.          0.         -0.         -0.
  -0.         -0.          0.         -0.         -0.         -0.          0.          0.          0.          0.          0.          0.          0.
  -0.         -0.        ]
 [ 0.          0.          0.         -0.          0.          0.          0.         -0.          0.         -0.          0.         -0.         -0.
  -0.         -0.          0.         -0.         -0.         -0.          0.          0.          0.          0.          0.          0.          0.
  -0.         -0.        ]
 [ 0.03185926  0.          0.         -0.00870702  0.0069546   0.          0.         -0.          0.         -0.00075343  0.000803   -0.         -0.
  -0.         -0.          0.00174899 -0.         -0.         -0.          0.          0.00133311  0.00065558  0.00096736  0.          0.          0.00114915
  -0.00098576 -0.00050361]
 [-0.02732951 -0.         -0.          0.00746906 -0.00596579 -0.         -0.          0.         -0.          0.00064631 -0.00068883  0.          0.
   0.          0.         -0.00150032  0.          0.          0.         -0.         -0.00114357 -0.00056237 -0.00082982 -0.         -0.         -0.00098576
   0.00084561  0.00043201]
 [-0.01396214 -0.         -0.          0.0038158  -0.00304781 -0.         -0.          0.         -0.          0.00033019 -0.00035191  0.          0.
   0.          0.         -0.00076649  0.          0.          0.         -0.         -0.00058423 -0.0002873  -0.00042394 -0.         -0.         -0.00050361
   0.00043201  0.0002207 ]]
**** Start Cycle 2 ****
dm (ortho)
[[[ 0.88327143  0.          0.         ...  0.03185926  0.02732951  0.01396214]
[...]
Feff (mod,ortho)
[[-0.29293611 -0.         -0.         ...  0.          0.          0.        ]
 [-0.          1.36126449 -0.         ...  0.          0.          0.        ]
 [-0.         -0.          1.36126449 ...  0.          0.          0.        ]
 ...
 [ 0.          0.          0.         ...  1.91560991 -0.00836388  0.00316756]
 [ 0.          0.          0.         ... -0.00836388  1.12606639 -0.17974473]
 [ 0.          0.          0.         ...  0.00316756 -0.17974473  3.2298849 ]]
E(SUHF) =     -1.12906098
e_a, e_b
[-0.53690822  0.14060468  0.32488449  0.5619826   0.67516618  0.67516618  1.01498099  1.06850967  1.06850967  1.48144523  2.49867398  2.63165254  3.21014365
  3.21014365  3.22759543  3.22759543  3.46663498  3.82981444  3.82981444  3.93903289  3.93903289  4.03405775  4.03405775  4.1113628   4.91700392  4.91700392
  4.98995666  6.2316678 ] [-0.53690822  0.14060468  0.32488449  0.5619826   0.67516618  0.67516618  1.01498099  1.06850967  1.06850967  1.48144523  2.49867398  2.63165254  3.21014365
  3.21014365  3.22759543  3.22759543  3.46663498  3.82981444  3.82981444  3.93903289  3.93903289  4.03405775  4.03405775  4.1113628   4.91700392  4.91700392
  4.98995666  6.2316678 ]
P_a, P_b
[[ 0.8135091   0.          0.          0.33324805  0.17717989  0.         -0.         -0.          0.          0.05144475  0.02510409 -0.         -0.
  -0.         -0.          0.05419265  0.          0.          0.          0.         -0.00562461 -0.02394447  0.02736961  0.          0.          0.03339654
   0.00653493  0.02322378]
 [ 0.          0.          0.          0.          0.          0.         -0.         -0.          0.          0.          0.         -0.         -0.
  -0.         -0.          0.          0.          0.          0.          0.         -0.         -0.          0.          0.          0.          0.
   0.          0.        ]
 [ 0.          0.          0.          0.          0.          0.         -0.         -0.          0.          0.          0.         -0.         -0.
  -0.         -0.          0.          0.          0.          0.          0.         -0.         -0.          0.          0.          0.          0.
   0.          0.        ]
 [ 0.33324805  0.          0.          0.13651262  0.07258044  0.         -0.         -0.          0.          0.02107397  0.01028371 -0.         -0.
  -0.         -0.          0.02219962  0.          0.          0.          0.         -0.00230408 -0.00980868  0.01121176  0.          0.          0.01368065
   0.00267699  0.00951345]
 [ 0.17717989  0.          0.          0.07258044  0.03858926  0.         -0.         -0.          0.          0.01120452  0.0054676  -0.         -0.
  -0.         -0.          0.011803    0.          0.          0.          0.         -0.00122502 -0.00521504  0.00596102  0.          0.          0.00727367
   0.00142329  0.00505807]
 [ 0.          0.          0.          0.          0.          0.         -0.         -0.          0.          0.          0.         -0.         -0.
  -0.         -0.          0.          0.          0.          0.          0.         -0.         -0.          0.          0.          0.          0.
   0.          0.        ]
 [-0.         -0.         -0.         -0.         -0.         -0.          0.          0.         -0.         -0.         -0.          0.          0.
   0.          0.         -0.         -0.         -0.         -0.         -0.          0.          0.         -0.         -0.         -0.         -0.
  -0.         -0.        ]
 [-0.         -0.         -0.         -0.         -0.         -0.          0.          0.         -0.         -0.         -0.          0.          0.
   0.          0.         -0.         -0.         -0.         -0.         -0.          0.          0.         -0.         -0.         -0.         -0.
  -0.         -0.        ]
 [ 0.          0.          0.          0.          0.          0.         -0.         -0.          0.          0.          0.         -0.         -0.
  -0.         -0.          0.          0.          0.          0.          0.         -0.         -0.          0.          0.          0.          0.
   0.          0.        ]
 [ 0.05144475  0.          0.          0.02107397  0.01120452  0.         -0.         -0.          0.          0.00325327  0.00158753 -0.         -0.
  -0.         -0.          0.00342704  0.          0.          0.          0.         -0.00035569 -0.0015142   0.0017308   0.          0.          0.00211193
   0.00041326  0.00146863]
 [ 0.02510409  0.          0.          0.01028371  0.0054676   0.         -0.         -0.          0.          0.00158753  0.00077469 -0.         -0.
  -0.         -0.          0.00167233  0.          0.          0.          0.         -0.00017357 -0.0007389   0.0008446   0.          0.          0.00103058
   0.00020166  0.00071666]
 [-0.         -0.         -0.         -0.         -0.         -0.          0.          0.         -0.         -0.         -0.          0.          0.
   0.          0.         -0.         -0.         -0.         -0.         -0.          0.          0.         -0.         -0.         -0.         -0.
  -0.         -0.        ]
 [-0.         -0.         -0.         -0.         -0.         -0.          0.          0.         -0.         -0.         -0.          0.          0.
   0.          0.         -0.         -0.         -0.         -0.         -0.          0.          0.         -0.         -0.         -0.         -0.
  -0.         -0.        ]
 [-0.         -0.         -0.         -0.         -0.         -0.          0.          0.         -0.         -0.         -0.          0.          0.
   0.          0.         -0.         -0.         -0.         -0.         -0.          0.          0.         -0.         -0.         -0.         -0.
  -0.         -0.        ]
 [-0.         -0.         -0.         -0.         -0.         -0.          0.          0.         -0.         -0.         -0.          0.          0.
   0.          0.         -0.         -0.         -0.         -0.         -0.          0.          0.         -0.         -0.         -0.         -0.
  -0.         -0.        ]
 [ 0.05419265  0.          0.          0.02219962  0.011803    0.         -0.         -0.          0.          0.00342704  0.00167233 -0.         -0.
  -0.         -0.          0.00361009  0.          0.          0.          0.         -0.00037469 -0.00159508  0.00182325  0.          0.          0.00222474
   0.00043533  0.00154707]
 [ 0.          0.          0.          0.          0.          0.         -0.         -0.          0.          0.          0.         -0.         -0.
  -0.         -0.          0.          0.          0.          0.          0.         -0.         -0.          0.          0.          0.          0.
   0.          0.        ]
 [ 0.          0.          0.          0.          0.          0.         -0.         -0.          0.          0.          0.         -0.         -0.
  -0.         -0.          0.          0.          0.          0.          0.         -0.         -0.          0.          0.          0.          0.
   0.          0.        ]
 [ 0.          0.          0.          0.          0.          0.         -0.         -0.          0.          0.          0.         -0.         -0.
  -0.         -0.          0.          0.          0.          0.          0.         -0.         -0.          0.          0.          0.          0.
   0.          0.        ]
 [ 0.          0.          0.          0.          0.          0.         -0.         -0.          0.          0.          0.         -0.         -0.
  -0.         -0.          0.          0.          0.          0.          0.         -0.         -0.          0.          0.          0.          0.
   0.          0.        ]
 [-0.00562461 -0.         -0.         -0.00230408 -0.00122502 -0.          0.          0.         -0.         -0.00035569 -0.00017357  0.          0.
   0.          0.         -0.00037469 -0.         -0.         -0.         -0.          0.00003889  0.00016555 -0.00018923 -0.         -0.         -0.0002309
  -0.00004518 -0.00016057]
 [-0.02394447 -0.         -0.         -0.00980868 -0.00521504 -0.          0.          0.         -0.         -0.0015142  -0.0007389   0.          0.
   0.          0.         -0.00159508 -0.         -0.         -0.         -0.          0.00016555  0.00070477 -0.00080559 -0.         -0.         -0.00098298
  -0.00019235 -0.00068356]
 [ 0.02736961  0.          0.          0.01121176  0.00596102  0.         -0.         -0.          0.          0.0017308   0.0008446  -0.         -0.
  -0.         -0.          0.00182325  0.          0.          0.          0.         -0.00018923 -0.00080559  0.00092082  0.          0.          0.00112359
   0.00021986  0.00078134]
 [ 0.          0.          0.          0.          0.          0.         -0.         -0.          0.          0.          0.         -0.         -0.
  -0.         -0.          0.          0.          0.          0.          0.         -0.         -0.          0.          0.          0.          0.
   0.          0.        ]
 [ 0.          0.          0.          0.          0.          0.         -0.         -0.          0.          0.          0.         -0.         -0.
  -0.         -0.          0.          0.          0.          0.          0.         -0.         -0.          0.          0.          0.          0.
   0.          0.        ]
 [ 0.03339654  0.          0.          0.01368065  0.00727367  0.         -0.         -0.          0.          0.00211193  0.00103058 -0.         -0.
  -0.         -0.          0.00222474  0.          0.          0.          0.         -0.0002309  -0.00098298  0.00112359  0.          0.          0.00137101
   0.00026827  0.00095339]
 [ 0.00653493  0.          0.          0.00267699  0.00142329  0.         -0.         -0.          0.          0.00041326  0.00020166 -0.         -0.
  -0.         -0.          0.00043533  0.          0.          0.          0.         -0.00004518 -0.00019235  0.00021986  0.          0.          0.00026827
   0.0000525   0.00018656]
 [ 0.02322378  0.          0.          0.00951345  0.00505807  0.         -0.         -0.          0.          0.00146863  0.00071666 -0.         -0.
  -0.         -0.          0.00154707  0.          0.          0.          0.         -0.00016057 -0.00068356  0.00078134  0.          0.          0.00095339
   0.00018656  0.00066298]] 
 [[ 0.8135091  -0.          0.         -0.33324805  0.17717989 -0.          0.         -0.          0.         -0.05144475  0.02510409  0.         -0.
  -0.         -0.          0.05419265 -0.         -0.         -0.         -0.          0.00562461  0.02394447  0.02736961  0.          0.          0.03339654
  -0.00653493 -0.02322378]
 [-0.          0.         -0.          0.         -0.          0.         -0.          0.         -0.          0.         -0.         -0.          0.
   0.          0.         -0.          0.          0.          0.          0.         -0.         -0.         -0.         -0.         -0.         -0.
   0.          0.        ]
 [ 0.         -0.          0.         -0.          0.         -0.          0.         -0.          0.         -0.          0.          0.         -0.
  -0.         -0.          0.         -0.         -0.         -0.         -0.          0.          0.          0.          0.          0.          0.
  -0.         -0.        ]
 [-0.33324805  0.         -0.          0.13651262 -0.07258044  0.         -0.          0.         -0.          0.02107397 -0.01028371 -0.          0.
   0.          0.         -0.02219962  0.          0.          0.          0.         -0.00230408 -0.00980868 -0.01121176 -0.         -0.         -0.01368065
   0.00267699  0.00951345]
 [ 0.17717989 -0.          0.         -0.07258044  0.03858926 -0.          0.         -0.          0.         -0.01120452  0.0054676   0.         -0.
  -0.         -0.          0.011803   -0.         -0.         -0.         -0.          0.00122502  0.00521504  0.00596102  0.          0.          0.00727367
  -0.00142329 -0.00505807]
 [-0.          0.         -0.          0.         -0.          0.         -0.          0.         -0.          0.         -0.         -0.          0.
   0.          0.         -0.          0.          0.          0.          0.         -0.         -0.         -0.         -0.         -0.         -0.
   0.          0.        ]
 [ 0.         -0.          0.         -0.          0.         -0.          0.         -0.          0.         -0.          0.          0.         -0.
  -0.         -0.          0.         -0.         -0.         -0.         -0.          0.          0.          0.          0.          0.          0.
  -0.         -0.        ]
 [-0.          0.         -0.          0.         -0.          0.         -0.          0.         -0.          0.         -0.         -0.          0.
   0.          0.         -0.          0.          0.          0.          0.         -0.         -0.         -0.         -0.         -0.         -0.
   0.          0.        ]
 [ 0.         -0.          0.         -0.          0.         -0.          0.         -0.          0.         -0.          0.          0.         -0.
  -0.         -0.          0.         -0.         -0.         -0.         -0.          0.          0.          0.          0.          0.          0.
  -0.         -0.        ]
 [-0.05144475  0.         -0.          0.02107397 -0.01120452  0.         -0.          0.         -0.          0.00325327 -0.00158753 -0.          0.
   0.          0.         -0.00342704  0.          0.          0.          0.         -0.00035569 -0.0015142  -0.0017308  -0.         -0.         -0.00211193
   0.00041326  0.00146863]
 [ 0.02510409 -0.          0.         -0.01028371  0.0054676  -0.          0.         -0.          0.         -0.00158753  0.00077469  0.         -0.
  -0.         -0.          0.00167233 -0.         -0.         -0.         -0.          0.00017357  0.0007389   0.0008446   0.          0.          0.00103058
  -0.00020166 -0.00071666]
 [ 0.         -0.          0.         -0.          0.         -0.          0.         -0.          0.         -0.          0.          0.         -0.
  -0.         -0.          0.         -0.         -0.         -0.         -0.          0.          0.          0.          0.          0.          0.
  -0.         -0.        ]
 [-0.          0.         -0.          0.         -0.          0.         -0.          0.         -0.          0.         -0.         -0.          0.
   0.          0.         -0.          0.          0.          0.          0.         -0.         -0.         -0.         -0.         -0.         -0.
   0.          0.        ]
 [-0.          0.         -0.          0.         -0.          0.         -0.          0.         -0.          0.         -0.         -0.          0.
   0.          0.         -0.          0.          0.          0.          0.         -0.         -0.         -0.         -0.         -0.         -0.
   0.          0.        ]
 [-0.          0.         -0.          0.         -0.          0.         -0.          0.         -0.          0.         -0.         -0.          0.
   0.          0.         -0.          0.          0.          0.          0.         -0.         -0.         -0.         -0.         -0.         -0.
   0.          0.        ]
 [ 0.05419265 -0.          0.         -0.02219962  0.011803   -0.          0.         -0.          0.         -0.00342704  0.00167233  0.         -0.
  -0.         -0.          0.00361009 -0.         -0.         -0.         -0.          0.00037469  0.00159508  0.00182325  0.          0.          0.00222474
  -0.00043533 -0.00154707]
 [-0.          0.         -0.          0.         -0.          0.         -0.          0.         -0.          0.         -0.         -0.          0.
   0.          0.         -0.          0.          0.          0.          0.         -0.         -0.         -0.         -0.         -0.         -0.
   0.          0.        ]
 [-0.          0.         -0.          0.         -0.          0.         -0.          0.         -0.          0.         -0.         -0.          0.
   0.          0.         -0.          0.          0.          0.          0.         -0.         -0.         -0.         -0.         -0.         -0.
   0.          0.        ]
 [-0.          0.         -0.          0.         -0.          0.         -0.          0.         -0.          0.         -0.         -0.          0.
   0.          0.         -0.          0.          0.          0.          0.         -0.         -0.         -0.         -0.         -0.         -0.
   0.          0.        ]
 [-0.          0.         -0.          0.         -0.          0.         -0.          0.         -0.          0.         -0.         -0.          0.
   0.          0.         -0.          0.          0.          0.          0.         -0.         -0.         -0.         -0.         -0.         -0.
   0.          0.        ]
 [ 0.00562461 -0.          0.         -0.00230408  0.00122502 -0.          0.         -0.          0.         -0.00035569  0.00017357  0.         -0.
  -0.         -0.          0.00037469 -0.         -0.         -0.         -0.          0.00003889  0.00016555  0.00018923  0.          0.          0.0002309
  -0.00004518 -0.00016057]
 [ 0.02394447 -0.          0.         -0.00980868  0.00521504 -0.          0.         -0.          0.         -0.0015142   0.0007389   0.         -0.
  -0.         -0.          0.00159508 -0.         -0.         -0.         -0.          0.00016555  0.00070477  0.00080559  0.          0.          0.00098298
  -0.00019235 -0.00068356]
 [ 0.02736961 -0.          0.         -0.01121176  0.00596102 -0.          0.         -0.          0.         -0.0017308   0.0008446   0.         -0.
  -0.         -0.          0.00182325 -0.         -0.         -0.         -0.          0.00018923  0.00080559  0.00092082  0.          0.          0.00112359
  -0.00021986 -0.00078134]
 [ 0.         -0.          0.         -0.          0.         -0.          0.         -0.          0.         -0.          0.          0.         -0.
  -0.         -0.          0.         -0.         -0.         -0.         -0.          0.          0.          0.          0.          0.          0.
  -0.         -0.        ]
 [ 0.         -0.          0.         -0.          0.         -0.          0.         -0.          0.         -0.          0.          0.         -0.
  -0.         -0.          0.         -0.         -0.         -0.         -0.          0.          0.          0.          0.          0.          0.
  -0.         -0.        ]
 [ 0.03339654 -0.          0.         -0.01368065  0.00727367 -0.          0.         -0.          0.         -0.00211193  0.00103058  0.         -0.
  -0.         -0.          0.00222474 -0.         -0.         -0.         -0.          0.0002309   0.00098298  0.00112359  0.          0.          0.00137101
  -0.00026827 -0.00095339]
 [-0.00653493  0.         -0.          0.00267699 -0.00142329  0.         -0.          0.         -0.          0.00041326 -0.00020166 -0.          0.
   0.          0.         -0.00043533  0.          0.          0.          0.         -0.00004518 -0.00019235 -0.00021986 -0.         -0.         -0.00026827
   0.0000525   0.00018656]
 [-0.02322378  0.         -0.          0.00951345 -0.00505807  0.         -0.          0.         -0.          0.00146863 -0.00071666 -0.          0.
   0.          0.         -0.00154707  0.          0.          0.          0.         -0.00016057 -0.00068356 -0.00078134 -0.         -0.         -0.00095339
   0.00018656  0.00066298]]

***************
SCF converged at cycle 33
Final E(SUHF) =     -1.12906098, delta E = -8.86003e-09
***** Start DFT Correlation for SUHF+DFT **********
tot grids = 20048
E(SUHF) =     -1.12906098
E_c(TPSS) =     -0.03211309
E(SUHF+DFT) =     -1.16117407
