

#INFO: **** input file is /share/home/srwang/ExSCF/test/pytest/scan_h2/scan_dft.py ****
#import phf
from pyscf import gto, scf
#import scipy
#import numpy as np
import sys, os, contextlib

from pyphf import util, sudft

#xyz = 'h2.xyz' #sys.argv[1]
fch = '../../test_carlos/test_uhf.fchk' #sys.argv[2]
bas = '../h2.bas'

for r in [0.6, 0.8, 1.0, 1.2, 1.4, 1.6, 1.8, 2.0]:
    output = 'sudft_%.1f.out' % r
    os.system("echo '\n' > %s" % output)
    with open(output, 'a', encoding='utf-8') as f:
        with contextlib.redirect_stdout(f):
            xyz = '''H 0.0 0.0 0.0; H 0.0 0.0 %f'''%r
            mf = util.guess_from_fchk(xyz, bas, fch)
            #f.flush()
            mf2 = util.SUHF(mf)
            mf2.cut_no = False
            mf2.debug = False
            mf2.max_cycle = 50
            #mf2.output = 'sudft_%.1f.out'%r
            #mf2.kernel()
            
            mf3 = sudft.SUDFT(mf2)
            mf3.kernel()
                    #INFO: ******************** input file end ********************


System: uname_result(system='Linux', node='xcluster', release='3.10.0-693.el7.x86_64', version='#1 SMP Thu Jul 6 19:56:57 EDT 2017', machine='x86_64', processor='x86_64')  Threads 16
Python 3.7.4 (default, Aug 13 2019, 20:35:49) 
[GCC 7.3.0]
numpy 1.17.2  scipy 1.4.1
Date: Thu Nov 19 17:46:24 2020
PySCF version 1.7.3
PySCF path  /share/apps/Python/Anaconda3-2019/lib/python3.7/site-packages/pyscf

[CONFIG] conf_file None
[INPUT] verbose = 4
[INPUT] num. atoms = 2
[INPUT] num. electrons = 2
[INPUT] charge = 0
[INPUT] spin (= nelec alpha-beta = 2S) = 0
[INPUT] symmetry False subgroup None
[INPUT] Mole.unit = angstrom
[INPUT]  1 H      0.000000000000   0.000000000000   0.000000000000 AA    0.000000000000   0.000000000000   0.000000000000 Bohr
[INPUT]  2 H      0.000000000000   0.000000000000   1.400000000000 AA    0.000000000000   0.000000000000   2.645616574391 Bohr

nuclear repulsion = 0.377983722085714
number of shells = 4
number of NR pGTOs = 6
number of NR cGTOs = 4
basis = ../h2.bas
ecp = {}
CPU time:       106.08


******** <class 'pyscf.scf.uhf.UHF'> ********
method = UHF
initial guess = minao
damping factor = 0
level_shift factor = 0
DIIS = <class 'pyscf.scf.diis.CDIIS'>
diis_start_cycle = 1
diis_space = 8
SCF conv_tol = 1e-09
SCF conv_tol_grad = None
SCF max_cycles = 1
direct_scf = True
direct_scf_tol = 1e-13
chkfile to save SCF result = /share/home/srwang/ExSCF/test/pytest/scan_h2/tmpt6aakn8x
max_memory 4000 MB (current use 118 MB)
number electrons alpha = 1  beta = 1
Set gradient conv threshold to 3.16228e-05
init E= -0.678250424358866
  alpha nocc = 1  HOMO = -0.339259603548926  LUMO = 0.00875497910170156
  beta  nocc = 1  HOMO = -0.330028119275293  LUMO = 0.00957382450245226
cycle= 1 E= -1.01158872384189  delta_E= -0.333  |g|= 0.00248  |ddm|= 0.495
SCF not converged.
SCF energy = -1.01158872384189 after 1 cycles  <S^2> = 1.0804822e-06  2S+1 = 1.0000022


******** <class 'pyscf.scf.uhf.UHF'> ********
method = UHF
initial guess = minao
damping factor = 0
level_shift factor = 0
DIIS = <class 'pyscf.scf.diis.CDIIS'>
diis_start_cycle = 1
diis_space = 8
SCF conv_tol = 1e-09
SCF conv_tol_grad = None
SCF max_cycles = 0
direct_scf = True
direct_scf_tol = 1e-13
chkfile to save SCF result = /share/home/srwang/ExSCF/test/pytest/scan_h2/tmpt6aakn8x
max_memory 4000 MB (current use 121 MB)
number electrons alpha = 1  beta = 1
Set gradient conv threshold to 3.16228e-05
init E= -1.04096317723509
  alpha nocc = 1  HOMO = -0.500946273135071  LUMO = 0.174206652727873
  beta  nocc = 1  HOMO = -0.50094627313507  LUMO = 0.174206652727873
SCF not converged.
SCF energy = -1.04096317723509 after 0 cycles  <S^2> = 0.73709265  2S+1 = 1.9870507

******** <class 'pyphf.util.SUHF'> ********
SVD: S^(-1/2)
[[-0.28953231  0.55836774 -0.90767553  0.74427896]
 [-0.38020109  0.32468652  0.69121684 -1.27994644]
 [-0.28953231 -0.55836774 -0.90767553 -0.74427896]
 [-0.38020109 -0.32468652  0.69121684  1.27994644]]
C (ortho)
[[-0.87509023 -0.63319212 -0.02127852 -0.10880917]
 [ 0.48906659 -0.60395014  0.26816698 -0.47116545]
 [ 0.06524136  0.15361326 -0.77375541 -0.56957281]
 [-0.13456711  0.28127048  0.52883205 -0.65796527]]
[[-0.87509023 -0.63319212 -0.02127852 -0.10880917]
 [-0.48906659  0.60395014 -0.26816698  0.47116545]
 [ 0.06524136  0.15361326 -0.77375541 -0.56957281]
 [ 0.13456711 -0.28127048 -0.52883205  0.65796527]]
grids:  [0.06237655 0.31939555 0.74529195 1.28265786 1.85893479 2.39630071 2.8221971  3.07921611] 
weights:  [0.15900941 0.34931531 0.49276925 0.56970235 0.56970235 0.49276925 0.34931531 0.15900941]
S = 0.0, Sz = 0.0
Wigner small d:  1
value : [1. 1. 1. 1. 1. 1. 1. 1.]
**** Start Cycle 1 ****
dm (ortho)
[[[ 0.76578291 -0.42797739 -0.05709208  0.11775836]
  [-0.42797739  0.23918613  0.03190737 -0.06581228]
  [-0.05709208  0.03190737  0.00425644 -0.00877934]
  [ 0.11775836 -0.06581228 -0.00877934  0.01810831]]

 [[ 0.76578291  0.42797739 -0.05709208 -0.11775836]
  [ 0.42797739  0.23918613 -0.03190737 -0.06581228]
  [-0.05709208 -0.03190737  0.00425644  0.00877934]
  [-0.11775836 -0.06581228  0.00877934  0.01810831]]]
Fock (ortho)
 (array([[-0.33668129,  0.31098847,  0.1408356 ,  0.00100138],
       [ 0.31098847,  0.23515657,  0.08619511,  0.43252463],
       [ 0.1408356 ,  0.08619511,  1.22176994,  0.04158068],
       [ 0.00100138,  0.43252463,  0.04158068,  0.99138763]]), array([[-0.33668129, -0.31098847,  0.1408356 , -0.00100138],
       [-0.31098847,  0.23515657, -0.08619511,  0.43252463],
       [ 0.1408356 , -0.08619511,  1.22176994, -0.04158068],
       [-0.00100138,  0.43252463, -0.04158068,  0.99138763]]))
E(UHF) =    -1.418947
NO eigenvalue
[-1.02733378 -0.         -0.          0.        ] [-1.02733378 -0.          0.          0.        ]
NO vec
[[-0.86337019  0.          0.          0.          0.50457102  0.          0.          0.        ]
 [ 0.48251654  0.          0.25770091  0.13819707  0.82563284  0.          0.          0.        ]
 [ 0.06436759  0.          0.05760025 -0.99015573  0.11013922  0.          0.          0.        ]
 [-0.13276486  0.          0.96450633  0.02220795 -0.22717361  0.          0.          0.        ]
 [ 0.          0.86337019  0.          0.          0.          0.01944264  0.04471497 -0.50220958]
 [ 0.          0.48251654  0.          0.          0.          0.2052649   0.09628147  0.84603427]
 [ 0.         -0.06436759  0.          0.          0.         -0.18312143  0.98050825 -0.03044551]
 [ 0.         -0.13276486  0.          0.          0.          0.9612257   0.16533005 -0.17630832]]
dm(NO)
[[ 1.02733378  0.         -0.         -0.          0.          0.          0.          0.        ]
 [ 0.          1.02733378  0.          0.          0.         -0.         -0.         -0.        ]
 [-0.          0.         -0.         -0.         -0.          0.          0.          0.        ]
 [ 0.          0.          0.          0.          0.          0.          0.          0.        ]
 [ 0.          0.          0.          0.          0.          0.          0.          0.        ]
 [ 0.         -0.          0.          0.          0.          0.         -0.         -0.        ]
 [ 0.         -0.          0.          0.          0.         -0.         -0.         -0.        ]
 [ 0.         -0.          0.          0.          0.         -0.         -0.         -0.        ]]
D(g) (NO)
[[ 0.99951369 -0.01556362  0.          0.          0.         -0.00178201  0.00152844  0.02691942]
 [ 0.01556362  0.99951369  0.00023123 -0.00397486 -0.02672665  0.          0.         -0.        ]
 [ 0.         -0.00023123  0.99951369 -0.         -0.          0.0302308   0.0075074   0.00144128]
 [ 0.          0.00397486 -0.          0.99951369 -0.          0.00720434 -0.029745    0.00446387]
 [ 0.          0.02672665 -0.         -0.          0.99951369 -0.00184762  0.00537876  0.01502447]
 [ 0.00178201  0.         -0.0302308  -0.00720434  0.00184762  0.99951369  0.          0.        ]
 [-0.00152844 -0.         -0.0075074   0.029745   -0.00537876  0.          0.99951369 -0.        ]
 [-0.02691942 -0.         -0.00144128 -0.00446387 -0.01502447  0.         -0.          0.99951369]]
...
N(g) (NO)
[[ 0.94772608  0.01475723]
 [-0.01475723  0.94772608]]
...
P(g) (NO)
[[ 1.         -0.         -0.         -0.          0.          0.         -0.         -0.        ]
 [-0.          1.          0.          0.         -0.         -0.         -0.         -0.        ]
 [ 0.0000036  -0.00023129 -0.         -0.          0.          0.          0.          0.        ]
 [-0.00006191  0.00397583  0.          0.         -0.         -0.         -0.         -0.        ]
 [-0.00041627  0.02673317  0.          0.         -0.         -0.         -0.         -0.        ]
 [ 0.00178245  0.00002775 -0.         -0.          0.         -0.         -0.         -0.        ]
 [-0.00152881 -0.00002381  0.          0.         -0.          0.          0.          0.        ]
 [-0.02692599 -0.00041927  0.          0.         -0.          0.          0.          0.        ]]
...
Pg_ortho
[[ 0.74558943 -0.41669175 -0.05558658  0.1146531   0.01164581  0.00650856 -0.00086824 -0.00179084]
 [-0.41628709  0.2326527   0.03103581 -0.0640146   0.01947904  0.01088636 -0.00145224 -0.00299539]
 [-0.05558658  0.03106598  0.00414419 -0.00854783 -0.00086824 -0.00048524  0.00006473  0.00013351]
 [ 0.11454176 -0.0640146  -0.00853953  0.01761367 -0.00535967 -0.00299539  0.00039958  0.00082418]
 [-0.01164581  0.00650856  0.00086824 -0.00179084  0.74558943  0.41669175 -0.05558658 -0.1146531 ]
 [ 0.01947904 -0.01088636 -0.00145224  0.00299539  0.41628709  0.2326527  -0.03103581 -0.0640146 ]
 [ 0.00086824 -0.00048524 -0.00006473  0.00013351 -0.05558658 -0.03106598  0.00414419  0.00854783]
 [-0.00535967  0.00299539  0.00039958 -0.00082418 -0.11454176 -0.0640146   0.00853953  0.01761367]]
G(g) (NO)
[[ 0.37305942  0.00200403  0.01308725  0.03131704 -0.07949265  0.00049698  0.00069096  0.00099473]
 [-0.00200403  0.37305942 -0.00063005 -0.00069957 -0.00090969  0.01190523  0.03965314 -0.07587495]
 [ 0.01310742 -0.00350466  0.85098896 -0.04117764  0.19303287 -0.00143839 -0.00257088 -0.0004397 ]
 [ 0.03133631  0.00066413 -0.041179    0.86481509 -0.10751294  0.00115071  0.00172099  0.00090825]
 [-0.07935726 -0.01713272  0.19304526 -0.10750861  0.9837543  -0.00217128 -0.00457324 -0.00211358]
 [ 0.00289878  0.01191746  0.00183389  0.00240808  0.00018377  0.84633508 -0.05600111  0.19601793]
 [-0.00172647  0.03966275 -0.00141269 -0.00168964 -0.00082191 -0.05600327  0.86957744 -0.09425341]
 [ 0.01717178 -0.0757376   0.00279888  0.00437049  0.00155627  0.19602949 -0.09424744  0.98364582]]
...
C(NO)
[[ 1.01357475  0.          0.22780815  0.02775117 -0.0827099   0.          0.          0.        ]
 [ 0.         -1.01357475  0.          0.          0.         -0.22780815 -0.02775117  0.0827099 ]
 [-0.          0.          0.12449681  0.53460023 -0.78883896  0.          0.          0.        ]
 [ 0.          0.         -0.22931875  0.81494252  0.48424004  0.          0.          0.        ]
 [ 0.          0.         -0.86510985  0.00531344 -0.35717158  0.          0.          0.        ]
 [ 0.          0.          0.          0.          0.         -0.18683545 -0.42209474  0.83135231]
 [ 0.          0.          0.          0.          0.          0.13395265 -0.87287637 -0.4091903 ]
 [ 0.          0.          0.          0.          0.          0.87387115 -0.09939731  0.3546033 ]]
detC -1.0273337790124544
detNg [0.8984025  0.91512301 0.99698116 1.22770089 1.73356553 2.57500692 3.34865696 3.59337888]
xg [1.05464406 1.03537432 0.95036386 0.7717636  0.54655844 0.36795818 0.28294772 0.26367797]
ciS 1.3183220391217891
[[-0.88220907  0.          0.00893924 -0.0521908   0.1190614   0.          0.          0.        ]
 [ 0.         -0.88220907  0.          0.          0.          0.01113556 -0.0609646   0.11462427]
 [ 0.00893924  0.          0.28987186  0.00141122  0.01678824  0.          0.          0.        ]
 [-0.0521908   0.          0.00141122  0.29160576 -0.11495699  0.          0.          0.        ]
 [ 0.1190614   0.          0.01678824 -0.11495699 -0.74423714  0.          0.          0.        ]
 [ 0.          0.01113556  0.          0.          0.          0.28555101 -0.00092089  0.0716933 ]
 [ 0.         -0.0609646   0.          0.          0.         -0.00092089  0.30354556 -0.01868153]
 [ 0.          0.11462427  0.          0.          0.          0.0716933  -0.01868153 -0.75185609]]
ciH -1.8962811218063933
S2 = -0.000000
X(g)
[[ 1.94678696  0.          0.00000351 -0.00006026 -0.00040519 -0.00173502  0.00148813  0.02620958]
 [-0.          1.94678696  0.00022513 -0.00387005 -0.02602189  0.00002702 -0.00002317 -0.00040811]
 [ 0.00000351 -0.00022513  0.          0.          0.          0.          0.          0.        ]
 [-0.00006026  0.00387005  0.          0.          0.          0.          0.          0.        ]
 [-0.00040519  0.02602189  0.          0.          0.          0.          0.          0.        ]
 [ 0.00173502  0.00002702  0.          0.          0.          0.          0.          0.        ]
 [-0.00148813 -0.00002317  0.          0.          0.          0.          0.          0.        ]
 [-0.02620958 -0.00040811  0.          0.          0.          0.          0.          0.        ]]
X(g) int
[[ 1.94678696 -0.          0.00288404 -0.04957704 -0.33335227 -0.03497599  0.02999901  0.52835358]
 [ 0.          1.94678696  0.00453839 -0.07801546 -0.52457007  0.02222644 -0.01906368 -0.33575661]
 [ 0.00288404 -0.00453839  0.          0.          0.          0.          0.          0.        ]
 [-0.04957704  0.07801546  0.          0.          0.          0.          0.          0.        ]
 [-0.33335227  0.52457007  0.          0.          0.          0.          0.          0.        ]
 [ 0.03497599  0.02222644  0.          0.          0.          0.          0.          0.        ]
 [-0.02999901 -0.01906368  0.          0.          0.          0.          0.          0.        ]
 [-0.52835358 -0.33575661  0.          0.          0.          0.          0.          0.        ]]
Hsp + Hph =  -1.4384050827744763
Feff (mod,ortho)
[[-0.33878491  0.33934153  0.14739507  0.0206111   0.          0.          0.          0.        ]
 [ 0.33934153  0.20412196  0.080503    0.42574444  0.          0.          0.          0.        ]
 [ 0.14739507  0.080503    1.22080356  0.04110327  0.          0.          0.          0.        ]
 [ 0.0206111   0.42574444  0.04110327  0.99746835  0.          0.          0.          0.        ]
 [ 0.          0.          0.          0.         -0.33878491 -0.33934153  0.14739507 -0.0206111 ]
 [ 0.          0.          0.          0.         -0.33934153  0.20412196 -0.080503    0.42574444]
 [ 0.          0.          0.          0.          0.14739507 -0.080503    1.22080356 -0.04110327]
 [ 0.          0.          0.          0.         -0.0206111   0.42574444 -0.04110327  0.99746835]]
E(SUHF) =     -1.06042136
e_a, e_b
[-0.52752401  0.17335791  1.1308536   1.30692146] [-0.52752401  0.17335791  1.1308536   1.30692146]
P_a, P_b
[[ 0.76235086 -0.409612   -0.04788671  0.1053418 ]
 [-0.409612    0.220085    0.02572959 -0.05660027]
 [-0.04788671  0.02572959  0.00300798 -0.006617  ]
 [ 0.1053418  -0.05660027 -0.006617    0.01455615]] 
 [[ 0.76235086  0.409612   -0.04788671 -0.1053418 ]
 [ 0.409612    0.220085   -0.02572959 -0.05660027]
 [-0.04788671 -0.02572959  0.00300798  0.006617  ]
 [-0.1053418  -0.05660027  0.006617    0.01455615]]
**** Start Cycle 2 ****
dm (ortho)
[array([[ 0.76235086, -0.409612  , -0.04788671,  0.1053418 ],
       [-0.409612  ,  0.220085  ,  0.02572959, -0.05660027],
       [-0.04788671,  0.02572959,  0.00300798, -0.006617  ],
       [ 0.1053418 , -0.05660027, -0.006617  ,  0.01455615]]), array([[ 0.76235086,  0.409612  , -0.04788671, -0.1053418 ],
       [ 0.409612  ,  0.220085  , -0.02572959, -0.05660027],
       [-0.04788671, -0.02572959,  0.00300798,  0.006617  ],
       [-0.1053418 , -0.05660027,  0.006617  ,  0.01455615]])]
Fock (ortho)
 (array([[-0.35518203,  0.29993064,  0.13548401,  0.00513723],
       [ 0.29993064,  0.22067721,  0.08706501,  0.4276034 ],
       [ 0.13548401,  0.08706501,  1.20136341,  0.04054208],
       [ 0.00513723,  0.4276034 ,  0.04054208,  0.97406204]]), array([[-0.35518203, -0.29993064,  0.13548401, -0.00513723],
       [-0.29993064,  0.22067721, -0.08706501,  0.4276034 ],
       [ 0.13548401, -0.08706501,  1.20136341, -0.04054208],
       [-0.00513723,  0.4276034 , -0.04054208,  0.97406204]]))
E(UHF) =    -1.393850
NO eigenvalue
[-1. -0. -0.  0.] [-1. -0. -0.  0.]
NO vec
[[ 0.87312706  0.         -0.46753516 -0.06240688  0.12314785  0.          0.          0.        ]
 [-0.46913218  0.         -0.83800691  0.16199675  0.22675198  0.          0.          0.        ]
 [-0.05484507  0.         -0.28133071 -0.38811194 -0.87590763  0.          0.          0.        ]
 [ 0.12064888  0.         -0.00288452  0.90511411 -0.40768121  0.          0.          0.        ]
 [ 0.          0.87312706  0.          0.          0.         -0.34347309  0.01187633  0.34573737]
 [ 0.          0.46913218  0.          0.          0.          0.41839247  0.09207589 -0.77225952]
 [ 0.         -0.05484507  0.          0.          0.         -0.0418718   0.99564379  0.06270737]
 [ 0.         -0.12064888  0.          0.          0.         -0.83977421 -0.008627   -0.52929074]]
dm(NO)
[[ 1.  0. -0.  0.  0.  0.  0.  0.]
 [ 0.  1.  0.  0.  0.  0. -0.  0.]
 [-0.  0. -0.  0.  0.  0.  0.  0.]
 [ 0.  0.  0.  0.  0.  0.  0.  0.]
 [ 0.  0. -0. -0.  0.  0.  0.  0.]
 [ 0.  0.  0.  0.  0.  0. -0. -0.]
 [ 0. -0.  0.  0.  0. -0. -0.  0.]
 [ 0.  0.  0.  0.  0. -0.  0.  0.]]
D(g) (NO)
[[ 0.99951369  0.01654949 -0.          0.          0.         -0.0185602  -0.00275888  0.01861223]
 [-0.01654949  0.99951369  0.02449679  0.00207076 -0.00970191 -0.         -0.          0.        ]
 [-0.         -0.02449679  0.99951369  0.         -0.         -0.00548288 -0.01131306  0.01463739]
 [ 0.         -0.00207076  0.          0.99951369 -0.         -0.02041338 -0.01185133 -0.02027177]
 [ 0.          0.00970191 -0.         -0.          0.99951369  0.01345897 -0.0263883   0.00088315]
 [ 0.0185602  -0.          0.00548288  0.02041338 -0.01345897  0.99951369  0.         -0.        ]
 [ 0.00275888 -0.          0.01131306  0.01185133  0.0263883   0.          0.99951369 -0.        ]
 [-0.01861223  0.         -0.01463739  0.02027177 -0.00088315  0.         -0.          0.99951369]]
...
N(g) (NO)
[[ 1.00021234 -0.01656105]
 [ 0.01656105  1.00021234]]
...
P(g) (NO)
[[ 1.          0.         -0.          0.          0.          0.         -0.          0.        ]
 [-0.          1.          0.         -0.         -0.          0.         -0.          0.        ]
 [-0.00040569 -0.02450199  0.         -0.         -0.         -0.          0.         -0.        ]
 [-0.00003429 -0.0020712   0.         -0.         -0.         -0.          0.         -0.        ]
 [ 0.00016067  0.00970397 -0.          0.          0.          0.         -0.          0.        ]
 [ 0.01856414 -0.00030738 -0.          0.          0.         -0.          0.         -0.        ]
 [ 0.00275947 -0.00004569 -0.          0.          0.         -0.          0.         -0.        ]
 [-0.01861618  0.00030824  0.         -0.         -0.          0.         -0.          0.        ]]
...
Pg_ortho
[[ 0.76253562 -0.40971127 -0.04789832  0.10536733  0.01115841  0.00599543 -0.00070091 -0.00154187]
 [-0.4092882   0.21991103  0.02570925 -0.05655553  0.01955604  0.01050748 -0.0012284  -0.00270226]
 [-0.04789832  0.02573582  0.00300871 -0.0066186  -0.00070091 -0.0003766   0.00004403  0.00009685]
 [ 0.10525853 -0.05655553 -0.00661177  0.01454465 -0.00502932 -0.00270226  0.00031591  0.00069495]
 [-0.01115841  0.00599543  0.00070091 -0.00154187  0.76253562  0.40971127 -0.04789832 -0.10536733]
 [ 0.01955604 -0.01050748 -0.0012284   0.00270226  0.4092882   0.21991103 -0.02570925 -0.05655553]
 [ 0.00070091 -0.0003766  -0.00004403  0.00009685 -0.04789832 -0.02573582  0.00300871  0.0066186 ]
 [-0.00502932  0.00270226  0.00031591 -0.00069495 -0.10525853 -0.05655553  0.00661177  0.01454465]]
G(g) (NO)
[[ 0.38092797 -0.00207002 -0.08374786 -0.03623007 -0.00592721 -0.00027616 -0.00066997  0.00127234]
 [ 0.00207002  0.38092797  0.00105752 -0.00077285 -0.00065448 -0.06741874  0.03705273  0.04942937]
 [-0.08360995  0.01709938  1.09814892 -0.09772763  0.13160866 -0.00101273  0.00476439 -0.00388836]
 [-0.03623865 -0.00053717 -0.09771442  0.78947129  0.03056209  0.00067696 -0.00081857  0.00014449]
 [-0.00597037 -0.00203631  0.13160738  0.03056363  0.81734201 -0.00061977  0.00120846 -0.00121479]
 [-0.0094109  -0.0673341  -0.00098788  0.00112575  0.0012397   0.7238733  -0.05132422 -0.06584288]
 [ 0.00153127  0.03706599  0.00089923 -0.00208297 -0.00124981 -0.05132549  0.87984625  0.118445  ]
 [ 0.01434971  0.04931268  0.00120418 -0.00455099 -0.00326538 -0.06583023  0.11844089  1.10124268]]
...
C(NO)
[[-1.01331537  0.         -0.24401469 -0.03814495  0.07789013  0.          0.          0.        ]
 [ 0.         -1.01331537  0.          0.          0.         -0.24401469 -0.03814495  0.07789013]
 [-0.01867197  0.          0.75812651  0.0013784   0.60784825  0.          0.          0.        ]
 [-0.01328069  0.          0.13664033  0.82372717 -0.44401248  0.          0.          0.        ]
 [ 0.00084641  0.         -0.46414285  0.52033037  0.64689594  0.          0.          0.        ]
 [ 0.         -0.01978959  0.          0.          0.          0.69994427  0.37160761 -0.29418814]
 [ 0.          0.00837214  0.          0.          0.          0.20345985 -0.79076696 -0.53067717]
 [ 0.          0.00800093  0.          0.          0.         -0.52681788  0.43112347 -0.78545274]]
detC 1.026808043587234
detNg [1.000699   1.01850092 1.10524034 1.34608517 1.85609262 2.6533597  3.3352665  3.541581  ]
xg [0.94780285 0.93123663 0.85815305 0.70461022 0.5110011  0.35745827 0.28437469 0.26780846]
ciS 1.2156113161081379
[[-0.887372    0.          0.1214012   0.01847548  0.01461964  0.          0.          0.        ]
 [ 0.         -0.887372    0.          0.          0.          0.07020921 -0.04568414 -0.09097776]
 [ 0.1214012   0.         -0.6119067  -0.1066799   0.34201328  0.          0.          0.        ]
 [ 0.01847548  0.         -0.1066799   0.27977597  0.04641348  0.          0.          0.        ]
 [ 0.01461964  0.          0.34201328  0.04641348  0.17453415  0.          0.          0.        ]
 [ 0.          0.07020921  0.          0.          0.         -0.25127103 -0.05677602  0.51802427]
 [ 0.         -0.04568414  0.          0.          0.         -0.05677602  0.29957565  0.0536612 ]
 [ 0.         -0.09097776  0.          0.          0.          0.51802427  0.0536612  -0.20590121]]
ciH -1.7501274005296865
S2 = 0.000000
X(g)
[[ 2.          0.         -0.00040569 -0.00003429  0.00016067 -0.01856414 -0.00275947  0.01861618]
 [-0.          2.          0.02450199  0.0020712  -0.00970397 -0.00030738 -0.00004569  0.00030824]
 [-0.00040569 -0.02450199  0.          0.          0.          0.          0.          0.        ]
 [-0.00003429 -0.0020712   0.          0.          0.          0.          0.          0.        ]
 [ 0.00016067  0.00970397  0.          0.          0.          0.          0.          0.        ]
 [ 0.01856414 -0.00030738  0.          0.          0.          0.          0.          0.        ]
 [ 0.00275947 -0.00004569  0.          0.          0.          0.          0.          0.        ]
 [-0.01861618  0.00030824  0.          0.          0.          0.          0.          0.        ]]
X(g) int
[[ 2.         -0.         -0.32529584 -0.02749787  0.12883279 -0.36473577 -0.05421611  0.36575825]
 [ 0.          2.          0.48139861  0.04069354 -0.19065699 -0.24646318 -0.0366355   0.2471541 ]
 [-0.32529584 -0.48139861  0.          0.          0.          0.          0.          0.        ]
 [-0.02749787 -0.04069354  0.          0.          0.          0.          0.          0.        ]
 [ 0.12883279  0.19065699  0.          0.          0.          0.          0.          0.        ]
 [ 0.36473577 -0.24646318  0.          0.          0.          0.          0.          0.        ]
 [ 0.05421611 -0.0366355   0.          0.          0.          0.          0.          0.        ]
 [-0.36575825  0.2471541   0.          0.          0.          0.          0.          0.        ]]
Hsp + Hph =  -1.4397096977781008
Feff (mod,ortho)
[[-0.33046613  0.32149118  0.14369729  0.03115278  0.          0.          0.          0.        ]
 [ 0.32149118  0.1903729   0.08046352  0.41843947  0.          0.          0.          0.        ]
 [ 0.14369729  0.08046352  1.20023406  0.04025736  0.          0.          0.          0.        ]
 [ 0.03115278  0.41843947  0.04025736  0.98077979  0.          0.          0.          0.        ]
 [ 0.          0.          0.          0.         -0.33046613 -0.32149118  0.14369729 -0.03115278]
 [ 0.          0.          0.          0.         -0.32149118  0.1903729  -0.08046352  0.41843947]
 [ 0.          0.          0.          0.          0.14369729 -0.08046352  1.20023406 -0.04025736]
 [ 0.          0.          0.          0.         -0.03115278  0.41843947 -0.04025736  0.98077979]]
E(SUHF) =     -1.06172598
e_a, e_b
[-0.50653371  0.15183512  1.11080477  1.28481445] [-0.50653371  0.15183512  1.11080477  1.28481445]
P_a, P_b
[[ 0.76658256 -0.40822315 -0.04765606  0.10008247]
 [-0.40822315  0.21738838  0.02537797 -0.05329626]
 [-0.04765606  0.02537797  0.00296263 -0.00622182]
 [ 0.10008247 -0.05329626 -0.00622182  0.01306643]] 
 [[ 0.76658256  0.40822315 -0.04765606 -0.10008247]
 [ 0.40822315  0.21738838 -0.02537797 -0.05329626]
 [-0.04765606 -0.02537797  0.00296263  0.00622182]
 [-0.10008247 -0.05329626  0.00622182  0.01306643]]
**** Start Cycle 3 ****
dm (ortho)
[array([[ 0.76658256, -0.40822315, -0.04765606,  0.10008247],
       [-0.40822315,  0.21738838,  0.02537797, -0.05329626],
       [-0.04765606,  0.02537797,  0.00296263, -0.00622182],
       [ 0.10008247, -0.05329626, -0.00622182,  0.01306643]]), array([[ 0.76658256,  0.40822315, -0.04765606, -0.10008247],
       [ 0.40822315,  0.21738838, -0.02537797, -0.05329626],
       [-0.04765606, -0.02537797,  0.00296263,  0.00622182],
       [-0.10008247, -0.05329626,  0.00622182,  0.01306643]])]
Fock (ortho)
 (array([[-0.35549212,  0.29963201,  0.1355518 ,  0.00732979],
       [ 0.29963201,  0.22257095,  0.08794377,  0.42710825],
       [ 0.1355518 ,  0.08794377,  1.2023647 ,  0.04068619],
       [ 0.00732979,  0.42710825,  0.04068619,  0.97498076]]), array([[-0.35549212, -0.29963201,  0.1355518 , -0.00732979],
       [-0.29963201,  0.22257095, -0.08794377,  0.42710825],
       [ 0.1355518 , -0.08794377,  1.2023647 , -0.04068619],
       [-0.00732979,  0.42710825, -0.04068619,  0.97498076]]))
E(UHF) =    -1.393817
NO eigenvalue
[-1. -0.  0.  0.] [-1. -0. -0.  0.]
NO vec
[[ 0.87554701  0.          0.48241478 -0.02545713 -0.00673432  0.          0.          0.        ]
 [-0.46624926  0.          0.84976133  0.00226607  0.24599223  0.          0.          0.        ]
 [-0.05443004  0.          0.04433748 -0.96636065 -0.24742405  0.          0.          0.        ]
 [ 0.11430851  0.         -0.20788423 -0.25591776  0.93713596  0.          0.          0.        ]
 [ 0.          0.87554701  0.          0.          0.          0.47195549  0.00766652  0.10303726]
 [ 0.          0.46624926  0.          0.          0.         -0.7693804  -0.02528971 -0.43591955]
 [ 0.         -0.05443004  0.          0.          0.          0.19030327 -0.91907258 -0.34077503]
 [ 0.         -0.11430851  0.          0.          0.          0.38613012  0.39320128 -0.82657719]]
dm(NO)
[[ 1.  0.  0. -0. -0.  0.  0.  0.]
 [ 0.  1.  0.  0.  0. -0.  0.  0.]
 [ 0.  0.  0.  0.  0.  0.  0.  0.]
 [-0.  0.  0. -0. -0.  0.  0.  0.]
 [-0.  0.  0. -0.  0.  0.  0.  0.]
 [ 0. -0.  0.  0.  0.  0. -0.  0.]
 [ 0. -0.  0.  0.  0. -0.  0. -0.]
 [ 0. -0.  0.  0.  0.  0.  0.  0.]]
D(g) (NO)
[[ 0.99951369  0.01681057 -0.         -0.         -0.          0.025125    0.00353852  0.00678312]
 [-0.01681057  0.99951369 -0.02619163 -0.00189033 -0.00047218 -0.          0.         -0.        ]
 [-0.          0.02619163  0.99951369  0.          0.         -0.0155275  -0.00437443 -0.00511397]
 [-0.          0.00189033  0.          0.99951369  0.         -0.00924511  0.0245498   0.01675276]
 [-0.          0.00047218  0.          0.          0.99951369  0.00381467  0.01838597 -0.02489125]
 [-0.025125   -0.          0.0155275   0.00924511 -0.00381467  0.99951369  0.          0.        ]
 [-0.00353852  0.          0.00437443 -0.0245498  -0.01838597  0.          0.99951369 -0.        ]
 [-0.00678312 -0.          0.00511397 -0.01675276  0.02489125  0.         -0.          0.99951369]]
...
N(g) (NO)
[[ 1.00020362 -0.01682218]
 [ 0.01682218  1.00020362]]
...
P(g) (NO)
[[ 1.          0.          0.         -0.         -0.         -0.          0.          0.        ]
 [-0.          1.         -0.          0.          0.         -0.          0.          0.        ]
 [ 0.0004406   0.02619696  0.         -0.         -0.         -0.          0.          0.        ]
 [ 0.0000318   0.00189072  0.         -0.         -0.         -0.          0.          0.        ]
 [ 0.00000794  0.00047228  0.         -0.         -0.         -0.          0.          0.        ]
 [-0.02513012  0.00042266 -0.          0.          0.         -0.          0.          0.        ]
 [-0.00353924  0.00005953 -0.          0.          0.         -0.          0.          0.        ]
 [-0.0067845   0.00011411 -0.          0.          0.         -0.          0.          0.        ]]
...
Pg_ortho
[[ 0.7667679  -0.40832185 -0.04766758  0.10010667  0.01102006  0.00586844 -0.00068508 -0.00143874]
 [-0.40789356  0.21721287  0.02535748 -0.05325323  0.01959617  0.01043542 -0.00121823 -0.00255841]
 [-0.04766758  0.0253841   0.00296335 -0.00622332 -0.00068508 -0.00036482  0.00004259  0.00008944]
 [ 0.10000167 -0.05325323 -0.00621679  0.01305589 -0.00480432 -0.00255841  0.00029867  0.00062724]
 [-0.01102006  0.00586844  0.00068508 -0.00143874  0.7667679   0.40832185 -0.04766758 -0.10010667]
 [ 0.01959617 -0.01043542 -0.00121823  0.00255841  0.40789356  0.21721287 -0.02535748 -0.05325323]
 [ 0.00068508 -0.00036482 -0.00004259  0.00008944 -0.04766758 -0.0253841   0.00296335  0.00622332]
 [-0.00480432  0.00255841  0.00029867 -0.00062724 -0.10000167 -0.05325323  0.00621679  0.01305589]]
G(g) (NO)
[[ 0.38288543 -0.00206579  0.08176843 -0.03479651 -0.02337599  0.00089975  0.00040017  0.00112344]
 [ 0.00206579  0.38288543 -0.00116137 -0.00044031 -0.00083015  0.08785734 -0.02583626 -0.0075423 ]
 [ 0.08162375 -0.01671581  0.97591115 -0.16846116  0.1479727   0.00082971  0.00276136  0.00445209]
 [-0.03479948  0.0028829  -0.16846123  0.91128072 -0.03357464 -0.00037623 -0.00141967 -0.00302638]
 [-0.0234004  -0.00274827  0.14795947 -0.03357214  0.81931426 -0.00044492  0.00101903  0.00165484]
 [ 0.0158797   0.0877227  -0.00207171 -0.0029606  -0.00353418  0.93330402 -0.17371879  0.154047  ]
 [-0.00211469 -0.02584548  0.00102032  0.00165756  0.00257926 -0.17371673  0.89415952 -0.05387771]
 [ 0.00621656 -0.00759995 -0.0003581  -0.00173827 -0.00207051  0.15403375 -0.05387652  0.87904258]]
...
C(NO)
[[-1.01314282  0.         -0.24900772 -0.04109747  0.08020384  0.          0.          0.        ]
 [ 0.         -1.01314282  0.          0.          0.         -0.24900772 -0.04109747  0.08020384]
 [ 0.02430042  0.         -0.87033558  0.07337065 -0.34134214  0.          0.          0.        ]
 [-0.00522303  0.         -0.20567726  0.61353864  0.72050002  0.          0.          0.        ]
 [-0.01605024  0.          0.08127815  0.75314352 -0.59084719  0.          0.          0.        ]
 [ 0.          0.02765067  0.          0.          0.         -0.8428798  -0.15516627 -0.2681899 ]
 [ 0.         -0.00139014  0.          0.          0.         -0.27190575  0.50981868  0.76944171]
 [ 0.         -0.01043594  0.          0.          0.         -0.14837185  0.81550378 -0.56636452]]
detC 1.0264583783034542
detNg [1.00069027 1.01826601 1.10379186 1.34030118 1.83648835 2.59976244 3.24089454 3.43279004]
xg [0.94845697 0.93208617 0.85986471 0.70813313 0.51680789 0.36507631 0.29285484 0.27648404]
ciS 1.2249410149684532
[[-0.88833389  0.         -0.11222052  0.05194428 -0.00613464  0.          0.          0.        ]
 [ 0.         -0.88833389  0.          0.          0.         -0.11245965  0.04475537 -0.02605899]
 [-0.11222052  0.         -0.74850112 -0.05431461  0.02206641  0.          0.          0.        ]
 [ 0.05194428  0.         -0.05431461  0.3011459   0.00579736  0.          0.          0.        ]
 [-0.00613464  0.          0.02206641  0.00579736  0.29072051  0.          0.          0.        ]
 [ 0.         -0.11245965  0.          0.          0.         -0.68658931 -0.12387705 -0.22130065]
 [ 0.          0.04475537  0.          0.          0.         -0.12387705  0.28731099 -0.02162179]
 [ 0.         -0.02605899  0.          0.          0.         -0.22130065 -0.02162179  0.24264362]]
ciH -1.7637723229322888
S2 = -0.000000
X(g)
[[ 2.          0.          0.0004406   0.0000318   0.00000794  0.02513012  0.00353924  0.0067845 ]
 [-0.          2.         -0.02619696 -0.00189072 -0.00047228  0.00042266  0.00005953  0.00011411]
 [ 0.0004406   0.02619696  0.          0.          0.          0.          0.          0.        ]
 [ 0.0000318   0.00189072  0.          0.          0.          0.          0.          0.        ]
 [ 0.00000794  0.00047228  0.          0.          0.          0.          0.          0.        ]
 [-0.02513012  0.00042266  0.          0.          0.          0.          0.          0.        ]
 [-0.00353924  0.00005953  0.          0.          0.          0.          0.          0.        ]
 [-0.0067845   0.00011411  0.          0.          0.          0.          0.          0.        ]]
X(g) int
[[ 2.          0.          0.35083692  0.02532104  0.00632487  0.49031733  0.06905461  0.13237338]
 [-0.          2.         -0.51113261 -0.0368901  -0.00921468  0.33654949  0.04739847  0.09085992]
 [ 0.35083692  0.51113261  0.          0.          0.          0.          0.          0.        ]
 [ 0.02532104  0.0368901   0.          0.          0.          0.          0.          0.        ]
 [ 0.00632487  0.00921468  0.          0.          0.          0.          0.          0.        ]
 [-0.49031733  0.33654949  0.          0.          0.          0.          0.          0.        ]
 [-0.06905461  0.04739847  0.          0.          0.          0.          0.          0.        ]
 [-0.13237338  0.09085992  0.          0.          0.          0.          0.          0.        ]]
Hsp + Hph =  -1.4398834730647931
Feff (mod,ortho)
[[-0.32959849  0.32267157  0.14386155  0.03629097  0.          0.          0.          0.        ]
 [ 0.32267157  0.19068979  0.08122912  0.41649395  0.          0.          0.          0.        ]
 [ 0.14386155  0.08122912  1.20123145  0.04018081  0.          0.          0.          0.        ]
 [ 0.03629097  0.41649395  0.04018081  0.98210155  0.          0.          0.          0.        ]
 [ 0.          0.          0.          0.         -0.32959849 -0.32267157  0.14386155 -0.03629097]
 [ 0.          0.          0.          0.         -0.32267157  0.19068979 -0.08122912  0.41649395]
 [ 0.          0.          0.          0.          0.14386155 -0.08122912  1.20123145 -0.04018081]
 [ 0.          0.          0.          0.         -0.03629097  0.41649395 -0.04018081  0.98210155]]
E(SUHF) =     -1.06189975
e_a, e_b
[-0.50550348  0.15245035  1.11106224  1.28641519] [-0.50550348  0.15245035  1.11106224  1.28641519]
P_a, P_b
[[ 0.76776924 -0.40823637 -0.04756646  0.09685108]
 [-0.40823637  0.21706644  0.02529192 -0.05149742]
 [-0.04756646  0.02529192  0.00294694 -0.00600032]
 [ 0.09685108 -0.05149742 -0.00600032  0.01221738]] 
 [[ 0.76776924  0.40823637 -0.04756646 -0.09685108]
 [ 0.40823637  0.21706644 -0.02529192 -0.05149742]
 [-0.04756646 -0.02529192  0.00294694  0.00600032]
 [-0.09685108 -0.05149742  0.00600032  0.01221738]]
**** Start Cycle 4 ****
dm (ortho)
[array([[ 0.76776924, -0.40823637, -0.04756646,  0.09685108],
       [-0.40823637,  0.21706644,  0.02529192, -0.05149742],
       [-0.04756646,  0.02529192,  0.00294694, -0.00600032],
       [ 0.09685108, -0.05149742, -0.00600032,  0.01221738]]), array([[ 0.76776924,  0.40823637, -0.04756646, -0.09685108],
       [ 0.40823637,  0.21706644, -0.02529192, -0.05149742],
       [-0.04756646, -0.02529192,  0.00294694,  0.00600032],
       [-0.09685108, -0.05149742,  0.00600032,  0.01221738]])]
Fock (ortho)
 (array([[-0.35521796,  0.30009169,  0.13564603,  0.0087712 ],
       [ 0.30009169,  0.22327474,  0.08866554,  0.42680577],
       [ 0.13564603,  0.08866554,  1.20295976,  0.04086685],
       [ 0.0087712 ,  0.42680577,  0.04086685,  0.97553297]]), array([[-0.35521796, -0.30009169,  0.13564603, -0.0087712 ],
       [-0.30009169,  0.22327474, -0.08866554,  0.42680577],
       [ 0.13564603, -0.08866554,  1.20295976, -0.04086685],
       [-0.0087712 ,  0.42680577, -0.04086685,  0.97553297]]))
E(UHF) =    -1.393491
NO eigenvalue
[-1. -0. -0.  0.] [-1. -0.  0.  0.]
NO vec
[[ 0.87622442  0.          0.47839529 -0.03560864 -0.0458337   0.          0.          0.        ]
 [-0.46590389  0.          0.87173863  0.08939613  0.1225302   0.          0.          0.        ]
 [-0.05428571  0.          0.04472662 -0.97928956  0.189854    0.          0.          0.        ]
 [ 0.11053227  0.         -0.09596473  0.17813564  0.97305759  0.          0.          0.        ]
 [ 0.          0.87622442  0.          0.          0.         -0.32949995  0.00068247  0.35165334]
 [ 0.          0.46590389  0.          0.          0.          0.74648868 -0.11384794 -0.46122322]
 [ 0.         -0.05428571  0.          0.          0.         -0.07803723 -0.99340728  0.06407211]
 [ 0.         -0.11053227  0.          0.          0.          0.57279544  0.01342246  0.81210088]]
dm(NO)
[[ 1.  0. -0.  0. -0.  0.  0.  0.]
 [ 0.  1.  0.  0.  0. -0.  0.  0.]
 [-0.  0.  0.  0. -0.  0.  0.  0.]
 [-0.  0.  0.  0.  0.  0.  0.  0.]
 [-0.  0.  0.  0.  0.  0.  0.  0.]
 [ 0. -0.  0.  0.  0. -0.  0. -0.]
 [ 0. -0.  0.  0.  0.  0. -0. -0.]
 [ 0.  0.  0.  0.  0. -0.  0.  0.]]
D(g) (NO)
[[ 0.99951369  0.0168836  -0.         -0.         -0.         -0.01774198  0.00340058  0.01899988]
 [-0.0168836   0.99951369 -0.02599144 -0.00136958  0.00314745 -0.         -0.          0.        ]
 [-0.          0.02599144  0.99951369 -0.         -0.          0.01355389 -0.00451031 -0.00963262]
 [ 0.          0.00136958 -0.          0.99951369  0.          0.00801167  0.03009251  0.00087829]
 [-0.         -0.00314745 -0.          0.          0.99951369  0.02024155 -0.00590992  0.02275608]
 [ 0.01774198 -0.         -0.01355389 -0.00801167 -0.02024155  0.99951369  0.         -0.        ]
 [-0.00340058 -0.          0.00451031 -0.03009251  0.00590992  0.          0.99951369  0.        ]
 [-0.01899988  0.          0.00963262 -0.00087829 -0.02275608 -0.          0.          0.99951369]]
...
N(g) (NO)
[[ 1.00020116 -0.01689522]
 [ 0.01689522  1.00020116]]
...
P(g) (NO)
[[ 1.         -0.         -0.          0.         -0.          0.          0.         -0.        ]
 [ 0.          1.         -0.          0.         -0.         -0.          0.          0.        ]
 [ 0.00043913  0.02599667 -0.          0.         -0.         -0.          0.          0.        ]
 [ 0.00002314  0.00136986 -0.          0.         -0.         -0.          0.          0.        ]
 [-0.00005318 -0.00314808  0.         -0.          0.          0.         -0.         -0.        ]
 [ 0.01774555 -0.00029975 -0.          0.         -0.          0.         -0.         -0.        ]
 [-0.00340126  0.00005745  0.         -0.          0.         -0.          0.          0.        ]
 [-0.0190037   0.00032101  0.         -0.          0.         -0.          0.          0.        ]]
...
Pg_ortho
[[ 0.76795473 -0.408335   -0.04757796  0.09687448  0.01098101  0.0058388  -0.00068032 -0.00138521]
 [-0.40790484  0.21689016  0.02527138 -0.0514556   0.01962657  0.01043579 -0.00121595 -0.00247582]
 [-0.04757796  0.02529803  0.00294765 -0.00600177 -0.00068032 -0.00036174  0.00004215  0.00008582]
 [ 0.09677242 -0.0514556  -0.00599545  0.01220746 -0.00465626 -0.00247582  0.00028847  0.00058737]
 [-0.01098101  0.0058388   0.00068032 -0.00138521  0.76795473  0.408335   -0.04757796 -0.09687448]
 [ 0.01962657 -0.01043579 -0.00121595  0.00247582  0.40790484  0.21689016 -0.02527138 -0.0514556 ]
 [ 0.00068032 -0.00036174 -0.00004215  0.00008582 -0.04757796 -0.02529803  0.00294765  0.00600177]
 [-0.00465626  0.00247582  0.00028847 -0.00058737 -0.09677242 -0.0514556   0.00599545  0.01220746]]
G(g) (NO)
[[ 0.38356063 -0.00205904  0.07962505 -0.04303132 -0.01507508 -0.00126909  0.00070832  0.0003725 ]
 [ 0.00205904  0.38356063 -0.00124307 -0.00073032 -0.0004153  -0.04702212 -0.03487294  0.07065337]
 [ 0.07947796 -0.0170071   1.01704071 -0.09708068  0.18850268 -0.00339559  0.00438432 -0.00065913]
 [-0.04304176  0.00178605 -0.09708653  0.87218815 -0.05134238  0.00175217 -0.0015829   0.00023872]
 [-0.01508056 -0.00192831  0.1884907  -0.05134016  0.81872572 -0.00134796  0.00203236 -0.00098224]
 [-0.01397922 -0.0469064   0.00202746  0.00488728  0.00211938  1.10052907  0.11156144 -0.08834529]
 [-0.00115374 -0.03489045  0.00119389  0.00186523  0.00111884  0.11156506  0.87493108 -0.05856068]
 [ 0.00996995  0.07056352 -0.00141477 -0.00168463 -0.00049801 -0.08835827 -0.05855954  0.73249442]]
...
C(NO)
[[-1.01304914  0.         -0.25068522 -0.04312793  0.08236983  0.          0.          0.        ]
 [ 0.         -1.01304914  0.          0.          0.         -0.25068522 -0.04312793  0.08236983]
 [ 0.02353091  0.         -0.84952424  0.13823528 -0.42512052  0.          0.          0.        ]
 [-0.01297995  0.         -0.13177126  0.87666523  0.40232382  0.          0.          0.        ]
 [-0.01852116  0.          0.25787587  0.40151731 -0.80111865  0.          0.          0.        ]
 [ 0.         -0.00475231  0.          0.          0.          0.48638072 -0.43570321  0.80889968]
 [ 0.         -0.00792302  0.          0.          0.         -0.22556648  0.79207177  0.52093381]
 [ 0.          0.03130268  0.          0.          0.         -0.71979763 -0.36283894  0.24226489]]
detC 1.0262685627462287
detNg [1.00068781 1.01819967 1.10338333 1.3386761  1.83102459 2.58501029 3.2151926  3.40325507]
xg [0.94881019 0.93249175 0.8605013  0.70925506 0.5185418  0.36729556 0.29530511 0.27898667]
ciS 1.2277968560492356
[[-0.88850858  0.         -0.11406371  0.04564892 -0.01936979  0.          0.          0.        ]
 [ 0.         -0.88850858  0.          0.          0.          0.09521661  0.04196327 -0.06813533]
 [-0.11406371  0.         -0.72686448 -0.01683115  0.15723684  0.          0.          0.        ]
 [ 0.04564892  0.         -0.01683115  0.30500864  0.00066481  0.          0.          0.        ]
 [-0.01936979  0.          0.15723684  0.00066481  0.26539584  0.          0.          0.        ]
 [ 0.          0.09521661  0.          0.          0.         -0.15042038  0.06799419  0.50968591]
 [ 0.          0.04196327  0.          0.          0.          0.06799419  0.29488768 -0.08019774]
 [ 0.         -0.06813533  0.          0.          0.          0.50968591 -0.08019774 -0.30092731]]
ciH -1.76796774213
S2 = -0.000000
X(g)
[[ 2.         -0.          0.00043913  0.00002314 -0.00005318 -0.01774555  0.00340126  0.0190037 ]
 [-0.          2.         -0.02599667 -0.00136986  0.00314808 -0.00029975  0.00005745  0.00032101]
 [ 0.00043913  0.02599667  0.          0.          0.          0.          0.          0.        ]
 [ 0.00002314  0.00136986  0.          0.          0.          0.          0.          0.        ]
 [-0.00005318 -0.00314808  0.          0.          0.          0.          0.          0.        ]
 [ 0.01774555 -0.00029975  0.          0.          0.          0.          0.          0.        ]
 [-0.00340126  0.00005745  0.          0.          0.          0.          0.          0.        ]
 [-0.0190037   0.00032101  0.          0.          0.          0.          0.          0.        ]]
X(g) int
[[ 2.         -0.          0.3489836   0.01838922 -0.04226033 -0.34555918  0.06623285  0.37005914]
 [ 0.          2.         -0.50623328 -0.02667528  0.06130255 -0.2382192   0.04565915  0.25510881]
 [ 0.3489836   0.50623328  0.          0.          0.          0.          0.          0.        ]
 [ 0.01838922  0.02667528  0.          0.          0.          0.          0.          0.        ]
 [-0.04226033 -0.06130255  0.          0.          0.          0.          0.          0.        ]
 [ 0.34555918 -0.2382192   0.          0.          0.          0.          0.          0.        ]
 [-0.06623285  0.04565915  0.          0.          0.          0.          0.          0.        ]
 [-0.37005914  0.25510881  0.          0.          0.          0.          0.          0.        ]]
Hsp + Hph =  -1.4399513514140347
Feff (mod,ortho)
[[-0.32890148  0.3237328   0.14394426  0.03973764  0.          0.          0.          0.        ]
 [ 0.3237328   0.19069367  0.08192164  0.41508775  0.          0.          0.          0.        ]
 [ 0.14394426  0.08192164  1.20183053  0.04020081  0.          0.          0.          0.        ]
 [ 0.03973764  0.41508775  0.04020081  0.98292679  0.          0.          0.          0.        ]
 [ 0.          0.          0.          0.         -0.32890148 -0.3237328   0.14394426 -0.03973764]
 [ 0.          0.          0.          0.         -0.3237328   0.19069367 -0.08192164  0.41508775]
 [ 0.          0.          0.          0.          0.14394426 -0.08192164  1.20183053 -0.04020081]
 [ 0.          0.          0.          0.         -0.03973764  0.41508775 -0.04020081  0.98292679]]
E(SUHF) =     -1.06196763
e_a, e_b
[-0.50499205  0.15298752  1.11100703  1.28754701] [-0.50499205  0.15298752  1.11100703  1.28754701]
P_a, P_b
[[ 0.76826736 -0.40843025 -0.04741885  0.09470378]
 [-0.40843025  0.21713179  0.02520905 -0.05034691]
 [-0.04741885  0.02520905  0.00292678 -0.00584529]
 [ 0.09470378 -0.05034691 -0.00584529  0.01167407]] 
 [[ 0.76826736  0.40843025 -0.04741885 -0.09470378]
 [ 0.40843025  0.21713179 -0.02520905 -0.05034691]
 [-0.04741885 -0.02520905  0.00292678  0.00584529]
 [-0.09470378 -0.05034691  0.00584529  0.01167407]]
**** Start Cycle 5 ****
dm (ortho)
[array([[ 0.76826736, -0.40843025, -0.04741885,  0.09470378],
       [-0.40843025,  0.21713179,  0.02520905, -0.05034691],
       [-0.04741885,  0.02520905,  0.00292678, -0.00584529],
       [ 0.09470378, -0.05034691, -0.00584529,  0.01167407]]), array([[ 0.76826736,  0.40843025, -0.04741885, -0.09470378],
       [ 0.40843025,  0.21713179, -0.02520905, -0.05034691],
       [-0.04741885, -0.02520905,  0.00292678,  0.00584529],
       [-0.09470378, -0.05034691,  0.00584529,  0.01167407]])]
Fock (ortho)
 (array([[-0.35491955,  0.30054949,  0.13569472,  0.00975979],
       [ 0.30054949,  0.22367517,  0.08921853,  0.42661156],
       [ 0.13569472,  0.08921853,  1.20337727,  0.04101176],
       [ 0.00975979,  0.42661156,  0.04101176,  0.97591732]]), array([[-0.35491955, -0.30054949,  0.13569472, -0.00975979],
       [-0.30054949,  0.22367517, -0.08921853,  0.42661156],
       [ 0.13569472, -0.08921853,  1.20337727, -0.04101176],
       [-0.00975979,  0.42661156, -0.04101176,  0.97591732]]))
E(UHF) =    -1.393197
NO eigenvalue
[-1. -0.  0.  0.] [-1. -0. -0.  0.]
NO vec
[[ 0.87650862  0.         -0.09517826 -0.01185369 -0.47173428  0.          0.          0.        ]
 [-0.46597403  0.         -0.39916388  0.06556089 -0.78691688  0.          0.          0.        ]
 [-0.0540997   0.          0.08217771 -0.9908677  -0.09220222  0.          0.          0.        ]
 [ 0.1080466   0.         -0.9082159  -0.11722825  0.38694618  0.          0.          0.        ]
 [ 0.          0.87650862  0.          0.          0.          0.47010159  0.05502517  0.08780301]
 [ 0.          0.46597403  0.          0.          0.         -0.88027907  0.08914269  0.00552652]
 [ 0.         -0.0540997   0.          0.          0.          0.06256475  0.92379496 -0.37384723]
 [ 0.         -0.1080466   0.          0.          0.         -0.01410341  0.36827801  0.92330836]]
dm(NO)
[[ 1.  0. -0. -0. -0.  0.  0.  0.]
 [ 0.  1.  0.  0.  0. -0.  0. -0.]
 [-0.  0.  0. -0.  0.  0.  0.  0.]
 [-0.  0. -0.  0. -0.  0.  0.  0.]
 [-0.  0. -0. -0. -0.  0.  0.  0.]
 [ 0. -0.  0.  0.  0.  0. -0. -0.]
 [ 0.  0.  0.  0.  0.  0. -0.  0.]
 [ 0. -0.  0.  0.  0.  0.  0. -0.]]
D(g) (NO)
[[ 0.99951369  0.01691341 -0.          0.         -0.          0.02548688 -0.00010895  0.00606109]
 [-0.01691341  0.99951369  0.00548016 -0.00269521  0.02547613 -0.          0.         -0.        ]
 [-0.         -0.00548016  0.99951369 -0.          0.          0.01012153 -0.00933564 -0.0274365 ]
 [ 0.          0.00269521 -0.          0.99951369  0.         -0.00385501 -0.02972818  0.00815494]
 [-0.         -0.02547613  0.          0.          0.99951369  0.01433547 -0.0012092   0.01078851]
 [-0.02548688 -0.         -0.01012153  0.00385501 -0.01433547  0.99951369 -0.         -0.        ]
 [ 0.00010895  0.          0.00933564  0.02972818  0.0012092  -0.          0.99951369  0.        ]
 [-0.00606109 -0.          0.0274365  -0.00815494 -0.01078851 -0.          0.          0.99951369]]
...
N(g) (NO)
[[ 1.00020015 -0.01692503]
 [ 0.01692503  1.00020015]]
...
P(g) (NO)
[[ 1.         -0.         -0.         -0.         -0.          0.         -0.          0.        ]
 [-0.          1.          0.          0.          0.         -0.          0.         -0.        ]
 [-0.00009275 -0.00548126  0.          0.          0.          0.         -0.          0.        ]
 [ 0.00004562  0.00269575 -0.         -0.         -0.         -0.          0.         -0.        ]
 [-0.00043118 -0.02548123  0.          0.          0.          0.         -0.          0.        ]
 [-0.02549198  0.00043137  0.          0.          0.         -0.          0.         -0.        ]
 [ 0.00010898 -0.00000184 -0.         -0.         -0.          0.         -0.          0.        ]
 [-0.0060623   0.00010258  0.          0.          0.         -0.          0.         -0.        ]]
...
Pg_ortho
[[ 0.76845291 -0.40852889 -0.0474303   0.09472665  0.01096522  0.00582939 -0.00067679 -0.00135168]
 [-0.40809777  0.21695504  0.02518853 -0.05030593  0.01964805  0.0104454  -0.00121271 -0.002422  ]
 [-0.0474303   0.02521514  0.00292748 -0.0058467  -0.00067679 -0.0003598   0.00004177  0.00008343]
 [ 0.09462669 -0.05030593 -0.00584053  0.01166457 -0.00455584 -0.002422    0.00028119  0.0005616 ]
 [-0.01096522  0.00582939  0.00067679 -0.00135168  0.76845291  0.40852889 -0.0474303  -0.09472665]
 [ 0.01964805 -0.0104454  -0.00121271  0.002422    0.40809777  0.21695504 -0.02518853 -0.05030593]
 [ 0.00067679 -0.0003598  -0.00004177  0.00008343 -0.0474303  -0.02521514  0.00292748  0.0058467 ]
 [-0.00455584  0.002422    0.00028119 -0.0005616  -0.09462669 -0.05030593  0.00584053  0.01166457]]
G(g) (NO)
[[ 0.38391821 -0.00205425  0.00146267 -0.03505686 -0.08462025  0.00128803 -0.00076462 -0.00011837]
 [ 0.00205425  0.38391821  0.00095198 -0.00060054  0.00099537  0.07722178  0.04697539  0.01489355]
 [ 0.0015159   0.00648097  0.90358175  0.06812409  0.19062193 -0.00099724  0.00322878  0.00066646]
 [-0.03506795  0.00198778  0.06812663  0.89137969  0.13190964 -0.00146086  0.00242782  0.00066876]
 [-0.08448261  0.01584967  0.1906352   0.13190843  0.9141352  -0.00244433  0.00418066  0.00044571]
 [ 0.01713877  0.0770745   0.00389351 -0.00417328  0.00123678  1.05664904  0.06904319 -0.17936689]
 [ 0.00179847  0.04698334  0.00147424 -0.00110395  0.00077619  0.06905141  0.85345321 -0.0559638 ]
 [-0.00044059  0.01488139 -0.00179323  0.00163274  0.00009646 -0.17935623 -0.05596211  0.7989944 ]]
...
C(NO)
[[-1.01298551  0.         -0.25149338 -0.04461122  0.08390149  0.          0.          0.        ]
 [ 0.         -1.01298551  0.          0.          0.         -0.25149338 -0.04461122  0.08390149]
 [ 0.01564922  0.          0.05851047 -0.64889644  0.74919683  0.          0.          0.        ]
 [-0.00643381  0.         -0.21727311  0.72252868  0.61190318  0.          0.          0.        ]
 [-0.03013032  0.          0.86863004  0.0749842   0.22001578  0.          0.          0.        ]
 [ 0.          0.02131773  0.          0.          0.         -0.81573164  0.18510724 -0.51082318]
 [ 0.          0.01807905  0.          0.          0.          0.05731765 -0.93462454 -0.24784064]
 [ 0.          0.02031824  0.          0.          0.         -0.36938571 -0.20235908  0.81348819]]
detC 1.0261396505332374
detNg [1.0006868  1.01817251 1.10321616 1.3380119  1.82879703 2.57901878 3.20478715 3.39130921]
xg [0.94904956 0.93275094 0.86084795 0.70978544 0.51930386 0.36824135 0.29633836 0.28003974]
ciS 1.2290892993512135
[[-0.8885404   0.          0.04246334  0.04727168  0.10745605  0.          0.          0.        ]
 [ 0.         -0.8885404   0.          0.          0.         -0.11598883 -0.04253866  0.0179333 ]
 [ 0.04246334  0.          0.2617038   0.010782   -0.16829002  0.          0.          0.        ]
 [ 0.04727168  0.          0.010782    0.29856882  0.08172248  0.          0.          0.        ]
 [ 0.10745605  0.         -0.16829002  0.08172248 -0.7167008   0.          0.          0.        ]
 [ 0.         -0.11598883  0.          0.          0.         -0.67954769 -0.03884065 -0.26085107]
 [ 0.         -0.04253866  0.          0.          0.         -0.03884065  0.30244581 -0.01526075]
 [ 0.          0.0179333   0.          0.          0.         -0.26085107 -0.01526075  0.2206737 ]]
ciH -1.7698674473047307
S2 = 0.000000
X(g)
[[ 2.         -0.         -0.00009275  0.00004562 -0.00043118  0.02549198 -0.00010898  0.0060623 ]
 [ 0.          2.          0.00548126 -0.00269575  0.02548123  0.00043137 -0.00000184  0.00010258]
 [-0.00009275 -0.00548126  0.          0.          0.          0.          0.          0.        ]
 [ 0.00004562  0.00269575  0.          0.          0.          0.          0.          0.        ]
 [-0.00043118 -0.02548123  0.          0.          0.          0.          0.          0.        ]
 [-0.02549198  0.00043137  0.          0.          0.          0.          0.          0.        ]
 [ 0.00010898 -0.00000184  0.          0.          0.          0.          0.          0.        ]
 [-0.0060623   0.00010258  0.          0.          0.          0.          0.          0.        ]]
X(g) int
[[ 2.          0.         -0.0736523   0.03622316 -0.34239424  0.49600859 -0.00212038  0.11795688]
 [-0.          2.          0.10665124 -0.05245247  0.49579945  0.34253867 -0.00146431  0.08145986]
 [-0.0736523  -0.10665124  0.          0.          0.          0.          0.          0.        ]
 [ 0.03622316  0.05245247  0.          0.          0.          0.          0.          0.        ]
 [-0.34239424 -0.49579945  0.          0.          0.          0.          0.          0.        ]
 [-0.49600859  0.34253867  0.          0.          0.          0.          0.          0.        ]
 [ 0.00212038 -0.00146431  0.          0.          0.          0.          0.          0.        ]
 [-0.11795688  0.08145986  0.          0.          0.          0.          0.          0.        ]]
Hsp + Hph =  -1.4399827972133286
Feff (mod,ortho)
[[-0.32837715  0.32451761  0.14400265  0.0421006   0.          0.          0.          0.        ]
 [ 0.32451761  0.1906895   0.08245154  0.41411231  0.          0.          0.          0.        ]
 [ 0.14400265  0.08245154  1.20225059  0.04024168  0.          0.          0.          0.        ]
 [ 0.0421006   0.41411231  0.04024168  0.98348726  0.          0.          0.          0.        ]
 [ 0.          0.          0.          0.         -0.32837715 -0.32451761  0.14400265 -0.0421006 ]
 [ 0.          0.          0.          0.         -0.32451761  0.1906895  -0.08245154  0.41411231]
 [ 0.          0.          0.          0.          0.14400265 -0.08245154  1.20225059 -0.04024168]
 [ 0.          0.          0.          0.         -0.0421006   0.41411231 -0.04024168  0.98348726]]
E(SUHF) =     -1.06199908
e_a, e_b
[-0.50466136  0.15340213  1.1109286   1.28838084] [-0.50466136  0.15340213  1.1109286   1.28838084]
P_a, P_b
[[ 0.76854757 -0.40859717 -0.04729915  0.09323813]
 [-0.40859717  0.21723007  0.02514652 -0.04956991]
 [-0.04729915  0.02514652  0.00291096 -0.00573821]
 [ 0.09323813 -0.04956991 -0.00573821  0.0113114 ]] 
 [[ 0.76854757  0.40859717 -0.04729915 -0.09323813]
 [ 0.40859717  0.21723007 -0.02514652 -0.04956991]
 [-0.04729915 -0.02514652  0.00291096  0.00573821]
 [-0.09323813 -0.04956991  0.00573821  0.0113114 ]]
**** Start Cycle 6 ****
dm (ortho)
[array([[ 0.76854757, -0.40859717, -0.04729915,  0.09323813],
       [-0.40859717,  0.21723007,  0.02514652, -0.04956991],
       [-0.04729915,  0.02514652,  0.00291096, -0.00573821],
       [ 0.09323813, -0.04956991, -0.00573821,  0.0113114 ]]), array([[ 0.76854757,  0.40859717, -0.04729915, -0.09323813],
       [ 0.40859717,  0.21723007, -0.02514652, -0.04956991],
       [-0.04729915, -0.02514652,  0.00291096,  0.00573821],
       [-0.09323813, -0.04956991,  0.00573821,  0.0113114 ]])]
Fock (ortho)
 (array([[-0.35469207,  0.30089082,  0.13572479,  0.01044057],
       [ 0.30089082,  0.22393574,  0.08961055,  0.42647993],
       [ 0.13572479,  0.08961055,  1.20366612,  0.04111567],
       [ 0.01044057,  0.42647993,  0.04111567,  0.97618178]]), array([[-0.35469207, -0.30089082,  0.13572479, -0.01044057],
       [-0.30089082,  0.22393574, -0.08961055,  0.42647993],
       [ 0.13572479, -0.08961055,  1.20366612, -0.04111567],
       [-0.01044057,  0.42647993, -0.04111567,  0.97618178]]))
E(UHF) =    -1.392972
NO eigenvalue
[-1. -0. -0.  0.] [-1. -0.  0.  0.]
NO vec
[[ 0.87666845  0.          0.47857223  0.02189907  0.04406232  0.          0.          0.        ]
 [-0.46607947  0.          0.8689198   0.00427799 -0.16652327  0.          0.          0.        ]
 [-0.05395329  0.          0.02656767  0.94752255  0.31398124  0.          0.          0.        ]
 [ 0.10635507  0.         -0.12345509  0.31890931 -0.93367248  0.          0.          0.        ]
 [ 0.          0.87666845  0.          0.          0.         -0.43534193  0.00054551 -0.20476703]
 [ 0.          0.46607947  0.          0.          0.          0.66416485 -0.03784974  0.58328585]
 [ 0.         -0.05395329  0.          0.          0.         -0.21792559 -0.94698856  0.2298046 ]
 [ 0.         -0.10635507  0.          0.          0.         -0.56733667  0.31902942  0.75169005]]
dm(NO)
[[ 1.  0.  0. -0.  0.  0.  0.  0.]
 [ 0.  1.  0.  0.  0.  0.  0.  0.]
 [ 0.  0.  0.  0.  0.  0.  0.  0.]
 [ 0.  0. -0. -0. -0.  0.  0.  0.]
 [ 0.  0.  0. -0.  0.  0.  0.  0.]
 [ 0.  0.  0.  0.  0.  0.  0.  0.]
 [ 0.  0.  0.  0.  0.  0. -0.  0.]
 [ 0.  0.  0.  0.  0. -0. -0.  0.]]
D(g) (NO)
[[ 0.99951369  0.0169299   0.          0.          0.         -0.02306889  0.00321632 -0.01196884]
 [-0.0169299   0.99951369 -0.02607639  0.00199097 -0.00135259  0.          0.          0.        ]
 [ 0.          0.02607639  0.99951369  0.          0.          0.01350278 -0.00303015  0.01004531]
 [ 0.         -0.00199097  0.          0.99951369 -0.         -0.01228964 -0.02481253  0.01420324]
 [ 0.          0.00135259  0.         -0.          0.99951369  0.01033727 -0.01836313 -0.02294558]
 [ 0.02306889  0.         -0.01350278  0.01228964 -0.01033727  0.99951369  0.         -0.        ]
 [-0.00321632  0.          0.00303015  0.02481253  0.01836313  0.          0.99951369 -0.        ]
 [ 0.01196884  0.         -0.01004531 -0.01420324  0.02294558 -0.         -0.          0.99951369]]
...
N(g) (NO)
[[ 1.00019959 -0.01694152]
 [ 0.01694152  1.00019959]]
...
P(g) (NO)
[[ 1.         -0.          0.         -0.          0.         -0.         -0.         -0.        ]
 [-0.          1.         -0.          0.         -0.          0.          0.          0.        ]
 [ 0.00044177  0.02608159  0.         -0.          0.          0.          0.          0.        ]
 [-0.00003373 -0.00199137 -0.          0.         -0.         -0.         -0.         -0.        ]
 [ 0.00002291  0.00135286  0.         -0.          0.          0.          0.          0.        ]
 [ 0.0230735  -0.00039082  0.         -0.          0.         -0.         -0.         -0.        ]
 [-0.00321697  0.00005449 -0.          0.         -0.          0.          0.          0.        ]
 [ 0.01197123 -0.00020277  0.         -0.          0.         -0.         -0.         -0.        ]]
...
Pg_ortho
[[ 0.76873315 -0.40869583 -0.04731057  0.09326065  0.01095654  0.00582503 -0.0006743  -0.00132922]
 [-0.40826412  0.21705301  0.02512603 -0.04952951  0.01966281  0.0104537  -0.00121012 -0.00238544]
 [-0.04731057  0.0251526   0.00291166 -0.00573959 -0.0006743  -0.00035849  0.0000415   0.0000818 ]
 [ 0.09316213 -0.04952951 -0.00573353  0.01130218 -0.00448687 -0.00238544  0.00027614  0.00054434]
 [-0.01095654  0.00582503  0.0006743  -0.00132922  0.76873315  0.40869583 -0.04731057 -0.09326065]
 [ 0.01966281 -0.0104537  -0.00121012  0.00238544  0.40826412  0.21705301 -0.02512603 -0.04952951]
 [ 0.0006743  -0.00035849 -0.0000415   0.0000818  -0.04731057 -0.0251526   0.00291166  0.00573959]
 [-0.00448687  0.00238544  0.00027614 -0.00054434 -0.09316213 -0.04952951  0.00573353  0.01130218]]
G(g) (NO)
[[ 0.38414457 -0.00205091  0.07936368  0.03189296  0.03248085 -0.00068479  0.00046781 -0.00125424]
 [ 0.00205091  0.38414457 -0.0012465   0.00040498  0.00073697 -0.08602265 -0.02828334 -0.01307351]
 [ 0.0792161  -0.01695094  1.00402766  0.18054376 -0.1216609   0.00004116  0.00321673 -0.00445601]
 [ 0.03189527 -0.0030122   0.18054266  0.91342919 -0.01098442  0.00022352  0.00171233 -0.00301073]
 [ 0.03249502  0.00124196 -0.12164762 -0.01098173  0.79245409 -0.0007202  -0.00079031  0.00088526]
 [-0.01408444 -0.08590281  0.00216433 -0.0023186  -0.00287169  0.85476394  0.14770534  0.15963761]
 [-0.00219856 -0.02829272  0.00129861 -0.00147909 -0.00252517  0.14770342  0.89648136  0.09355043]
 [-0.00973371 -0.01298669  0.00112421 -0.00229031 -0.00301857  0.15962421  0.09354918  0.95866563]]
...
C(NO)
[[-1.01293977  0.         -0.25198419 -0.04565071  0.08496337  0.          0.          0.        ]
 [ 0.         -1.01293977  0.          0.          0.         -0.25198419 -0.04565071  0.08496337]
 [ 0.02451207  0.         -0.85845552  0.1369884  -0.39538109  0.          0.          0.        ]
 [ 0.00183152  0.          0.21880179 -0.56382    -0.75391279  0.          0.          0.        ]
 [ 0.0261267   0.         -0.14171098 -0.78229424  0.50915451  0.          0.          0.        ]
 [ 0.         -0.03441998  0.          0.          0.          0.80287633  0.29980327  0.11113739]
 [ 0.         -0.00081828  0.          0.          0.         -0.25840832  0.57416298  0.73139637]
 [ 0.          0.01006953  0.          0.          0.          0.30580525 -0.72739121  0.66080016]]
detC 1.0260469788230795
detNg [1.00068624 1.01815746 1.10312358 1.33764428 1.82756548 2.57571191 3.19905234 3.38472822]
xg [0.94922153 0.93293322 0.86107571 0.71010876 0.51974768 0.36878073 0.29692322 0.28063492]
ciS 1.2298564448630898
[[-0.88854108  0.         -0.11324873 -0.05333955  0.00149131  0.          0.          0.        ]
 [ 0.         -0.88854108  0.          0.          0.          0.09880653  0.04790494  0.06012482]
 [-0.11324873  0.         -0.73566949  0.06522843 -0.10809353  0.          0.          0.        ]
 [-0.05333955  0.          0.06522843  0.29890106  0.01279087  0.          0.          0.        ]
 [ 0.00149131  0.         -0.10809353  0.01279087  0.28034094  0.          0.          0.        ]
 [ 0.          0.09880653  0.          0.          0.         -0.56290504  0.10669578 -0.38749606]
 [ 0.          0.04790494  0.          0.          0.          0.10669578  0.29061058  0.04202087]
 [ 0.          0.06012482  0.          0.          0.         -0.38749606  0.04202087  0.11586696]]
ciH -1.7709904239972958
S2 = 0.000000
X(g)
[[ 2.          0.          0.00044177 -0.00003373  0.00002291 -0.0230735   0.00321697 -0.01197123]
 [-0.          2.         -0.02608159  0.00199137 -0.00135286 -0.00039082  0.00005449 -0.00020277]
 [ 0.00044177  0.02608159  0.          0.          0.          0.          0.          0.        ]
 [-0.00003373 -0.00199137  0.          0.          0.          0.          0.          0.        ]
 [ 0.00002291  0.00135286  0.          0.          0.          0.          0.          0.        ]
 [ 0.0230735  -0.00039082  0.          0.          0.          0.          0.          0.        ]
 [-0.00321697  0.00005449  0.          0.          0.          0.          0.          0.        ]
 [ 0.01197123 -0.00020277  0.          0.          0.          0.          0.          0.        ]]
X(g) int
[[ 2.          0.          0.35064778 -0.02677246  0.01818815 -0.44875238  0.0625662  -0.23282628]
 [ 0.          2.         -0.50725636  0.03872975 -0.02631145 -0.31020612  0.04324972 -0.1609443 ]
 [ 0.35064778  0.50725636  0.          0.          0.          0.          0.          0.        ]
 [-0.02677246 -0.03872975  0.          0.          0.          0.          0.          0.        ]
 [ 0.01818815  0.02631145  0.          0.          0.          0.          0.          0.        ]
 [ 0.44875238 -0.31020612  0.          0.          0.          0.          0.          0.        ]
 [-0.0625662   0.04324972  0.          0.          0.          0.          0.          0.        ]
 [ 0.23282628 -0.1609443   0.          0.          0.          0.          0.          0.        ]]
Hsp + Hph =  -1.439997677285373
Feff (mod,ortho)
[[-0.32800598  0.325063    0.14404325  0.043728    0.          0.          0.          0.        ]
 [ 0.325063    0.19069071  0.08282725  0.41343643  0.          0.          0.          0.        ]
 [ 0.14404325  0.08282725  1.20254115  0.04027547  0.          0.          0.          0.        ]
 [ 0.043728    0.41343643  0.04027547  0.9838657   0.          0.          0.          0.        ]
 [ 0.          0.          0.          0.         -0.32800598 -0.325063    0.14404325 -0.043728  ]
 [ 0.          0.          0.          0.         -0.325063    0.19069071 -0.08282725  0.41343643]
 [ 0.          0.          0.          0.          0.14404325 -0.08282725  1.20254115 -0.04027547]
 [ 0.          0.          0.          0.         -0.043728    0.41343643 -0.04027547  0.9838657 ]]
E(SUHF) =     -1.06201396
e_a, e_b
[-0.50443334  0.1536958   1.11086429  1.28896483] [-0.50443334  0.1536958   1.11086429  1.28896483]
P_a, P_b
[[ 0.76873353 -0.40871389 -0.04721381  0.0922285 ]
 [-0.40871389  0.21730163  0.02510225 -0.04903529]
 [-0.04721381  0.02510225  0.00289976 -0.00566446]
 [ 0.0922285  -0.04903529 -0.00566446  0.01106508]] 
 [[ 0.76873353  0.40871389 -0.04721381 -0.0922285 ]
 [ 0.40871389  0.21730163 -0.02510225 -0.04903529]
 [-0.04721381 -0.02510225  0.00289976  0.00566446]
 [-0.0922285  -0.04903529  0.00566446  0.01106508]]
**** Start Cycle 7 ****
dm (ortho)
[array([[ 0.76873353, -0.40871389, -0.04721381,  0.0922285 ],
       [-0.40871389,  0.21730163,  0.02510225, -0.04903529],
       [-0.04721381,  0.02510225,  0.00289976, -0.00566446],
       [ 0.0922285 , -0.04903529, -0.00566446,  0.01106508]]), array([[ 0.76873353,  0.40871389, -0.04721381, -0.0922285 ],
       [ 0.40871389,  0.21730163, -0.02510225, -0.04903529],
       [-0.04721381, -0.02510225,  0.00289976,  0.00566446],
       [-0.0922285 , -0.04903529,  0.00566446,  0.01106508]])]
Fock (ortho)
 (array([[-0.35453269,  0.30112768,  0.1357449 ,  0.01091005],
       [ 0.30112768,  0.22411442,  0.08988197,  0.42638912],
       [ 0.1357449 ,  0.08988197,  1.20386511,  0.04118774],
       [ 0.01091005,  0.42638912,  0.04118774,  0.97636324]]), array([[-0.35453269, -0.30112768,  0.1357449 , -0.01091005],
       [-0.30112768,  0.22411442, -0.08988197,  0.42638912],
       [ 0.1357449 , -0.08988197,  1.20386511, -0.04118774],
       [-0.01091005,  0.42638912, -0.04118774,  0.97636324]]))
E(UHF) =    -1.392809
NO eigenvalue
[-1. -0.  0.  0.] [-1. -0.  0.  0.]
NO vec
[[ 0.87677451  0.         -0.14787533 -0.05762875  0.45395846  0.          0.          0.        ]
 [-0.46615623  0.         -0.31368087  0.13787287  0.81565541  0.          0.          0.        ]
 [-0.05384944  0.          0.88941791 -0.27858884  0.35836332  0.          0.          0.        ]
 [ 0.10519067  0.          0.29778007  0.948714    0.01427229  0.          0.          0.        ]
 [ 0.          0.87677451  0.          0.          0.          0.09510728 -0.02168716  0.47090417]
 [ 0.          0.46615623  0.          0.          0.         -0.40086879 -0.02692186 -0.78821177]
 [ 0.         -0.05384944  0.          0.          0.         -0.17476944 -0.97896388  0.09047427]
 [ 0.         -0.10519067  0.          0.          0.         -0.89426756  0.20108355  0.38572771]]
dm(NO)
[[ 1.  0. -0.  0.  0.  0.  0.  0.]
 [ 0.  1.  0.  0.  0. -0. -0.  0.]
 [-0.  0.  0. -0. -0.  0.  0.  0.]
 [-0.  0.  0.  0. -0.  0.  0.  0.]
 [ 0.  0. -0.  0.  0.  0.  0.  0.]
 [ 0. -0.  0.  0.  0.  0. -0. -0.]
 [ 0. -0.  0.  0.  0.  0. -0.  0.]
 [ 0.  0.  0.  0.  0. -0. -0. -0.]]
D(g) (NO)
[[ 0.99951369  0.0169408  -0.          0.          0.          0.00578754  0.00210187  0.0254458 ]
 [-0.0169408   0.99951369  0.01107303  0.0022156  -0.02361951 -0.         -0.          0.        ]
 [ 0.         -0.01107303  0.99951369  0.         -0.         -0.00966858 -0.02492093  0.01162957]
 [ 0.         -0.0022156   0.          0.99951369 -0.         -0.02683207  0.01437662  0.00639036]
 [ 0.          0.02361951 -0.         -0.          0.99951369 -0.01120071 -0.0118421  -0.0121992 ]
 [-0.00578754  0.          0.00966858  0.02683207  0.01120071  0.99951369  0.          0.        ]
 [-0.00210187 -0.          0.02492093 -0.01437662  0.0118421   0.          0.99951369  0.        ]
 [-0.0254458   0.         -0.01162957 -0.00639036  0.0121992   0.          0.          0.99951369]]
...
N(g) (NO)
[[ 1.00019922 -0.01695242]
 [ 0.01695242  1.00019922]]
...
P(g) (NO)
[[ 1.         -0.         -0.          0.          0.          0.          0.         -0.        ]
 [ 0.          1.         -0.          0.          0.         -0.         -0.          0.        ]
 [-0.00018771 -0.01107524  0.         -0.         -0.          0.          0.         -0.        ]
 [-0.00003756 -0.00221604  0.         -0.         -0.          0.          0.         -0.        ]
 [ 0.00040041  0.02362422 -0.          0.          0.         -0.         -0.          0.        ]
 [-0.00578869  0.00009811  0.         -0.         -0.         -0.         -0.          0.        ]
 [-0.00210229  0.00003563  0.         -0.         -0.         -0.         -0.          0.        ]
 [-0.02545087  0.00043137  0.         -0.         -0.         -0.         -0.          0.        ]]
...
Pg_ortho
[[ 0.76891914 -0.40881258 -0.04722521  0.09225077  0.01095081  0.00582223 -0.00067257 -0.00131382]
 [-0.40838046  0.21712435  0.02508177 -0.04899528  0.01967287  0.01045951 -0.00120826 -0.00236025]
 [-0.04722521  0.02510831  0.00290046 -0.00566583 -0.00067257 -0.00035759  0.00004131  0.00008069]
 [ 0.09215326 -0.04899528 -0.00565984  0.01105605 -0.00443929 -0.00236025  0.00027265  0.0005326 ]
 [-0.01095081  0.00582223  0.00067257 -0.00131382  0.76891914  0.40881258 -0.04722521 -0.09225077]
 [ 0.01967287 -0.01045951 -0.00120826  0.00236025  0.40838046  0.21712435 -0.02508177 -0.04899528]
 [ 0.00067257 -0.00035759 -0.00004131  0.00008069 -0.04722521 -0.02510831  0.00290046  0.00566583]
 [-0.00443929  0.00236025  0.00027265 -0.0005326  -0.09215326 -0.04899528  0.00565984  0.01105605]]
G(g) (NO)
[[ 0.38429911 -0.00204859  0.00292763 -0.03376188  0.08489803  0.00099755  0.00050956  0.0010041 ]
 [ 0.00204859  0.38429911  0.00085846 -0.00067797 -0.00103266 -0.0048623  -0.03467383  0.08444047]
 [ 0.00298305  0.00327649  0.80775197 -0.03402698  0.09835771  0.0011369   0.00052847  0.00016595]
 [-0.03377153 -0.00083259 -0.0340248   0.78535536  0.11707892  0.00092206  0.0008865  -0.00044137]
 [ 0.08476064 -0.01694318  0.09835829  0.11709234  1.11736707  0.00472442  0.0040695   0.00141347]
 [ 0.00630977 -0.00491705  0.00206961 -0.00240392 -0.00005348  0.89048865 -0.06859529  0.17795993]
 [-0.00264888 -0.03467962 -0.00200441  0.00240725  0.00081224 -0.0685979   0.90517291 -0.14981957]
 [ 0.01586412  0.08430259  0.00350175 -0.00316587 -0.00121936  0.17797329 -0.14981981  0.91481283]]
...
C(NO)
[[-1.01290665  0.         -0.25231654 -0.04636968  0.08569497  0.          0.          0.        ]
 [ 0.         -1.01290665  0.          0.          0.         -0.25231654 -0.04636968  0.08569497]
 [-0.00605114  0.          0.50346423 -0.61168856 -0.53863143  0.          0.          0.        ]
 [-0.02798184  0.          0.17727203  0.7554692  -0.52423463  0.          0.          0.        ]
 [ 0.02311473  0.         -0.72099439 -0.06066563 -0.64720816  0.          0.          0.        ]
 [ 0.         -0.01891711  0.          0.          0.         -0.07764178  0.71362218 -0.68807714]
 [ 0.         -0.0046649   0.          0.          0.         -0.20946801  0.6588202   0.67957232]
 [ 0.          0.03121333  0.          0.          0.         -0.86880919 -0.07263791 -0.22035309]]
detC 1.0259798885713887
detNg [1.00068587 1.01814751 1.10306234 1.33740118 1.82675164 2.57352885 3.19526962 3.38038845]
xg [0.94934602 0.93306436 0.86123614 0.71033073 0.52004724 0.36914183 0.29731361 0.28103195]
ciS 1.230377973069597
[[-0.88853681  0.         -0.00950747 -0.00117079 -0.12508295  0.          0.          0.        ]
 [ 0.         -0.88853681  0.          0.          0.         -0.04089459  0.05152149 -0.10682076]
 [-0.00950747  0.          0.12874059 -0.06411955  0.38749734  0.          0.          0.        ]
 [-0.00117079  0.         -0.06411955  0.27120266  0.12848389  0.          0.          0.        ]
 [-0.12508295  0.          0.38749734  0.12848389 -0.55637503  0.          0.          0.        ]
 [ 0.         -0.04089459  0.          0.          0.          0.26045001 -0.00663325 -0.17365205]
 [ 0.          0.05152149  0.          0.          0.         -0.00663325  0.30041567 -0.06414015]
 [ 0.         -0.10682076  0.          0.          0.         -0.17365205 -0.06414015 -0.71729746]]
ciH -1.7717501231937132
S2 = -0.000000
X(g)
[[ 2.         -0.         -0.00018771 -0.00003756  0.00040041  0.00578869  0.00210229  0.02545087]
 [ 0.          2.          0.01107524  0.00221604 -0.02362422  0.00009811  0.00003563  0.00043137]
 [-0.00018771 -0.01107524  0.          0.          0.          0.          0.          0.        ]
 [-0.00003756 -0.00221604  0.          0.          0.          0.          0.          0.        ]
 [ 0.00040041  0.02362422  0.          0.          0.          0.          0.          0.        ]
 [-0.00578869  0.00009811  0.          0.          0.          0.          0.          0.        ]
 [-0.00210229  0.00003563  0.          0.          0.          0.          0.          0.        ]
 [-0.02545087  0.00043137  0.          0.          0.          0.          0.          0.        ]]
X(g) int
[[ 2.         -0.         -0.14895068 -0.02980353  0.31772161  0.11255022  0.04087503  0.49484466]
 [ 0.          2.          0.21533735  0.04308684 -0.45932876  0.07785194  0.02827361  0.34228826]
 [-0.14895068 -0.21533735  0.          0.          0.          0.          0.          0.        ]
 [-0.02980353 -0.04308684  0.          0.          0.          0.          0.          0.        ]
 [ 0.31772161  0.45932876  0.          0.          0.          0.          0.          0.        ]
 [-0.11255022  0.07785194  0.          0.          0.          0.          0.          0.        ]
 [-0.04087503  0.02827361  0.          0.          0.          0.          0.          0.        ]
 [-0.49484466  0.34228826  0.          0.          0.          0.          0.          0.        ]]
Hsp + Hph =  -1.4400047481128737
Feff (mod,ortho)
[[-0.32774841  0.3254357   0.14407134  0.0448509   0.          0.          0.          0.        ]
 [ 0.3254357   0.19069541  0.08308748  0.41296857  0.          0.          0.          0.        ]
 [ 0.14407134  0.08308748  1.20274129  0.0402995   0.          0.          0.          0.        ]
 [ 0.0448509   0.41296857  0.0402995   0.98412179  0.          0.          0.          0.        ]
 [ 0.          0.          0.          0.         -0.32774841 -0.3254357   0.14407134 -0.0448509 ]
 [ 0.          0.          0.          0.         -0.3254357   0.19069541 -0.08308748  0.41296857]
 [ 0.          0.          0.          0.          0.14407134 -0.08308748  1.20274129 -0.0402995 ]
 [ 0.          0.          0.          0.         -0.0448509   0.41296857 -0.0402995   0.98412179]]
E(SUHF) =     -1.06202103
e_a, e_b
[-0.50427341  0.15389854  1.11081736  1.28936758] [-0.50427341  0.15389854  1.11081736  1.28936758]
P_a, P_b
[[ 0.76886441 -0.40879142 -0.04715514  0.09153085]
 [-0.40879142  0.21734707  0.02507154 -0.04866531]
 [-0.04715514  0.02507154  0.00289207 -0.00561367]
 [ 0.09153085 -0.04866531 -0.00561367  0.01089646]] 
 [[ 0.76886441  0.40879142 -0.04715514 -0.09153085]
 [ 0.40879142  0.21734707 -0.02507154 -0.04866531]
 [-0.04715514 -0.02507154  0.00289207  0.00561367]
 [-0.09153085 -0.04866531  0.00561367  0.01089646]]
**** Start Cycle 8 ****
dm (ortho)
[array([[ 0.76886441, -0.40879142, -0.04715514,  0.09153085],
       [-0.40879142,  0.21734707,  0.02507154, -0.04866531],
       [-0.04715514,  0.02507154,  0.00289207, -0.00561367],
       [ 0.09153085, -0.04866531, -0.00561367,  0.01089646]]), array([[ 0.76886441,  0.40879142, -0.04715514, -0.09153085],
       [ 0.40879142,  0.21734707, -0.02507154, -0.04866531],
       [-0.04715514, -0.02507154,  0.00289207,  0.00561367],
       [-0.09153085, -0.04866531,  0.00561367,  0.01089646]])]
Fock (ortho)
 (array([[-0.35442364,  0.30128895,  0.13575875,  0.01123405],
       [ 0.30128895,  0.22423889,  0.09006867,  0.42632617],
       [ 0.13575875,  0.09006867,  1.20400209,  0.04123726],
       [ 0.01123405,  0.42632617,  0.04123726,  0.97648781]]), array([[-0.35442364, -0.30128895,  0.13575875, -0.01123405],
       [-0.30128895,  0.22423889, -0.09006867,  0.42632617],
       [ 0.13575875, -0.09006867,  1.20400209, -0.04123726],
       [-0.01123405,  0.42632617, -0.04123726,  0.97648781]]))
E(UHF) =    -1.392694
NO eigenvalue
[-1. -0.  0.  0.] [-1. -0. -0.  0.]
NO vec
[[ 0.87684914  0.         -0.05068157 -0.00514691 -0.47805907  0.          0.          0.        ]
 [-0.46620496  0.         -0.22036531  0.19688254 -0.83386409  0.          0.          0.        ]
 [-0.05377794  0.          0.97240165  0.10200213 -0.20282635  0.          0.          0.        ]
 [ 0.10438609  0.         -0.05749381  0.97509299  0.18706059  0.          0.          0.        ]
 [ 0.          0.87684914  0.          0.          0.          0.47843297  0.0245706  -0.04041992]
 [ 0.          0.46620496  0.          0.          0.         -0.86725014  0.1674672  -0.04984845]
 [ 0.         -0.05377794  0.          0.          0.          0.01729971 -0.05739526 -0.99675194]
 [ 0.         -0.10438609  0.          0.          0.          0.13667411  0.98389878 -0.04865105]]
dm(NO)
[[ 1.  0.  0. -0.  0.  0.  0.  0.]
 [ 0.  1.  0.  0.  0.  0. -0. -0.]
 [ 0.  0. -0.  0. -0.  0.  0.  0.]
 [-0.  0. -0.  0. -0.  0.  0.  0.]
 [ 0.  0. -0. -0.  0.  0.  0.  0.]
 [ 0.  0.  0.  0.  0.  0.  0.  0.]
 [ 0. -0.  0.  0.  0.  0.  0. -0.]
 [ 0.  0.  0.  0.  0.  0. -0. -0.]]
D(g) (NO)
[[ 0.99951369  0.01694848  0.         -0.          0.          0.02610554  0.00153617  0.00113264]
[...]
       [-0.01190382,  0.42619478, -0.04133823,  0.97674311]]))
E(UHF) =    -1.392448
NO eigenvalue
[-1. -0. -0.  0.] [-1. -0. -0.  0.]
NO vec
[[ 0.8770137   0.          0.47788329  0.04969471 -0.00222824  0.          0.          0.        ]
 [-0.46628287  0.          0.87037072 -0.13731875  0.07860447  0.          0.          0.        ]
 [-0.0536337   0.          0.02546916  0.73203871  0.67867081  0.          0.          0.        ]
 [ 0.10271654  0.         -0.1159038  -0.66542717  0.73022072  0.          0.          0.        ]
 [ 0.          0.8770137   0.          0.          0.          0.18424033 -0.00040447  0.44373676]
 [ 0.          0.46628287  0.          0.          0.         -0.19549528  0.19591418 -0.84022587]
 [ 0.         -0.0536337   0.          0.          0.         -0.38112917  0.88408714  0.26505454]
 [ 0.         -0.10271654  0.          0.          0.          0.88463419  0.42427278 -0.1639032 ]]
dm(NO)
[[ 1.  0. -0. -0.  0.  0.  0.  0.]
 [ 0.  1.  0.  0.  0. -0. -0. -0.]
 [-0.  0. -0. -0. -0.  0.  0.  0.]
 [-0.  0.  0.  0.  0.  0.  0.  0.]
 [ 0.  0. -0. -0. -0.  0.  0.  0.]
 [ 0. -0.  0.  0.  0. -0. -0.  0.]
 [ 0. -0.  0.  0.  0.  0.  0. -0.]
 [ 0. -0.  0.  0.  0. -0.  0. -0.]]
D(g) (NO)
[[ 0.99951369  0.01696552 -0.         -0.          0.          0.0113521  -0.00297934  0.02338413]
 [-0.01696552  0.99951369 -0.02605322 -0.00026949  0.00239199  0.          0.         -0.        ]
 [-0.          0.02605322  0.99951369  0.          0.         -0.00606038  0.00447999 -0.0153891 ]
 [-0.          0.00026949  0.          0.99951369 -0.         -0.02593383  0.01053807  0.01373702]
 [ 0.         -0.00239199  0.         -0.          0.99951369  0.0115858   0.02885126 -0.00021314]
 [-0.0113521  -0.          0.00606038  0.02593383 -0.0115858   0.99951369  0.          0.        ]
 [ 0.00297934  0.         -0.00447999 -0.01053807 -0.02885126  0.          0.99951369 -0.        ]
 [-0.02338413 -0.          0.0153891  -0.01373702  0.00021314  0.         -0.          0.99951369]]
...
N(g) (NO)
[[ 1.00019839 -0.01697714]
 [ 0.01697714  1.00019839]]
...
P(g) (NO)
[[ 1.          0.         -0.         -0.          0.         -0.         -0.         -0.        ]
 [-0.          1.          0.          0.         -0.         -0.         -0.         -0.        ]
 [ 0.00044231  0.02605838 -0.         -0.          0.         -0.         -0.         -0.        ]
 [ 0.00000458  0.00026954 -0.         -0.          0.         -0.         -0.         -0.        ]
 [-0.00004061 -0.00239247  0.          0.         -0.          0.          0.          0.        ]
 [-0.01135436  0.00019273  0.          0.         -0.         -0.         -0.         -0.        ]
 [ 0.00297994 -0.00005058 -0.         -0.          0.          0.          0.          0.        ]
 [-0.02338877  0.000397    0.          0.         -0.         -0.         -0.         -0.        ]]
...
Pg_ortho
[[ 0.76933868 -0.40903517 -0.04704885  0.09010556  0.01093776  0.00581529 -0.0006689  -0.00128104]
 [-0.40860218  0.21724199  0.02498803 -0.04785581  0.01969368  0.01047056 -0.00120437 -0.00230654]
 [-0.04704885  0.02501451  0.00287727 -0.0055104  -0.0006689  -0.00035563  0.00004091  0.00007834]
 [ 0.09001018 -0.04785581 -0.00550457  0.01054206 -0.00433828 -0.00230654  0.00026531  0.0005081 ]
 [-0.01093776  0.00581529  0.0006689  -0.00128104  0.76933868  0.40903517 -0.04704885 -0.09010556]
 [ 0.01969368 -0.01047056 -0.00120437  0.00230654  0.40860218  0.21724199 -0.02498803 -0.04785581]
 [ 0.0006689  -0.00035563 -0.00004091  0.00007834 -0.04704885 -0.02501451  0.00287727  0.0055104 ]
 [-0.00433828  0.00230654  0.00026531 -0.0005081  -0.09001018 -0.04785581  0.00550457  0.01054206]]
G(g) (NO)
[[ 0.38463785 -0.00204366  0.07902582  0.04408519  0.01172766  0.00021064 -0.00092044  0.00117322]
 [ 0.00204366  0.38463785 -0.00125748  0.00082861  0.00001255  0.03017758  0.03756027  0.07748976]
 [ 0.07887763 -0.01699716  1.00738465 -0.0182265   0.21705551  0.00018917 -0.00516327  0.00196793]
 [ 0.04409869 -0.00042723 -0.01821548  0.81085359  0.04680641  0.0001336  -0.00039503  0.00078878]
 [ 0.01172282 -0.00324666  0.21704795  0.04680361  0.89341071 -0.00041047 -0.00344833  0.00107576]
 [ 0.00320266  0.03013381 -0.00001878 -0.00122813  0.0001185   0.73679506 -0.02861803 -0.11413455]
 [-0.00038229  0.03758652 -0.00087552  0.00078686 -0.00009143 -0.02861668  0.83525532  0.03782881]
 [ 0.01700658  0.0773499  -0.00267436  0.00580846  0.0008795  -0.11414509  0.03782023  1.13959858]]
...
C(NO)
[[-1.01283089  0.         -0.25305428 -0.04788406  0.08723363  0.          0.          0.        ]
 [ 0.         -1.01283089  0.          0.          0.         -0.25305428 -0.04788406  0.08723363]
 [ 0.02473672  0.         -0.85694037  0.14223549 -0.40033255  0.          0.          0.        ]
 [ 0.02665844  0.         -0.02324679 -0.95619992  0.08017123  0.          0.          0.        ]
 [-0.01359355  0.          0.26358009 -0.11783455 -0.90380557  0.          0.          0.        ]
 [ 0.          0.02856057  0.          0.          0.         -0.5420969  -0.12441715  0.68698173]
 [ 0.          0.01931108  0.          0.          0.          0.1350506  -0.96096536 -0.13204324]
 [ 0.          0.01785324  0.          0.          0.         -0.70160813  0.09746866 -0.7029785 ]]
detC 1.0258264167631879
detNg [1.00068503 1.01812492 1.10292336 1.33684968 1.8249069  2.56858703 3.18671602 3.37057843]
xg [0.9496309  0.93336428 0.86160242 0.71083641 0.52072872 0.36996271 0.29820085 0.28193423]
ciS 1.2315651301206043
[[-0.88852567  0.         -0.11373166 -0.02195746 -0.04968967  0.          0.          0.        ]
 [ 0.         -0.88852567  0.          0.          0.         -0.00212539 -0.02339262 -0.12383196]
 [-0.11373166  0.         -0.73367871 -0.06913302  0.11386749  0.          0.          0.        ]
 [-0.02195746  0.         -0.06913302  0.2947756   0.01576104  0.          0.          0.        ]
 [-0.04968967  0.          0.11386749  0.01576104  0.2824602   0.          0.          0.        ]
 [ 0.         -0.00212539  0.          0.          0.          0.06482297  0.02641616 -0.4286988 ]
 [ 0.         -0.02339262  0.          0.          0.          0.02641616  0.29894345  0.06245055]
 [ 0.         -0.12383196  0.          0.          0.         -0.4286988   0.06245055 -0.52020933]]
ciH -1.773467543032186
S2 = 0.000000
X(g)
[[ 2.          0.          0.00044231  0.00000458 -0.00004061  0.01135436 -0.00297994  0.02338877]
 [-0.          2.         -0.02605838 -0.00026954  0.00239247  0.00019273 -0.00005058  0.000397  ]
 [ 0.00044231  0.02605838  0.          0.          0.          0.          0.          0.        ]
 [ 0.00000458  0.00026954  0.          0.          0.          0.          0.          0.        ]
 [-0.00004061 -0.00239247  0.          0.          0.          0.          0.          0.        ]
 [-0.01135436  0.00019273  0.          0.          0.          0.          0.          0.        ]
 [ 0.00297994 -0.00005058  0.          0.          0.          0.          0.          0.        ]
 [-0.02338877  0.000397    0.          0.          0.          0.          0.          0.        ]]
X(g) int
[[ 2.          0.          0.35073688  0.0036279  -0.03220177  0.22061762 -0.05790079  0.45444888]
 [-0.          2.         -0.50632008 -0.00523719  0.04648614  0.15282573 -0.0401089   0.31480478]
 [ 0.35073688  0.50632008  0.          0.          0.          0.          0.          0.        ]
 [ 0.0036279   0.00523719  0.          0.          0.          0.          0.          0.        ]
 [-0.03220177 -0.04648614  0.          0.          0.          0.          0.          0.        ]
 [-0.22061762  0.15282573  0.          0.          0.          0.          0.          0.        ]
 [ 0.05790079 -0.0401089   0.          0.          0.          0.          0.          0.        ]
 [-0.45444888  0.31480478  0.          0.          0.          0.          0.          0.        ]]
Hsp + Hph =  -1.4400111692497453
Feff (mod,ortho)
[[-0.32720539  0.326204    0.14413082  0.04723144  0.          0.          0.          0.        ]
 [ 0.326204    0.19071943  0.08363318  0.4119737   0.          0.          0.          0.        ]
 [ 0.14413082  0.08363318  1.20316243  0.0403483   0.          0.          0.          0.        ]
 [ 0.04723144  0.4119737   0.0403483   0.98464794  0.          0.          0.          0.        ]
 [ 0.          0.          0.          0.         -0.32720539 -0.326204    0.14413082 -0.04723144]
 [ 0.          0.          0.          0.         -0.326204    0.19071943 -0.08363318  0.4119737 ]
 [ 0.          0.          0.          0.          0.14413082 -0.08363318  1.20316243 -0.0403483 ]
 [ 0.          0.          0.          0.         -0.04723144  0.4119737  -0.0403483   0.98464794]]
E(SUHF) =     -1.06202745
e_a, e_b
[-0.50392252  0.15432068  1.11071569  1.29021057] [-0.50392252  0.15432068  1.11071569  1.29021057]
P_a, P_b
[[ 0.76916072 -0.40893979 -0.04703462  0.09004722]
 [-0.40893979  0.21742108  0.0250069  -0.04787542]
 [-0.04703462  0.0250069   0.00287619 -0.00550644]
 [ 0.09004722 -0.04787542 -0.00550644  0.01054201]] 
 [[ 0.76916072  0.40893979 -0.04703462 -0.09004722]
 [ 0.40893979  0.21742108 -0.0250069  -0.04787542]
 [-0.04703462 -0.0250069   0.00287619  0.00550644]
 [-0.09004722 -0.04787542  0.00550644  0.01054201]]
**** Start Cycle 16 ****
dm (ortho)
[array([[ 0.76916072, -0.40893979, -0.04703462,  0.09004722],
       [-0.40893979,  0.21742108,  0.0250069 , -0.04787542],
       [-0.04703462,  0.0250069 ,  0.00287619, -0.00550644],
       [ 0.09004722, -0.04787542, -0.00550644,  0.01054201]]), array([[ 0.76916072,  0.40893979, -0.04703462, -0.09004722],
       [ 0.40893979,  0.21742108, -0.0250069 , -0.04787542],
       [-0.04703462, -0.0250069 ,  0.00287619,  0.00550644],
       [-0.09004722, -0.04787542,  0.00550644,  0.01054201]])]
Fock (ortho)
 (array([[-0.35419942,  0.30161885,  0.13578856,  0.01192071],
       [ 0.30161885,  0.22450904,  0.09046031,  0.42619144],
       [ 0.13578856,  0.09046031,  1.20429091,  0.04134075],
       [ 0.01192071,  0.42619144,  0.04134075,  0.9767495 ]]), array([[-0.35419942, -0.30161885,  0.13578856, -0.01192071],
       [-0.30161885,  0.22450904, -0.09046031,  0.42619144],
       [ 0.13578856, -0.09046031,  1.20429091, -0.04134075],
       [-0.01192071,  0.42619144, -0.04134075,  0.9767495 ]]))
E(UHF) =    -1.392442
NO eigenvalue
[-1. -0. -0.  0.] [-1. -0.  0.  0.]
NO vec
[[ 0.87701808  0.         -0.32319015 -0.04292591  0.35290902  0.          0.          0.        ]
 [-0.46628433  0.         -0.66911351  0.13579051  0.56251842  0.          0.          0.        ]
 [-0.05363016  0.          0.66558032  0.01223599  0.74429626  0.          0.          0.        ]
 [ 0.10267431  0.          0.06955623  0.98973157 -0.07107273  0.          0.          0.        ]
 [ 0.          0.87701808  0.          0.          0.          0.33180164  0.0240819   0.34665115]
 [ 0.          0.46628433  0.          0.          0.         -0.69622895  0.15287389 -0.52390243]
 [ 0.         -0.05363016  0.          0.          0.          0.36757102  0.88594804 -0.27768942]
 [ 0.         -0.10267431  0.          0.          0.         -0.51967728  0.43720213  0.72680658]]
dm(NO)
[[ 1.  0. -0.  0. -0.  0.  0.  0.]
 [ 0.  1.  0.  0.  0.  0.  0.  0.]
 [-0.  0. -0. -0.  0.  0.  0.  0.]
 [ 0.  0. -0.  0. -0.  0.  0.  0.]
 [-0.  0.  0. -0. -0.  0.  0.  0.]
 [ 0.  0.  0.  0.  0.  0.  0. -0.]
 [ 0.  0.  0.  0.  0. -0.  0. -0.]
 [ 0.  0.  0.  0.  0.  0. -0.  0.]]
D(g) (NO)
[[ 0.99951369  0.01696597 -0.          0.         -0.          0.01691896 -0.00164605  0.0198894 ]
 [-0.01696597  0.99951369  0.01990355  0.00238882 -0.01681342  0.          0.          0.        ]
 [-0.         -0.01990355  0.99951369 -0.          0.          0.0176847   0.01590365  0.0032507 ]
 [-0.         -0.00238882 -0.          0.99951369  0.         -0.0192908   0.01444651  0.01964307]
 [-0.          0.01681342  0.         -0.          0.99951369  0.00112169  0.0225401  -0.01343085]
 [-0.01691896  0.         -0.0176847   0.0192908  -0.00112169  0.99951369 -0.          0.        ]
 [ 0.00164605  0.         -0.01590365 -0.01444651 -0.0225401  -0.          0.99951369  0.        ]
 [-0.0198894   0.         -0.0032507  -0.01964307  0.01343085  0.          0.          0.99951369]]
...
N(g) (NO)
[[ 1.00019837 -0.01697759]
 [ 0.01697759  1.00019837]]
...
P(g) (NO)
[[ 1.         -0.         -0.          0.         -0.         -0.          0.          0.        ]
 [ 0.          1.         -0.          0.         -0.          0.          0.          0.        ]
 [-0.00033791 -0.0199075   0.         -0.          0.         -0.         -0.         -0.        ]
 [-0.00004056 -0.0023893   0.         -0.          0.         -0.         -0.         -0.        ]
 [ 0.00028545  0.01681676 -0.          0.         -0.          0.          0.          0.        ]
 [-0.01692232  0.00028724  0.         -0.          0.          0.          0.          0.        ]
 [ 0.00164638 -0.00002795 -0.          0.         -0.         -0.         -0.         -0.        ]
 [-0.01989334  0.00033767  0.         -0.          0.          0.          0.          0.        ]]
...
Pg_ortho
[[ 0.76934637 -0.4090385  -0.04704597  0.09006896  0.01093752  0.00581515 -0.00066884 -0.00128048]
 [-0.4086055   0.21724334  0.02498646 -0.04783628  0.01969403  0.01047073 -0.0012043  -0.00230562]
 [-0.04704597  0.02501294  0.00287689 -0.00550777 -0.00066884 -0.0003556   0.0000409   0.0000783 ]
 [ 0.08997361 -0.04783628 -0.00550194  0.0105334  -0.00433656 -0.00230562  0.00026518  0.00050769]
 [-0.01093752  0.00581515  0.00066884 -0.00128048  0.76934637  0.4090385  -0.04704597 -0.09006896]
 [ 0.01969403 -0.01047073 -0.0012043   0.00230562  0.4086055   0.21724334 -0.02498646 -0.04783628]
 [ 0.00066884 -0.0003556  -0.0000409   0.0000783  -0.04704597 -0.02501294  0.00287689  0.00550777]
 [-0.00433656  0.00230562  0.00026518 -0.00050769 -0.08997361 -0.04783628  0.00550194  0.0105334 ]]
G(g) (NO)
[[ 0.38464383 -0.00204358 -0.0294602  -0.02217753  0.0834619   0.00101799 -0.00086096  0.00070041]
 [ 0.00204358  0.38464383  0.00134928 -0.00052508 -0.00041455  0.05753492  0.04174022  0.0572112 ]
 [-0.02934753  0.01068902  0.8248685  -0.09378861 -0.06716427 -0.00045606  0.00196737 -0.00052876]
 [-0.02218769 -0.00183869 -0.09378102  0.80399013  0.14816355  0.00044684 -0.00220273 -0.00018048]
 [ 0.0833651  -0.01349108 -0.06716742  0.14817446  1.08280993  0.00228334 -0.00535071  0.00113978]
 [ 0.01428203  0.05742374  0.00508626 -0.00327295  0.00180397  1.15514185  0.05922578  0.06939528]
 [ 0.00046595  0.04175905  0.00123078 -0.00070351 -0.00016368  0.05923351  0.83766033 -0.0134471 ]
 [ 0.00976994  0.05711398  0.00158534 -0.00042544  0.00013351  0.06940567 -0.01345144  0.71886638]]
...
C(NO)
[[-1.01282953  0.         -0.2530675  -0.04790962  0.08725961  0.          0.          0.        ]
 [ 0.         -1.01282953  0.          0.          0.         -0.2530675  -0.04790962  0.08725961]
 [-0.01035713  0.          0.73055873 -0.65076995 -0.07443282  0.          0.          0.        ]
 [-0.02841238  0.          0.22543153  0.55126205 -0.71748735  0.          0.          0.        ]
 [ 0.02440468  0.         -0.46884917 -0.47014931 -0.6806065   0.          0.          0.        ]
 [ 0.          0.00419531  0.          0.          0.         -0.42794809  0.1700573  -0.91543014]
 [ 0.          0.02079414  0.          0.          0.          0.09020105 -0.95822175 -0.14753954]
 [ 0.          0.03255956  0.          0.          0.         -0.78299373 -0.03637782  0.35181429]]
detC 1.0258236571892299
detNg [1.00068502 1.0181245  1.10292079 1.3368395  1.82487289 2.56849601 3.1865586  3.37039793]
xg [0.94963603 0.93336968 0.86160905 0.71084565 0.52074122 0.36997782 0.29821719 0.28195084]
ciS 1.2315868702180193
[[-0.88852552  0.          0.04905811 -0.0202845  -0.11432665  0.          0.          0.        ]
 [ 0.         -0.88852552  0.          0.          0.         -0.11170998 -0.02900849 -0.0506767 ]
 [ 0.04905811  0.         -0.26804136 -0.11084237  0.51453547  0.          0.          0.        ]
 [-0.0202845   0.         -0.11084237  0.26765671  0.09756263  0.          0.          0.        ]
 [-0.11432665  0.          0.51453547  0.09756263 -0.15605842  0.          0.          0.        ]
 [ 0.         -0.11170998  0.          0.          0.         -0.11177073  0.01309104 -0.50752796]
 [ 0.         -0.02900849  0.          0.          0.          0.01309104  0.3031158   0.0071599 ]
 [ 0.         -0.0506767   0.          0.          0.         -0.50752796  0.0071599  -0.34778813]]
ciH -1.7734988602751436
S2 = 0.000000
X(g)
[[ 2.         -0.         -0.00033791 -0.00004056  0.00028545  0.01692232 -0.00164638  0.01989334]
 [-0.          2.          0.0199075   0.0023893  -0.01681676  0.00028724 -0.00002795  0.00033767]
 [-0.00033791 -0.0199075   0.          0.          0.          0.          0.          0.        ]
 [-0.00004056 -0.0023893   0.          0.          0.          0.          0.          0.        ]
 [ 0.00028545  0.01681676  0.          0.          0.          0.          0.          0.        ]
 [-0.01692232  0.00028724  0.          0.          0.          0.          0.          0.        ]
 [ 0.00164638 -0.00002795  0.          0.          0.          0.          0.          0.        ]
 [-0.01989334  0.00033767  0.          0.          0.          0.          0.          0.        ]]
X(g) int
[[ 2.         -0.         -0.26795196 -0.03215958  0.22635106  0.32880031 -0.03198915  0.38652721]
 [ 0.          2.          0.38680225  0.04642398 -0.32674924  0.22777191 -0.02216004  0.26776143]
 [-0.26795196 -0.38680225  0.          0.          0.          0.          0.          0.        ]
 [-0.03215958 -0.04642398  0.          0.          0.          0.          0.          0.        ]
 [ 0.22635106  0.32674924  0.          0.          0.          0.          0.          0.        ]
 [-0.32880031  0.22777191  0.          0.          0.          0.          0.          0.        ]
 [ 0.03198915 -0.02216004  0.          0.          0.          0.          0.          0.        ]
 [-0.38652721  0.26776143  0.          0.          0.          0.          0.          0.        ]]
Hsp + Hph =  -1.4400111783923077
Feff (mod,ortho)
[[-0.32719623  0.32621674  0.14413183  0.04727195  0.          0.          0.          0.        ]
 [ 0.32621674  0.19072003  0.08364234  0.41195675  0.          0.          0.          0.        ]
 [ 0.14413183  0.08364234  1.20316954  0.04034908  0.          0.          0.          0.        ]
 [ 0.04727195  0.41195675  0.04034908  0.98465668  0.          0.          0.          0.        ]
 [ 0.          0.          0.          0.         -0.32719623 -0.32621674  0.14413183 -0.04727195]
 [ 0.          0.          0.          0.         -0.32621674  0.19072003 -0.08364234  0.41195675]
 [ 0.          0.          0.          0.          0.14413183 -0.08364234  1.20316954 -0.04034908]
 [ 0.          0.          0.          0.         -0.04727195  0.41195675 -0.04034908  0.98465668]]
E(SUHF) =     -1.06202746
e_a, e_b
[-0.50391638  0.15432772  1.11071396  1.29022472] [-0.50391638  0.15432772  1.11071396  1.29022472]
P_a, P_b
[[ 0.76916605 -0.40894208 -0.04703263  0.09002191]
 [-0.40894208  0.21742201  0.02500581 -0.0478619 ]
 [-0.04703263  0.02500581  0.00287593 -0.00550462]
 [ 0.09002191 -0.0478619  -0.00550462  0.01053601]] 
 [[ 0.76916605  0.40894208 -0.04703263 -0.09002191]
 [ 0.40894208  0.21742201 -0.02500581 -0.0478619 ]
 [-0.04703263 -0.02500581  0.00287593  0.00550462]
 [-0.09002191 -0.0478619   0.00550462  0.01053601]]

***************
SCF converged at cycle 15
Final E(SUHF) =     -1.06202746, delta E = -9.14256e-09
***** Start DFT Correlation for SUHF+DFT **********
tot grids = 20048
E(SUHF) =     -1.06202746
E_c(TPSS) =     -0.02152148
E(SUHF+DFT) =     -1.08354893
