

#INFO: **** input file is /share/home/srwang/ExSCF/test/pytest/scan_h2/scan_dft.py ****
#import phf
from pyscf import gto, scf
#import scipy
import numpy as np
import sys, os, contextlib

from pyphf import util, sudft

#xyz = 'h2.xyz' #sys.argv[1]
fch = 'test_uhf.fchk' #sys.argv[2]
#bas = '../h2.bas'
bas = 'cc-pvtz'

for r in np.arange(0.5, 2.6, 0.1):
    output = 'sudft_%.1f.out' % r
    os.system("echo '\n' > %s" % output)
    with open(output, 'a', encoding='utf-8') as f:
        with contextlib.redirect_stdout(f):
            xyz = '''H 0.0 0.0 0.0; H 0.0 0.0 %f'''%r
            mf = util.guess_from_fchk(xyz, bas, fch)
            #mf = util.guess(xyz, bas)
            #f.flush()
            mf2 = util.SUHF(mf)
            mf2.cut_no = False
            mf2.debug = False
            mf2.max_cycle = 50
            #mf2.output = 'sudft_%.1f.out'%r
            #mf2.kernel()
            
            mf3 = sudft.SUDFT(mf2)
            mf3.kernel()
                    #INFO: ******************** input file end ********************


System: uname_result(system='Linux', node='xc02n18', release='3.10.0-693.el7.x86_64', version='#1 SMP Thu Jul 6 19:56:57 EDT 2017', machine='x86_64', processor='x86_64')  Threads 24
Python 3.7.4 (default, Aug 13 2019, 20:35:49) 
[GCC 7.3.0]
numpy 1.17.2  scipy 1.4.1
Date: Fri Nov 20 22:48:21 2020
PySCF version 1.7.3
PySCF path  /share/apps/Python/Anaconda3-2019/lib/python3.7/site-packages/pyscf

[CONFIG] conf_file None
[INPUT] verbose = 4
[INPUT] num. atoms = 2
[INPUT] num. electrons = 2
[INPUT] charge = 0
[INPUT] spin (= nelec alpha-beta = 2S) = 0
[INPUT] symmetry False subgroup None
[INPUT] Mole.unit = angstrom
[INPUT]  1 H      0.000000000000   0.000000000000   0.000000000000 AA    0.000000000000   0.000000000000   0.000000000000 Bohr
[INPUT]  2 H      0.000000000000   0.000000000000   0.700000000000 AA    0.000000000000   0.000000000000   1.322808287196 Bohr

nuclear repulsion = 0.755967444171429
number of shells = 12
number of NR pGTOs = 32
number of NR cGTOs = 28
basis = cc-pvtz
ecp = {}
CPU time:       562.57


******** <class 'pyscf.scf.uhf.UHF'> ********
method = UHF
initial guess = minao
damping factor = 0
level_shift factor = 0
DIIS = <class 'pyscf.scf.diis.CDIIS'>
diis_start_cycle = 1
diis_space = 8
SCF conv_tol = 1e-09
SCF conv_tol_grad = None
SCF max_cycles = 1
direct_scf = True
direct_scf_tol = 1e-13
chkfile to save SCF result = /share/home/srwang/ExSCF/test/pytest/scan_h2/tmpjjk9pky1
max_memory 4000 MB (current use 145 MB)
number electrons alpha = 1  beta = 1
Set gradient conv threshold to 3.16228e-05
init E= -0.823356274825296
  alpha nocc = 1  HOMO = -0.568731391355298  LUMO = 0.145787911648175
  beta  nocc = 1  HOMO = -0.575714068470886  LUMO = 0.145700899373507
cycle= 1 E= -1.13106395405129  delta_E= -0.308  |g|= 0.0327  |ddm|= 0.333
SCF not converged.
SCF energy = -1.13106395405129 after 1 cycles  <S^2> = 1.5253886e-05  2S+1 = 1.0000305


******** <class 'pyscf.scf.uhf.UHF'> ********
method = UHF
initial guess = minao
damping factor = 0
level_shift factor = 0
DIIS = <class 'pyscf.scf.diis.CDIIS'>
diis_start_cycle = 1
diis_space = 8
SCF conv_tol = 1e-09
SCF conv_tol_grad = None
SCF max_cycles = 1
direct_scf = True
direct_scf_tol = 1e-13
chkfile to save SCF result = /share/home/srwang/ExSCF/test/pytest/scan_h2/tmpjjk9pky1
max_memory 4000 MB (current use 145 MB)
number electrons alpha = 1  beta = 1
Set gradient conv threshold to 3.16228e-05
init E= -1.23767093858953
  alpha nocc = 1  HOMO = -0.563521108909956  LUMO = 0.247158214674513
  beta  nocc = 1  HOMO = -0.563521108909956  LUMO = 0.247158214674517
cycle= 1 E= -1.11377050071514  delta_E= 0.124  |g|= 0.0985  |ddm|= 0.185
SCF not converged.
SCF energy = -1.11377050071514 after 1 cycles  <S^2> = 0.088956256  2S+1 = 1.164399

******** <class 'pyphf.util.SUHF'> ********
SVD: S^(-1/2)
[[ -0.15773471  -0.           0.           0.21652785   0.1051747    0.           0.          -0.           0.          -0.28571235   0.11219504  -0.
   -0.          -0.32322796  -0.          -0.          -0.          -0.           0.66187725   0.           0.          -0.25663538  -0.           0.
    1.56242564  -1.79002487   0.19070935  -0.80185588]
 [ -0.21145885  -0.           0.           0.13910921  -0.07971247   0.           0.           0.          -0.           0.01693086  -0.06977102  -0.
   -0.          -0.19413325  -0.          -0.          -0.           0.          -0.28728647  -0.           0.           1.25937861   0.          -0.
   -0.89192212   0.09460117   0.13663009 -18.32694163]
 [ -0.18999203  -0.           0.           0.04742351  -0.23424449  -0.           0.          -0.          -0.           0.18191201  -0.046311     0.
   -0.           0.43027614  -0.           0.           0.           0.          -0.2839713   -0.          -0.          -0.8223188   -0.           0.
    0.27173405  -0.63081858  -3.51187775   1.23044325]
 [  0.           0.13855581  -0.21823855   0.           0.          -0.           0.          -0.12526879   0.3799755    0.           0.           0.01117036
    0.01076863  -0.           0.           0.           0.58436551  -0.60527776   0.          -1.10996238   0.06712787   0.           0.25433971  -0.51647819
    0.           0.          -0.           0.        ]
 [  0.           0.21823855   0.13855581  -0.           0.           0.          -0.           0.3799755    0.12526879   0.           0.          -0.01076863
    0.01117036   0.          -0.          -0.          -0.60527776  -0.58436551  -0.           0.06712787   1.10996238  -0.           0.51647819   0.25433971
    0.           0.           0.          -0.        ]
 [ -0.06740862   0.          -0.          -0.17678499   0.40063078   0.           0.          -0.           0.           0.11471165   0.18786528   0.
   -0.           0.48988712   0.          -0.           0.           0.          -0.63512774  -0.          -0.           0.4277188   -0.          -0.
    0.22562197  -1.7770864    0.89055952  -0.5679591 ]
 [  0.           0.15876979  -0.25007749   0.           0.          -0.           0.          -0.06734906   0.20428867   0.           0.           0.22435481
    0.21628617   0.           0.           0.          -0.39920801   0.41349417  -0.           0.90278693  -0.05459839   0.           0.78371397  -1.59145879
    0.           0.          -0.           0.        ]
 [ -0.           0.25007749   0.15876979  -0.           0.           0.          -0.           0.20428867   0.06734906  -0.          -0.          -0.21628617
    0.22435481  -0.           0.           0.           0.41349417   0.39920801   0.          -0.05459839  -0.90278693   0.           1.59145879   0.78371397
    0.           0.           0.           0.        ]
 [ -0.08212321   0.          -0.          -0.30707077   0.21330434   0.           0.          -0.          -0.           0.15534675   0.19843431  -0.
   -0.          -0.3749115   -0.          -0.          -0.           0.           0.57809343  -0.          -0.          -1.09417198   0.          -0.
   -1.18032648   0.09175937  -0.97454554  -7.92372829]
 [  0.          -0.          -0.           0.           0.          -0.00000005   0.59833737   0.          -0.           0.           0.          -0.
   -0.           0.          -0.91030919  -0.00031361   0.          -0.           0.           0.          -0.           0.           0.          -0.
    0.           0.           0.           0.        ]
 [ -0.           0.13974336   0.0887206   -0.          -0.          -0.           0.          -0.37854872  -0.12479841   0.           0.           0.403872
   -0.4189386   -0.           0.          -0.           0.20530033   0.19820724   0.           0.03791616   0.62694539  -0.           1.377276     0.67823964
    0.           0.           0.           0.        ]
 [ -0.02570777   0.          -0.          -0.1399761    0.00963082   0.           0.           0.           0.          -0.52767646  -0.58405546   0.
    0.           0.31324165  -0.          -0.           0.          -0.           0.17609583  -0.          -0.          -0.33326318   0.          -0.
   -1.07935843  -0.84557575   0.25412712  -0.93706391]
 [  0.           0.0887206   -0.13974336   0.           0.           0.          -0.           0.12479841  -0.37854872  -0.          -0.          -0.4189386
   -0.403872     0.          -0.           0.          -0.19820724   0.20530033   0.          -0.62694539   0.03791616   0.           0.67823964  -1.377276
    0.           0.          -0.           0.        ]
 [  0.           0.          -0.           0.           0.           0.59833737   0.00000005  -0.          -0.           0.           0.           0.
    0.           0.           0.00031361  -0.91030919   0.           0.           0.          -0.          -0.           0.          -0.          -0.
    0.           0.           0.           0.        ]
 [ -0.15773471   0.          -0.          -0.21652785   0.1051747   -0.          -0.           0.          -0.          -0.28571235  -0.11219504   0.
    0.          -0.32322796   0.           0.          -0.           0.          -0.66187725  -0.           0.          -0.25663538  -0.           0.
    1.56242564   1.79002487  -0.19070935   0.80185588]
 [ -0.21145885   0.          -0.          -0.13910921  -0.07971247  -0.          -0.          -0.           0.           0.01693086   0.06977102  -0.
    0.          -0.19413325   0.           0.          -0.          -0.           0.28728647   0.           0.           1.25937861   0.           0.
   -0.89192212  -0.09460117  -0.13663009  18.32694163]
 [ -0.18999203   0.          -0.          -0.04742351  -0.23424449   0.          -0.           0.           0.           0.18191201   0.046311     0.
   -0.           0.43027614   0.          -0.           0.          -0.           0.2839713    0.          -0.          -0.8223188   -0.          -0.
    0.27173405   0.63081858   3.51187775  -1.23044325]
 [  0.           0.13855581  -0.21823855   0.           0.           0.          -0.           0.12526879  -0.3799755    0.           0.           0.01117036
    0.01076863  -0.          -0.          -0.           0.58436551  -0.60527776  -0.           1.10996238  -0.06712787   0.          -0.25433971   0.51647819
   -0.          -0.          -0.          -0.        ]
 [ -0.           0.21823855   0.13855581  -0.          -0.          -0.           0.          -0.3799755   -0.12526879  -0.          -0.          -0.01076863
    0.01117036   0.           0.          -0.          -0.60527776  -0.58436551  -0.          -0.06712787  -1.10996238  -0.          -0.51647819  -0.25433971
   -0.          -0.          -0.          -0.        ]
 [  0.06740862   0.          -0.          -0.17678499  -0.40063078   0.           0.           0.          -0.          -0.11471165   0.18786528  -0.
   -0.          -0.48988712  -0.          -0.          -0.           0.          -0.63512774   0.          -0.          -0.4277188    0.          -0.
   -0.22562197  -1.7770864    0.89055952  -0.5679591 ]
 [  0.           0.15876979  -0.25007749   0.           0.          -0.          -0.           0.06734906  -0.20428867   0.           0.           0.22435481
    0.21628617  -0.          -0.          -0.          -0.39920801   0.41349417   0.          -0.90278693   0.05459839  -0.          -0.78371397   1.59145879
   -0.          -0.           0.          -0.        ]
 [ -0.           0.25007749   0.15876979  -0.          -0.          -0.           0.          -0.20428867  -0.06734906  -0.          -0.          -0.21628617
    0.22435481   0.          -0.           0.           0.41349417   0.39920801   0.           0.05459839   0.90278693  -0.          -1.59145879  -0.78371397
   -0.          -0.          -0.          -0.        ]
 [  0.08212321   0.          -0.          -0.30707077  -0.21330434   0.          -0.          -0.          -0.          -0.15534675   0.19843431   0.
   -0.           0.3749115   -0.          -0.           0.          -0.           0.57809343  -0.           0.           1.09417198  -0.           0.
    1.18032648   0.09175937  -0.97454554  -7.92372829]
 [ -0.          -0.          -0.          -0.           0.          -0.00000005   0.59833737   0.          -0.          -0.          -0.          -0.
   -0.          -0.           0.91030919   0.00031361  -0.           0.           0.          -0.           0.           0.          -0.           0.
    0.           0.          -0.          -0.        ]
 [  0.          -0.13974336  -0.0887206    0.          -0.          -0.           0.          -0.37854872  -0.12479841  -0.          -0.          -0.403872
    0.4189386    0.           0.          -0.          -0.20530033  -0.19820724  -0.           0.03791616   0.62694539  -0.           1.377276     0.67823964
    0.           0.           0.           0.        ]
 [ -0.02570777  -0.           0.           0.1399761    0.00963082  -0.           0.          -0.          -0.          -0.52767646   0.58405546  -0.
   -0.           0.31324165  -0.           0.           0.           0.          -0.17609583  -0.          -0.          -0.33326318   0.          -0.
   -1.07935843   0.84557575  -0.25412712   0.93706391]
 [ -0.          -0.0887206    0.13974336  -0.           0.           0.          -0.           0.12479841  -0.37854872   0.           0.           0.4189386
    0.403872    -0.           0.           0.           0.19820724  -0.20530033   0.          -0.62694539   0.03791616   0.           0.67823964  -1.377276
    0.           0.          -0.           0.        ]
 [  0.          -0.          -0.           0.           0.           0.59833737   0.00000005  -0.          -0.           0.           0.           0.
    0.           0.          -0.00031361   0.91030919  -0.          -0.          -0.           0.           0.          -0.           0.           0.
   -0.          -0.          -0.          -0.        ]]
C (ortho)
[[-0.9790698  -0.11451319 -0.00201848 -0.09837875  0.          0.         -0.09788548 -0.         -0.         -0.00322447 -0.0064522   0.03752484  0.
  -0.          0.          0.          0.07460487 -0.         -0.         -0.         -0.         -0.          0.         -0.00051202  0.         -0.
   0.04485409  0.00261862]
 [-0.          0.          0.          0.          0.79009324  0.2968887   0.          0.02548526  0.03151653  0.          0.         -0.         -0.
   0.          0.28649744  0.44965717  0.          0.01027744  0.01864919  0.          0.         -0.03448733  0.00578147  0.         -0.00390991 -0.00176584
  -0.          0.        ]
 [ 0.         -0.         -0.         -0.          0.2968887  -0.79009324  0.         -0.03151653  0.02548526 -0.         -0.          0.          0.
  -0.          0.44965717 -0.28649744 -0.          0.01864919 -0.01027744 -0.          0.          0.00578147  0.03448733 -0.          0.00176584 -0.00390991
  -0.         -0.        ]
 [ 0.14478339 -0.55091653 -0.02291499 -0.76566508  0.          0.          0.03173645  0.         -0.         -0.04722095 -0.24826786  0.14732086  0.
  -0.         -0.          0.         -0.00932378 -0.          0.         -0.         -0.         -0.         -0.         -0.03585123 -0.          0.
  -0.00289747 -0.02833038]
 [-0.11509635 -0.03162049 -0.50541255  0.0402964  -0.          0.          0.60186929  0.          0.         -0.01031149 -0.11536595 -0.23648346 -0.
   0.         -0.          0.         -0.5164043   0.         -0.          0.         -0.          0.         -0.          0.00824467 -0.         -0.
  -0.17420261 -0.00356437]
 [-0.         -0.          0.         -0.          0.          0.         -0.         -0.         -0.         -0.          0.         -0.          0.97892194
   0.20375841 -0.          0.         -0.         -0.         -0.         -0.00045317  0.01393348  0.         -0.          0.          0.          0.
   0.          0.        ]
 [-0.         -0.          0.         -0.         -0.         -0.         -0.         -0.          0.         -0.         -0.          0.         -0.20375841
   0.97892194 -0.         -0.         -0.          0.         -0.          0.01393348  0.00045317  0.          0.          0.          0.          0.
  -0.          0.        ]
 [-0.         -0.         -0.          0.          0.03194374 -0.0184892   0.          0.13830153 -0.66802151  0.         -0.          0.         -0.
   0.          0.02004922  0.00240492  0.         -0.70676414 -0.13078998 -0.         -0.         -0.0220327   0.03843002 -0.          0.03098923  0.11535049
  -0.          0.        ]
 [ 0.          0.          0.          0.          0.0184892   0.03194374  0.         -0.66802151 -0.13830153  0.          0.          0.         -0.
  -0.         -0.00240492  0.02004922 -0.          0.13078998 -0.70676414 -0.          0.         -0.03843002 -0.0220327   0.          0.11535049 -0.03098923
  -0.          0.        ]
 [-0.03567409  0.02607597  0.37970942 -0.00832225 -0.         -0.          0.41160275  0.         -0.         -0.00161333  0.33753871  0.61446515  0.
  -0.          0.         -0.         -0.3375762  -0.          0.          0.         -0.          0.          0.          0.00800121  0.          0.
   0.28081109  0.00175877]
 [-0.02044298  0.22905799 -0.01519551  0.05257059 -0.          0.          0.00826084  0.          0.          0.38989593 -0.51134335  0.27827595  0.
  -0.          0.         -0.         -0.01234716  0.          0.          0.          0.          0.          0.         -0.65522184  0.          0.
  -0.00304348  0.15377246]
 [ 0.          0.          0.         -0.         -0.22117526  0.35211048 -0.          0.01208996 -0.01466646 -0.          0.         -0.          0.
  -0.          0.57301278 -0.21953318 -0.          0.05219868 -0.01627671 -0.          0.         -0.02361394  0.66831499  0.          0.00061692 -0.002723
  -0.         -0.        ]
 [ 0.         -0.          0.         -0.          0.35211048  0.22117526  0.          0.01466646  0.01208996  0.          0.          0.          0.
  -0.         -0.21953318 -0.57301278  0.         -0.01627671 -0.05219868 -0.         -0.          0.66831499  0.02361394  0.          0.002723    0.00061692
  -0.         -0.        ]
 [-0.05021223  0.02709145  0.61819648 -0.04935082  0.         -0.         -0.19020727 -0.         -0.          0.00017071 -0.14041306 -0.24581627 -0.
   0.         -0.          0.         -0.51501715 -0.         -0.          0.         -0.          0.         -0.          0.00723386 -0.          0.
  -0.48013036 -0.00139223]
 [-0.          0.         -0.         -0.          0.         -0.         -0.         -0.         -0.         -0.          0.         -0.          0.00284554
  -0.01364735 -0.         -0.          0.         -0.         -0.          0.99938554  0.03215898  0.          0.         -0.          0.         -0.
   0.         -0.        ]
 [-0.          0.         -0.         -0.         -0.         -0.          0.          0.         -0.          0.         -0.          0.         -0.01364735
  -0.00284554  0.          0.         -0.         -0.         -0.         -0.03215898  0.99938554  0.         -0.          0.          0.          0.
   0.          0.        ]
 [-0.         -0.          0.          0.          0.18831193 -0.27718884 -0.         -0.01220111  0.01593326 -0.          0.         -0.          0.
  -0.         -0.55027814  0.18847499 -0.          0.02698092 -0.00736218 -0.          0.         -0.05267492  0.73851668  0.         -0.00057803  0.00305647
  -0.         -0.        ]
 [-0.         -0.         -0.          0.          0.27718884  0.18831193  0.          0.01593326  0.01220111  0.         -0.         -0.          0.
  -0.         -0.18847499 -0.55027814 -0.          0.00736218  0.02698092  0.          0.         -0.73851668 -0.05267492 -0.          0.00305647  0.00057803
   0.          0.        ]
 [-0.02585449  0.43810307 -0.03904151 -0.08523295  0.         -0.         -0.00473434  0.         -0.         -0.24755902 -0.5658424   0.31154309  0.
  -0.         -0.         -0.          0.00344621  0.          0.          0.          0.         -0.          0.          0.56393428 -0.         -0.
  -0.00138948 -0.04503417]
 [ 0.          0.         -0.         -0.          0.00345115  0.02349763  0.         -0.53560022  0.09453962  0.         -0.          0.          0.
   0.          0.00790056 -0.01452257  0.         -0.20914397  0.33222703 -0.         -0.          0.01288409  0.01621701 -0.         -0.5936252   0.44319456
   0.          0.        ]
 [ 0.          0.         -0.         -0.         -0.02349763  0.00345115 -0.          0.09453962  0.53560022 -0.         -0.          0.         -0.
   0.          0.01452257  0.00790056  0.         -0.33222703 -0.20914397  0.         -0.         -0.01621701  0.01288409  0.          0.44319456  0.5936252
  -0.         -0.        ]
 [ 0.03812293 -0.027717   -0.4433471   0.02150759  0.          0.         -0.63570829 -0.         -0.          0.01776997  0.18787106  0.33076409  0.
  -0.         -0.          0.         -0.50139319 -0.         -0.          0.          0.         -0.          0.          0.00713851  0.         -0.
  -0.01310538  0.00034602]
 [-0.         -0.         -0.          0.          0.0213997   0.00549515  0.         -0.26315493 -0.40884874  0.          0.          0.          0.
   0.         -0.00837033 -0.01044941  0.          0.32742859  0.46672019 -0.          0.          0.03046932 -0.00856993 -0.          0.56952381  0.33545251
  -0.          0.        ]
 [ 0.         -0.         -0.          0.          0.00549515 -0.0213997  -0.          0.40884874 -0.26315493  0.          0.         -0.          0.
  -0.         -0.01044941  0.00837033 -0.          0.46672019 -0.32742859  0.          0.         -0.00856993 -0.03046932  0.         -0.33545251  0.56952381
   0.         -0.        ]
 [ 0.01307472  0.00526182  0.11871481 -0.01404482  0.          0.         -0.13054542 -0.         -0.         -0.00066943 -0.22540944 -0.40343494 -0.
   0.         -0.         -0.         -0.31116194  0.          0.          0.         -0.          0.         -0.          0.00164006  0.          0.
   0.81121486 -0.00227675]
 [-0.01413953  0.22117454 -0.02062758 -0.16987419 -0.          0.          0.00436725 -0.         -0.          0.25866146  0.07114362 -0.03625034 -0.
   0.         -0.         -0.          0.0024229  -0.          0.          0.          0.         -0.         -0.         -0.06794374  0.          0.
   0.00001628 -0.9185187 ]
 [-0.02210473  0.62104408 -0.06921383 -0.58255221  0.         -0.          0.00230992  0.         -0.         -0.14899965  0.33248324 -0.17762144 -0.
  -0.          0.         -0.         -0.00312618  0.         -0.         -0.         -0.         -0.         -0.         -0.18887749  0.          0.
   0.00059418  0.26395541]
 [-0.00444952 -0.03394469  0.00786091  0.14504333  0.         -0.         -0.0169339  -0.         -0.         -0.83362081 -0.08945842  0.0587049  -0.
   0.         -0.         -0.         -0.00875082  0.          0.         -0.         -0.         -0.          0.         -0.45918174  0.          0.
  -0.00053915 -0.2452435 ]]
[[-0.9790698  -0.11451319 -0.00201848 -0.09837875  0.         -0.          0.09788548 -0.         -0.         -0.00322447 -0.0064522   0.03752484  0.
   0.          0.         -0.         -0.07460487  0.          0.         -0.          0.         -0.         -0.         -0.00051202 -0.          0.
   0.04485409  0.00261862]
 [ 0.         -0.          0.         -0.          0.08126768  0.84011059  0.          0.01438615  0.03789233 -0.         -0.          0.          0.
  -0.          0.46822194  0.25503052 -0.          0.0062028   0.02037016 -0.          0.          0.0311805   0.01582965 -0.          0.00419348  0.00090572
   0.         -0.        ]
 [-0.          0.          0.          0.         -0.84011059  0.08126768  0.         -0.03789233  0.01438615  0.          0.         -0.          0.
  -0.         -0.25503052  0.46822194 -0.          0.02037016 -0.0062028  -0.          0.         -0.01582965  0.0311805   0.          0.00090572 -0.00419348
   0.          0.        ]
 [-0.14478339  0.55091653  0.02291499  0.76566508  0.          0.          0.03173645  0.          0.          0.04722095  0.24826786 -0.14732086  0.
   0.          0.         -0.         -0.00932378 -0.          0.          0.          0.          0.         -0.          0.03585123  0.          0.
   0.00289747  0.02833038]
 [-0.11509635 -0.03162049 -0.50541255  0.0402964  -0.          0.         -0.60186929  0.          0.         -0.01031149 -0.11536595 -0.23648346 -0.
  -0.          0.          0.          0.5164043  -0.         -0.         -0.         -0.         -0.          0.          0.00824467  0.          0.
  -0.17420261 -0.00356437]
 [ 0.         -0.         -0.         -0.          0.          0.         -0.         -0.          0.         -0.         -0.          0.         -0.39055497
   0.92047405 -0.          0.         -0.          0.          0.          0.01392461 -0.00067274  0.          0.          0.          0.         -0.
  -0.         -0.        ]
 [-0.         -0.         -0.         -0.         -0.          0.         -0.          0.         -0.          0.          0.         -0.          0.92047405
   0.39055497 -0.         -0.          0.         -0.          0.          0.00067274  0.01392461 -0.         -0.         -0.         -0.          0.
  -0.         -0.        ]
 [ 0.         -0.          0.         -0.          0.02615828 -0.02603839  0.         -0.33972348  0.59158094 -0.         -0.          0.          0.
  -0.         -0.00377233 -0.01983745  0.          0.664495    0.27398534  0.          0.         -0.00953288 -0.04326004 -0.          0.09351515 -0.07430333
   0.          0.        ]
 [-0.          0.         -0.          0.         -0.02603839 -0.02615828  0.          0.59158094  0.33972348 -0.          0.         -0.         -0.
  -0.         -0.01983745  0.00377233 -0.         -0.27398534  0.664495   -0.          0.         -0.04326004  0.00953288  0.          0.07430333  0.09351515
   0.         -0.        ]
 [-0.03567409  0.02607597  0.37970942 -0.00832225 -0.         -0.         -0.41160275  0.          0.         -0.00161333  0.33753871  0.61446515 -0.
  -0.         -0.          0.          0.3375762  -0.         -0.         -0.         -0.         -0.          0.          0.00800121 -0.          0.
   0.28081109  0.00175877]
 [ 0.02044298 -0.22905799  0.01519551 -0.05257059  0.          0.          0.00826084 -0.         -0.         -0.38989593  0.51134335 -0.27827595 -0.
  -0.         -0.          0.         -0.01234716  0.          0.         -0.          0.         -0.         -0.          0.65522184 -0.          0.
   0.00304348 -0.15377246]
 [-0.          0.          0.         -0.          0.3975045  -0.12202646 -0.          0.01606072 -0.01016491  0.         -0.         -0.          0.
  -0.         -0.17977559  0.58670197 -0.          0.05443529 -0.00514133 -0.          0.         -0.17731217  0.64479683 -0.          0.00112349 -0.00255599
  -0.          0.        ]
 [-0.          0.          0.         -0.          0.12202646  0.3975045   0.          0.01016491  0.01606072  0.         -0.          0.         -0.
   0.         -0.58670197 -0.17977559  0.         -0.00514133 -0.05443529  0.         -0.         -0.64479683 -0.17731217 -0.         -0.00255599 -0.00112349
  -0.          0.        ]
 [-0.05021223  0.02709145  0.61819648 -0.04935082  0.         -0.          0.19020727 -0.         -0.          0.00017071 -0.14041306 -0.24581627 -0.
   0.          0.         -0.          0.51501715 -0.         -0.          0.         -0.          0.          0.          0.00723386  0.         -0.
  -0.48013036 -0.00139223]
 [ 0.          0.          0.          0.         -0.         -0.          0.          0.         -0.         -0.         -0.         -0.          0.01283531
   0.00544077 -0.          0.         -0.          0.          0.         -0.04790808 -0.99875446  0.          0.          0.         -0.          0.
   0.          0.        ]
 [ 0.         -0.         -0.         -0.         -0.         -0.         -0.         -0.          0.          0.         -0.          0.         -0.00544077
   0.01283531 -0.          0.          0.         -0.         -0.         -0.99875446  0.04790808  0.         -0.          0.         -0.          0.
  -0.          0.        ]
 [-0.          0.          0.          0.         -0.31661525  0.10977166  0.         -0.01656137  0.01133388 -0.         -0.         -0.         -0.
   0.          0.15034728 -0.56189372 -0.          0.02791985 -0.00162911 -0.          0.         -0.17057324  0.72047644  0.         -0.00135307  0.00280095
  -0.          0.        ]
 [-0.          0.          0.         -0.          0.10977166  0.31661525 -0.          0.01133388  0.01656137 -0.          0.          0.         -0.
  -0.         -0.56189372 -0.15034728 -0.          0.00162911  0.02791985 -0.          0.          0.72047644  0.17057324  0.         -0.00280095 -0.00135307
  -0.         -0.        ]
 [ 0.02585449 -0.43810307  0.03904151  0.08523295  0.          0.         -0.00473434 -0.          0.          0.24755902  0.5658424  -0.31154309 -0.
  -0.         -0.         -0.          0.00344621 -0.         -0.         -0.          0.          0.         -0.         -0.56393428  0.         -0.
   0.00138948  0.04503417]
 [ 0.         -0.         -0.          0.         -0.02179236 -0.00944149  0.          0.53837322  0.07719855 -0.          0.          0.          0.
   0.          0.01394741 -0.00887657  0.          0.27326973 -0.2818504   0.          0.          0.01714392 -0.01162226  0.         -0.21365202 -0.70934132
  -0.         -0.        ]
 [ 0.         -0.         -0.          0.         -0.00944149  0.02179236 -0.          0.07719855 -0.53837322  0.          0.          0.          0.
   0.         -0.00887657 -0.01394741  0.          0.2818504   0.27326973 -0.          0.         -0.01162226 -0.01714392 -0.          0.70934132 -0.21365202
   0.          0.        ]
 [ 0.03812293 -0.027717   -0.4433471   0.02150759  0.         -0.          0.63570829 -0.          0.          0.01776997  0.18787106  0.33076409  0.
   0.          0.          0.          0.50139319 -0.          0.         -0.         -0.          0.          0.          0.00713851 -0.          0.
  -0.01310538  0.00034602]
 [-0.          0.         -0.         -0.          0.0002574  -0.02209248 -0.          0.12253517  0.47052412 -0.          0.          0.          0.
  -0.          0.01099811  0.00763506 -0.         -0.2239404  -0.52429754  0.          0.          0.02651251  0.01728902  0.          0.65735865  0.06903159
  -0.         -0.        ]
 [ 0.          0.         -0.         -0.          0.02209248  0.0002574   0.         -0.47052412  0.12253517 -0.         -0.         -0.         -0.
  -0.         -0.00763506  0.01099811 -0.         -0.52429754  0.2239404  -0.         -0.         -0.01728902  0.02651251  0.          0.06903159 -0.65735865
   0.          0.        ]
 [ 0.01307472  0.00526182  0.11871481 -0.01404482  0.         -0.          0.13054542  0.          0.         -0.00066943 -0.22540944 -0.40343494 -0.
   0.          0.         -0.          0.31116194 -0.         -0.          0.         -0.          0.          0.          0.00164006  0.          0.
   0.81121486 -0.00227675]
 [ 0.01413953 -0.22117454  0.02062758  0.16987419  0.          0.          0.00436725  0.          0.         -0.25866146 -0.07114362  0.03625034  0.
   0.         -0.         -0.          0.0024229   0.         -0.         -0.         -0.          0.         -0.          0.06794374  0.          0.
  -0.00001628  0.9185187 ]
 [ 0.02210473 -0.62104408  0.06921383  0.58255221  0.          0.          0.00230992 -0.          0.          0.14899965 -0.33248324  0.17762144  0.
   0.         -0.          0.         -0.00312618 -0.         -0.          0.          0.          0.          0.          0.18887749  0.         -0.
  -0.00059418 -0.26395541]
 [ 0.00444952  0.03394469 -0.00786091 -0.14504333 -0.          0.         -0.0169339  -0.          0.          0.83362081  0.08945842 -0.0587049   0.
   0.         -0.         -0.         -0.00875082 -0.         -0.          0.          0.          0.          0.          0.45918174  0.          0.
   0.00053915  0.2452435 ]]
grids:  [0.06237655 0.31939555 0.74529195 1.28265786 1.85893479 2.39630071 2.8221971  3.07921611] 
weights:  [0.15900941 0.34931531 0.49276925 0.56970235 0.56970235 0.49276925 0.34931531 0.15900941]
S = 0.0, Sz = 0.0
Wigner small d:  1
value : [1. 1. 1. 1. 1. 1. 1. 1.]
**** Start Cycle 1 ****
dm (ortho)
[[[ 0.95857767  0.         -0.         ...  0.01384358  0.02164207  0.00435639]
  [ 0.          0.         -0.         ...  0.          0.          0.        ]
  [-0.         -0.          0.         ... -0.         -0.         -0.        ]
  ...
  [ 0.01384358  0.         -0.         ...  0.00019993  0.00031255  0.00006291]
  [ 0.02164207  0.         -0.         ...  0.00031255  0.00048862  0.00009836]
  [ 0.00435639  0.         -0.         ...  0.00006291  0.00009836  0.0000198 ]]

 [[ 0.95857767 -0.          0.         ... -0.01384358 -0.02164207 -0.00435639]
  [-0.          0.         -0.         ...  0.          0.          0.        ]
  [ 0.         -0.          0.         ... -0.         -0.         -0.        ]
  ...
  [-0.01384358  0.         -0.         ...  0.00019993  0.00031255  0.00006291]
  [-0.02164207  0.         -0.         ...  0.00031255  0.00048862  0.00009836]
  [-0.00435639  0.         -0.         ...  0.00006291  0.00009836  0.0000198 ]]]
Fock (ortho)
 (array([[-0.55945248, -0.        ,  0.        ,  0.10542085, -0.31207988, -0.        , -0.        ,  0.        ,  0.        , -0.0584333 ,  0.00464335,
        -0.        , -0.        , -0.31254663,  0.        ,  0.        , -0.        , -0.        ,  0.00966649,  0.        ,  0.        , -0.02193032,
        -0.        ,  0.        ,  0.13056049, -0.01361899, -0.0024263 , -0.00287649],
       [-0.        ,  1.4546472 , -0.        ,  0.        , -0.        , -0.        , -0.        , -0.01175882, -0.01434443, -0.        , -0.        ,
         0.19478965, -0.9539933 , -0.        ,  0.        , -0.        , -0.17609475, -0.7280925 , -0.        ,  0.00207392, -0.00374919,  0.        ,
        -0.00524438,  0.00056906, -0.        , -0.        , -0.        , -0.        ],
       [ 0.        , -0.        ,  1.4546472 , -0.        ,  0.        , -0.        , -0.        , -0.01434443,  0.01175882,  0.        ,  0.        ,
         0.9539933 ,  0.19478965, -0.        ,  0.        , -0.        , -0.7280925 ,  0.17609475,  0.        , -0.00374919, -0.00207392, -0.        ,
        -0.00056906, -0.00524438, -0.        ,  0.        , -0.        ,  0.        ],
       [ 0.10542085,  0.        , -0.        ,  0.62294474,  0.01092915,  0.        ,  0.        ,  0.        , -0.        ,  0.03151183,  0.39905679,
        -0.        , -0.        ,  0.0246187 ,  0.        , -0.        ,  0.        , -0.        ,  0.36614891,  0.        ,  0.        , -0.00544596,
         0.        ,  0.        , -0.01091707,  0.18827551, -0.02733817,  0.19095963],
       [-0.31207988, -0.        ,  0.        ,  0.01092915,  1.78250538,  0.        , -0.        , -0.        , -0.        ,  0.12690298, -0.01442614,
         0.        , -0.        ,  1.427702  ,  0.        ,  0.        ,  0.        , -0.        , -0.00307158, -0.        , -0.        ,  0.37778888,
         0.        , -0.        , -0.07382448,  0.00823028, -0.00208639,  0.00051636],
       [-0.        , -0.        , -0.        ,  0.        ,  0.        ,  3.15423818, -0.        , -0.        , -0.        , -0.        , -0.        ,
         0.        ,  0.        , -0.        , -0.00000298,  0.00863545,  0.        , -0.        ,  0.        ,  0.        ,  0.        ,  0.        ,
        -0.        , -0.        ,  0.        ,  0.        ,  0.        ,  0.        ],
       [-0.        , -0.        , -0.        ,  0.        , -0.        , -0.        ,  3.15423818,  0.        , -0.        , -0.        ,  0.        ,
        -0.        , -0.        ,  0.        ,  0.00863545,  0.00000298, -0.        ,  0.        ,  0.        , -0.        ,  0.        ,  0.        ,
         0.        ,  0.        ,  0.        , -0.        ,  0.        ,  0.        ],
       [ 0.        , -0.01175882, -0.01434443,  0.        , -0.        , -0.        ,  0.        ,  2.58812349, -0.        , -0.        ,  0.        ,
         0.00904943, -0.00477181,  0.        , -0.        ,  0.        ,  0.00855584,  0.00412625,  0.        ,  0.44094463,  1.10764864,  0.        ,
        -0.53054768, -0.5207145 , -0.        ,  0.        , -0.        , -0.        ],
       [ 0.        , -0.01434443,  0.01175882, -0.        , -0.        , -0.        , -0.        , -0.        ,  2.58812349,  0.        , -0.        ,
        -0.00477181, -0.00904943,  0.        ,  0.        , -0.        , -0.00412625,  0.00855584, -0.        , -1.10764864,  0.44094463,  0.        ,
        -0.5207145 ,  0.53054768, -0.        , -0.        ,  0.        , -0.        ],
       [-0.0584333 , -0.        ,  0.        ,  0.03151183,  0.12690298, -0.        , -0.        , -0.        ,  0.        ,  2.26302643, -0.00306868,
        -0.        ,  0.        , -0.65473601,  0.        ,  0.        , -0.        ,  0.        ,  0.01530862,  0.        ,  0.        ,  0.89000948,
        -0.        ,  0.        ,  0.93152503, -0.00912026, -0.0000366 , -0.00045018],
       [ 0.00464335, -0.        ,  0.        ,  0.39905679, -0.01442614, -0.        ,  0.        ,  0.        , -0.        , -0.00306868,  3.24457934,
         0.        ,  0.        ,  0.00324608, -0.        , -0.        ,  0.        ,  0.        , -1.07125761,  0.        ,  0.        ,  0.00291127,
         0.        , -0.        , -0.00689472, -0.75294176,  0.28535422,  0.81569387],
       [-0.        ,  0.19478965,  0.9539933 , -0.        ,  0.        ,  0.        , -0.        ,  0.00904943, -0.00477181, -0.        ,  0.        ,
         3.25798078, -0.        , -0.        ,  0.        , -0.        ,  0.74052951, -0.02658596,  0.        , -0.00355503, -0.00303521,  0.        ,
        -0.00057089, -0.00178527, -0.        ,  0.        ,  0.        ,  0.        ],
       [-0.        , -0.9539933 ,  0.19478965, -0.        , -0.        ,  0.        , -0.        , -0.00477181, -0.00904943,  0.        ,  0.        ,
        -0.        ,  3.25798078, -0.        ,  0.        , -0.        , -0.02658596, -0.74052951,  0.        , -0.00303521,  0.00355503, -0.        ,
         0.00178527, -0.00057089,  0.        ,  0.        ,  0.        , -0.        ],
       [-0.31254663, -0.        , -0.        ,  0.0246187 ,  1.427702  , -0.        ,  0.        ,  0.        ,  0.        , -0.65473601,  0.00324608,
        -0.        , -0.        ,  2.68500677, -0.        ,  0.        , -0.        , -0.        ,  0.01064369, -0.        , -0.        ,  0.77894553,
         0.        , -0.        , -1.36626863,  0.00109961, -0.00126769, -0.00050059],
       [ 0.        ,  0.        ,  0.        ,  0.        ,  0.        , -0.00000298,  0.00863545, -0.        ,  0.        ,  0.        , -0.        ,
         0.        ,  0.        , -0.        ,  4.1045973 ,  0.        , -0.        ,  0.        , -0.        , -0.        ,  0.        ,  0.        ,
        -0.        ,  0.        ,  0.        ,  0.        , -0.        , -0.        ],
       [ 0.        , -0.        , -0.        , -0.        ,  0.        ,  0.00863545,  0.00000298,  0.        , -0.        ,  0.        , -0.        ,
        -0.        , -0.        ,  0.        ,  0.        ,  4.1045973 , -0.        , -0.        , -0.        ,  0.        ,  0.        ,  0.        ,
         0.        ,  0.        ,  0.        , -0.        , -0.        , -0.        ],
       [-0.        , -0.17609475, -0.7280925 ,  0.        ,  0.        ,  0.        , -0.        ,  0.00855584, -0.00412625, -0.        ,  0.        ,
         0.74052951, -0.02658596, -0.        , -0.        , -0.        ,  3.4973973 , -0.        ,  0.        ,  0.0042785 ,  0.00392687,  0.        ,
        -0.00064049, -0.0017801 , -0.        , -0.        , -0.        ,  0.        ],
       [-0.        , -0.7280925 ,  0.17609475, -0.        , -0.        , -0.        ,  0.        ,  0.00412625,  0.00855584,  0.        ,  0.        ,
        -0.02658596, -0.74052951, -0.        ,  0.        , -0.        , -0.        ,  3.4973973 , -0.        , -0.00392687,  0.0042785 ,  0.        ,
        -0.0017801 ,  0.00064049,  0.        ,  0.        ,  0.        ,  0.        ],
       [ 0.00966649, -0.        ,  0.        ,  0.36614891, -0.00307158,  0.        ,  0.        ,  0.        , -0.        ,  0.01530862, -1.07125761,
         0.        ,  0.        ,  0.01064369, -0.        , -0.        ,  0.        , -0.        ,  2.62934918,  0.        , -0.        ,  0.00728   ,
         0.        , -0.        , -0.00546946, -0.07877253, -1.02567618, -0.69212347],
       [ 0.        ,  0.00207392, -0.00374919,  0.        , -0.        ,  0.        , -0.        ,  0.44094463, -1.10764864,  0.        ,  0.        ,
        -0.00355503, -0.00303521, -0.        , -0.        ,  0.        ,  0.0042785 , -0.00392687,  0.        ,  4.14488456, -0.        , -0.        ,
        -0.66212059,  1.578434  , -0.        , -0.        , -0.        , -0.        ],
       [ 0.        , -0.00374919, -0.00207392,  0.        , -0.        ,  0.        ,  0.        ,  1.10764864,  0.44094463,  0.        ,  0.        ,
        -0.00303521,  0.00355503, -0.        ,  0.        ,  0.        ,  0.00392687,  0.0042785 , -0.        , -0.        ,  4.14488456, -0.        ,
         1.578434  ,  0.66212059,  0.        ,  0.        ,  0.        ,  0.        ],
       [-0.02193032,  0.        , -0.        , -0.00544596,  0.37778888,  0.        ,  0.        ,  0.        ,  0.        ,  0.89000948,  0.00291127,
         0.        , -0.        ,  0.77894553,  0.        ,  0.        ,  0.        ,  0.        ,  0.00728   , -0.        , -0.        ,  1.77602391,
        -0.        , -0.        ,  0.16577225, -0.00211039, -0.00139034, -0.00160398],
       [-0.        , -0.00524438, -0.00056906,  0.        ,  0.        , -0.        ,  0.        , -0.53054768, -0.5207145 , -0.        ,  0.        ,
        -0.00057089,  0.00178527,  0.        , -0.        ,  0.        , -0.00064049, -0.0017801 ,  0.        , -0.66212059,  1.578434  , -0.        ,
         4.08155787,  0.        , -0.        , -0.        ,  0.        ,  0.        ],
       [ 0.        ,  0.00056906, -0.00524438,  0.        , -0.        , -0.        ,  0.        , -0.5207145 ,  0.53054768,  0.        , -0.        ,
        -0.00178527, -0.00057089, -0.        ,  0.        ,  0.        , -0.0017801 ,  0.00064049, -0.        ,  1.578434  ,  0.66212059, -0.        ,
         0.        ,  4.08155787, -0.        ,  0.        ,  0.        , -0.        ],
       [ 0.13056049, -0.        , -0.        , -0.01091707, -0.07382448,  0.        ,  0.        , -0.        , -0.        ,  0.93152503, -0.00689472,
        -0.        ,  0.        , -1.36626863,  0.        ,  0.        , -0.        ,  0.        , -0.00546946, -0.        ,  0.        ,  0.16577225,
        -0.        , -0.        ,  4.79953811,  0.00636008,  0.00060111,  0.00029526],
       [-0.01361899, -0.        ,  0.        ,  0.18827551,  0.00823028,  0.        , -0.        ,  0.        , -0.        , -0.00912026, -0.75294176,
         0.        ,  0.        ,  0.00109961,  0.        , -0.        , -0.        ,  0.        , -0.07877253, -0.        ,  0.        , -0.00211039,
        -0.        ,  0.        ,  0.00636008,  6.21494387, -1.5768422 ,  1.39650036],
       [-0.0024263 , -0.        , -0.        , -0.02733817, -0.00208639,  0.        ,  0.        , -0.        ,  0.        , -0.0000366 ,  0.28535422,
         0.        ,  0.        , -0.00126769, -0.        , -0.        , -0.        ,  0.        , -1.02567618, -0.        ,  0.        , -0.00139034,
         0.        ,  0.        ,  0.00060111, -1.5768422 ,  1.33847592, -0.01481133],
       [-0.00287649, -0.        ,  0.        ,  0.19095963,  0.00051636,  0.        ,  0.        , -0.        , -0.        , -0.00045018,  0.81569387,
         0.        , -0.        , -0.00050059, -0.        , -0.        ,  0.        ,  0.        , -0.69212347, -0.        ,  0.        , -0.00160398,
         0.        , -0.        ,  0.00029526,  1.39650036, -0.01481133,  2.5531682 ]]), array([[-0.55945248,  0.        , -0.        , -0.10542085, -0.31207988,  0.        ,  0.        ,  0.        , -0.        , -0.0584333 , -0.00464335,
        -0.        ,  0.        , -0.31254663, -0.        ,  0.        , -0.        ,  0.        , -0.00966649,  0.        ,  0.        , -0.02193032,
        -0.        ,  0.        ,  0.13056049,  0.01361899,  0.0024263 ,  0.00287649],
       [ 0.        ,  1.4546472 , -0.        ,  0.        ,  0.        ,  0.        ,  0.        ,  0.01175882,  0.01434443,  0.        , -0.        ,
         0.19478965, -0.9539933 ,  0.        ,  0.        , -0.        , -0.17609475, -0.7280925 , -0.        , -0.00207392,  0.00374919, -0.        ,
         0.00524438, -0.00056906, -0.        , -0.        , -0.        , -0.        ],
       [-0.        , -0.        ,  1.4546472 , -0.        , -0.        , -0.        , -0.        ,  0.01434443, -0.01175882, -0.        ,  0.        ,
         0.9539933 ,  0.19478965, -0.        ,  0.        , -0.        , -0.7280925 ,  0.17609475,  0.        ,  0.00374919,  0.00207392, -0.        ,
         0.00056906,  0.00524438,  0.        ,  0.        , -0.        ,  0.        ],
       [-0.10542085,  0.        , -0.        ,  0.62294474, -0.01092915,  0.        , -0.        , -0.        ,  0.        , -0.03151183,  0.39905679,
        -0.        , -0.        , -0.0246187 ,  0.        ,  0.        ,  0.        , -0.        ,  0.36614891, -0.        ,  0.        ,  0.00544596,
        -0.        , -0.        ,  0.01091707,  0.18827551, -0.02733817,  0.19095963],
       [-0.31207988,  0.        , -0.        , -0.01092915,  1.78250538, -0.        , -0.        , -0.        , -0.        ,  0.12690298,  0.01442614,
         0.        , -0.        ,  1.427702  ,  0.        ,  0.        ,  0.        , -0.        ,  0.00307158, -0.        , -0.        ,  0.37778888,
         0.        , -0.        , -0.07382448, -0.00823028,  0.00208639, -0.00051636],
       [ 0.        ,  0.        , -0.        ,  0.        , -0.        ,  3.15423818, -0.        , -0.        , -0.        ,  0.        , -0.        ,
        -0.        ,  0.        ,  0.        ,  0.00000298, -0.00863545,  0.        , -0.        ,  0.        ,  0.        ,  0.        , -0.        ,
        -0.        , -0.        , -0.        ,  0.        ,  0.        ,  0.        ],
       [ 0.        ,  0.        , -0.        , -0.        , -0.        , -0.        ,  3.15423818,  0.        , -0.        , -0.        ,  0.        ,
        -0.        , -0.        ,  0.        , -0.00863545, -0.00000298, -0.        ,  0.        ,  0.        , -0.        ,  0.        ,  0.        ,
         0.        ,  0.        ,  0.        , -0.        ,  0.        ,  0.        ],
       [ 0.        ,  0.01175882,  0.01434443, -0.        , -0.        , -0.        ,  0.        ,  2.58812349, -0.        , -0.        , -0.        ,
        -0.00904943,  0.00477181,  0.        , -0.        ,  0.        , -0.00855584, -0.00412625,  0.        ,  0.44094463,  1.10764864,  0.        ,
        -0.53054768, -0.5207145 , -0.        ,  0.        , -0.        , -0.        ],
       [-0.        ,  0.01434443, -0.01175882,  0.        , -0.        , -0.        , -0.        , -0.        ,  2.58812349,  0.        , -0.        ,
         0.00477181,  0.00904943,  0.        ,  0.        , -0.        ,  0.00412625, -0.00855584, -0.        , -1.10764864,  0.44094463,  0.        ,
        -0.5207145 ,  0.53054768, -0.        , -0.        ,  0.        , -0.        ],
       [-0.0584333 ,  0.        , -0.        , -0.03151183,  0.12690298,  0.        , -0.        , -0.        ,  0.        ,  2.26302643,  0.00306868,
        -0.        ,  0.        , -0.65473601,  0.        ,  0.        , -0.        ,  0.        , -0.01530862,  0.        ,  0.        ,  0.89000948,
        -0.        ,  0.        ,  0.93152503,  0.00912026,  0.0000366 ,  0.00045018],
       [-0.00464335, -0.        ,  0.        ,  0.39905679,  0.01442614, -0.        ,  0.        , -0.        , -0.        ,  0.00306868,  3.24457934,
         0.        ,  0.        , -0.00324608, -0.        ,  0.        ,  0.        ,  0.        , -1.07125761,  0.        ,  0.        , -0.00291127,
         0.        , -0.        ,  0.00689472, -0.75294176,  0.28535422,  0.81569387],
       [-0.        ,  0.19478965,  0.9539933 , -0.        ,  0.        , -0.        , -0.        , -0.00904943,  0.00477181, -0.        ,  0.        ,
         3.25798078, -0.        , -0.        ,  0.        , -0.        ,  0.74052951, -0.02658596,  0.        ,  0.00355503,  0.00303521,  0.        ,
         0.00057089,  0.00178527, -0.        ,  0.        ,  0.        ,  0.        ],
       [ 0.        , -0.9539933 ,  0.19478965, -0.        , -0.        ,  0.        , -0.        ,  0.00477181,  0.00904943,  0.        ,  0.        ,
        -0.        ,  3.25798078, -0.        ,  0.        , -0.        , -0.02658596, -0.74052951,  0.        ,  0.00303521, -0.00355503, -0.        ,
        -0.00178527,  0.00057089,  0.        ,  0.        ,  0.        , -0.        ],
       [-0.31254663,  0.        , -0.        , -0.0246187 ,  1.427702  ,  0.        ,  0.        ,  0.        ,  0.        , -0.65473601, -0.00324608,
        -0.        , -0.        ,  2.68500677, -0.        ,  0.        , -0.        , -0.        , -0.01064369, -0.        , -0.        ,  0.77894553,
         0.        , -0.        , -1.36626863, -0.00109961,  0.00126769,  0.00050059],
       [-0.        ,  0.        ,  0.        ,  0.        ,  0.        ,  0.00000298, -0.00863545, -0.        ,  0.        ,  0.        , -0.        ,
         0.        ,  0.        , -0.        ,  4.1045973 ,  0.        , -0.        ,  0.        , -0.        , -0.        ,  0.        ,  0.        ,
        -0.        ,  0.        ,  0.        ,  0.        , -0.        , -0.        ],
       [ 0.        , -0.        , -0.        ,  0.        ,  0.        , -0.00863545, -0.00000298,  0.        , -0.        ,  0.        ,  0.        ,
        -0.        , -0.        ,  0.        ,  0.        ,  4.1045973 , -0.        , -0.        , -0.        ,  0.        ,  0.        ,  0.        ,
         0.        ,  0.        ,  0.        ,  0.        , -0.        , -0.        ],
       [-0.        , -0.17609475, -0.7280925 ,  0.        ,  0.        ,  0.        , -0.        , -0.00855584,  0.00412625, -0.        ,  0.        ,
         0.74052951, -0.02658596, -0.        , -0.        , -0.        ,  3.4973973 , -0.        ,  0.        , -0.0042785 , -0.00392687,  0.        ,
         0.00064049,  0.0017801 , -0.        , -0.        , -0.        ,  0.        ],
       [ 0.        , -0.7280925 ,  0.17609475, -0.        , -0.        , -0.        ,  0.        , -0.00412625, -0.00855584,  0.        ,  0.        ,
        -0.02658596, -0.74052951, -0.        ,  0.        , -0.        , -0.        ,  3.4973973 , -0.        ,  0.00392687, -0.0042785 ,  0.        ,
         0.0017801 , -0.00064049,  0.        ,  0.        ,  0.        ,  0.        ],
       [-0.00966649, -0.        ,  0.        ,  0.36614891,  0.00307158,  0.        ,  0.        ,  0.        , -0.        , -0.01530862, -1.07125761,
         0.        ,  0.        , -0.01064369, -0.        , -0.        ,  0.        , -0.        ,  2.62934918, -0.        , -0.        , -0.00728   ,
        -0.        , -0.        ,  0.00546946, -0.07877253, -1.02567618, -0.69212347],
       [ 0.        , -0.00207392,  0.00374919, -0.        , -0.        ,  0.        , -0.        ,  0.44094463, -1.10764864,  0.        ,  0.        ,
         0.00355503,  0.00303521, -0.        , -0.        ,  0.        , -0.0042785 ,  0.00392687, -0.        ,  4.14488456, -0.        , -0.        ,
        -0.66212059,  1.578434  , -0.        , -0.        , -0.        , -0.        ],
       [ 0.        ,  0.00374919,  0.00207392,  0.        , -0.        ,  0.        ,  0.        ,  1.10764864,  0.44094463,  0.        ,  0.        ,
         0.00303521, -0.00355503, -0.        ,  0.        ,  0.        , -0.00392687, -0.0042785 , -0.        , -0.        ,  4.14488456, -0.        ,
         1.578434  ,  0.66212059,  0.        ,  0.        ,  0.        ,  0.        ],
       [-0.02193032, -0.        , -0.        ,  0.00544596,  0.37778888, -0.        ,  0.        ,  0.        ,  0.        ,  0.89000948, -0.00291127,
         0.        , -0.        ,  0.77894553,  0.        ,  0.        ,  0.        ,  0.        , -0.00728   , -0.        , -0.        ,  1.77602391,
        -0.        , -0.        ,  0.16577225,  0.00211039,  0.00139034,  0.00160398],
       [-0.        ,  0.00524438,  0.00056906, -0.        ,  0.        , -0.        ,  0.        , -0.53054768, -0.5207145 , -0.        ,  0.        ,
         0.00057089, -0.00178527,  0.        , -0.        ,  0.        ,  0.00064049,  0.0017801 , -0.        , -0.66212059,  1.578434  , -0.        ,
         4.08155787,  0.        , -0.        , -0.        ,  0.        ,  0.        ],
       [ 0.        , -0.00056906,  0.00524438, -0.        , -0.        , -0.        ,  0.        , -0.5207145 ,  0.53054768,  0.        , -0.        ,
         0.00178527,  0.00057089, -0.        ,  0.        ,  0.        ,  0.0017801 , -0.00064049, -0.        ,  1.578434  ,  0.66212059, -0.        ,
         0.        ,  4.08155787, -0.        ,  0.        ,  0.        , -0.        ],
       [ 0.13056049, -0.        ,  0.        ,  0.01091707, -0.07382448, -0.        ,  0.        , -0.        , -0.        ,  0.93152503,  0.00689472,
        -0.        ,  0.        , -1.36626863,  0.        ,  0.        , -0.        ,  0.        ,  0.00546946, -0.        ,  0.        ,  0.16577225,
        -0.        , -0.        ,  4.79953811, -0.00636008, -0.00060111, -0.00029526],
       [ 0.01361899, -0.        ,  0.        ,  0.18827551, -0.00823028,  0.        , -0.        ,  0.        , -0.        ,  0.00912026, -0.75294176,
         0.        ,  0.        , -0.00109961,  0.        ,  0.        , -0.        ,  0.        , -0.07877253, -0.        ,  0.        ,  0.00211039,
        -0.        ,  0.        , -0.00636008,  6.21494387, -1.5768422 ,  1.39650036],
       [ 0.0024263 , -0.        , -0.        , -0.02733817,  0.00208639,  0.        ,  0.        , -0.        ,  0.        ,  0.0000366 ,  0.28535422,
         0.        ,  0.        ,  0.00126769, -0.        , -0.        , -0.        ,  0.        , -1.02567618, -0.        ,  0.        ,  0.00139034,
         0.        ,  0.        , -0.00060111, -1.5768422 ,  1.33847592, -0.01481133],
       [ 0.00287649, -0.        ,  0.        ,  0.19095963, -0.00051636,  0.        ,  0.        , -0.        , -0.        ,  0.00045018,  0.81569387,
         0.        , -0.        ,  0.00050059, -0.        , -0.        ,  0.        ,  0.        , -0.69212347, -0.        ,  0.        ,  0.00160398,
         0.        , -0.        , -0.00029526,  1.39650036, -0.01481133,  2.5531682 ]]))
E(UHF) =    -1.869738
NO eigenvalue
[-1. -0. -0. -0. -0. -0. -0. -0. -0. -0. -0. -0. -0. -0. -0. -0. -0.  0.  0.  0.  0.  0.  0.  0.  0.  0.  0.  0.] [-1. -0. -0. -0. -0. -0. -0. -0. -0. -0. -0. -0. -0. -0. -0.  0.  0.  0.  0.  0.  0.  0.  0.  0.  0.  0.  0.  0.]
NO vec
[[ 0.9790698   0.         -0.12775588 ...  0.          0.          0.        ]
 [ 0.          0.          0.76183682 ...  0.          0.          0.        ]
 [-0.          0.         -0.         ...  0.          0.          0.        ]
 ...
 [ 0.         -0.01413953  0.         ...  0.32103361  0.09289955  0.07817743]
 [ 0.         -0.02210473  0.         ...  0.29851763  0.08036127  0.11562035]
 [ 0.         -0.00444952  0.         ... -0.01863625 -0.01759103  0.02074459]]
dm(NO)
[[ 1.  0. -0. ...  0.  0.  0.]
 [ 0.  1.  0. ...  0. -0.  0.]
 [-0.  0. -0. ...  0.  0.  0.]
 ...
 [ 0.  0.  0. ... -0.  0. -0.]
 [ 0.  0.  0. ...  0. -0. -0.]
 [ 0.  0.  0. ... -0.  0.  0.]]
D(g) (NO)
[[ 0.99951369  0.02976395  0.         ... -0.00051077 -0.00569239  0.00601614]
 [-0.02976395  0.99951369  0.00444853 ...  0.          0.          0.        ]
 [ 0.         -0.00444853  0.99951369 ... -0.001967   -0.01635723  0.00811541]
 ...
 [ 0.00051077  0.          0.001967   ...  0.99951369 -0.          0.        ]
 [ 0.00569239  0.          0.01635723 ... -0.          0.99951369 -0.        ]
 [-0.00601614  0.         -0.00811541 ... -0.         -0.          0.99951369]]
...
N(g) (NO)
[[ 0.99960015 -0.02976652]
 [ 0.02976652  0.99960015]]
...
P(g) (NO)
[[ 1.          0.         -0.         ... -0.         -0.          0.        ]
 [ 0.          1.         -0.         ...  0.         -0.          0.        ]
 [-0.00013242 -0.00444675  0.         ... -0.          0.         -0.        ]
 ...
 [ 0.00051057 -0.0000152  -0.         ... -0.          0.         -0.        ]
 [ 0.00569011 -0.00016944 -0.         ... -0.          0.         -0.        ]
 [-0.00601373  0.00017908  0.         ...  0.         -0.          0.        ]]
...
Pg_ortho
[[ 0.95861817  0.         -0.         ... -0.00001964 -0.0000307  -0.00000618]
 [ 0.          0.         -0.         ...  0.          0.          0.        ]
 [-0.         -0.          0.         ... -0.         -0.         -0.        ]
 ...
 [-0.00084339 -0.          0.         ...  0.00019956  0.00031198  0.0000628 ]
 [-0.0013185  -0.          0.         ...  0.00031198  0.00048773  0.00009818]
 [-0.0002654  -0.          0.         ...  0.0000628   0.00009818  0.00001976]]
G(g) (NO)
[[ 0.62822378 -0.00046575 -0.04411514 ... -0.00017759 -0.0007735   0.00072048]
 [ 0.00046575  0.62822378  0.00055116 ... -0.04587172  0.08140159  0.07211525]
 [-0.04405771  0.00245319  1.1590229  ... -0.00021378  0.00017693  0.0001013 ]
 ...
 [-0.00094657 -0.04585577 -0.00025931 ...  0.95620828 -0.08709083 -0.20106304]
 [-0.00338831  0.08147386 -0.00039202 ... -0.08709482  1.18921245  0.15941849]
 [ 0.00323752  0.07203765 -0.00015104 ... -0.20106479  0.15939302  1.13704518]]
...
C(NO)
[[-1.          0.         -0.         ...  0.          0.          0.        ]
 [ 0.         -1.          0.         ...  0.         -0.         -0.        ]
 [ 0.          0.          0.42134466 ...  0.          0.          0.        ]
 ...
 [ 0.         -0.          0.         ... -0.00005988 -0.20447618  0.25754436]
 [ 0.         -0.          0.         ... -0.00003622  0.19608392  0.0904082 ]
 [ 0.         -0.          0.         ...  0.00029478  0.25476638  0.01682352]]
detC 1.0000000000000013
detNg [1.00008651 1.00225454 1.0119323  1.03288592 1.06057741 1.08361693 1.09493861 1.09753793]
xg [0.9999135  0.99775054 0.9882084  0.96816113 0.94288261 0.92283534 0.91329321 0.91113024]
ciS 1.9110437443557498
[[-1.24897393  0.          0.07227161 ...  0.          0.          0.        ]
 [ 0.         -1.24897393  0.         ...  0.06522122 -0.0755846  -0.11145836]
 [ 0.07227161  0.          0.2697512  ...  0.          0.          0.        ]
 ...
 [ 0.          0.06522122  0.         ...  1.17969994 -0.37974801 -0.52633999]
 [ 0.         -0.0755846   0.         ... -0.37974801  0.3321106   0.7962495 ]
 [ 0.         -0.11145836  0.         ... -0.52633999  0.7962495   0.43922502]]
ciH -3.6124244977910305
S2 = -0.000000
X(g)
[[ 2.          0.         -0.00013242 ... -0.00051057 -0.00569011  0.00601373]
 [ 0.          2.          0.00444675 ... -0.0000152  -0.00016944  0.00017908]
 [-0.00013242 -0.00444675  0.         ...  0.          0.          0.        ]
 ...
 [ 0.00051057 -0.0000152   0.         ...  0.          0.          0.        ]
 [ 0.00569011 -0.00016944  0.         ...  0.          0.          0.        ]
 [-0.00601373  0.00017908  0.         ...  0.          0.          0.        ]]
X(g) int
[[ 2.         -0.         -0.07125163 ... -0.00673168 -0.07502276  0.07928955]
 [ 0.          2.          0.05862935 ... -0.00818094 -0.09117437  0.09635976]
 [-0.07125163 -0.05862935  0.         ...  0.          0.          0.        ]
 ...
 [ 0.00673168 -0.00818094  0.         ...  0.          0.          0.        ]
 [ 0.07502276 -0.09117437  0.         ...  0.          0.          0.        ]
 [-0.07928955  0.09635976  0.         ...  0.          0.          0.        ]]
Hsp + Hph =  -1.8902887537034634
Feff (mod,ortho)
[[-0.54022046 -0.          0.         ...  0.          0.          0.        ]
 [-0.          1.4546472  -0.         ...  0.          0.          0.        ]
 [ 0.         -0.          1.4546472  ...  0.          0.          0.        ]
 ...
 [ 0.          0.          0.         ...  6.21456662 -1.57715237  1.39640916]
 [ 0.          0.          0.         ... -1.57715237  1.33842811 -0.01486594]
 [ 0.          0.          0.         ...  1.39640916 -0.01486594  2.55314815]]
E(SUHF) =     -1.13432131
e_a, e_b
[-0.62248406  0.16598103  0.29651152  0.64502867  0.67980476  0.67980476  1.09581007  1.1154177   1.1154177   1.53608529  2.31662179  2.36386415  3.15415972
  3.15415972  3.39905283  3.39905283  3.66234089  3.83433283  3.83433283  4.10467576  4.10467576  4.13098012  4.13098012  4.76992875  5.86500296  5.86500296
  5.94963646  7.1707848 ] [-0.62248406  0.16598103  0.29651152  0.64502867  0.67980476  0.67980476  1.09581007  1.1154177   1.1154177   1.53608529  2.31662179  2.36386415  3.15415972
  3.15415972  3.39905283  3.39905283  3.66234089  3.83433283  3.83433283  4.10467576  4.10467576  4.13098012  4.13098012  4.76992875  5.86500296  5.86500296
  5.94963646  7.1707848 ]
P_a, P_b
[[ 0.95449287  0.         -0.         -0.15648713  0.08734985  0.          0.          0.         -0.          0.05005724  0.02107148 -0.          0.
   0.06900741  0.          0.          0.          0.          0.02592613 -0.         -0.         -0.04544276  0.         -0.         -0.01179055  0.01480165
   0.02209225  0.00478245]
 [ 0.          0.         -0.         -0.          0.          0.          0.          0.         -0.          0.          0.         -0.          0.
   0.          0.          0.          0.          0.          0.         -0.         -0.         -0.          0.         -0.         -0.          0.
   0.          0.        ]
 [-0.         -0.          0.          0.         -0.         -0.         -0.         -0.          0.         -0.         -0.          0.         -0.
  -0.         -0.         -0.         -0.         -0.         -0.          0.          0.          0.         -0.          0.          0.         -0.
  -0.         -0.        ]
 [-0.15648713 -0.          0.          0.02565574 -0.01432083 -0.         -0.         -0.          0.         -0.00820678 -0.00345462  0.         -0.
  -0.01131362 -0.         -0.         -0.         -0.         -0.00425054  0.          0.          0.00745025 -0.          0.          0.00193304 -0.0024267
  -0.00362198 -0.00078407]
 [ 0.08734985  0.         -0.         -0.01432083  0.00799377  0.          0.          0.         -0.          0.00458096  0.00192834 -0.          0.
   0.00631517  0.          0.          0.          0.          0.00237261 -0.         -0.         -0.00415867  0.         -0.         -0.00107901  0.00135456
   0.00202176  0.00043766]
 [ 0.          0.         -0.         -0.          0.          0.          0.          0.         -0.          0.          0.         -0.          0.
   0.          0.          0.          0.          0.          0.         -0.         -0.         -0.          0.         -0.         -0.          0.
   0.          0.        ]
 [ 0.          0.         -0.         -0.          0.          0.          0.          0.         -0.          0.          0.         -0.          0.
   0.          0.          0.          0.          0.          0.         -0.         -0.         -0.          0.         -0.         -0.          0.
   0.          0.        ]
 [ 0.          0.         -0.         -0.          0.          0.          0.          0.         -0.          0.          0.         -0.          0.
   0.          0.          0.          0.          0.          0.         -0.         -0.         -0.          0.         -0.         -0.          0.
   0.          0.        ]
 [-0.         -0.          0.          0.         -0.         -0.         -0.         -0.          0.         -0.         -0.          0.         -0.
  -0.         -0.         -0.         -0.         -0.         -0.          0.          0.          0.         -0.          0.          0.         -0.
  -0.         -0.        ]
 [ 0.05005724  0.         -0.         -0.00820678  0.00458096  0.          0.          0.         -0.          0.00262519  0.00110507 -0.          0.
   0.00361901  0.          0.          0.          0.          0.00135966 -0.         -0.         -0.00238319  0.         -0.         -0.00061834  0.00077625
   0.0011586   0.00025081]
 [ 0.02107148  0.         -0.         -0.00345462  0.00192834  0.          0.          0.         -0.          0.00110507  0.00046518 -0.          0.
   0.00152341  0.          0.          0.          0.          0.00057235 -0.         -0.         -0.0010032   0.         -0.         -0.00026029  0.00032676
   0.00048771  0.00010558]
 [-0.         -0.          0.          0.         -0.         -0.         -0.         -0.          0.         -0.         -0.          0.         -0.
  -0.         -0.         -0.         -0.         -0.         -0.          0.          0.          0.         -0.          0.          0.         -0.
  -0.         -0.        ]
 [ 0.          0.         -0.         -0.          0.          0.          0.          0.         -0.          0.          0.         -0.          0.
   0.          0.          0.          0.          0.          0.         -0.         -0.         -0.          0.         -0.         -0.          0.
   0.          0.        ]
 [ 0.06900741  0.         -0.         -0.01131362  0.00631517  0.          0.          0.         -0.          0.00361901  0.00152341 -0.          0.
   0.00498906  0.          0.          0.          0.          0.00187439 -0.         -0.         -0.0032854   0.         -0.         -0.00085243  0.00107012
   0.00159721  0.00034576]
 [ 0.          0.         -0.         -0.          0.          0.          0.          0.         -0.          0.          0.         -0.          0.
   0.          0.          0.          0.          0.          0.         -0.         -0.         -0.          0.         -0.         -0.          0.
   0.          0.        ]
 [ 0.          0.         -0.         -0.          0.          0.          0.          0.         -0.          0.          0.         -0.          0.
   0.          0.          0.          0.          0.          0.         -0.         -0.         -0.          0.         -0.         -0.          0.
   0.          0.        ]
 [ 0.          0.         -0.         -0.          0.          0.          0.          0.         -0.          0.          0.         -0.          0.
   0.          0.          0.          0.          0.          0.         -0.         -0.         -0.          0.         -0.         -0.          0.
   0.          0.        ]
 [ 0.          0.         -0.         -0.          0.          0.          0.          0.         -0.          0.          0.         -0.          0.
   0.          0.          0.          0.          0.          0.         -0.         -0.         -0.          0.         -0.         -0.          0.
   0.          0.        ]
 [ 0.02592613  0.         -0.         -0.00425054  0.00237261  0.          0.          0.         -0.          0.00135966  0.00057235 -0.          0.
   0.00187439  0.          0.          0.          0.          0.00070421 -0.         -0.         -0.00123433  0.         -0.         -0.00032026  0.00040205
   0.00060007  0.0001299 ]
 [-0.         -0.          0.          0.         -0.         -0.         -0.         -0.          0.         -0.         -0.          0.         -0.
  -0.         -0.         -0.         -0.         -0.         -0.          0.          0.          0.         -0.          0.          0.         -0.
  -0.         -0.        ]
 [-0.         -0.          0.          0.         -0.         -0.         -0.         -0.          0.         -0.         -0.          0.         -0.
  -0.         -0.         -0.         -0.         -0.         -0.          0.          0.          0.         -0.          0.          0.         -0.
  -0.         -0.        ]
 [-0.04544276 -0.          0.          0.00745025 -0.00415867 -0.         -0.         -0.          0.         -0.00238319 -0.0010032   0.         -0.
  -0.0032854  -0.         -0.         -0.         -0.         -0.00123433  0.          0.          0.0021635  -0.          0.          0.00056134 -0.0007047
  -0.0010518  -0.00022769]
 [ 0.          0.         -0.         -0.          0.          0.          0.          0.         -0.          0.          0.         -0.          0.
   0.          0.          0.          0.          0.          0.         -0.         -0.         -0.          0.         -0.         -0.          0.
   0.          0.        ]
 [-0.         -0.          0.          0.         -0.         -0.         -0.         -0.          0.         -0.         -0.          0.         -0.
  -0.         -0.         -0.         -0.         -0.         -0.          0.          0.          0.         -0.          0.          0.         -0.
  -0.         -0.        ]
 [-0.01179055 -0.          0.          0.00193304 -0.00107901 -0.         -0.         -0.          0.         -0.00061834 -0.00026029  0.         -0.
  -0.00085243 -0.         -0.         -0.         -0.         -0.00032026  0.          0.          0.00056134 -0.          0.          0.00014564 -0.00018284
  -0.0002729  -0.00005908]
 [ 0.01480165  0.         -0.         -0.0024267   0.00135456  0.          0.          0.         -0.          0.00077625  0.00032676 -0.          0.
   0.00107012  0.          0.          0.          0.          0.00040205 -0.         -0.         -0.0007047   0.         -0.         -0.00018284  0.00022953
   0.00034259  0.00007416]
 [ 0.02209225  0.         -0.         -0.00362198  0.00202176  0.          0.          0.         -0.          0.0011586   0.00048771 -0.          0.
   0.00159721  0.          0.          0.          0.          0.00060007 -0.         -0.         -0.0010518   0.         -0.         -0.0002729   0.00034259
   0.00051134  0.00011069]
 [ 0.00478245  0.         -0.         -0.00078407  0.00043766  0.          0.          0.         -0.          0.00025081  0.00010558 -0.          0.
   0.00034576  0.          0.          0.          0.          0.0001299  -0.         -0.         -0.00022769  0.         -0.         -0.00005908  0.00007416
   0.00011069  0.00002396]] 
 [[ 0.95449287 -0.          0.          0.15648713  0.08734985 -0.          0.         -0.          0.          0.05005724 -0.02107148  0.          0.
   0.06900741 -0.         -0.          0.          0.         -0.02592613 -0.         -0.         -0.04544276  0.         -0.         -0.01179055 -0.01480165
  -0.02209225 -0.00478245]
 [-0.          0.         -0.         -0.         -0.          0.         -0.          0.         -0.         -0.          0.         -0.         -0.
  -0.          0.          0.         -0.         -0.          0.          0.          0.          0.         -0.          0.          0.          0.
   0.          0.        ]
 [ 0.         -0.          0.          0.          0.         -0.          0.         -0.          0.          0.         -0.          0.          0.
   0.         -0.         -0.          0.          0.         -0.         -0.         -0.         -0.          0.         -0.         -0.         -0.
  -0.         -0.        ]
 [ 0.15648713 -0.          0.          0.02565574  0.01432083 -0.          0.         -0.          0.          0.00820678 -0.00345462  0.          0.
   0.01131362 -0.         -0.          0.          0.         -0.00425054 -0.         -0.         -0.00745025  0.         -0.         -0.00193304 -0.0024267
  -0.00362198 -0.00078407]
 [ 0.08734985 -0.          0.          0.01432083  0.00799377 -0.          0.         -0.          0.          0.00458096 -0.00192834  0.          0.
   0.00631517 -0.         -0.          0.          0.         -0.00237261 -0.         -0.         -0.00415867  0.         -0.         -0.00107901 -0.00135456
  -0.00202176 -0.00043766]
 [-0.          0.         -0.         -0.         -0.          0.         -0.          0.         -0.         -0.          0.         -0.         -0.
  -0.          0.          0.         -0.         -0.          0.          0.          0.          0.         -0.          0.          0.          0.
   0.          0.        ]
 [ 0.         -0.          0.          0.          0.         -0.          0.         -0.          0.          0.         -0.          0.          0.
   0.         -0.         -0.          0.          0.         -0.         -0.         -0.         -0.          0.         -0.         -0.         -0.
  -0.         -0.        ]
 [-0.          0.         -0.         -0.         -0.          0.         -0.          0.         -0.         -0.          0.         -0.         -0.
  -0.          0.          0.         -0.         -0.          0.          0.          0.          0.         -0.          0.          0.          0.
   0.          0.        ]
 [ 0.         -0.          0.          0.          0.         -0.          0.         -0.          0.          0.         -0.          0.          0.
   0.         -0.         -0.          0.          0.         -0.         -0.         -0.         -0.          0.         -0.         -0.         -0.
  -0.         -0.        ]
 [ 0.05005724 -0.          0.          0.00820678  0.00458096 -0.          0.         -0.          0.          0.00262519 -0.00110507  0.          0.
   0.00361901 -0.         -0.          0.          0.         -0.00135966 -0.         -0.         -0.00238319  0.         -0.         -0.00061834 -0.00077625
  -0.0011586  -0.00025081]
 [-0.02107148  0.         -0.         -0.00345462 -0.00192834  0.         -0.          0.         -0.         -0.00110507  0.00046518 -0.         -0.
  -0.00152341  0.          0.         -0.         -0.          0.00057235  0.          0.          0.0010032  -0.          0.          0.00026029  0.00032676
   0.00048771  0.00010558]
 [ 0.         -0.          0.          0.          0.         -0.          0.         -0.          0.          0.         -0.          0.          0.
   0.         -0.         -0.          0.          0.         -0.         -0.         -0.         -0.          0.         -0.         -0.         -0.
  -0.         -0.        ]
 [ 0.         -0.          0.          0.          0.         -0.          0.         -0.          0.          0.         -0.          0.          0.
   0.         -0.         -0.          0.          0.         -0.         -0.         -0.         -0.          0.         -0.         -0.         -0.
  -0.         -0.        ]
 [ 0.06900741 -0.          0.          0.01131362  0.00631517 -0.          0.         -0.          0.          0.00361901 -0.00152341  0.          0.
   0.00498906 -0.         -0.          0.          0.         -0.00187439 -0.         -0.         -0.0032854   0.         -0.         -0.00085243 -0.00107012
  -0.00159721 -0.00034576]
 [-0.          0.         -0.         -0.         -0.          0.         -0.          0.         -0.         -0.          0.         -0.         -0.
  -0.          0.          0.         -0.         -0.          0.          0.          0.          0.         -0.          0.          0.          0.
   0.          0.        ]
 [-0.          0.         -0.         -0.         -0.          0.         -0.          0.         -0.         -0.          0.         -0.         -0.
  -0.          0.          0.         -0.         -0.          0.          0.          0.          0.         -0.          0.          0.          0.
   0.          0.        ]
 [ 0.         -0.          0.          0.          0.         -0.          0.         -0.          0.          0.         -0.          0.          0.
   0.         -0.         -0.          0.          0.         -0.         -0.         -0.         -0.          0.         -0.         -0.         -0.
  -0.         -0.        ]
 [ 0.         -0.          0.          0.          0.         -0.          0.         -0.          0.          0.         -0.          0.          0.
   0.         -0.         -0.          0.          0.         -0.         -0.         -0.         -0.          0.         -0.         -0.         -0.
  -0.         -0.        ]
 [-0.02592613  0.         -0.         -0.00425054 -0.00237261  0.         -0.          0.         -0.         -0.00135966  0.00057235 -0.         -0.
  -0.00187439  0.          0.         -0.         -0.          0.00070421  0.          0.          0.00123433 -0.          0.          0.00032026  0.00040205
   0.00060007  0.0001299 ]
 [-0.          0.         -0.         -0.         -0.          0.         -0.          0.         -0.         -0.          0.         -0.         -0.
  -0.          0.          0.         -0.         -0.          0.          0.          0.          0.         -0.          0.          0.          0.
   0.          0.        ]
 [-0.          0.         -0.         -0.         -0.          0.         -0.          0.         -0.         -0.          0.         -0.         -0.
  -0.          0.          0.         -0.         -0.          0.          0.          0.          0.         -0.          0.          0.          0.
   0.          0.        ]
 [-0.04544276  0.         -0.         -0.00745025 -0.00415867  0.         -0.          0.         -0.         -0.00238319  0.0010032  -0.         -0.
  -0.0032854   0.          0.         -0.         -0.          0.00123433  0.          0.          0.0021635  -0.          0.          0.00056134  0.0007047
   0.0010518   0.00022769]
 [ 0.         -0.          0.          0.          0.         -0.          0.         -0.          0.          0.         -0.          0.          0.
   0.         -0.         -0.          0.          0.         -0.         -0.         -0.         -0.          0.         -0.         -0.         -0.
  -0.         -0.        ]
 [-0.          0.         -0.         -0.         -0.          0.         -0.          0.         -0.         -0.          0.         -0.         -0.
  -0.          0.          0.         -0.         -0.          0.          0.          0.          0.         -0.          0.          0.          0.
   0.          0.        ]
 [-0.01179055  0.         -0.         -0.00193304 -0.00107901  0.         -0.          0.         -0.         -0.00061834  0.00026029 -0.         -0.
  -0.00085243  0.          0.         -0.         -0.          0.00032026  0.          0.          0.00056134 -0.          0.          0.00014564  0.00018284
   0.0002729   0.00005908]
 [-0.01480165  0.         -0.         -0.0024267  -0.00135456  0.         -0.          0.         -0.         -0.00077625  0.00032676 -0.         -0.
  -0.00107012  0.          0.         -0.         -0.          0.00040205  0.          0.          0.0007047  -0.          0.          0.00018284  0.00022953
   0.00034259  0.00007416]
[...]
 [-0.19422132  0.20094609  0.         ...  0.          0.          0.        ]]
Hsp + Hph =  -1.9054123010964286
Feff (mod,ortho)
[[-0.4200021  -0.          0.         ...  0.          0.          0.        ]
 [-0.          1.48799331 -0.         ...  0.          0.          0.        ]
 [ 0.         -0.          1.48799331 ...  0.          0.          0.        ]
 ...
 [ 0.          0.          0.         ...  6.25453969 -1.58454055  1.40278918]
 [ 0.          0.          0.         ... -1.58454055  1.34501139 -0.0144809 ]
 [ 0.          0.          0.         ...  1.40278918 -0.0144809   2.56304244]]
E(SUHF) =     -1.14944486
e_a, e_b
[-0.59020031  0.17722269  0.3008319   0.65794509  0.69952964  0.69952964  1.11157907  1.12878967  1.12878967  1.5452002   2.31128697  2.41954616  3.18135407
  3.18135407  3.43345043  3.43345043  3.69650484  3.86304158  3.86304158  4.13096346  4.13096346  4.16333029  4.16333029  4.80200484  5.89906516  5.89906516
  5.98597682  7.21760283] [-0.59020031  0.17722269  0.3008319   0.65794509  0.69952964  0.69952964  1.11157907  1.12878967  1.12878967  1.5452002   2.31128697  2.41954616  3.18135407
  3.18135407  3.43345043  3.43345043  3.69650484  3.86304158  3.86304158  4.13096346  4.13096346  4.16333029  4.16333029  4.80200484  5.89906516  5.89906516
  5.98597682  7.21760283]
P_a, P_b
[[ 0.88768151  0.         -0.         -0.28741696  0.07732921  0.          0.          0.         -0.          0.05427653  0.00365141 -0.         -0.
   0.07232855  0.          0.          0.         -0.         -0.0095346  -0.         -0.         -0.04746598  0.          0.         -0.01089306  0.02026409
   0.0007166   0.00709249]
 [ 0.          0.         -0.         -0.          0.          0.          0.          0.         -0.          0.          0.         -0.         -0.
   0.          0.          0.          0.         -0.         -0.         -0.         -0.         -0.          0.          0.         -0.          0.
   0.          0.        ]
 [-0.         -0.          0.          0.         -0.         -0.         -0.         -0.          0.         -0.         -0.          0.          0.
  -0.         -0.         -0.         -0.          0.          0.          0.          0.          0.         -0.         -0.          0.         -0.
  -0.         -0.        ]
 [-0.28741696 -0.          0.          0.09306098 -0.02503795 -0.         -0.         -0.          0.         -0.01757386 -0.00118227  0.          0.
  -0.02341882 -0.         -0.         -0.          0.          0.00308715  0.          0.          0.01536872 -0.         -0.          0.003527   -0.00656119
  -0.00023202 -0.00229643]
 [ 0.07732921  0.         -0.         -0.02503795  0.00673643  0.          0.          0.         -0.          0.00472823  0.00031809 -0.         -0.
   0.00630081  0.          0.          0.         -0.         -0.00083059 -0.         -0.         -0.00413494  0.          0.         -0.00094893  0.00176528
   0.00006243  0.00061785]
 [ 0.          0.         -0.         -0.          0.          0.          0.          0.         -0.          0.          0.         -0.         -0.
   0.          0.          0.          0.         -0.         -0.         -0.         -0.         -0.          0.          0.         -0.          0.
   0.          0.        ]
 [ 0.          0.         -0.         -0.          0.          0.          0.          0.         -0.          0.          0.         -0.         -0.
   0.          0.          0.          0.         -0.         -0.         -0.         -0.         -0.          0.          0.         -0.          0.
   0.          0.        ]
 [ 0.          0.         -0.         -0.          0.          0.          0.          0.         -0.          0.          0.         -0.         -0.
   0.          0.          0.          0.         -0.         -0.         -0.         -0.         -0.          0.          0.         -0.          0.
   0.          0.        ]
 [-0.         -0.          0.          0.         -0.         -0.         -0.         -0.          0.         -0.         -0.          0.          0.
  -0.         -0.         -0.         -0.          0.          0.          0.          0.          0.         -0.         -0.          0.         -0.
  -0.         -0.        ]
 [ 0.05427653  0.         -0.         -0.01757386  0.00472823  0.          0.          0.         -0.          0.00331869  0.00022326 -0.         -0.
   0.00442247  0.          0.          0.         -0.         -0.00058298 -0.         -0.         -0.00290227  0.          0.         -0.00066605  0.00123903
   0.00004382  0.00043366]
 [ 0.00365141  0.         -0.         -0.00118227  0.00031809  0.          0.          0.         -0.          0.00022326  0.00001502 -0.         -0.
   0.00029752  0.          0.          0.         -0.         -0.00003922 -0.         -0.         -0.00019525  0.          0.         -0.00004481  0.00008335
   0.00000295  0.00002917]
 [-0.         -0.          0.          0.         -0.         -0.         -0.         -0.          0.         -0.         -0.          0.          0.
  -0.         -0.         -0.         -0.          0.          0.          0.          0.          0.         -0.         -0.          0.         -0.
  -0.         -0.        ]
 [-0.         -0.          0.          0.         -0.         -0.         -0.         -0.          0.         -0.         -0.          0.          0.
  -0.         -0.         -0.         -0.          0.          0.          0.          0.          0.         -0.         -0.          0.         -0.
  -0.         -0.        ]
 [ 0.07232855  0.         -0.         -0.02341882  0.00630081  0.          0.          0.         -0.          0.00442247  0.00029752 -0.         -0.
   0.00589335  0.          0.          0.         -0.         -0.00077688 -0.         -0.         -0.00386754  0.          0.         -0.00088757  0.00165112
   0.00005839  0.0005779 ]
 [ 0.          0.         -0.         -0.          0.          0.          0.          0.         -0.          0.          0.         -0.         -0.
   0.          0.          0.          0.         -0.         -0.         -0.         -0.         -0.          0.          0.         -0.          0.
   0.          0.        ]
 [ 0.          0.         -0.         -0.          0.          0.          0.          0.         -0.          0.          0.         -0.         -0.
   0.          0.          0.          0.         -0.         -0.         -0.         -0.         -0.          0.          0.         -0.          0.
   0.          0.        ]
 [ 0.          0.         -0.         -0.          0.          0.          0.          0.         -0.          0.          0.         -0.         -0.
   0.          0.          0.          0.         -0.         -0.         -0.         -0.         -0.          0.          0.         -0.          0.
   0.          0.        ]
 [-0.         -0.          0.          0.         -0.         -0.         -0.         -0.          0.         -0.         -0.          0.          0.
  -0.         -0.         -0.         -0.          0.          0.          0.          0.          0.         -0.         -0.          0.         -0.
  -0.         -0.        ]
 [-0.0095346  -0.          0.          0.00308715 -0.00083059 -0.         -0.         -0.          0.         -0.00058298 -0.00003922  0.          0.
  -0.00077688 -0.         -0.         -0.          0.          0.00010241  0.          0.          0.00050983 -0.         -0.          0.000117   -0.00021766
  -0.0000077  -0.00007618]
 [-0.         -0.          0.          0.         -0.         -0.         -0.         -0.          0.         -0.         -0.          0.          0.
  -0.         -0.         -0.         -0.          0.          0.          0.          0.          0.         -0.         -0.          0.         -0.
  -0.         -0.        ]
 [-0.         -0.          0.          0.         -0.         -0.         -0.         -0.          0.         -0.         -0.          0.          0.
  -0.         -0.         -0.         -0.          0.          0.          0.          0.          0.         -0.         -0.          0.         -0.
  -0.         -0.        ]
 [-0.04746598 -0.          0.          0.01536872 -0.00413494 -0.         -0.         -0.          0.         -0.00290227 -0.00019525  0.          0.
  -0.00386754 -0.         -0.         -0.          0.          0.00050983  0.          0.          0.00253809 -0.         -0.          0.00058247 -0.00108356
  -0.00003832 -0.00037925]
 [ 0.          0.         -0.         -0.          0.          0.          0.          0.         -0.          0.          0.         -0.         -0.
   0.          0.          0.          0.         -0.         -0.         -0.         -0.         -0.          0.          0.         -0.          0.
   0.          0.        ]
 [ 0.          0.         -0.         -0.          0.          0.          0.          0.         -0.          0.          0.         -0.         -0.
   0.          0.          0.          0.         -0.         -0.         -0.         -0.         -0.          0.          0.         -0.          0.
   0.          0.        ]
 [-0.01089306 -0.          0.          0.003527   -0.00094893 -0.         -0.         -0.          0.         -0.00066605 -0.00004481  0.          0.
  -0.00088757 -0.         -0.         -0.          0.          0.000117    0.          0.          0.00058247 -0.         -0.          0.00013367 -0.00024867
  -0.00000879 -0.00008703]
 [ 0.02026409  0.         -0.         -0.00656119  0.00176528  0.          0.          0.         -0.          0.00123903  0.00008335 -0.         -0.
   0.00165112  0.          0.          0.         -0.         -0.00021766 -0.         -0.         -0.00108356  0.          0.         -0.00024867  0.00046259
   0.00001636  0.00016191]
 [ 0.0007166   0.         -0.         -0.00023202  0.00006243  0.          0.          0.         -0.          0.00004382  0.00000295 -0.         -0.
   0.00005839  0.          0.          0.         -0.         -0.0000077  -0.         -0.         -0.00003832  0.          0.         -0.00000879  0.00001636
   0.00000058  0.00000573]
 [ 0.00709249  0.         -0.         -0.00229643  0.00061785  0.          0.          0.         -0.          0.00043366  0.00002917 -0.         -0.
   0.0005779   0.          0.          0.         -0.         -0.00007618 -0.         -0.         -0.00037925  0.          0.         -0.00008703  0.00016191
   0.00000573  0.00005667]] 
 [[ 0.88768151 -0.          0.          0.28741696  0.07732921  0.          0.          0.         -0.          0.05427653 -0.00365141  0.          0.
   0.07232855 -0.         -0.         -0.          0.          0.0095346  -0.         -0.         -0.04746598  0.         -0.         -0.01089306 -0.02026409
  -0.0007166  -0.00709249]
 [-0.          0.         -0.         -0.         -0.         -0.         -0.         -0.          0.         -0.          0.         -0.         -0.
  -0.          0.          0.          0.         -0.         -0.          0.          0.          0.         -0.          0.          0.          0.
   0.          0.        ]
 [ 0.         -0.          0.          0.          0.          0.          0.          0.         -0.          0.         -0.          0.          0.
   0.         -0.         -0.         -0.          0.          0.         -0.         -0.         -0.          0.         -0.         -0.         -0.
  -0.         -0.        ]
 [ 0.28741696 -0.          0.          0.09306098  0.02503795  0.          0.          0.         -0.          0.01757386 -0.00118227  0.          0.
   0.02341882 -0.         -0.         -0.          0.          0.00308715 -0.         -0.         -0.01536872  0.         -0.         -0.003527   -0.00656119
  -0.00023202 -0.00229643]
 [ 0.07732921 -0.          0.          0.02503795  0.00673643  0.          0.          0.         -0.          0.00472823 -0.00031809  0.          0.
   0.00630081 -0.         -0.         -0.          0.          0.00083059 -0.         -0.         -0.00413494  0.         -0.         -0.00094893 -0.00176528
  -0.00006243 -0.00061785]
 [ 0.         -0.          0.          0.          0.          0.          0.          0.         -0.          0.         -0.          0.          0.
   0.         -0.         -0.         -0.          0.          0.         -0.         -0.         -0.          0.         -0.         -0.         -0.
  -0.         -0.        ]
 [ 0.         -0.          0.          0.          0.          0.          0.          0.         -0.          0.         -0.          0.          0.
   0.         -0.         -0.         -0.          0.          0.         -0.         -0.         -0.          0.         -0.         -0.         -0.
  -0.         -0.        ]
 [ 0.         -0.          0.          0.          0.          0.          0.          0.         -0.          0.         -0.          0.          0.
   0.         -0.         -0.         -0.          0.          0.         -0.         -0.         -0.          0.         -0.         -0.         -0.
  -0.         -0.        ]
 [-0.          0.         -0.         -0.         -0.         -0.         -0.         -0.          0.         -0.          0.         -0.         -0.
  -0.          0.          0.          0.         -0.         -0.          0.          0.          0.         -0.          0.          0.          0.
   0.          0.        ]
 [ 0.05427653 -0.          0.          0.01757386  0.00472823  0.          0.          0.         -0.          0.00331869 -0.00022326  0.          0.
   0.00442247 -0.         -0.         -0.          0.          0.00058298 -0.         -0.         -0.00290227  0.         -0.         -0.00066605 -0.00123903
  -0.00004382 -0.00043366]
 [-0.00365141  0.         -0.         -0.00118227 -0.00031809 -0.         -0.         -0.          0.         -0.00022326  0.00001502 -0.         -0.
  -0.00029752  0.          0.          0.         -0.         -0.00003922  0.          0.          0.00019525 -0.          0.          0.00004481  0.00008335
   0.00000295  0.00002917]
 [ 0.         -0.          0.          0.          0.          0.          0.          0.         -0.          0.         -0.          0.          0.
   0.         -0.         -0.         -0.          0.          0.         -0.         -0.         -0.          0.         -0.         -0.         -0.
  -0.         -0.        ]
 [ 0.         -0.          0.          0.          0.          0.          0.          0.         -0.          0.         -0.          0.          0.
   0.         -0.         -0.         -0.          0.          0.         -0.         -0.         -0.          0.         -0.         -0.         -0.
  -0.         -0.        ]
 [ 0.07232855 -0.          0.          0.02341882  0.00630081  0.          0.          0.         -0.          0.00442247 -0.00029752  0.          0.
   0.00589335 -0.         -0.         -0.          0.          0.00077688 -0.         -0.         -0.00386754  0.         -0.         -0.00088757 -0.00165112
  -0.00005839 -0.0005779 ]
 [-0.          0.         -0.         -0.         -0.         -0.         -0.         -0.          0.         -0.          0.         -0.         -0.
  -0.          0.          0.          0.         -0.         -0.          0.          0.          0.         -0.          0.          0.          0.
   0.          0.        ]
 [-0.          0.         -0.         -0.         -0.         -0.         -0.         -0.          0.         -0.          0.         -0.         -0.
  -0.          0.          0.          0.         -0.         -0.          0.          0.          0.         -0.          0.          0.          0.
   0.          0.        ]
 [-0.          0.         -0.         -0.         -0.         -0.         -0.         -0.          0.         -0.          0.         -0.         -0.
  -0.          0.          0.          0.         -0.         -0.          0.          0.          0.         -0.          0.          0.          0.
   0.          0.        ]
 [ 0.         -0.          0.          0.          0.          0.          0.          0.         -0.          0.         -0.          0.          0.
   0.         -0.         -0.         -0.          0.          0.         -0.         -0.         -0.          0.         -0.         -0.         -0.
  -0.         -0.        ]
 [ 0.0095346  -0.          0.          0.00308715  0.00083059  0.          0.          0.         -0.          0.00058298 -0.00003922  0.          0.
   0.00077688 -0.         -0.         -0.          0.          0.00010241 -0.         -0.         -0.00050983  0.         -0.         -0.000117   -0.00021766
  -0.0000077  -0.00007618]
 [-0.          0.         -0.         -0.         -0.         -0.         -0.         -0.          0.         -0.          0.         -0.         -0.
  -0.          0.          0.          0.         -0.         -0.          0.          0.          0.         -0.          0.          0.          0.
   0.          0.        ]
 [-0.          0.         -0.         -0.         -0.         -0.         -0.         -0.          0.         -0.          0.         -0.         -0.
  -0.          0.          0.          0.         -0.         -0.          0.          0.          0.         -0.          0.          0.          0.
   0.          0.        ]
 [-0.04746598  0.         -0.         -0.01536872 -0.00413494 -0.         -0.         -0.          0.         -0.00290227  0.00019525 -0.         -0.
  -0.00386754  0.          0.          0.         -0.         -0.00050983  0.          0.          0.00253809 -0.          0.          0.00058247  0.00108356
   0.00003832  0.00037925]
 [ 0.         -0.          0.          0.          0.          0.          0.          0.         -0.          0.         -0.          0.          0.
   0.         -0.         -0.         -0.          0.          0.         -0.         -0.         -0.          0.         -0.         -0.         -0.
  -0.         -0.        ]
 [-0.          0.         -0.         -0.         -0.         -0.         -0.         -0.          0.         -0.          0.         -0.         -0.
  -0.          0.          0.          0.         -0.         -0.          0.          0.          0.         -0.          0.          0.          0.
   0.          0.        ]
 [-0.01089306  0.         -0.         -0.003527   -0.00094893 -0.         -0.         -0.          0.         -0.00066605  0.00004481 -0.         -0.
  -0.00088757  0.          0.          0.         -0.         -0.000117    0.          0.          0.00058247 -0.          0.          0.00013367  0.00024867
   0.00000879  0.00008703]
 [-0.02026409  0.         -0.         -0.00656119 -0.00176528 -0.         -0.         -0.          0.         -0.00123903  0.00008335 -0.         -0.
  -0.00165112  0.          0.          0.         -0.         -0.00021766  0.          0.          0.00108356 -0.          0.          0.00024867  0.00046259
   0.00001636  0.00016191]
 [-0.0007166   0.         -0.         -0.00023202 -0.00006243 -0.         -0.         -0.          0.         -0.00004382  0.00000295 -0.         -0.
  -0.00005839  0.          0.          0.         -0.         -0.0000077   0.          0.          0.00003832 -0.          0.          0.00000879  0.00001636
   0.00000058  0.00000573]
 [-0.00709249  0.         -0.         -0.00229643 -0.00061785 -0.         -0.         -0.          0.         -0.00043366  0.00002917 -0.         -0.
  -0.0005779   0.          0.          0.         -0.         -0.00007618  0.          0.          0.00037925 -0.          0.          0.00008703  0.00016191
   0.00000573  0.00005667]]
***** Start DFT Correlation for SUHF+DFT **********
tot grids = 20048
E(SUHF) =     -1.14944486
E_c(TPSS) =     -0.03777305
E(SUHF+DFT) =     -1.18721791
