title                                                                   
SP        UHF                                                         CC-pVTZ             
Number of atoms                            I                2
Info1-9                                    I   N=           9
          13          11           0           0           0         110
           1           1           2
Charge                                     I                0
Multiplicity                               I                1
Number of electrons                        I                2
Number of alpha electrons                  I                1
Number of beta electrons                   I                1
Number of basis functions                  I               28
Number of independent functions            I               28
Number of point charges in /Mol/           I                0
Number of translation vectors              I                0
Atomic numbers                             I   N=           2
           1           1
Nuclear charges                            R   N=           2
  1.00000000E+00  1.00000000E+00
Current cartesian coordinates              R   N=           6
  0.00000000E+00  0.00000000E+00  0.00000000E+00  0.00000000E+00  0.00000000E+00
  2.64561659E+00
Force Field                                I                0
Int Atom Types                             I   N=           2
           0           0
MM charges                                 R   N=           2
  0.00000000E+00  0.00000000E+00
Integer atomic weights                     I   N=           2
           1           1
Real atomic weights                        R   N=           2
  1.00782504E+00  1.00782504E+00
Atom fragment info                         I   N=           2
           0           0
Atom residue num                           I   N=           2
           0           0
Nuclear spins                              I   N=           2
           1           1
Nuclear ZEff                               R   N=           2
 -1.00000000E+00 -1.00000000E+00
Nuclear QMom                               R   N=           2
  0.00000000E+00  0.00000000E+00
Nuclear GFac                               R   N=           2
  2.79284600E+00  2.79284600E+00
MicOpt                                     I   N=           2
          -1          -1
Number of contracted shells                I               12
Number of primitive shells                 I               16
Pure/Cartesian d shells                    I                0
Pure/Cartesian f shells                    I                0
Highest angular momentum                   I                2
Largest degree of contraction              I                3
Shell types                                I   N=          12
           0           0           0           1           1          -2
           0           0           0           1           1          -2
Number of primitives per shell             I   N=          12
           3           1           1           1           1           1
           3           1           1           1           1           1
Shell to atom map                          I   N=          12
           1           1           1           1           1           1
           2           2           2           2           2           2
Primitive exponents                        R   N=          16
  3.38700000E+01  5.09500000E+00  1.15900000E+00  3.25800000E-01  1.02700000E-01
  1.40700000E+00  3.88000000E-01  1.05700000E+00  3.38700000E+01  5.09500000E+00
  1.15900000E+00  3.25800000E-01  1.02700000E-01  1.40700000E+00  3.88000000E-01
  1.05700000E+00
Contraction coefficients                   R   N=          16
  2.54948632E-02  1.90362766E-01  8.52162022E-01  1.00000000E+00  1.00000000E+00
  1.00000000E+00  1.00000000E+00  1.00000000E+00  2.54948632E-02  1.90362766E-01
  8.52162022E-01  1.00000000E+00  1.00000000E+00  1.00000000E+00  1.00000000E+00
  1.00000000E+00
Coordinates of each shell                  R   N=          36
  0.00000000E+00  0.00000000E+00  0.00000000E+00  0.00000000E+00  0.00000000E+00
  0.00000000E+00  0.00000000E+00  0.00000000E+00  0.00000000E+00  0.00000000E+00
  0.00000000E+00  0.00000000E+00  0.00000000E+00  0.00000000E+00  0.00000000E+00
  0.00000000E+00  0.00000000E+00  0.00000000E+00  0.00000000E+00  0.00000000E+00
  2.64561659E+00  0.00000000E+00  0.00000000E+00  2.64561659E+00  0.00000000E+00
  0.00000000E+00  2.64561659E+00  0.00000000E+00  0.00000000E+00  2.64561659E+00
  0.00000000E+00  0.00000000E+00  2.64561659E+00  0.00000000E+00  0.00000000E+00
  2.64561659E+00
Constraint Structure                       R   N=           6
  0.00000000E+00  0.00000000E+00  0.00000000E+00  0.00000000E+00  0.00000000E+00
  2.64561659E+00
Num ILSW                                   I              100
ILSW                                       I   N=         100
           1           0           0           0           2           0
           0           0           0           0           0          -1
           0           0           0           0           0           0
           0           0           0           0           0           0
           1           1           0           0           0           0
           0           0      100000           0          -1           0
           0           0           0           0           0           0
           0           0           0           1           0           0
           0           0           1           0           0           0
           0           0           4          40           0           0
           0           0           0           0           0           0
           0           0           0           0           0           0
           0           0           0           0           0           0
           0           0           0           0           0           0
           0           0           0           0           0           0
           0           0           0           0           0           0
           0           0           0           0
Num RLSW                                   I               40
RLSW                                       R   N=          40
  1.00000000E+00  1.00000000E+00  1.00000000E+00  1.00000000E+00  1.00000000E+00
  0.00000000E+00  0.00000000E+00  1.00000000E+00  0.00000000E+00  0.00000000E+00
  0.00000000E+00  0.00000000E+00  1.00000000E+00  0.00000000E+00  0.00000000E+00
  0.00000000E+00  0.00000000E+00  1.00000000E+00  0.00000000E+00  0.00000000E+00
  0.00000000E+00  0.00000000E+00  1.00000000E+00  0.00000000E+00  0.00000000E+00
  0.00000000E+00  0.00000000E+00  1.00000000E+00  0.00000000E+00  0.00000000E+00
  0.00000000E+00  0.00000000E+00  1.00000000E+00  0.00000000E+00  0.00000000E+00
  0.00000000E+00  0.00000000E+00  0.00000000E+00  1.00000000E+00  1.00000000E+00
MxBond                                     I                1
NBond                                      I   N=           2
           0           0
IBond                                      I   N=           2
           0           0
RBond                                      R   N=           2
  0.00000000E+00  0.00000000E+00
Virial Ratio                               R      2.173926955862501E+00
SCF Energy                                 R     -1.031956423710897E+00
Total Energy                               R     -1.031956423710897E+00
S**2                                       R      4.296648900268341E-01
S**2 after annihilation                    R      2.827990070588509E-16
RMS Density                                R      1.371035762238898E-05
External E-field                           R   N=          35
  0.00000000E+00  0.00000000E+00  0.00000000E+00  0.00000000E+00  0.00000000E+00
  0.00000000E+00  0.00000000E+00  0.00000000E+00  0.00000000E+00  0.00000000E+00
  0.00000000E+00  0.00000000E+00  0.00000000E+00  0.00000000E+00  0.00000000E+00
  0.00000000E+00  0.00000000E+00  0.00000000E+00  0.00000000E+00  0.00000000E+00
  0.00000000E+00  0.00000000E+00  0.00000000E+00  0.00000000E+00  0.00000000E+00
  0.00000000E+00  0.00000000E+00  0.00000000E+00  0.00000000E+00  0.00000000E+00
  0.00000000E+00  0.00000000E+00  0.00000000E+00  0.00000000E+00  0.00000000E+00
IOpCl                                      I                1
IROHF                                      I                0
Alpha Orbital Energies                     R   N=          28
 -4.90947769E-01  7.97911980E-02  3.51033801E-01  4.79739157E-01  6.65804907E-01
  6.65804907E-01  8.53775568E-01  9.66345419E-01  9.66345419E-01  1.37140989E+00
  2.55165031E+00  2.71275111E+00  3.11771627E+00  3.12341844E+00  3.12341844E+00
  3.36112922E+00  3.36112922E+00  3.55604067E+00  3.55604067E+00  3.85353691E+00
  3.85353691E+00  3.90563060E+00  3.90563060E+00  4.05424441E+00  4.16599805E+00
  4.16599805E+00  4.35756982E+00  5.28714809E+00
Beta Orbital Energies                      R   N=          28
 -4.90947769E-01  7.97911980E-02  3.51033801E-01  4.79739157E-01  6.65804907E-01
  6.65804907E-01  8.53775568E-01  9.66345419E-01  9.66345419E-01  1.37140989E+00
  2.55165031E+00  2.71275111E+00  3.11771627E+00  3.12341844E+00  3.12341844E+00
  3.36112922E+00  3.36112922E+00  3.55604067E+00  3.55604067E+00  3.85353691E+00
  3.85353691E+00  3.90563060E+00  3.90563060E+00  4.05424441E+00  4.16599805E+00
  4.16599805E+00  4.35756982E+00  5.28714809E+00
Alpha MO coefficients                      R   N=         784
  2.09477521E-01  4.38542926E-01  3.43139125E-01  7.83763588E-17  1.83504897E-17
  1.27947021E-03 -4.01848423E-17 -1.74661630E-17  1.45901248E-02  1.59904469E-03
 -1.31244551E-17  2.57722757E-17 -1.37972045E-18  4.06237570E-19  6.97860664E-02
  1.10202832E-01  7.26442684E-02  1.50278224E-17 -6.73871118E-17 -4.08552238E-03
 -2.22411544E-17  5.02062520E-17 -2.00829802E-02  1.99894013E-03 -1.40779064E-17
  4.55161974E-17 -8.08139717E-18 -1.53473294E-18 -8.65496824E-02 -1.28879723E-01
 -7.95390050E-01 -1.46575382E-17  4.63786893E-17  9.18135827E-03  9.65071508E-19
 -1.54066458E-17  1.85300633E-02  4.81911383E-04  7.33768619E-20  2.22131592E-17
 -4.40883980E-17 -1.55897243E-16  1.43400844E-01  7.16609242E-02  1.18807801E+00
 -7.18787803E-18  2.76736573E-17  7.46821297E-03 -1.64953107E-18 -4.27638339E-17
 -1.91942971E-02  1.49185393E-03 -1.02198119E-17  2.00808653E-17 -6.88932392E-17
  9.29303474E-17 -7.61960287E-02 -1.16549489E+00  1.52349724E+00  8.58128298E-17
 -9.13665890E-17 -4.07165864E-03  1.59190685E-17 -1.35720688E-17 -3.07554167E-02
  1.08793792E-02  1.58484481E-17 -4.87401618E-18  9.00277273E-17  5.33719261E-17
 -1.27262286E-02 -5.38139433E-01  2.05543450E-01  2.23347208E-17 -9.22126668E-17
 -8.43873584E-03 -3.41549252E-16 -6.43938689E-17  1.10547273E-01  5.42463116E-03
  2.88863884E-17 -1.77157035E-17  3.59989652E-17 -1.05399839E-16  8.19625215E-02
  6.06719735E-01 -1.25500918E+00  2.69507913E-16  1.42963363E-16  1.72710383E-02
 -1.41545041E-16 -2.27214870E-16 -2.29343759E-01 -7.07441903E-03  2.95793037E-17
  2.37500941E-18 -1.58538235E-16 -1.22461653E-16 -1.13896367E-01 -1.29444765E+00
  1.79966364E+00 -2.34124418E-17 -1.45465555E-16  1.51883352E-02 -2.58355049E-16
  5.92928576E-17 -1.21631718E-01  1.43166238E-02  5.81512790E-17  1.45488475E-17
 -9.72552368E-17  1.09976110E-17  2.09264386E-17 -3.20257387E-16 -3.29503982E-17
 -6.39767023E-02 -1.61357046E-02  7.53475788E-17  7.27003023E-01  1.83359029E-01
 -6.20483836E-16 -3.55132054E-17 -1.20419039E-03 -3.03711503E-04 -5.43609730E-17
  1.11952961E-16 -3.75123763E-17 -3.32076669E-16  7.75824797E-16 -5.67439129E-02
 -1.43115069E-02 -5.57925156E-18  5.52168281E-01  1.39263575E-01 -1.02911698E-16
  6.91254891E-17 -1.59927425E-04 -4.03356470E-05 -8.37197161E-17  1.79991325E-17
 -2.73076569E-17  1.59180384E-16  4.36626399E-17  1.61357046E-02 -6.39767023E-02
 -9.04328618E-19 -1.83359029E-01  7.27003023E-01  1.29584623E-16 -4.81072105E-17
  3.03711503E-04 -1.20419039E-03  8.27743443E-18 -1.90882259E-16  2.57989537E-16
 -5.73165356E-16  3.11920596E-16  1.43115069E-02 -5.67439129E-02 -4.96385801E-17
 -1.39263575E-01  5.52168281E-01  3.88212941E-16 -7.43615865E-18  4.03356470E-05
 -1.59927425E-04  2.13626953E-16  6.84186171E-17  5.18497859E-03 -4.08900463E-01
  2.49658479E-01 -5.24660492E-17 -3.39220944E-17 -5.32354946E-02 -3.84604540E-16
 -1.22117144E-15  7.04390869E-01 -3.33427427E-02  6.95822425E-17 -6.61698143E-17
  1.45143406E-17 -9.84378463E-20 -1.11707311E-02 -5.49530422E-01  2.59273606E-01
 -9.93856056E-17 -9.53174445E-17  5.49741178E-02  9.94457354E-16  1.92906089E-15
 -6.06288460E-01 -3.29474030E-02 -3.78498308E-18 -2.34022553E-17  5.07821480E-17
  6.07680516E-17  1.58817928E-16 -8.45448573E-16  4.45902532E-16  6.10995995E-02
 -2.60881124E-02  1.38197088E-17 -7.30209974E-01  3.11782729E-01 -4.80743494E-16
 -1.56547242E-17  1.28644697E-02 -5.49283029E-03 -1.31309238E-16  2.09018255E-16
 -9.87530276E-17 -6.38198531E-16  8.59390624E-16 -8.26914436E-02  3.53073292E-02
 -1.61191147E-17  8.64655989E-01 -3.69188060E-01 -2.93942702E-16  1.19369743E-16
  9.83108683E-03 -4.19764614E-03  1.14427427E-16 -2.27594678E-16  2.54920607E-16
  5.66857421E-16  3.00888551E-16  2.60881124E-02  6.10995995E-02 -4.43627548E-17
 -3.11782729E-01 -7.30209974E-01 -7.59168946E-16  2.04388894E-16  5.49283029E-03
  1.28644697E-02 -6.95445076E-17 -1.71905422E-16  4.90023596E-16  7.13899252E-17
 -3.46262937E-16 -3.53073292E-02 -8.26914436E-02 -9.13297947E-17  3.69188060E-01
  8.64655989E-01  2.26894582E-15 -3.49535476E-17  4.19764614E-03  9.83108683E-03
  1.03884335E-16 -2.98594166E-16  1.05133657E-01  5.09557761E-01  7.50450883E-01
 -4.43927564E-17 -3.27333401E-16 -1.19674765E-01  3.54975500E-16  5.32205101E-16
  1.52282550E+00  2.35265210E-02  9.01288995E-17 -1.08172267E-16 -2.06647375E-19
 -1.53898220E-18 -8.43006892E-02 -5.42979226E-01 -7.35972398E-01  1.27462781E-16
 -2.56869214E-17 -1.30183807E-01  5.45666794E-17 -7.18668579E-16  1.57944207E+00
 -2.37785688E-02  1.25642949E-16 -5.48753386E-17  7.27494797E-17  1.75637602E-17
 -1.34206052E+00  1.66820730E+00 -6.50947704E-01 -3.42482171E-15  7.44930303E-17
  4.42615258E-02  1.42484401E-15 -4.39036377E-16  3.72020442E-02 -7.69638230E-02
  1.41369844E-16 -6.16998347E-16 -9.19655944E-16  2.75310405E-16 -7.52573618E-01
  7.32334505E-01 -2.78098010E-01 -9.46029805E-16 -2.64173091E-16 -5.62142494E-02
  7.52369252E-16  1.00248742E-15  2.13677377E-01 -2.24012705E-02 -4.16897478E-16
  7.24750865E-17  3.96194518E-16 -4.28673559E-17  7.71163020E-01 -1.24873860E+00
  5.15032147E-01 -1.20322596E-15 -7.62154155E-17  3.86754679E-02  5.82839647E-16
  8.87860215E-18 -4.11055974E-01  9.72057859E-02  7.54180925E-16 -7.84046409E-16
  5.85316077E-16 -1.07223820E-15 -1.36150636E+00  1.88957609E+00 -7.58531715E-01
  1.12321065E-16 -6.80003257E-17  3.64398225E-03 -3.51496084E-16  9.64149034E-16
 -3.60440843E-01 -1.14660551E-01 -1.47434468E-16 -7.52210781E-16 -1.05142823E-15
  1.95895360E-15 -5.58666054E-03 -6.16369550E-02  5.83608544E-02 -1.47994297E-15
 -1.11378222E-15  4.08622859E-01  8.05377060E-15 -1.96693189E-15 -2.50919050E-01
  5.65246415E-01 -6.76813761E-14  2.39871438E-14  6.67784727E-16 -4.02553743E-16
  1.67384195E-02 -1.01825592E-01  8.18870279E-02 -2.22125666E-15  1.80158937E-15
 -3.82942661E-01  9.53328103E-15 -3.76630760E-15  2.44761095E-01  5.58449335E-01
  6.45380781E-14 -2.32301780E-14 -1.10436848E-15 -6.79760783E-16 -5.02316667E-16
 -6.14960758E-15  5.88229930E-15  2.02142678E-02  1.61581682E-04  3.97290293E-14
 -8.46234950E-02 -6.76433435E-04 -2.42719537E-14  5.66368377E-14  6.76432684E-01
  5.40702892E-03 -4.92414410E-15  4.87687690E-15  3.03454215E-15 -1.22359623E-14
  9.04281552E-15  1.69622556E-02  1.35586894E-04 -3.72398512E-14 -9.32590288E-02
 -7.45461118E-04  2.42156941E-14  5.61828467E-14 -6.48244862E-01 -5.18171105E-03
  4.10425900E-16  3.85345178E-15 -5.16473483E-16  3.37307557E-15 -2.76742385E-15
 -1.61581682E-04  2.02142678E-02 -1.40329850E-14  6.76433435E-04 -8.46234950E-02
  8.79943305E-15 -2.09821394E-14 -5.40702892E-03  6.76432684E-01 -5.26649397E-15
  3.72892007E-15 -1.10708697E-15  4.29616351E-15 -3.14097218E-15 -1.35586894E-04
  1.69622556E-02  1.33038088E-14  7.45461118E-04 -9.32590288E-02 -8.49823646E-15
 -2.06699278E-14  5.18171105E-03 -6.48244862E-01 -5.14555794E-15  5.47426908E-15
 -2.73879702E-16  2.38102436E-16 -8.50250898E-16  3.97909556E-16  9.89215242E-15
  9.12514703E-16 -1.23912194E-17 -6.27298756E-15 -1.01999708E-15 -2.56199794E-17
  3.76508845E-15  4.73451822E-15  7.65911066E-01  1.55423924E-04 -8.14766077E-16
  7.90060982E-16  6.40430121E-16 -1.11900517E-15  3.29601816E-15  2.77536675E-16
  4.74376520E-16 -1.75979190E-15 -4.29610699E-16  4.74788143E-17 -1.60344822E-15
 -6.01658138E-15  6.24273144E-01  1.26681786E-04 -6.39795590E-17 -7.62226264E-16
  9.60886025E-16 -8.74122623E-15 -2.51863987E-15  3.57749107E-16  6.37414956E-15
  1.38247172E-15 -2.60358702E-16  4.42078412E-16  6.95601379E-16 -8.15234219E-15
 -1.55423924E-04  7.65911066E-01  7.86995539E-16 -1.65280005E-15  9.84998303E-16
 -2.63709277E-15  5.26866561E-16 -3.37719833E-16  2.75217453E-16  8.70899723E-16
  4.56799357E-16  4.98936643E-16  9.85605763E-15  1.11069952E-15 -1.26681786E-04
  6.24273144E-01  2.63782403E-15 -3.40210276E-15  8.51971846E-16  1.36624307E-15
 -1.10954942E-14  6.02072752E-16  2.75706187E-16  6.21232836E-15 -1.29596011E-15
  1.13602883E-15 -2.71436981E-15  2.57687067E-15 -6.43422807E-01 -8.21698361E-05
 -1.06769789E-15  1.98882125E-15 -5.48653717E-16 -9.49387461E-16 -1.41567498E-15
 -6.75122575E-17  5.30016462E-16 -1.26792845E-15 -7.56697265E-16  7.18651169E-16
  2.61416425E-15  1.90068515E-15  7.81598181E-01  9.98158500E-05 -2.47346881E-15
  3.66656040E-15 -7.36517557E-16  7.39064320E-15 -5.80565427E-15  2.35313413E-16
 -5.45660883E-15  3.57563163E-15  7.70592257E-16 -1.47990719E-16  1.45431446E-15
 -4.69213861E-15  8.21698361E-05 -6.43422807E-01  3.48393149E-15 -4.65550506E-15
  1.00656934E-15 -3.35135732E-15 -4.87318053E-15 -2.26695378E-16  3.49771797E-15
  2.62952775E-15  1.26060007E-15  4.26126238E-16  1.21260443E-15 -2.08222737E-15
 -9.98158500E-05  7.81598181E-01 -4.10299301E-15 -3.31502029E-16 -3.17362994E-15
  1.13690300E+00  3.03019587E-01 -1.46165010E-15 -6.02074751E-01 -1.60471423E-01
 -3.74304665E-15  3.83762677E-16  2.51406813E-01  6.70076414E-02 -2.76297955E-15
  6.87959056E-15 -6.59767241E-15  9.25473931E-15  1.81367545E-16  1.33333573E-02
  3.55374946E-03  1.31062045E-14  2.48597287E-02  6.62588161E-03 -1.21874596E-14
  4.71523411E-15  2.42653665E-01  6.46746583E-02 -1.07464769E-15 -6.98939679E-16
  1.95149795E-15 -5.89013266E-15 -7.90306551E-16 -3.03019587E-01  1.13690300E+00
  4.71768722E-15  1.60471423E-01 -6.02074751E-01 -5.85480394E-15  5.29514164E-16
 -6.70076414E-02  2.51406813E-01 -1.02469976E-14 -3.02566824E-15 -8.00695864E-16
  2.78161985E-15  2.46477631E-15 -3.55374946E-03  1.33333573E-02  8.50581044E-15
 -6.62588161E-03  2.48597287E-02 -8.71560465E-15  3.17057875E-15 -6.46746583E-02
  2.42653665E-01  1.75065290E-15  7.84302533E-15 -3.71076784E-16  2.81533474E-16
  9.99661194E-16 -1.10224820E-01  1.29260109E-01 -6.66573659E-15  4.88846495E-02
 -5.73267899E-02  5.59773889E-15  2.30804869E-15  1.70842357E-01 -2.00345999E-01
 -4.73262543E-15 -4.58701183E-15  1.36963058E-15 -3.95958837E-15  4.25537586E-16
 -7.44240749E-01  8.72767495E-01  4.62941577E-15  3.75733200E-01 -4.40620490E-01
 -9.20854913E-16  5.60428945E-16  1.92516213E-01 -2.25762823E-01 -7.84471561E-16
 -3.05254072E-15 -1.71443830E-15  3.59281566E-15  1.30473517E-15  1.29260109E-01
  1.10224820E-01 -1.37904989E-15 -5.73267899E-02 -4.88846495E-02  2.98545760E-15
 -5.79240298E-16 -2.00345999E-01 -1.70842357E-01 -3.15720165E-15 -2.48508736E-17
 -7.59065708E-17 -1.29125372E-15 -1.91676924E-15  8.72767495E-01  7.44240749E-01
 -5.91003181E-15 -4.40620490E-01 -3.75733200E-01  5.65347789E-15 -1.65950030E-15
 -2.25762823E-01 -1.92516213E-01  1.33382251E-15  4.83212842E-15 -9.92193793E-02
  4.37611184E-01  3.68341064E-01  1.30640292E-15  6.02830974E-15 -1.00637817E+00
  7.20175540E-16 -1.75412170E-15  1.13519239E+00  1.82520411E-01  5.26015441E-15
  7.99881339E-15  4.53239351E-16 -4.94908306E-17  7.95183907E-02 -4.52486947E-01
 -3.58413286E-01  1.11072408E-15 -1.69980439E-16 -8.76554058E-01 -1.80364185E-15
 -1.19685230E-15  1.05399834E+00 -1.15471126E-01  5.57109341E-15  7.83538920E-15
  6.92251486E-16  8.07377298E-17  1.23980544E-15 -2.93122405E-15 -3.55030076E-15
 -4.64302911E-01 -8.99410893E-03  1.01405377E-14  4.66153828E-01  9.02996343E-03
 -9.84082690E-15 -2.76096123E-15  6.81910399E-01  1.32094292E-02 -8.77379315E-16
 -6.65472263E-15  1.66306377E-15  1.06248548E-15  4.36069244E-15  5.57081407E-01
  1.07913406E-02  6.00830402E-16 -5.07976706E-01 -9.84012316E-03 -4.41999823E-15
 -3.00300795E-17  6.98816276E-01  1.35369164E-02 -9.99803504E-17 -3.64882034E-15
  1.31690056E-15 -1.34840102E-15 -3.01003808E-15  8.99410893E-03 -4.64302911E-01
  1.53740387E-14 -9.02996343E-03  4.66153828E-01 -1.23760042E-14 -4.26944490E-15
 -1.32094292E-02  6.81910399E-01  5.14948284E-15  1.02779720E-16 -1.18265548E-15
  5.57775563E-15  7.34266837E-16 -1.07913406E-02  5.57081407E-01 -3.81912952E-15
  9.84012316E-03 -5.07976706E-01 -9.95410876E-16 -4.22828800E-15 -1.35369164E-02
  6.98816276E-01 -2.57884349E-15  5.89775266E-15 -1.01287745E-01 -1.11344857E-01
  2.59786099E-02 -1.17553359E-14 -1.31522522E-14 -7.99206912E-01  7.70738778E-15
  9.75227230E-15  4.27102498E-01  3.13923922E-01 -1.73323280E-15  7.55883376E-15
  3.87483107E-16 -7.40527161E-17 -1.11419000E-01 -6.00585057E-02  7.83877324E-02
  1.04054938E-14  2.95793080E-15  9.49003734E-01 -6.67025479E-15 -4.43360675E-15
 -5.75427446E-01  3.26697127E-01  2.02859524E-16  6.35136287E-15 -9.64801896E-17
  1.73362984E-16  4.85531218E-01 -1.40136618E+00 -1.11030890E-02 -1.69609050E-15
 -1.37671372E-15  4.61137653E-02  6.49477638E-16  3.31861096E-16 -1.22065259E+00
 -1.03326064E+00 -6.63599416E-16  2.74173653E-16  3.37482115E-17 -5.65618239E-18
 -4.91717259E-01  1.40401089E+00  1.08054600E-02 -9.60463821E-16  1.37562167E-15
  5.02168542E-02  2.82653625E-16 -3.93917381E-16 -1.22316172E+00  1.04342280E+00
 -5.30768144E-16  2.69719998E-16  5.51046551E-17  2.89179317E-17
Beta MO coefficients                       R   N=         784
  6.97860664E-02  1.10202832E-01  7.26442684E-02 -4.78524665E-17  2.41679487E-17
  4.08552238E-03  7.44664502E-17 -6.95623494E-17  2.00829802E-02  1.99894013E-03
  8.28611111E-17 -5.59389658E-17  5.38834206E-18 -2.30233303E-18  2.09477521E-01
  4.38542926E-01  3.43139125E-01  8.46389620E-17 -6.02493305E-17 -1.27947021E-03
 -1.17018238E-16  1.21674085E-16 -1.45901248E-02  1.59904469E-03  9.50899680E-17
 -4.24861867E-17  1.44923086E-17  3.83506377E-19  1.43400844E-01  7.16609242E-02
  1.18807801E+00  2.25989887E-19 -7.96477952E-18 -7.46821297E-03  2.16812879E-18
 -5.65559490E-19  1.91942971E-02  1.49185393E-03  3.50524523E-18  2.36449016E-18
  1.34959582E-16 -3.29628860E-18 -8.65496824E-02 -1.28879723E-01 -7.95390050E-01
  1.25930000E-17  9.02088980E-17 -9.18135827E-03 -1.89280386E-17 -5.44280483E-17
 -1.85300633E-02  4.81911383E-04 -9.04847163E-18 -1.52472047E-18 -1.33633153E-17
 -1.89292156E-18 -1.27262286E-02 -5.38139433E-01  2.05543450E-01  1.37541980E-17
  6.92936813E-17  8.43873584E-03  3.01749793E-17 -1.02987446E-16 -1.10547273E-01
  5.42463116E-03 -2.25104841E-17 -2.06053318E-17 -3.71407588E-18  6.37528682E-17
 -7.61960287E-02 -1.16549489E+00  1.52349724E+00 -2.79684880E-18  1.91888270E-16
  4.07165864E-03 -4.15653345E-16 -2.56569148E-16  3.07554167E-02  1.08793792E-02
 -1.14434441E-17 -2.74912936E-17 -5.18707529E-17 -9.17273498E-17 -1.13896367E-01
 -1.29444765E+00  1.79966364E+00  1.03518062E-16  2.31173992E-17 -1.51883352E-02
  1.28197981E-19  3.13425224E-17  1.21631718E-01  1.43166238E-02  6.69807743E-17
 -7.88263269E-17  1.85035809E-16 -7.94263709E-17  8.19625215E-02  6.06719735E-01
 -1.25500918E+00 -1.06940755E-16  1.04512348E-16 -1.72710383E-02 -1.39713669E-16
 -1.10298513E-16  2.29343759E-01 -7.07441903E-03  7.98343027E-17 -9.66801512E-17
  7.52703851E-17  1.18128066E-16  3.55315764E-17 -7.19477804E-16  4.25339461E-16
 -5.83816169E-02 -4.03456252E-03  5.63937889E-17  5.68104584E-01  3.92598490E-02
 -4.14155173E-16 -1.78344273E-17  1.64543141E-04  1.13710381E-05 -3.38980601E-17
 -1.17811682E-16 -5.77637149E-17 -4.42275860E-16  7.48663017E-16 -6.58231541E-02
 -4.54882281E-03  7.48067434E-18  7.47985286E-01  5.16908157E-02 -9.61837822E-17
  6.55760260E-17  1.23894491E-03  8.56194287E-05 -1.70178511E-16 -1.84486287E-17
 -6.03178702E-18  3.04336497E-17  1.48944719E-16  4.03456252E-03 -5.83816169E-02
 -1.23604703E-17 -3.92598490E-02  5.68104584E-01  2.27363879E-16 -3.89925924E-17
 -1.13710381E-05  1.64543141E-04 -5.10642688E-17  2.50825488E-18  2.98334557E-16
 -8.07299071E-16  4.69218801E-16  4.54882281E-03 -6.58231541E-02 -3.29894514E-17
 -5.16908157E-02  7.47985286E-01  3.63699678E-16 -2.13002541E-17 -8.56194287E-05
  1.23894491E-03  1.26120780E-16 -3.25240148E-16  1.11707311E-02  5.49530422E-01
 -2.59273606E-01  1.02331126E-16 -1.61359836E-16  5.49741178E-02  5.13127447E-16
  1.57857826E-15 -6.06288460E-01  3.29474030E-02 -3.65072692E-17  9.98773436E-17
 -5.38991136E-17 -2.31095070E-16 -5.18497859E-03  4.08900463E-01 -2.49658479E-01
  8.85392167E-17  4.24401655E-17 -5.32354946E-02 -7.12397771E-16 -1.44829410E-15
  7.04390869E-01  3.33427427E-02  3.75257304E-17  4.11385284E-17 -3.77906963E-17
  1.61750997E-16 -8.69192453E-17 -1.10250807E-15  2.22529807E-16  3.52263694E-02
 -8.27259648E-02  3.25348013E-17 -3.68341510E-01  8.65016956E-01  1.52925166E-16
 -1.58904624E-16  4.18802092E-03 -9.83519101E-03 -1.21187890E-16 -4.08099657E-16
 -2.80331582E-16 -2.94151983E-16  7.21954832E-16 -2.60282922E-02  6.11251067E-02
  1.59321363E-17  3.11067810E-01 -7.30514814E-01 -1.61419747E-15  1.01087784E-16
  5.48023521E-03 -1.28698402E-02  3.39964730E-17  1.18566141E-16 -3.15810606E-16
  2.88318643E-17 -7.50269167E-16 -8.27259648E-02 -3.52263694E-02  5.94746323E-17
  8.65016956E-01  3.68341510E-01  3.35865911E-16 -1.47421589E-16 -9.83519101E-03
 -4.18802092E-03  1.93988031E-16  1.25065683E-16 -2.59380938E-16  5.48125268E-16
 -5.94518359E-17  6.11251067E-02  2.60282922E-02  6.13288996E-17 -7.30514814E-01
 -3.11067810E-01 -1.67186914E-15 -3.24975638E-17 -1.28698402E-02 -5.48023521E-03
 -3.33833432E-16 -8.87391501E-17  8.43006892E-02  5.42979226E-01  7.35972398E-01
 -2.38567837E-16 -5.44120078E-16 -1.30183807E-01  4.95738590E-16  6.85010158E-16
  1.57944207E+00  2.37785688E-02 -1.62944791E-17 -6.12479338E-17 -6.89850166E-17
  5.55560086E-17 -1.05133657E-01 -5.09557761E-01 -7.50450883E-01 -9.73405590E-17
  6.37976448E-17 -1.19674765E-01  8.32453137E-17 -7.17075703E-16  1.52282550E+00
 -2.35265210E-02 -8.41064951E-18  5.41343174E-18  3.32404591E-17 -4.22822589E-17
 -7.52573618E-01  7.32334505E-01 -2.78098010E-01 -1.84464454E-15 -7.96087702E-16
  5.62142494E-02  6.18166635E-16  7.81253262E-17 -2.13677377E-01 -2.24012705E-02
  9.18469283E-16 -6.68812752E-16  5.30497031E-16 -4.20160998E-16 -1.34206052E+00
  1.66820730E+00 -6.50947704E-01 -3.28420873E-16 -1.05754251E-15 -4.42615258E-02
  2.63807286E-16  1.68770197E-15 -3.72020442E-02 -7.69638230E-02  6.75064835E-17
 -7.18040004E-17 -9.48299815E-16  5.96074568E-16 -1.36150636E+00  1.88957609E+00
 -7.58531715E-01 -1.00837278E-16 -6.97093059E-16 -3.64398225E-03 -1.02665183E-16
  9.76284107E-17  3.60440843E-01 -1.14660551E-01 -4.04570503E-16 -1.86637625E-16
 -1.54422653E-15  1.12270184E-15  7.71163020E-01 -1.24873860E+00  5.15032147E-01
 -2.53023453E-16 -4.13765989E-16 -3.86754679E-02  5.09164761E-16 -4.78796472E-17
  4.11055974E-01  9.72057859E-02 -5.31217370E-17  3.45804949E-16  5.29799393E-16
 -1.43580745E-15  1.67384195E-02 -1.01825592E-01  8.18870279E-02 -2.17332534E-15
 -4.34153253E-16  3.82942661E-01  9.48150474E-15 -2.00225758E-15 -2.44761095E-01
  5.58449335E-01 -6.27128841E-14  2.22777037E-14  6.49303058E-16 -7.78974438E-16
 -5.58666054E-03 -6.16369550E-02  5.83608544E-02 -1.45027901E-15  1.84225364E-15
 -4.08622859E-01  7.65953590E-15 -3.47400592E-15  2.50919050E-01  5.65246415E-01
  6.61645942E-14 -1.96978789E-14 -1.29143220E-15 -3.47280205E-16  1.89469538E-15
 -7.43614308E-15  5.60952765E-15  5.16012888E-03 -1.61588852E-02  2.18639122E-14
 -2.83705551E-02  8.88420720E-02 -1.42623961E-14  3.38342208E-14  1.97204140E-01
 -6.17542532E-01  5.04133791E-16  1.55340525E-15  2.83842752E-16 -4.46336879E-15
  3.76397730E-15  6.14943139E-03 -1.92568748E-02 -2.35203164E-14 -2.57435184E-02
  8.06155365E-02  1.44300986E-14  3.42263172E-14 -2.05779226E-01  6.44395315E-01
  9.61326468E-15 -6.63519288E-16 -1.22732062E-15  8.19692364E-15 -6.69366213E-15
 -1.61588852E-02 -5.16012888E-03 -3.11623917E-14  8.88420720E-02  2.83705551E-02
  1.98056674E-14 -4.66561586E-14 -6.17542532E-01 -1.97204140E-01  1.85099930E-16
  3.47149554E-16 -5.62700750E-16  6.75927194E-15 -5.59091820E-15 -1.92568748E-02
 -6.14943139E-03  3.32991212E-14  8.06155365E-02  2.57435184E-02 -2.07906545E-14
 -4.74134931E-14  6.44395315E-01  2.05779226E-01 -1.10928292E-14 -2.34806746E-15
 -8.92201414E-16  9.93682238E-16 -1.10032159E-15  3.36214248E-15  1.24993495E-15
  1.06326525E-15  1.05880555E-16 -1.27737711E-15 -9.70299385E-16  5.99604256E-17
 -5.38023646E-15  3.17484573E-15  6.24273153E-01 -7.45304791E-05 -2.61954299E-16
  3.47695595E-16  5.57785621E-16 -1.53527481E-15 -3.00641031E-15  1.79105716E-16
  1.90928075E-15  1.04606323E-15 -1.96959562E-16  5.24234303E-16  9.46233877E-15
 -3.68475872E-15  7.65911077E-01 -9.14402922E-05 -4.32144714E-16  6.76783939E-16
 -6.55619197E-16 -3.48708583E-15 -2.42513472E-15  3.61772679E-16  2.31811496E-15
  8.68983381E-16 -1.21021848E-16  4.11676636E-16 -4.06694985E-16 -3.32198654E-15
  7.45304791E-05  6.24273153E-01  6.80518414E-16 -1.59407396E-15  1.37893931E-15
 -3.02513315E-15  7.35229326E-16 -4.00460609E-16  1.54244181E-15  3.85435332E-16
  4.74884409E-16  5.14213032E-16  2.09832918E-15 -2.85214513E-15  9.14402922E-05