 Entering Gaussian System, Link 0=/share/apps/gaussian/G09C01Z/srwang-mod-2020/g09/g09
 Initial command:
 /share/apps/gaussian/G09C01Z/srwang-mod-2020/g09/l1.exe /scratch/scr/srwang/xcluster/202011201305.235236/Gau-235262.inp -scrdir=/scratch/scr/srwang/xcluster/202011201305.235236/
 Entering Link 1 = /share/apps/gaussian/G09C01Z/srwang-mod-2020/g09/l1.exe PID=    235263.
  
 Copyright (c) 1988,1990,1992,1993,1995,1998,2003,2009,2011,
            Gaussian, Inc.  All Rights Reserved.
  
 This is part of the Gaussian(R) 09 program.  It is based on
 the Gaussian(R) 03 system (copyright 2003, Gaussian, Inc.),
 the Gaussian(R) 98 system (copyright 1998, Gaussian, Inc.),
 the Gaussian(R) 94 system (copyright 1995, Gaussian, Inc.),
 the Gaussian 92(TM) system (copyright 1992, Gaussian, Inc.),
 the Gaussian 90(TM) system (copyright 1990, Gaussian, Inc.),
 the Gaussian 88(TM) system (copyright 1988, Gaussian, Inc.),
 the Gaussian 86(TM) system (copyright 1986, Carnegie Mellon
 University), and the Gaussian 82(TM) system (copyright 1983,
 Carnegie Mellon University). Gaussian is a federally registered
 trademark of Gaussian, Inc.
  
 This software contains proprietary and confidential information,
 including trade secrets, belonging to Gaussian, Inc.
  
 This software is provided under written license and may be
 used, copied, transmitted, or stored only in accord with that
 written license.
  
 The following legend is applicable only to US Government
 contracts under FAR:
  
                    RESTRICTED RIGHTS LEGEND
  
 Use, reproduction and disclosure by the US Government is
 subject to restrictions as set forth in subparagraphs (a)
 and (c) of the Commercial Computer Software - Restricted
 Rights clause in FAR 52.227-19.
  
 Gaussian, Inc.
 340 Quinnipiac St., Bldg. 40, Wallingford CT 06492
  
  
 ---------------------------------------------------------------
 Warning -- This program may not be used in any manner that
 competes with the business of Gaussian, Inc. or will provide
 assistance to any competitor of Gaussian, Inc.  The licensee
 of this program is prohibited from giving any competitor of
 Gaussian, Inc. access to this program.  By using this program,
 the user acknowledges that Gaussian, Inc. is engaged in the
 business of creating and licensing software in the field of
 computational chemistry and represents and warrants to the
 licensee that it is not a competitor of Gaussian, Inc. and that
 it will not use this program in any manner prohibited above.
 ---------------------------------------------------------------
  

 Cite this work as:
 Gaussian 09, Revision C.01,
 M. J. Frisch, G. W. Trucks, H. B. Schlegel, G. E. Scuseria, 
 M. A. Robb, J. R. Cheeseman, G. Scalmani, V. Barone, B. Mennucci, 
 G. A. Petersson, H. Nakatsuji, M. Caricato, X. Li, H. P. Hratchian, 
 A. F. Izmaylov, J. Bloino, G. Zheng, J. L. Sonnenberg, M. Hada, 
 M. Ehara, K. Toyota, R. Fukuda, J. Hasegawa, M. Ishida, T. Nakajima, 
 Y. Honda, O. Kitao, H. Nakai, T. Vreven, J. A. Montgomery, Jr., 
 J. E. Peralta, F. Ogliaro, M. Bearpark, J. J. Heyd, E. Brothers, 
 K. N. Kudin, V. N. Staroverov, T. Keith, R. Kobayashi, J. Normand, 
 K. Raghavachari, A. Rendell, J. C. Burant, S. S. Iyengar, J. Tomasi, 
 M. Cossi, N. Rega, J. M. Millam, M. Klene, J. E. Knox, J. B. Cross, 
 V. Bakken, C. Adamo, J. Jaramillo, R. Gomperts, R. E. Stratmann, 
 O. Yazyev, A. J. Austin, R. Cammi, C. Pomelli, J. W. Ochterski, 
 R. L. Martin, K. Morokuma, V. G. Zakrzewski, G. A. Voth, 
 P. Salvador, J. J. Dannenberg, S. Dapprich, A. D. Daniels, 
 O. Farkas, J. B. Foresman, J. V. Ortiz, J. Cioslowski, 
 and D. J. Fox, Gaussian, Inc., Wallingford CT, 2010.
 
 ******************************************
 Gaussian 09:  EM64L-G09RevC.01 23-Sep-2011
                20-Nov-2020 
 ******************************************
 %nproc=1
 Will use up to    1 processors via shared memory.
 %mem=4GB
 %chk=/scratch/scr/srwang/xcluster/202011201305.235236/test_uhf.chk
 --------------------------------------------
 #p uhf/cc-pvtz nosymm guess=mix scf=conver=4
 --------------------------------------------
 1/38=1/1;
 2/12=2,15=1,17=6,18=5,40=1/2;
 3/5=16,6=1,11=2,16=1,25=1,30=1,116=2/1,2,3;
 4/13=-1/1;
 5/5=2,6=4,38=5/2;
 6/7=2,8=2,9=2,10=2,28=1/1;
 99/5=1,9=1/99;
 Leave Link    1 at Fri Nov 20 13:05:41 2020, MaxMem=  536870912 cpu:       0.0
 (Enter /share/apps/gaussian/G09C01Z/srwang-mod-2020/g09/l101.exe)
 -----
 title
 -----
 Charge =  0 Multiplicity = 1
 Symbolic Z-Matrix:
 H                     0.        0.        0. 
 H                     0.        0.        1.4 
 
 NAtoms=      2 NQM=        0 NQMF=       0 NMMI=      2 NMMIF=      0
                NMic=       0 NMicF=      0.
                    Isotopes and Nuclear Properties:
 (Nuclear quadrupole moments (NQMom) in fm**2, nuclear magnetic moments (NMagM)
  in nuclear magnetons)

  Atom         1           2
 IAtWgt=           1           1
 AtmWgt=   1.0078250   1.0078250
 NucSpn=           1           1
 AtZEff=   0.0000000   0.0000000
 NQMom=    0.0000000   0.0000000
 NMagM=    2.7928460   2.7928460
 Leave Link  101 at Fri Nov 20 13:05:41 2020, MaxMem=  536870912 cpu:       0.1
 (Enter /share/apps/gaussian/G09C01Z/srwang-mod-2020/g09/l202.exe)
                          Input orientation:                          
 ---------------------------------------------------------------------
 Center     Atomic      Atomic             Coordinates (Angstroms)
 Number     Number       Type             X           Y           Z
 ---------------------------------------------------------------------
      1          1           0        0.000000    0.000000    0.000000
      2          1           0        0.000000    0.000000    1.400000
 ---------------------------------------------------------------------
 Symmetry turned off by external request.
 Stoichiometry    H2
 Framework group  D*H[C*(H.H)]
 Deg. of freedom     1
 Full point group                 D*H     NOp   8
 Rotational constants (GHZ):      0.0000000    511.6888778    511.6888778
 Leave Link  202 at Fri Nov 20 13:05:41 2020, MaxMem=  536870912 cpu:       0.0
 (Enter /share/apps/gaussian/G09C01Z/srwang-mod-2020/g09/l301.exe)
 Standard basis: CC-pVTZ (5D, 7F)
 Ernie: Thresh=  0.10000D-02 Tol=  0.10000D-05 Strict=F.
 Integral buffers will be    131072 words long.
 Raffenetti 2 integral format.
 Two-electron integral symmetry is turned off.
    28 basis functions,    34 primitive gaussians,    30 cartesian basis functions
     1 alpha electrons        1 beta electrons
       nuclear repulsion energy         0.3779837204 Hartrees.
 IExCor=    0 DFT=F Ex=HF Corr=None ExCW=0 ScaHFX=  1.000000
 ScaDFX=  1.000000  1.000000  1.000000  1.000000 ScalE2=  1.000000  1.000000
 IRadAn=      0 IRanWt=     -1 IRanGd=            0 ICorTp=0
 NAtoms=    2 NActive=    2 NUniq=    2 SFac= 1.00D+00 NAtFMM=   60 NAOKFM=F Big=F
 Leave Link  301 at Fri Nov 20 13:05:41 2020, MaxMem=  536870912 cpu:       0.0
 (Enter /share/apps/gaussian/G09C01Z/srwang-mod-2020/g09/l302.exe)
 NPDir=0 NMtPBC=     1 NCelOv=     1 NCel=       1 NClECP=     1 NCelD=      1
         NCelK=      1 NCelE2=     1 NClLst=     1 CellRange=     0.0.
 One-electron integrals computed using PRISM.
 Bad symmetry data in SVDSVc:  NBasis=   28 NT=   28 NBlks=1 MaxCmp=1 NBF=   28
 NBasis=    28 RedAO= T  NBF=    28
 NBsUse=    28 1.00D-06 NBFU=    28
 Leave Link  302 at Fri Nov 20 13:05:42 2020, MaxMem=  536870912 cpu:       0.1
 (Enter /share/apps/gaussian/G09C01Z/srwang-mod-2020/g09/l303.exe)
 DipDrv:  MaxL=1.
 Leave Link  303 at Fri Nov 20 13:05:42 2020, MaxMem=  536870912 cpu:       0.0
 (Enter /share/apps/gaussian/G09C01Z/srwang-mod-2020/g09/l401.exe)
 Harris functional with IExCor=  205 diagonalized for initial guess.
 ExpMin= 1.03D-01 ExpMax= 3.39D+01 ExpMxC= 3.39D+01 IAcc=1 IRadAn=         1 AccDes= 0.00D+00
 HarFok:  IExCor=  205 AccDes= 0.00D+00 IRadAn=         1 IDoV= 1
 ScaDFX=  1.000000  1.000000  1.000000  1.000000
 FoFCou: FMM=F IPFlag=           0 FMFlag=      100000 FMFlg1=           0
         NFxFlg=           0 DoJE=T BraDBF=F KetDBF=T FulRan=T
         Omega=  0.000000  0.000000  1.000000  0.000000  0.000000 ICntrl=     500 IOpCl=  0
         NMat0=    1 NMatS0=    1 NMatT0=    0 NMatD0=    1 NMtDS0=    0 NMtDT0=    0
         I1Cent=           4 NGrid=           0.
 Symmetry not used in FoFCou.
 Harris En= -1.08823018257791    
 Mixing orbitals, IMix= 1 IMixAn=  0 NRI=1 NE=    1 Coef=  7.07106781D-01  7.07106781D-01
 Mixing orbitals, IMix= 1 IMixAn=  0 NRI=1 NE=    1 Coef= -7.07106781D-01  7.07106781D-01
 Initial guess <Sx>= 0.0000 <Sy>= 0.0000 <Sz>= 0.0000 <S**2>= 1.0000 S= 0.6180
 Leave Link  401 at Fri Nov 20 13:05:42 2020, MaxMem=  536870912 cpu:       0.1
 (Enter /share/apps/gaussian/G09C01Z/srwang-mod-2020/g09/l502.exe)
 UHF open shell SCF:
 Requested convergence on RMS density matrix=1.00D-04 within 128 cycles.
 Requested convergence on MAX density matrix=1.00D-02.
 Requested convergence on             energy=1.00D-02.
 No special actions if energy rises.
 Using DIIS extrapolation, IDIIS=  1040.
 Two-electron integral symmetry not used.
 Keep R1 and R2 ints in memory in canonical form, NReq=1057921.
 IEnd=       21210 IEndB=       21210 NGot=   536870912 MDV=   536650555
 LenX=   536650555 LenY=   536649214
 Symmetry not used in FoFDir.
 MinBra= 0 MaxBra= 2 Meth= 1.
 IRaf=       0 NMat=   1 IRICut=       1 DoRegI=T DoRafI=F ISym2E= 0 JSym2E=0.

 Cycle   1  Pass 1  IDiag  1:
 E=-0.930212141608326    
 DIIS: error= 4.69D-02 at cycle   1 NSaved=   1.
 NSaved= 1 IEnMin= 1 EnMin=-0.930212141608326     IErMin= 1 ErrMin= 4.69D-02
 ErrMax= 4.69D-02 EMaxC= 1.00D-01 BMatC= 7.43D-02 BMatP= 7.43D-02
 IDIUse=3 WtCom= 5.31D-01 WtEn= 4.69D-01
 Coeff-Com:  0.100D+01
 Coeff-En:   0.100D+01
 Coeff:      0.100D+01
 Gap=     0.568 Goal=   None    Shift=    0.000
 Gap=     0.568 Goal=   None    Shift=    0.000
 GapD=    0.568 DampG=2.000 DampE=0.500 DampFc=1.0000 IDamp=-1.
 RMSDP=1.46D-02 MaxDP=2.33D-01              OVMax= 2.14D-01

 Cycle   2  Pass 1  IDiag  1:
 E= -1.01087349161780     Delta-E=       -0.080661350009 Rises=F Damp=F
 DIIS: error= 2.19D-02 at cycle   2 NSaved=   2.
 NSaved= 2 IEnMin= 2 EnMin= -1.01087349161780     IErMin= 2 ErrMin= 2.19D-02
 ErrMax= 2.19D-02 EMaxC= 1.00D-01 BMatC= 1.16D-02 BMatP= 7.43D-02
 IDIUse=3 WtCom= 7.81D-01 WtEn= 2.19D-01
 Coeff-Com: -0.510D+00 0.151D+01
 Coeff-En:   0.000D+00 0.100D+01
 Coeff:     -0.398D+00 0.140D+01
 Gap=     0.614 Goal=   None    Shift=    0.000
 Gap=     0.614 Goal=   None    Shift=    0.000
 RMSDP=5.77D-03 MaxDP=7.85D-02 DE=-8.07D-02 OVMax= 1.16D-01

 Cycle   3  Pass 1  IDiag  1:
 E= -1.02727684696276     Delta-E=       -0.016403355345 Rises=F Damp=F
 DIIS: error= 9.71D-03 at cycle   3 NSaved=   3.
 NSaved= 3 IEnMin= 3 EnMin= -1.02727684696276     IErMin= 3 ErrMin= 9.71D-03
 ErrMax= 9.71D-03 EMaxC= 1.00D-01 BMatC= 2.01D-03 BMatP= 1.16D-02
 IDIUse=3 WtCom= 9.03D-01 WtEn= 9.71D-02
 Coeff-Com:  0.273D+00-0.116D+01 0.189D+01
 Coeff-En:   0.000D+00 0.000D+00 0.100D+01
 Coeff:      0.246D+00-0.105D+01 0.180D+01
 Gap=     0.581 Goal=   None    Shift=    0.000
 Gap=     0.581 Goal=   None    Shift=    0.000
 RMSDP=2.08D-03 MaxDP=2.36D-02 DE=-1.64D-02 OVMax= 6.54D-02

 Cycle   4  Pass 1  IDiag  1:
 E= -1.03104711750698     Delta-E=       -0.003770270544 Rises=F Damp=F
 DIIS: error= 3.86D-03 at cycle   4 NSaved=   4.
 NSaved= 4 IEnMin= 4 EnMin= -1.03104711750698     IErMin= 4 ErrMin= 3.86D-03
 ErrMax= 3.86D-03 EMaxC= 1.00D-01 BMatC= 3.78D-04 BMatP= 2.01D-03
 IDIUse=3 WtCom= 9.61D-01 WtEn= 3.86D-02
 Coeff-Com: -0.708D-01 0.382D+00-0.128D+01 0.197D+01
 Coeff-En:   0.000D+00 0.000D+00 0.000D+00 0.100D+01
 Coeff:     -0.681D-01 0.367D+00-0.123D+01 0.193D+01
 Gap=     0.577 Goal=   None    Shift=    0.000
 Gap=     0.577 Goal=   None    Shift=    0.000
 RMSDP=1.21D-03 MaxDP=2.07D-02 DE=-3.77D-03 OVMax= 4.15D-02

 Cycle   5  Pass 1  IDiag  1:
 E= -1.03190749128353     Delta-E=       -0.000860373777 Rises=F Damp=F
 DIIS: error= 8.13D-04 at cycle   5 NSaved=   5.
 NSaved= 5 IEnMin= 5 EnMin= -1.03190749128353     IErMin= 5 ErrMin= 8.13D-04
 ErrMax= 8.13D-04 EMaxC= 1.00D-01 BMatC= 1.76D-05 BMatP= 3.78D-04
 IDIUse=3 WtCom= 9.92D-01 WtEn= 8.13D-03
 Coeff-Com:  0.212D-01-0.131D+00 0.420D+00-0.915D+00 0.160D+01
 Coeff-En:   0.000D+00 0.000D+00 0.000D+00 0.000D+00 0.100D+01
 Coeff:      0.210D-01-0.130D+00 0.416D+00-0.907D+00 0.160D+01
 Gap=     0.570 Goal=   None    Shift=    0.000
 Gap=     0.570 Goal=   None    Shift=    0.000
 RMSDP=3.72D-04 MaxDP=5.96D-03 DE=-8.60D-04 OVMax= 1.31D-02

 Cycle   6  Pass 1  IDiag  1:
 E= -1.03195642371090     Delta-E=       -0.000048932427 Rises=F Damp=F
 DIIS: error= 2.96D-05 at cycle   6 NSaved=   6.
 NSaved= 6 IEnMin= 6 EnMin= -1.03195642371090     IErMin= 6 ErrMin= 2.96D-05
 ErrMax= 2.96D-05 EMaxC= 1.00D-01 BMatC= 3.20D-08 BMatP= 1.76D-05
 IDIUse=1 WtCom= 1.00D+00 WtEn= 0.00D+00
 Coeff-Com: -0.156D-02 0.139D-01-0.552D-01 0.142D+00-0.314D+00 0.122D+01
 Coeff:     -0.156D-02 0.139D-01-0.552D-01 0.142D+00-0.314D+00 0.122D+01
 Gap=     0.571 Goal=   None    Shift=    0.000
 Gap=     0.571 Goal=   None    Shift=    0.000
 RMSDP=1.37D-05 MaxDP=1.83D-04 DE=-4.89D-05 OVMax= 4.42D-04

 SCF Done:  E(UHF) =  -1.03195642371     A.U. after    6 cycles
             Convg  =    0.1371D-04             -V/T =  2.1739
 <Sx>= 0.0000 <Sy>= 0.0000 <Sz>= 0.0000 <S**2>= 0.4297 S= 0.3244
 <L.S>= 0.000000000000E+00
 KE= 8.790635725310D-01 PE=-2.716890376814D+00 EE= 4.278866601506D-01
 Annihilation of the first spin contaminant:
 S**2 before annihilation     0.4297,   after     0.0000
 Leave Link  502 at Fri Nov 20 13:05:42 2020, MaxMem=  536870912 cpu:       0.1
 (Enter /share/apps/gaussian/G09C01Z/srwang-mod-2020/g09/l601.exe)
 Copying SCF densities to generalized density rwf, IOpCl= 1 IROHF=0.

 **********************************************************************

            Population analysis using the SCF density.

 **********************************************************************

 Alpha  occ. eigenvalues --   -0.49095
 Alpha virt. eigenvalues --    0.07979   0.35103   0.47974   0.66580   0.66580
 Alpha virt. eigenvalues --    0.85378   0.96635   0.96635   1.37141   2.55165
 Alpha virt. eigenvalues --    2.71275   3.11772   3.12342   3.12342   3.36113
 Alpha virt. eigenvalues --    3.36113   3.55604   3.55604   3.85354   3.85354
 Alpha virt. eigenvalues --    3.90563   3.90563   4.05424   4.16600   4.16600
 Alpha virt. eigenvalues --    4.35757   5.28715
  Beta  occ. eigenvalues --   -0.49095
  Beta virt. eigenvalues --    0.07979   0.35103   0.47974   0.66580   0.66580
  Beta virt. eigenvalues --    0.85378   0.96635   0.96635   1.37141   2.55165
  Beta virt. eigenvalues --    2.71275   3.11772   3.12342   3.12342   3.36113
  Beta virt. eigenvalues --    3.36113   3.55604   3.55604   3.85354   3.85354
  Beta virt. eigenvalues --    3.90563   3.90563   4.05424   4.16600   4.16600
  Beta virt. eigenvalues --    4.35757   5.28715
          Condensed to atoms (all electrons):
              1          2
     1  H    0.825170   0.174830
     2  H    0.174830   0.825170
 Mulliken atomic charges:
              1
     1  H   -0.000000
     2  H    0.000000
 Sum of Mulliken atomic charges =  -0.00000
 Mulliken charges with hydrogens summed into heavy atoms:
              1
 Sum of Mulliken charges with hydrogens summed into heavy atoms =  -0.00000
          Atomic-Atomic Spin Densities.
              1          2
     1  H    0.724973   0.000000
     2  H    0.000000  -0.724973
 Mulliken atomic spin densities:
              1
     1  H    0.724973
     2  H   -0.724973
 Sum of Mulliken atomic spin densities =   0.00000
 Electronic spatial extent (au):  <R**2>=             12.4784
 Charge=             -0.0000 electrons
 Dipole moment (field-independent basis, Debye):
    X=              0.0000    Y=             -0.0000    Z=             -0.0000  Tot=              0.0000
 Quadrupole moment (field-independent basis, Debye-Ang):
   XX=             -2.7610   YY=             -2.7610   ZZ=             -1.8476
   XY=              0.0000   XZ=              0.0000   YZ=             -0.0000
 Traceless Quadrupole moment (field-independent basis, Debye-Ang):
   XX=             -0.3045   YY=             -0.3045   ZZ=              0.6090
   XY=              0.0000   XZ=              0.0000   YZ=             -0.0000
 Octapole moment (field-independent basis, Debye-Ang**2):
  XXX=              0.0000  YYY=             -0.0000  ZZZ=             -3.8799  XYY=              0.0000
  XXY=             -0.0000  XXZ=             -1.9327  XZZ=              0.0000  YZZ=             -0.0000
  YYZ=             -1.9327  XYZ=              0.0000
 Hexadecapole moment (field-independent basis, Debye-Ang**3):
 XXXX=             -3.4762 YYYY=             -3.4762 ZZZZ=            -14.7048 XXXY=              0.0000
 XXXZ=              0.0000 YYYX=              0.0000 YYYZ=             -0.0000 ZZZX=              0.0000
 ZZZY=             -0.0000 XXYY=             -1.1587 XXZZ=             -3.5732 YYZZ=             -3.5732
 XXYZ=             -0.0000 YYXZ=              0.0000 ZZXY=              0.0000
 N-N= 3.779837204214D-01 E-N=-4.075530029894D+00  KE= 1.318595358796D+00
                          Isotropic Fermi Contact Couplings
        Atom                 a.u.       MegaHertz       Gauss      10(-4) cm-1
     1  H(1)               0.19970     446.31676     159.25691     148.87525
     2  H(1)              -0.19970    -446.31676    -159.25691    -148.87525
 --------------------------------------------------------
       Center         ----  Spin Dipole Couplings  ----
                      3XX-RR        3YY-RR        3ZZ-RR
 --------------------------------------------------------
     1   Atom        0.030024      0.030024     -0.060049
     2   Atom       -0.030024     -0.030024      0.060049
 --------------------------------------------------------
                        XY            XZ            YZ
 --------------------------------------------------------
     1   Atom        0.000000      0.000000      0.000000
     2   Atom        0.000000      0.000000      0.000000
 --------------------------------------------------------


 ---------------------------------------------------------------------------------
              Anisotropic Spin Dipole Couplings in Principal Axis System
 ---------------------------------------------------------------------------------

       Atom             a.u.   MegaHertz   Gauss  10(-4) cm-1        Axes

              Baa    -0.0600   -32.039   -11.432   -10.687  0.0000  0.0000  1.0000
     1 H(1)   Bbb     0.0300    16.020     5.716     5.344 -0.0000  1.0000  0.0000
              Bcc     0.0300    16.020     5.716     5.344  1.0000  0.0000  0.0000
 
              Baa    -0.0300   -16.020    -5.716    -5.344  1.0000  0.0000  0.0000
     2 H(1)   Bbb    -0.0300   -16.020    -5.716    -5.344 -0.0000  1.0000  0.0000
              Bcc     0.0600    32.039    11.432    10.687  0.0000  0.0000  1.0000
 

 ---------------------------------------------------------------------------------

 No NMR shielding tensors so no spin-rotation constants.
 Leave Link  601 at Fri Nov 20 13:05:43 2020, MaxMem=  536870912 cpu:       0.1
 (Enter /share/apps/gaussian/G09C01Z/srwang-mod-2020/g09/l9999.exe)
 1\1\GINC-XCLUSTER\SP\UHF\CC-pVTZ\H2\SRWANG\20-Nov-2020\0\\#p uhf/cc-pv
 tz nosymm guess=mix scf=conver=4\\title\\0,1\H,0,0.,0.,0.\H,0,0.,0.,1.
 4\\Version=EM64L-G09RevC.01\HF=-1.0319564\S2=0.429665\S2-1=0.\S2A=0.\R
 MSD=1.371e-05\Dipole=0.,0.,0.\Quadrupole=-0.2263712,-0.2263712,0.45274
 24,0.,0.,0.\PG=D*H [C*(H1.H1)]\\@


 A politician is a person who can make waves and then
 make you think he's the only one who can save the ship.
 -- Ivern Ball
 Job cpu time:  0 days  0 hours  0 minutes  0.7 seconds.
 File lengths (MBytes):  RWF=      9 Int=      0 D2E=      0 Chk=      1 Scr=      1
 Normal termination of Gaussian 09 at Fri Nov 20 13:05:43 2020.
