 Entering Gaussian System, Link 0=g09
 Input=ovlp.gjf
 Output=ovlp.log
 Initial command:
 /share/home/srwang/g09/l1.exe /share/home/srwang/gauscr/Gau-27737.inp -scrdir=/share/home/srwang/gauscr/ -exedir=/share/home/srwang/g09m/exe-dir:/share/home/srwang/g09/bsd:/share/home/srwang/g09/local:/share/home/srwang/g09/extras:/share/home/srwang/g09
 Entering Link 1 = /share/home/srwang/g09/l1.exe PID=     27738.
  
 Copyright (c) 1988,1990,1992,1993,1995,1998,2003,2009,2011,
            Gaussian, Inc.  All Rights Reserved.
  
 This is part of the Gaussian(R) 09 program.  It is based on
 the Gaussian(R) 03 system (copyright 2003, Gaussian, Inc.),
 the Gaussian(R) 98 system (copyright 1998, Gaussian, Inc.),
 the Gaussian(R) 94 system (copyright 1995, Gaussian, Inc.),
 the Gaussian 92(TM) system (copyright 1992, Gaussian, Inc.),
 the Gaussian 90(TM) system (copyright 1990, Gaussian, Inc.),
 the Gaussian 88(TM) system (copyright 1988, Gaussian, Inc.),
 the Gaussian 86(TM) system (copyright 1986, Carnegie Mellon
 University), and the Gaussian 82(TM) system (copyright 1983,
 Carnegie Mellon University). Gaussian is a federally registered
 trademark of Gaussian, Inc.
  
 This software contains proprietary and confidential information,
 including trade secrets, belonging to Gaussian, Inc.
  
 This software is provided under written license and may be
 used, copied, transmitted, or stored only in accord with that
 written license.
  
 The following legend is applicable only to US Government
 contracts under FAR:
  
                    RESTRICTED RIGHTS LEGEND
  
 Use, reproduction and disclosure by the US Government is
 subject to restrictions as set forth in subparagraphs (a)
 and (c) of the Commercial Computer Software - Restricted
 Rights clause in FAR 52.227-19.
  
 Gaussian, Inc.
 340 Quinnipiac St., Bldg. 40, Wallingford CT 06492
  
  
 ---------------------------------------------------------------
 Warning -- This program may not be used in any manner that
 competes with the business of Gaussian, Inc. or will provide
 assistance to any competitor of Gaussian, Inc.  The licensee
 of this program is prohibited from giving any competitor of
 Gaussian, Inc. access to this program.  By using this program,
 the user acknowledges that Gaussian, Inc. is engaged in the
 business of creating and licensing software in the field of
 computational chemistry and represents and warrants to the
 licensee that it is not a competitor of Gaussian, Inc. and that
 it will not use this program in any manner prohibited above.
 ---------------------------------------------------------------
  

 Cite this work as:
 Gaussian 09, Revision C.01,
 M. J. Frisch, G. W. Trucks, H. B. Schlegel, G. E. Scuseria, 
 M. A. Robb, J. R. Cheeseman, G. Scalmani, V. Barone, B. Mennucci, 
 G. A. Petersson, H. Nakatsuji, M. Caricato, X. Li, H. P. Hratchian, 
 A. F. Izmaylov, J. Bloino, G. Zheng, J. L. Sonnenberg, M. Hada, 
 M. Ehara, K. Toyota, R. Fukuda, J. Hasegawa, M. Ishida, T. Nakajima, 
 Y. Honda, O. Kitao, H. Nakai, T. Vreven, J. A. Montgomery, Jr., 
 J. E. Peralta, F. Ogliaro, M. Bearpark, J. J. Heyd, E. Brothers, 
 K. N. Kudin, V. N. Staroverov, T. Keith, R. Kobayashi, J. Normand, 
 K. Raghavachari, A. Rendell, J. C. Burant, S. S. Iyengar, J. Tomasi, 
 M. Cossi, N. Rega, J. M. Millam, M. Klene, J. E. Knox, J. B. Cross, 
 V. Bakken, C. Adamo, J. Jaramillo, R. Gomperts, R. E. Stratmann, 
 O. Yazyev, A. J. Austin, R. Cammi, C. Pomelli, J. W. Ochterski, 
 R. L. Martin, K. Morokuma, V. G. Zakrzewski, G. A. Voth, 
 P. Salvador, J. J. Dannenberg, S. Dapprich, A. D. Daniels, 
 O. Farkas, J. B. Foresman, J. V. Ortiz, J. Cioslowski, 
 and D. J. Fox, Gaussian, Inc., Wallingford CT, 2010.
 
 ******************************************
 Gaussian 09:  EM64L-G09RevC.01 23-Sep-2011
                 5-Oct-2020 
 ******************************************
 %nproc=1
 Will use up to    1 processors via shared memory.
 %mem=200mb
 ---------------------------------------
 #p hf/3-21g nosymm iop( 3/33=1, 5/33=4)
 ---------------------------------------
 1/38=1/1;
 2/12=2,15=1,17=6,18=5,40=1/2;
 3/5=5,11=9,16=1,25=1,30=1,33=1/1,2,3;
 4//1;
 5/5=2,33=4,38=5/2;
 6/7=2,8=2,9=2,10=2,28=1/1;
 99/5=1,9=1/99;
 Leave Link    1 at Mon Oct  5 19:50:23 2020, MaxMem=   26214400 cpu:       0.0
 (Enter /share/home/srwang/g09/l101.exe)
 -----
 title
 -----
 Charge =  0 Multiplicity = 1
 Symbolic Z-Matrix:
 H                     0.        0.        0. 
 H                     0.        0.        2. 
 
 NAtoms=      2 NQM=        0 NQMF=       0 NMMI=      2 NMMIF=      0
                NMic=       0 NMicF=      0.
                    Isotopes and Nuclear Properties:
 (Nuclear quadrupole moments (NQMom) in fm**2, nuclear magnetic moments (NMagM)
  in nuclear magnetons)

  Atom         1           2
 IAtWgt=           1           1
 AtmWgt=   1.0078250   1.0078250
 NucSpn=           1           1
 AtZEff=   0.0000000   0.0000000
 NQMom=    0.0000000   0.0000000
 NMagM=    2.7928460   2.7928460
 Leave Link  101 at Mon Oct  5 19:50:24 2020, MaxMem=   26214400 cpu:       0.0
 (Enter /share/home/srwang/g09/l202.exe)
                          Input orientation:                          
 ---------------------------------------------------------------------
 Center     Atomic      Atomic             Coordinates (Angstroms)
 Number     Number       Type             X           Y           Z
 ---------------------------------------------------------------------
      1          1           0        0.000000    0.000000    0.000000
      2          1           0        0.000000    0.000000    2.000000
 ---------------------------------------------------------------------
 Symmetry turned off by external request.
 Stoichiometry    H2
 Framework group  D*H[C*(H.H)]
 Deg. of freedom     1
 Full point group                 D*H     NOp   8
 Rotational constants (GHZ):      0.0000000    250.7275501    250.7275501
 Leave Link  202 at Mon Oct  5 19:50:24 2020, MaxMem=   26214400 cpu:       0.0
 (Enter /share/home/srwang/g09/l301.exe)
 Standard basis: 3-21G (6D, 7F)
                         Coordinates in L301:                         
 ---------------------------------------------------------------------
 Center     Atomic      Atomic             Coordinates (Angstroms)
 Number     Number       Type             X           Y           Z
 ---------------------------------------------------------------------
      1          1           0        0.000000    0.000000    0.000000
      2          1           0        0.000000    0.000000    2.000000
 ---------------------------------------------------------------------
 FixB: optimizing general contractions.
 Ernie: Thresh=  0.10000D-02 Tol=  0.10000D-05 Strict=F.
 IA=     1 ShT= 0 ShC= 0 NL=   2 NS=   1.
 IA=     1 L=0 SC=0 ISt=    0 NBk=    0 NP=    0 IndPr=    0.
 IA=     2 ShT= 0 ShC= 0 NL=   2 NS=   1.
 IA=     2 L=0 SC=0 ISt=    0 NBk=    0 NP=    0 IndPr=    0.
 LdAtmC:  AtmChg=     1.000000     1.000000
 AtZEff=     -1.0000000     -1.0000000
 Integral buffers will be    131072 words long.
 Raffenetti 1 integral format.
 Two-electron integral symmetry is turned off.
     4 basis functions,     6 primitive gaussians,     4 cartesian basis functions
     1 alpha electrons        1 beta electrons
       nuclear repulsion energy         0.2645886043 Hartrees.
 IS=     1 IAt=     1 ISR=     1 T=0 IP=      1 IndIP=      1 IndIPD=      0 C=  3.971513D-01  0.000000D+00                             NZ=T
 IS=     1 IAt=     1 ISR=     1 T=0 IP=      2 IndIP=      2 IndIPD=      1 C=  5.579200D-01  0.000000D+00                             NZ=T
 IS=     2 IAt=     1 ISR=     2 T=0 IP=      1 IndIP=      3 IndIPD=      0 C=  1.995672D-01  0.000000D+00                             NZ=T
 IS=     3 IAt=     2 ISR=     1 T=0 IP=      1 IndIP=      4 IndIPD=      0 C=  3.971513D-01  0.000000D+00                             NZ=T
 IS=     3 IAt=     2 ISR=     1 T=0 IP=      2 IndIP=      5 IndIPD=      1 C=  5.579200D-01  0.000000D+00                             NZ=T
 IS=     4 IAt=     2 ISR=     2 T=0 IP=      1 IndIP=      6 IndIPD=      0 C=  1.995672D-01  0.000000D+00                             NZ=T
 IExCor=    0 DFT=F Ex=HF Corr=None ExCW=0 ScaHFX=  1.000000
 ScaDFX=  1.000000  1.000000  1.000000  1.000000 ScalE2=  1.000000  1.000000
 IRadAn=      0 IRanWt=     -1 IRanGd=            0 ICorTp=0
 NAtoms=    2 NActive=    2 NUniq=    2 SFac= 1.00D+00 NAtFMM=   60 NAOKFM=F Big=F
 Leave Link  301 at Mon Oct  5 19:50:24 2020, MaxMem=   26214400 cpu:       0.0
 (Enter /share/home/srwang/g09m/exe-dir/l302.exe)
 NPDir=0 NMtPBC=     1 NCelOv=     1 NCel=       1 NClECP=     1 NCelD=      1
         NCelK=      1 NCelE2=     1 NClLst=     1 CellRange=     0.0.
 One-electron integrals computed using PRISM.
 Entering OneElI...
 Calculate overlap and kinetic energy integrals
    NBasis =   4  MinDer = 0  MaxDer = 0
 Requested accuracy = 0.1000D-12
 PrsmSu:  NPrtUS=   1 ThrOK=F IAlg=1 NPAlg=1 LenDen=           0.
 Prism:   IPart=     0 DynPar=F LinDyn=F Incr=           1.
 PRISM was handed    26213394 working-precision words and    10 shell-pairs
 IPart=  0 NShTot=          10 NBatch=           3 AvBLen=         3.3
 PrSmSu:  NxtVal=              2.
 *** Overlap *** 
                1             2             3             4 
      1  0.100000D+01
      2  0.645898D+00  0.100000D+01
      3  0.227256D-02  0.746565D-01  0.100000D+01
      4  0.746565D-01  0.270258D+00  0.645898D+00  0.100000D+01
 *** Kinetic Energy *** 
                1             2             3             4 
      1  0.154940D+01
      2  0.293151D+00  0.274787D+00
      3 -0.827466D-02 -0.148033D-01  0.154940D+01
      4 -0.148033D-01  0.948701D-02  0.293151D+00  0.274787D+00
 Entering OneElI...
 Calculate potential energy integrals
    NBasis =   4  MinDer = 0  MaxDer = 0
 Requested accuracy = 0.1000D-12
 PrsmSu:  NPrtUS=   1 ThrOK=F IAlg=1 NPAlg=1 LenDen=           0.
 Prism:   IPart=     0 DynPar=F LinDyn=F Incr=           1.
 PRISM was handed    26213363 working-precision words and    10 shell-pairs
 IPart=  0 NShTot=          20 NBatch=          10 AvBLen=         2.0
 PrSmSu:  NxtVal=              2.
 ***** Potential Energy ***** 
                1             2             3             4 
      1  0.198551D+01
      2  0.953559D+00  0.947270D+00
      3  0.240998D-02  0.101158D+00  0.198551D+01
      4  0.101158D+00  0.255784D+00  0.953559D+00  0.947270D+00
 ****** Core Hamiltonian ****** 
                1             2             3             4 
      1 -0.436102D+00
      2 -0.660408D+00 -0.672483D+00
      3 -0.106846D-01 -0.115962D+00 -0.436102D+00
      4 -0.115962D+00 -0.246297D+00 -0.660408D+00 -0.672483D+00
 SVDSVc:  NBasis=    4 NT=    4 NBlks=1 MaxCmp=1 NBF=    4
 SVDSVc IR=1
 SVDSVc V= 1.87D+00 1.45D+00 4.03D-01 2.77D-01
  
 jSVec:
                 1             2             3             4 
      1  -0.330600D+00  0.460127D+00 -0.856219D+00  0.834535D+00
      2  -0.397746D+00  0.364687D+00  0.711676D+00 -0.105294D+01
      3  -0.330600D+00 -0.460127D+00 -0.856219D+00 -0.834535D+00
      4  -0.397746D+00 -0.364687D+00  0.711676D+00  0.105294D+01
  
 jAA:
                 1             2             3             4 
      1  -0.330600D+00  0.460127D+00 -0.856219D+00  0.834535D+00
      2  -0.397746D+00  0.364687D+00  0.711676D+00 -0.105294D+01
      3  -0.330600D+00 -0.460127D+00 -0.856219D+00 -0.834535D+00
      4  -0.397746D+00 -0.364687D+00  0.711676D+00  0.105294D+01
 TstOVc:  Largest diagonal error= 4.44D-16 IB=1 I=    1.
 TstOVc:  Largest same sym error= 9.44D-16 IB=1 I=    3 J=    2.
 Orthogonalized basis functions: 
                 1             2             3             4 
      1  -0.330600D+00  0.460127D+00 -0.856219D+00  0.834535D+00
      2  -0.397746D+00  0.364687D+00  0.711676D+00 -0.105294D+01
      3  -0.330600D+00 -0.460127D+00 -0.856219D+00 -0.834535D+00
      4  -0.397746D+00 -0.364687D+00  0.711676D+00  0.105294D+01
 NBasis=     4 RedAO= T  NBF=     4
 NBsUse=     4 1.00D-06 NBFU=     4
 Leave Link  302 at Mon Oct  5 19:50:24 2020, MaxMem=   26214400 cpu:       0.0
 (Enter /share/home/srwang/g09/l303.exe)
 DipDrv:  MaxL=1.
 DipPsm:  J= 1 NJ= 4 MaxL=1 MMat= 4 MaxMat= 4.
 DipInt: DoE/N= T F RetVal/Mat= F T Init=T NMatP=  4 IDeriv=0 Min/MaxMlt=  0  1
 Entering OneElI...
 Multipole integrals L=0 to 1 MinM= 0 MaxM= 3.
 Requested accuracy = 0.1000D-12
 PrsmSu:  NPrtUS=   1 ThrOK=F IAlg=1 NPAlg=1 LenDen=           0.
 Prism:   IPart=     0 DynPar=F LinDyn=F Incr=           1.
 PRISM was handed    26213408 working-precision words and    10 shell-pairs
 IPart=  0 NShTot=          10 NBatch=           4 AvBLen=         2.5
 PrSmSu:  NxtVal=              2.
 Multipole matrices IBuc=  518 IX=    1 IJ=           1:
                1             2             3             4 
      1  0.000000D+00
      2  0.000000D+00  0.000000D+00
      3  0.000000D+00  0.000000D+00  0.000000D+00
      4  0.000000D+00  0.000000D+00  0.000000D+00  0.000000D+00
 Multipole matrices IBuc=  518 IX=    2 IJ=           1:
                1             2             3             4 
      1  0.000000D+00
      2  0.000000D+00  0.000000D+00
      3  0.000000D+00  0.000000D+00  0.000000D+00
      4  0.000000D+00  0.000000D+00  0.000000D+00  0.000000D+00
 Multipole matrices IBuc=  518 IX=    3 IJ=           1:
                1             2             3             4 
      1  0.000000D+00
      2  0.000000D+00  0.000000D+00
      3  0.429451D-02  0.232350D+00  0.377945D+01
      4  0.498106D-01  0.510714D+00  0.244114D+01  0.377945D+01
 Fermi contact integrals: 
                 1             2 
      1   0.955071D+00  0.427988D-05
      2   0.199567D+00  0.145763D-01
      3   0.427988D-05  0.955071D+00
      4   0.145763D-01  0.199567D+00
 Leave Link  303 at Mon Oct  5 19:50:24 2020, MaxMem=   26214400 cpu:       0.0
 (Enter /share/home/srwang/g09/l401.exe)
 Harris functional with IExCor=  205 diagonalized for initial guess.
 ExpMin= 1.83D-01 ExpMax= 5.45D+00 ExpMxC= 5.45D+00 IAcc=1 IRadAn=         1 AccDes= 0.00D+00
 HarFok:  IExCor=  205 AccDes= 0.00D+00 IRadAn=         1 IDoV= 1
 ScaDFX=  1.000000  1.000000  1.000000  1.000000
 FoFCou: FMM=F IPFlag=           0 FMFlag=      100000 FMFlg1=           0
         NFxFlg=           0 DoJE=T BraDBF=F KetDBF=T FulRan=T
         Omega=  0.000000  0.000000  1.000000  0.000000  0.000000 ICntrl=     500 IOpCl=  0
         NMat0=    1 NMatS0=    1 NMatT0=    0 NMatD0=    1 NMtDS0=    0 NMtDT0=    0
         I1Cent=           4 NGrid=           0.
 Symmetry not used in FoFCou.
 Harris En=-0.998534334700695    
 Leave Link  401 at Mon Oct  5 19:50:24 2020, MaxMem=   26214400 cpu:       0.0
 (Enter /share/home/srwang/g09/l502.exe)
 A Direct SCF calculation will be performed.
 GetPCM: File not found, return IValue=0.
 Pruned (  75, 302) grid will be used in CalDFT.
 SolvDB: Returning the number of solvent in the dababase, IS(1)= 184.
 Closed shell SCF:
 Requested convergence on RMS density matrix=1.00D-08 within 128 cycles.
 Requested convergence on MAX density matrix=1.00D-06.
 Requested convergence on             energy=1.00D-06.
 No special actions if energy rises.
 Using DIIS extrapolation, IDIIS=  1040.
 Two-electron integral symmetry not used.
 ReadGW:  IGet=1 IStart=        2623 Next=        2623 LGW=           0.
 NBasis=        4 NAllTT=      231 NAllSq=      441 NWIIB=         0
 INEq=         14 LenNEq=        0 IIJ=         401 ID=          486
 IDD=         927 IDA=         486 IDB=         717 IF=         1467
 IFF=        1908 IFA=        1467 IFB=        1698 IScr2=      2448
 IV=         2623 IBuf2E=     2623 IMin1=     19725 IMin=      19725
 IEnd=      19725 IOpCl=         0
 Keep R1 ints in memory in canonical form, NReq=819794.
 IEnd=       19725 IEndB=       19725 NGot=    26214400 MDV=    26211695
 LenX=    26211695 LenY=    26210813
 Enter FofDir, NBasis=   4 IHMeth= 1.
 Symmetry not used in FoFDir.
 MinBra= 0 MaxBra= 0 Meth= 1.
 IRaf=       0 NMat=   1 IRICut=       1 DoRegI=T DoRafI=F ISym2E= 0 JSym2E=0.
 PrsmSu:  NPrtUS=   1 ThrOK=F IAlg=1 NPAlg=1 LenDen=           0.
 Prism:   IPart=     0 DynPar=F LinDyn=F Incr=           1.
 PRISM was handed    26210785 working-precision words and    10 shell-pairs
 IPart=  0 NShTot=          55 NBatch=          10 AvBLen=         5.5
 PrSmSu:  NxtVal=              2.
 Selected VarAcc= 1.

 Cycle   1  Pass 1  IDiag  1:
 Core hamiltonian (alpha):
                1             2             3             4 
      1 -0.436102D+00
      2 -0.660408D+00 -0.672483D+00
      3 -0.106846D-01 -0.115962D+00 -0.436102D+00
      4 -0.115962D+00 -0.246297D+00 -0.660408D+00 -0.672483D+00
 Core hamiltonian (beta):
                1             2             3             4 
      1 -0.436102D+00
      2 -0.660408D+00 -0.672483D+00
      3 -0.106846D-01 -0.115962D+00 -0.436102D+00
      4 -0.115962D+00 -0.246297D+00 -0.660408D+00 -0.672483D+00
 Density matrix (alpha):
                1             2             3             4 
      1  0.466668D-01
      2  0.105253D+00  0.237390D+00
      3  0.466668D-01  0.105253D+00  0.466668D-01
      4  0.105253D+00  0.237390D+00  0.105253D+00  0.237390D+00
 Density matrix (beta):
                1             2             3             4 
      1  0.466668D-01
      2  0.105253D+00  0.237390D+00
      3  0.466668D-01  0.105253D+00  0.466668D-01
      4  0.105253D+00  0.237390D+00  0.105253D+00  0.237390D+00
 One-electron energy=-0.160955768767D+01
 FoF2E:  PMaxA= 2.37D-01S
 DA number   1 in FoFMem:
                1             2             3             4 
      1  0.466668D-01
      2  0.105253D+00  0.237390D+00
      3  0.466668D-01  0.105253D+00  0.466668D-01
      4  0.105253D+00  0.237390D+00  0.105253D+00  0.237390D+00
 FoF2E:  FMaxA= 7.41D-01S
 ChkPGP:  NMat=1 NMatS=1 NMatT=0
 EA= 0.439011503005     0.000000000000E+00 0.000000000000E+00 0.000000000000E+00
 EB= 0.439011503005     0.000000000000E+00 0.000000000000E+00 0.000000000000E+00
 ETotA= 0.439011503005     ETotB= 0.439011503005    
 1/2 <PG(P)>=           0.439011503005
 1/2 <PG(P)>=           0.439011503005
 Fock matrix (alpha):
                1             2             3             4 
      1  0.305052D+00
      2 -0.310741D+00 -0.171269D+00
      3 -0.961460D-01 -0.178065D+00  0.305052D+00
      4 -0.178065D+00 -0.206742D+00 -0.310741D+00 -0.171269D+00
 Fock matrix (beta):
                1             2             3             4 
      1  0.305052D+00
      2 -0.310741D+00 -0.171269D+00
      3 -0.961460D-01 -0.178065D+00  0.305052D+00
      4 -0.178065D+00 -0.206742D+00 -0.310741D+00 -0.171269D+00
 E=-0.905957580368851    
 Alpha error matrix at iteration:
                1             2             3             4 
      1  0.000000D+00
      2  0.000000D+00  0.000000D+00
      3 -0.172259D-01  0.000000D+00  0.000000D+00
      4  0.000000D+00  0.000000D+00  0.000000D+00  0.000000D+00
 DIIS: error= 1.72D-02 at cycle   1 NSaved=   1.
 B matrix at iteration          1
                 1             2 
      1   0.000000D+00 -0.100000D+01
      2  -0.100000D+01 -0.118693D-02
 Tr matrix at iteration          1
                 1             2 
      1   0.000000D+00  0.000000D+00
      2   0.000000D+00 -0.365767D+00
 BE matrix at iteration          1
                 1             2 
      1   0.000000D+00 -0.100000D+01
      2  -0.100000D+01  0.000000D+00
 NSaved= 1 IEnMin= 1 EnMin=-0.905957580368851     IErMin= 1 ErrMin= 1.72D-02
 ErrMax= 1.72D-02 EMaxC= 1.00D-01 BMatC= 1.19D-03 BMatP= 1.19D-03
 IDIUse=3 WtCom= 8.28D-01 WtEn= 1.72D-01
 UpdtCf It   0X-0.9059575804      1.00000000
 UpdtCf It   0Y-0.9059575804      1.00000000
 EnCoef: B12  0.0000000D+00 lambda  0.000000
 UpdtCf It   1F-0.9059575804      1.00000000
 UpdtCf It   1B-0.9059575804      1.00000000
 Eold-0.9059575803689     Efwd-0.9059575803689     Ebck-0.9059575803689    
 EnCoef returned -0.9059575804      1.00000000
 Coeff-Com:  0.100D+01
 Coeff-En:   0.100D+01
 Coeff:      0.100D+01
 NewF-IndFok=    0
 NewF-Coef=   1.00D+00
 Extrapolated FA at iteration:
                1             2             3             4 
      1  0.305052D+00
      2 -0.310741D+00 -0.171269D+00
      3 -0.961460D-01 -0.178065D+00  0.305052D+00
      4 -0.178065D+00 -0.206742D+00 -0.310741D+00 -0.171269D+00
 IB=1 NBFU=    4 NOccSy=    1
 Diag=  -0.36577  -0.00430   1.14954   1.19839
 Gap=     0.361 Goal=   None    Shift=    0.000
 NOrbs=     4 LenY=    26210813 NE2=     6552703 LScr= 7
 IB=1 NBFU=    4 NOccSy=    1
 Eig=  -0.36655  -0.00699   1.15032   1.20107
 Alpha MO coefficients at cycle    1:
                 1             2             3             4 
      1   0.195704D+00  0.204438D+00  0.896720D+00  0.930791D+00
      2   0.501951D+00  0.648447D+00 -0.642441D+00 -0.906197D+00
      3   0.195704D+00 -0.204438D+00  0.896720D+00 -0.930791D+00
      4   0.501951D+00 -0.648447D+00 -0.642441D+00  0.906197D+00
 Alpha density matrix  at cycle    1:
                1             2             3             4 
      1  0.382999D-01
      2  0.982336D-01  0.251955D+00
      3  0.382999D-01  0.982336D-01  0.382999D-01
      4  0.982336D-01  0.251955D+00  0.982336D-01  0.251955D+00
 GapD=    0.361 DampG=1.000 DampE=0.500 DampFc=0.5000 IDamp=-1.
 Damping current iteration by 5.00D-01
 RMSDP=9.76D-03 MaxDP=1.46D-02              OVMax= 2.27D-02

 Cycle   2  Pass 1  IDiag  1:
 Core hamiltonian (alpha):
                1             2             3             4 
      1 -0.436102D+00
      2 -0.660408D+00 -0.672483D+00
      3 -0.106846D-01 -0.115962D+00 -0.436102D+00
      4 -0.115962D+00 -0.246297D+00 -0.660408D+00 -0.672483D+00
 Core hamiltonian (beta):
                1             2             3             4 
      1 -0.436102D+00
      2 -0.660408D+00 -0.672483D+00
      3 -0.106846D-01 -0.115962D+00 -0.436102D+00
      4 -0.115962D+00 -0.246297D+00 -0.660408D+00 -0.672483D+00
 Density matrix (alpha):
                1             2             3             4 
      1  0.424833D-01
      2  0.101743D+00  0.244672D+00
      3  0.424833D-01  0.101743D+00  0.424833D-01
      4  0.101743D+00  0.244672D+00  0.101743D+00  0.244672D+00
 Density matrix (beta):
                1             2             3             4 
      1  0.382999D-01
      2  0.982336D-01  0.251955D+00
      3  0.382999D-01  0.982336D-01  0.382999D-01
      4  0.982336D-01  0.251955D+00  0.982336D-01  0.251955D+00
 One-electron energy=-0.160704713777D+01
 FoF2E:  PMaxA= 2.45D-01S
 DA number   1 in FoFMem:
                1             2             3             4 
      1  0.424833D-01
      2  0.101743D+00  0.244672D+00
      3  0.424833D-01  0.101743D+00  0.424833D-01
      4  0.101743D+00  0.244672D+00  0.101743D+00  0.244672D+00
 FoF2E:  FMaxA= 7.40D-01S
 ChkPGP:  NMat=1 NMatS=1 NMatT=0
 EA= 0.435658482557     0.000000000000E+00 0.000000000000E+00 0.000000000000E+00
 EB= 0.435658482557     0.000000000000E+00 0.000000000000E+00 0.000000000000E+00
 ETotA= 0.435658482557     ETotB= 0.435658482557    
 1/2 <PG(P)>=           0.435658482557
 1/2 <PG(P)>=           0.435658482557
 Fock matrix (alpha):
                1             2             3             4 
      1  0.304063D+00
      2 -0.311176D+00 -0.173753D+00
      3 -0.947039D-01 -0.177483D+00  0.304063D+00
      4 -0.177483D+00 -0.207946D+00 -0.311176D+00 -0.173753D+00
 Fock matrix (beta):
                1             2             3             4 
      1  0.304063D+00
      2 -0.311176D+00 -0.173753D+00
      3 -0.947039D-01 -0.177483D+00  0.304063D+00
      4 -0.177483D+00 -0.207946D+00 -0.311176D+00 -0.173753D+00
 E=-0.906800050918976     Delta-E=       -0.000842470550 Rises=F Damp=T
 Alpha error matrix at iteration for IMat=    2:
                1             2             3             4 
      1  0.000000D+00
      2  0.000000D+00  0.000000D+00
      3 -0.992392D-02  0.000000D+00  0.000000D+00
      4  0.000000D+00  0.000000D+00  0.000000D+00  0.000000D+00
 DIIS: error= 9.92D-03 at cycle   2 NSaved=   2.
 B matrix at iteration          2
                 1             2             3 
      1   0.000000D+00 -0.100000D+01 -0.100000D+01
      2  -0.100000D+01 -0.118693D-02 -0.683794D-03
      3  -0.100000D+01 -0.683794D-03 -0.393937D-03
 Tr matrix at iteration          2
                 1             2             3 
      1  -0.905958D+00  0.000000D+00  0.000000D+00
      2   0.100000D+01 -0.365767D+00 -0.366159D+00
      3   0.000000D+00 -0.367414D+00 -0.367865D+00
 BE matrix at iteration          2
                 1             2             3 
      1   0.000000D+00 -0.100000D+01 -0.100000D+01
      2  -0.100000D+01  0.000000D+00 -0.595813D-04
      3  -0.100000D+01 -0.595813D-04  0.000000D+00
 NSaved= 2 IEnMin= 2 EnMin=-0.906800050918976     IErMin= 2 ErrMin= 9.92D-03
 ErrMax= 9.92D-03 EMaxC= 1.00D-01 BMatC= 3.94D-04 BMatP= 1.19D-03
 IDIUse=3 WtCom= 9.01D-01 WtEn= 9.92D-02
 Inv2:  IOpt= 1 Iter= 1 AM= 2.26D-12 Conv= 1.00D-12.
 Inv2:  IOpt= 1 Iter= 2 AM= 1.03D-27 Conv= 1.00D-12.
  NMat       2 lam      0.000000      B12    -0.000060
 UpdtCf It   0X-0.9068000509      0.00000000  1.00000000
  NMat       1 lam      0.000000      B12    -0.000060
 UpdtCf It   0Y-0.9068000509      0.00000000  1.00000000
 EnCoef: B12 -0.5958127D-04 lambda  0.000000
 UpdtCf It   1F-0.9068000509      0.00000000  1.00000000
 UpdtCf It   1B-0.9068000509      0.00000000  1.00000000
 Eold-0.9059575803689     Efwd-0.9068000509190     Ebck-0.9068000509190    
 EnCoef returned -0.9068000509      0.00000000  1.00000000
 Coeff-Com: -0.136D+01 0.236D+01
 Coeff-En:   0.000D+00 0.100D+01
 Coeff:     -0.122D+01 0.222D+01
 NewF-IndFok=    0        1
 NewF-Coef=  -1.22D+00 2.22D+00
 Extrapolated FA at iteration for IMat=    2:
                1             2             3             4 
      1  0.302853D+00
      2 -0.311709D+00 -0.176794D+00
      3 -0.929385D-01 -0.176770D+00  0.302853D+00
      4 -0.176770D+00 -0.209420D+00 -0.311709D+00 -0.176794D+00
 IB=1 NBFU=    4 NOccSy=    1
 Diag=  -0.37048  -0.01103   1.14441   1.19466
 Gap=     0.359 Goal=   None    Shift=    0.000
 NOrbs=     4 LenY=    26210813 NE2=     6552703 LScr= 7
 IB=1 NBFU=    4 NOccSy=    1
 Eig=  -0.37050  -0.01103   1.14443   1.19466
 Alpha MO coefficients at cycle    2:
                 1             2             3             4 
      1   0.192235D+00  0.204906D+00  0.897470D+00  0.930688D+00
      2   0.504431D+00  0.647991D+00 -0.640495D+00 -0.906522D+00
      3   0.192235D+00 -0.204906D+00  0.897470D+00 -0.930688D+00
      4   0.504431D+00 -0.647991D+00 -0.640495D+00  0.906522D+00
 Alpha density matrix  at cycle    2:
                1             2             3             4 
      1  0.369543D-01
      2  0.969694D-01  0.254451D+00
      3  0.369543D-01  0.969694D-01  0.369543D-01
      4  0.969694D-01  0.254451D+00  0.969694D-01  0.254451D+00
 RMSDP=6.55D-03 MaxDP=9.78D-03 DE=-8.42D-04 OVMax= 3.87D-03

 Cycle   3  Pass 1  IDiag  1:
 Core hamiltonian (alpha):
                1             2             3             4 
      1 -0.436102D+00
      2 -0.660408D+00 -0.672483D+00
      3 -0.106846D-01 -0.115962D+00 -0.436102D+00
      4 -0.115962D+00 -0.246297D+00 -0.660408D+00 -0.672483D+00
 Core hamiltonian (beta):
                1             2             3             4 
      1 -0.436102D+00
      2 -0.660408D+00 -0.672483D+00
      3 -0.106846D-01 -0.115962D+00 -0.436102D+00
      4 -0.115962D+00 -0.246297D+00 -0.660408D+00 -0.672483D+00
 Density matrix (alpha):
                1             2             3             4 
      1  0.369543D-01
      2  0.969694D-01  0.254451D+00
      3  0.369543D-01  0.969694D-01  0.369543D-01
      4  0.969694D-01  0.254451D+00  0.969694D-01  0.254451D+00
 Density matrix (beta):
                1             2             3             4 
      1  0.369543D-01
      2  0.969694D-01  0.254451D+00
      3  0.369543D-01  0.969694D-01  0.369543D-01
      4  0.969694D-01  0.254451D+00  0.969694D-01  0.254451D+00
 One-electron energy=-0.160345273049D+01
 FoF2E:  PMaxA= 2.54D-01S
 DA number   1 in FoFMem:
                1             2             3             4 
      1  0.369543D-01
      2  0.969694D-01  0.254451D+00
      3  0.369543D-01  0.969694D-01  0.369543D-01
      4  0.969694D-01  0.254451D+00  0.969694D-01  0.254451D+00
 FoF2E:  FMaxA= 7.39D-01S
 ChkPGP:  NMat=1 NMatS=1 NMatT=0
 EA= 0.431059311222     0.000000000000E+00 0.000000000000E+00 0.000000000000E+00
 EB= 0.431059311222     0.000000000000E+00 0.000000000000E+00 0.000000000000E+00
 ETotA= 0.431059311222     ETotB= 0.431059311222    
 1/2 <PG(P)>=           0.431059311222
 1/2 <PG(P)>=           0.431059311222
 Fock matrix (alpha):
                1             2             3             4 
      1  0.302753D+00
      2 -0.311732D+00 -0.177056D+00
      3 -0.927671D-01 -0.176686D+00  0.302753D+00
      4 -0.176686D+00 -0.209542D+00 -0.311732D+00 -0.177056D+00
 Fock matrix (beta):
                1             2             3             4 
      1  0.302753D+00
      2 -0.311732D+00 -0.177056D+00
      3 -0.927671D-01 -0.176686D+00  0.302753D+00
      4 -0.176686D+00 -0.209542D+00 -0.311732D+00 -0.177056D+00
 E=-0.907804814976493     Delta-E=       -0.001004764058 Rises=F Damp=F
 Alpha error matrix at iteration for IMat=    3:
                1             2             3             4 
      1  0.000000D+00
      2  0.000000D+00  0.000000D+00
      3 -0.155837D-03  0.000000D+00  0.000000D+00
      4  0.000000D+00  0.000000D+00  0.000000D+00  0.000000D+00
 DIIS: error= 1.56D-04 at cycle   3 NSaved=   3.
 B matrix at iteration          3
                 1             2             3             4 
      1   0.000000D+00 -0.100000D+01 -0.100000D+01 -0.100000D+01
      2  -0.100000D+01 -0.118693D-02 -0.683794D-03 -0.107377D-04
      3  -0.100000D+01 -0.683794D-03 -0.393937D-03 -0.618604D-05
      4  -0.100000D+01 -0.107377D-04 -0.618604D-05 -0.971401D-07
 Tr matrix at iteration          3
                 1             2             3             4 
      1  -0.906800D+00  0.000000D+00  0.000000D+00  0.000000D+00
      2   0.000000D+00 -0.365767D+00 -0.366159D+00 -0.366528D+00
      3   0.100000D+01 -0.367414D+00 -0.367865D+00 -0.368314D+00
      4   0.000000D+00 -0.369580D+00 -0.370111D+00 -0.370667D+00
 BE matrix at iteration          3
                 1             2             3             4 
      1   0.000000D+00 -0.100000D+01 -0.100000D+01 -0.100000D+01
      2  -0.100000D+01  0.000000D+00 -0.595813D-04 -0.326806D-03
      3  -0.100000D+01 -0.595813D-04  0.000000D+00 -0.107309D-03
      4  -0.100000D+01 -0.326806D-03 -0.107309D-03  0.000000D+00
 NSaved= 3 IEnMin= 3 EnMin=-0.907804814976493     IErMin= 3 ErrMin= 1.56D-04
 ErrMax= 1.56D-04 EMaxC= 1.00D-01 BMatC= 9.71D-08 BMatP= 3.94D-04
 IDIUse=3 WtCom= 9.98D-01 WtEn= 1.56D-03
 Inv2:  IOpt= 1 Iter= 1 AM= 5.85D+19 Conv= 1.00D-12.
 Inv2:  IOpt= 1 Iter= 2 AM= 1.47D+20 Conv= 1.00D-12.
 Inv2:  IOpt= 1 Iter= 3 AM= 3.76D+20 Conv= 1.00D-12.
 Inv2:  IOpt= 1 Iter= 4 AM= 9.63D+20 Conv= 1.00D-12.
 Inv2:  IOpt= 1 Iter= 5 AM= 2.47D+21 Conv= 1.00D-12.
 Inv2:  IOpt= 1 Iter= 6 AM= 6.32D+21 Conv= 1.00D-12.
 Inv2:  IOpt= 1 Iter= 7 AM= 1.62D+22 Conv= 1.00D-12.
 Inv2:  IOpt= 1 Iter= 8 AM= 4.15D+22 Conv= 1.00D-12.
 Inv2:  IOpt= 1 Iter= 9 AM= 1.06D+23 Conv= 1.00D-12.
 Inv2:  IOpt= 1 Iter=10 AM= 2.73D+23 Conv= 1.00D-12.
 Large coefficients: NSaved=  3 BigCof=    0.00 CofMax=   10.00 Det= 3.90D-20
 Inversion failed.  Reducing to  2 matrices.
 Inv2:  IOpt= 1 Iter= 1 AM= 3.54D-13 Conv= 1.00D-12.
  NMat       2 lam      0.000000      B12    -0.000107
 UpdtCf It   0X-0.9078048150      0.00000000  1.00000000
  NMat       1 lam      0.000000      B12    -0.000107
 UpdtCf It   0Y-0.9078048150      0.00000000  1.00000000
 EnCoef: B12 -0.1073094D-03 lambda  0.000000
 UpdtCf It   1F-0.9078048150      0.00000000  1.00000000
 UpdtCf It   1B-0.9078048150      0.00000000  1.00000000
 Eold-0.9068000509190     Efwd-0.9078048149765     Ebck-0.9078048149765    
 EnCoef returned -0.9078048150      0.00000000  1.00000000
 Coeff-Com: -0.160D-01 0.102D+01
 Coeff-En:   0.000D+00 0.100D+01
 Coeff:     -0.159D-01 0.102D+01
 NewF-IndFok=    1        2
 NewF-Coef=  -1.59D-02 1.02D+00
 Extrapolated FA at iteration for IMat=    3:
                1             2             3             4 
      1  0.302732D+00
      2 -0.311741D+00 -0.177108D+00
      3 -0.927362D-01 -0.176674D+00  0.302732D+00
      4 -0.176674D+00 -0.209567D+00 -0.311741D+00 -0.177108D+00
 IB=1 NBFU=    4 NOccSy=    1
 Diag=  -0.37070  -0.01127   1.14404   1.19426
 Gap=     0.359 Goal=   None    Shift=    0.000
 NOrbs=     4 LenY=    26210813 NE2=     6552703 LScr= 7
 IB=1 NBFU=    4 NOccSy=    1
 Eig=  -0.37070  -0.01127   1.14404   1.19426
 Alpha MO coefficients at cycle    3:
                 1             2             3             4 
      1   0.192017D+00  0.204933D+00  0.897517D+00  0.930682D+00
      2   0.504587D+00  0.647965D+00 -0.640372D+00 -0.906541D+00
      3   0.192017D+00 -0.204933D+00  0.897517D+00 -0.930682D+00
      4   0.504587D+00 -0.647965D+00 -0.640372D+00  0.906541D+00
 Alpha density matrix  at cycle    3:
                1             2             3             4 
      1  0.368705D-01
      2  0.968893D-01  0.254608D+00
      3  0.368705D-01  0.968893D-01  0.368705D-01
      4  0.968893D-01  0.254608D+00  0.968893D-01  0.254608D+00
 RMSDP=1.05D-04 MaxDP=1.57D-04 DE=-1.00D-03 OVMax= 2.43D-04

 Cycle   4  Pass 1  IDiag  1:
 Core hamiltonian (alpha):
                1             2             3             4 
      1 -0.436102D+00
      2 -0.660408D+00 -0.672483D+00
      3 -0.106846D-01 -0.115962D+00 -0.436102D+00
      4 -0.115962D+00 -0.246297D+00 -0.660408D+00 -0.672483D+00
 Core hamiltonian (beta):
                1             2             3             4 
      1 -0.436102D+00
      2 -0.660408D+00 -0.672483D+00
      3 -0.106846D-01 -0.115962D+00 -0.436102D+00
      4 -0.115962D+00 -0.246297D+00 -0.660408D+00 -0.672483D+00
 Density matrix (alpha):
                1             2             3             4 
      1  0.368705D-01
      2  0.968893D-01  0.254608D+00
      3  0.368705D-01  0.968893D-01  0.368705D-01
      4  0.968893D-01  0.254608D+00  0.968893D-01  0.254608D+00
 Density matrix (beta):
                1             2             3             4 
      1  0.368705D-01
      2  0.968893D-01  0.254608D+00
      3  0.368705D-01  0.968893D-01  0.368705D-01
      4  0.968893D-01  0.254608D+00  0.968893D-01  0.254608D+00
 One-electron energy=-0.160338239118D+01
 FoF2E:  PMaxA= 2.55D-01S
 DA number   1 in FoFMem:
                1             2             3             4 
      1  0.368705D-01
      2  0.968893D-01  0.254608D+00
      3  0.368705D-01  0.968893D-01  0.368705D-01
      4  0.968893D-01  0.254608D+00  0.968893D-01  0.254608D+00
 FoF2E:  FMaxA= 7.39D-01S
 ChkPGP:  NMat=1 NMatS=1 NMatT=0
 EA= 0.430988820253     0.000000000000E+00 0.000000000000E+00 0.000000000000E+00
 EB= 0.430988820253     0.000000000000E+00 0.000000000000E+00 0.000000000000E+00
 ETotA= 0.430988820253     ETotB= 0.430988820253    
 1/2 <PG(P)>=           0.430988820253
 1/2 <PG(P)>=           0.430988820253
 Fock matrix (alpha):
                1             2             3             4 
      1  0.302732D+00
      2 -0.311740D+00 -0.177107D+00
      3 -0.927360D-01 -0.176673D+00  0.302732D+00
      4 -0.176673D+00 -0.209566D+00 -0.311740D+00 -0.177107D+00
 Fock matrix (beta):
                1             2             3             4 
      1  0.302732D+00
      2 -0.311740D+00 -0.177107D+00
      3 -0.927360D-01 -0.176673D+00  0.302732D+00
      4 -0.176673D+00 -0.209566D+00 -0.311740D+00 -0.177107D+00
 E=-0.907804966634154     Delta-E=       -0.000000151658 Rises=F Damp=F
 Alpha error matrix at iteration for IMat=    4:
                1             2             3             4 
      1  0.000000D+00
      2  0.000000D+00  0.000000D+00
      3  0.000000D+00  0.000000D+00  0.000000D+00
      4  0.000000D+00  0.000000D+00  0.000000D+00  0.000000D+00
 DIIS: error= 2.03D-07 at cycle   4 NSaved=   3.
 B matrix at iteration          4
                 1             2             3             4 
      1   0.000000D+00 -0.100000D+01 -0.100000D+01 -0.100000D+01
      2  -0.100000D+01 -0.393937D-03 -0.618604D-05 -0.807733D-08
      3  -0.100000D+01 -0.618604D-05 -0.971401D-07 -0.126839D-09
      4  -0.100000D+01 -0.807733D-08 -0.126839D-09 -0.165619D-12
 Tr matrix at iteration          4
                 1             2             3             4 
      1  -0.907805D+00  0.000000D+00  0.000000D+00  0.000000D+00
      2   0.000000D+00 -0.367865D+00 -0.368314D+00 -0.368312D+00
      3   0.100000D+01 -0.370111D+00 -0.370667D+00 -0.370667D+00
      4   0.000000D+00 -0.370145D+00 -0.370702D+00 -0.370702D+00
 BE matrix at iteration          4
                 1             2             3             4 
      1   0.000000D+00 -0.100000D+01 -0.100000D+01 -0.100000D+01
      2  -0.100000D+01  0.000000D+00 -0.107309D-03 -0.110777D-03
      3  -0.100000D+01 -0.107309D-03  0.000000D+00 -0.275978D-07
      4  -0.100000D+01 -0.110777D-03 -0.275978D-07  0.000000D+00
 NSaved= 3 IEnMin= 3 EnMin=-0.907804966634154     IErMin= 3 ErrMin= 2.03D-07
 ErrMax= 2.03D-07 EMaxC= 1.00D-01 BMatC= 1.66D-13 BMatP= 9.71D-08
 IDIUse=1 WtCom= 1.00D+00 WtEn= 0.00D+00
 Large coefficients: NSaved=  3 BigCof=    0.00 CofMax=   10.00 Det=-9.82D-24
 Inversion failed.  Reducing to  2 matrices.
 Inv2:  IOpt= 1 Iter= 1 AM= 1.06D-09 Conv= 1.00D-12.
 Inv2:  IOpt= 1 Iter= 2 AM= 3.40D-29 Conv= 1.00D-12.
 Coeff-Com: -0.131D-02 0.100D+01
 Coeff-En:   0.000D+00 0.000D+00
 Coeff:     -0.131D-02 0.100D+01
 NewF-IndFok=    2        3
 NewF-Coef=  -1.31D-03 1.00D+00
 Extrapolated FA at iteration for IMat=    4:
                1             2             3             4 
      1  0.302732D+00
      2 -0.311740D+00 -0.177107D+00
      3 -0.927359D-01 -0.176673D+00  0.302732D+00
      4 -0.176673D+00 -0.209566D+00 -0.311740D+00 -0.177107D+00
 IB=1 NBFU=    4 NOccSy=    1
 Diag=  -0.37070  -0.01127   1.14404   1.19426
 Gap=     0.359 Goal=   None    Shift=    0.000
 NOrbs=     4 LenY=    26210813 NE2=     6552703 LScr= 7
 IB=1 NBFU=    4 NOccSy=    1
 Eig=  -0.37070  -0.01127   1.14404   1.19426
 Alpha MO coefficients at cycle    4:
                 1             2             3             4 
      1   0.192017D+00  0.204933D+00  0.897517D+00  0.930682D+00
      2   0.504587D+00  0.647965D+00 -0.640372D+00 -0.906541D+00
      3   0.192017D+00 -0.204933D+00  0.897517D+00 -0.930682D+00
      4   0.504587D+00 -0.647965D+00 -0.640372D+00  0.906541D+00
 Alpha density matrix  at cycle    4:
                1             2             3             4 
      1  0.368704D-01
      2  0.968891D-01  0.254608D+00
      3  0.368704D-01  0.968891D-01  0.368704D-01
      4  0.968891D-01  0.254608D+00  0.968891D-01  0.254608D+00
 RMSDP=1.38D-07 MaxDP=2.05D-07 DE=-1.52D-07 OVMax= 3.18D-07

 Cycle   5  Pass 1  IDiag  1:
 Core hamiltonian (alpha):
                1             2             3             4 
      1 -0.436102D+00
      2 -0.660408D+00 -0.672483D+00
      3 -0.106846D-01 -0.115962D+00 -0.436102D+00
      4 -0.115962D+00 -0.246297D+00 -0.660408D+00 -0.672483D+00
 Core hamiltonian (beta):
                1             2             3             4 
      1 -0.436102D+00
      2 -0.660408D+00 -0.672483D+00
      3 -0.106846D-01 -0.115962D+00 -0.436102D+00
      4 -0.115962D+00 -0.246297D+00 -0.660408D+00 -0.672483D+00
 Density matrix (alpha):
                1             2             3             4 
      1  0.368704D-01
      2  0.968891D-01  0.254608D+00
      3  0.368704D-01  0.968891D-01  0.368704D-01
      4  0.968891D-01  0.254608D+00  0.968891D-01  0.254608D+00
 Density matrix (beta):
                1             2             3             4 
      1  0.368704D-01
      2  0.968891D-01  0.254608D+00
      3  0.368704D-01  0.968891D-01  0.368704D-01
      4  0.968891D-01  0.254608D+00  0.968891D-01  0.254608D+00
 One-electron energy=-0.160338229904D+01
 FoF2E:  PMaxA= 2.55D-01S
 DA number   1 in FoFMem:
                1             2             3             4 
      1  0.368704D-01
      2  0.968891D-01  0.254608D+00
      3  0.368704D-01  0.968891D-01  0.368704D-01
      4  0.968891D-01  0.254608D+00  0.968891D-01  0.254608D+00
 FoF2E:  FMaxA= 7.39D-01S
 ChkPGP:  NMat=1 NMatS=1 NMatT=0
 EA= 0.430988728115     0.000000000000E+00 0.000000000000E+00 0.000000000000E+00
 EB= 0.430988728115     0.000000000000E+00 0.000000000000E+00 0.000000000000E+00
 ETotA= 0.430988728115     ETotB= 0.430988728115    
 1/2 <PG(P)>=           0.430988728115
 1/2 <PG(P)>=           0.430988728115
 Fock matrix (alpha):
                1             2             3             4 
      1  0.302732D+00
      2 -0.311740D+00 -0.177107D+00
      3 -0.927359D-01 -0.176673D+00  0.302732D+00
      4 -0.176673D+00 -0.209566D+00 -0.311740D+00 -0.177107D+00
 Fock matrix (beta):
                1             2             3             4 
      1  0.302732D+00
      2 -0.311740D+00 -0.177107D+00
      3 -0.927359D-01 -0.176673D+00  0.302732D+00
      4 -0.176673D+00 -0.209566D+00 -0.311740D+00 -0.177107D+00
 E=-0.907804966634413     Delta-E=       -0.000000000000 Rises=F Damp=F
 Alpha error matrix at iteration for IMat=    5:
                1             2             3             4 
      1  0.000000D+00
      2  0.000000D+00  0.000000D+00
      3  0.000000D+00  0.000000D+00  0.000000D+00
      4  0.000000D+00  0.000000D+00  0.000000D+00  0.000000D+00
 DIIS: error= 2.44D-12 at cycle   5 NSaved=   3.
 B matrix at iteration          5
                 1             2             3             4 
      1   0.000000D+00 -0.100000D+01 -0.100000D+01 -0.100000D+01
      2  -0.100000D+01 -0.971401D-07 -0.126839D-09 -0.151814D-14
      3  -0.100000D+01 -0.126839D-09 -0.165619D-12 -0.198229D-17
      4  -0.100000D+01 -0.151814D-14 -0.198229D-17 -0.237260D-22
 Tr matrix at iteration          5
                 1             2             3             4 
      1  -0.907805D+00  0.000000D+00  0.000000D+00  0.000000D+00
      2   0.100000D+01 -0.370667D+00 -0.370667D+00 -0.370667D+00
      3   0.000000D+00 -0.370702D+00 -0.370702D+00 -0.370702D+00
      4   0.000000D+00 -0.370702D+00 -0.370702D+00 -0.370702D+00
 BE matrix at iteration          5
                 1             2             3             4 
      1   0.000000D+00 -0.100000D+01 -0.100000D+01 -0.100000D+01
      2  -0.100000D+01  0.000000D+00 -0.275978D-07 -0.276700D-07
      3  -0.100000D+01 -0.275978D-07  0.000000D+00 -0.471290D-13
      4  -0.100000D+01 -0.276700D-07 -0.471290D-13  0.000000D+00
 NSaved= 3 IEnMin= 3 EnMin=-0.907804966634413     IErMin= 3 ErrMin= 2.44D-12
 ErrMax= 2.44D-12 EMaxC= 1.00D-01 BMatC= 2.37D-23 BMatP= 1.66D-13
 IDIUse=1 WtCom= 1.00D+00 WtEn= 0.00D+00
 Large coefficients: NSaved=  3 BigCof=    0.00 CofMax=   10.00 Det=-1.85D-30
 Inversion failed.  Reducing to  2 matrices.
 Inv2:  IOpt= 1 Iter= 1 AM= 1.34D-03 Conv= 1.00D-12.
 Inv2:  IOpt= 1 Iter= 2 AM= 2.98D-19 Conv= 1.00D-12.
 Coeff-Com: -0.120D-04 0.100D+01
 Coeff-En:   0.000D+00 0.000D+00
 Coeff:     -0.120D-04 0.100D+01
 NewF-IndFok=    3        4
 NewF-Coef=  -1.20D-05 1.00D+00
 Extrapolated FA at iteration for IMat=    5:
                1             2             3             4 
      1  0.302732D+00
      2 -0.311740D+00 -0.177107D+00
      3 -0.927359D-01 -0.176673D+00  0.302732D+00
      4 -0.176673D+00 -0.209566D+00 -0.311740D+00 -0.177107D+00
 IB=1 NBFU=    4 NOccSy=    1
 Diag=  -0.37070  -0.01127   1.14404   1.19426
 Gap=     0.359 Goal=   None    Shift=    0.000
 NOrbs=     4 LenY=    26210813 NE2=     6552703 LScr= 7
 IB=1 NBFU=    4 NOccSy=    1
 Eig=  -0.37070  -0.01127   1.14404   1.19426
 Alpha MO coefficients at cycle    5:
                 1             2             3             4 
      1   0.192017D+00  0.204933D+00  0.897517D+00  0.930682D+00
      2   0.504587D+00  0.647965D+00 -0.640372D+00 -0.906541D+00
      3   0.192017D+00 -0.204933D+00  0.897517D+00 -0.930682D+00
      4   0.504587D+00 -0.647965D+00 -0.640372D+00  0.906541D+00
 Alpha density matrix  at cycle    5:
                1             2             3             4 
      1  0.368704D-01
      2  0.968891D-01  0.254608D+00
      3  0.368704D-01  0.968891D-01  0.368704D-01
      4  0.968891D-01  0.254608D+00  0.968891D-01  0.254608D+00
 RMSDP=1.65D-12 MaxDP=2.46D-12 DE=-2.59D-13 OVMax= 3.80D-12

 SCF Done:  E(RHF) = -0.907804966634     A.U. after    5 cycles
             Convg  =    0.1651D-11             -V/T =  2.2392
 KE= 7.325535526270D-01 PE=-2.335935851671D+00 EE= 4.309887281149D-01
 Alpha MOs:
                           1         2         3         4
     Eigenvalues --    -0.37070  -0.01127   1.14404   1.19426
   1                    0.19202   0.20493   0.89752   0.93068
   2                    0.50459   0.64797  -0.64037  -0.90654
   3                    0.19202  -0.20493   0.89752  -0.93068
   4                    0.50459  -0.64797  -0.64037   0.90654
 Final density matrix:
                1             2             3             4 
      1  0.368704D-01
      2  0.968891D-01  0.254608D+00
      3  0.368704D-01  0.968891D-01  0.368704D-01
      4  0.968891D-01  0.254608D+00  0.968891D-01  0.254608D+00
 Total density matrix:
                1             2             3             4 
      1  0.737408D-01
      2  0.193778D+00  0.509216D+00
      3  0.737408D-01  0.193778D+00  0.737408D-01
      4  0.193778D+00  0.509216D+00  0.193778D+00  0.509216D+00
 -W:
                1             2             3             4 
      1  0.273359D-01
      2  0.718341D-01  0.188768D+00
      3  0.273359D-01  0.718341D-01  0.273359D-01
      4  0.718341D-01  0.188768D+00  0.718341D-01  0.188768D+00
 Leave Link  502 at Mon Oct  5 19:50:24 2020, MaxMem=   26214400 cpu:       0.0
 (Enter /share/home/srwang/g09/l601.exe)
 Copying SCF densities to generalized density rwf, IOpCl= 0 IROHF=0.

 **********************************************************************

            Population analysis using the SCF density.

 **********************************************************************

 Alpha  occ. eigenvalues --   -0.37070
 Alpha virt. eigenvalues --   -0.01127   1.14404   1.19426
          Condensed to atoms (all electrons):
              1          2
     1  H    0.833279   0.166721
     2  H    0.166721   0.833279
 Mulliken atomic charges:
              1
     1  H   -0.000000
     2  H    0.000000
 Sum of Mulliken atomic charges =   0.00000
 Mulliken charges with hydrogens summed into heavy atoms:
              1
 Sum of Mulliken charges with hydrogens summed into heavy atoms =   0.00000
 Electronic spatial extent (au):  <R**2>=             19.3907
 Charge=              0.0000 electrons
 Dipole moment (field-independent basis, Debye):
    X=              0.0000    Y=              0.0000    Z=              0.0000  Tot=              0.0000
 Quadrupole moment (field-independent basis, Debye-Ang):
   XX=             -2.7843   YY=             -2.7843   ZZ=             -1.2998
   XY=              0.0000   XZ=              0.0000   YZ=              0.0000
 Traceless Quadrupole moment (field-independent basis, Debye-Ang):
   XX=             -0.4948   YY=             -0.4948   ZZ=              0.9896
   XY=              0.0000   XZ=              0.0000   YZ=              0.0000
 Octapole moment (field-independent basis, Debye-Ang**2):
  XXX=              0.0000  YYY=              0.0000  ZZZ=             -3.8995  XYY=              0.0000
  XXY=              0.0000  XXZ=             -2.7843  XZZ=              0.0000  YZZ=              0.0000
  YYZ=             -2.7843  XYZ=              0.0000
 Hexadecapole moment (field-independent basis, Debye-Ang**3):
 XXXX=             -2.8831 YYYY=             -2.8831 ZZZZ=            -22.6722 XXXY=              0.0000
 XXXZ=              0.0000 YYYX=              0.0000 YYYZ=              0.0000 ZZZX=              0.0000
 ZZZY=              0.0000 XXYY=             -0.9610 XXZZ=             -6.0020 YYZZ=             -6.0020
 XXYZ=              0.0000 YYXZ=              0.0000 ZZXY=              0.0000
 N-N= 2.645886042950D-01 E-N=-2.335935851670D+00  KE= 7.325535526270D-01
 No NMR shielding tensors so no spin-rotation constants.
 Leave Link  601 at Mon Oct  5 19:50:24 2020, MaxMem=   26214400 cpu:       0.1
 (Enter /share/home/srwang/g09/l9999.exe)

 Test job not archived.
 1\1\GINC-XHPC\SP\RHF\3-21G\H2\SRWANG\05-Oct-2020\0\\#p hf/3-21g nosymm
  iop( 3/33=1, 5/33=4)\\title\\0,1\H,0,0.,0.,0.\H,0,0.,0.,2.\\Version=E
 M64L-G09RevC.01\HF=-0.907805\RMSD=1.651e-12\Dipole=0.,0.,0.\Quadrupole
 =-0.3678763,-0.3678763,0.7357526,0.,0.,0.\PG=D*H [C*(H1.H1)]\\@


 IT IS IMPOSSIBLE TO MEDITATE ON TIME AND THE MYSTERY 
 OF NATURE WITHOUT AN OVERWHELMING EMOTION AT THE
 LIMITATIONS OF HUMAN INTELLIGENCE.

                                         -- ALFRED NORTH WHITEHEAD
 Job cpu time:  0 days  0 hours  0 minutes  0.4 seconds.
 File lengths (MBytes):  RWF=     67 Int=      0 D2E=      0 Chk=      2 Scr=      2
 Normal termination of Gaussian 09 at Mon Oct  5 19:50:24 2020.
