 Entering Gaussian System, Link 0=/share/apps/gaussian/G09C01Z/srwang-mod-2020/g09/g09
 Input=eth_uhf.gjf
 Output=eth_uhf.log
 Initial command:
 /share/apps/gaussian/G09C01Z/srwang-mod-2020/g09/l1.exe /scratch/scr/srwang/gau/Gau-858.inp -scrdir=/scratch/scr/srwang/gau/
 Entering Link 1 = /share/apps/gaussian/G09C01Z/srwang-mod-2020/g09/l1.exe PID=       871.
  
 Copyright (c) 1988,1990,1992,1993,1995,1998,2003,2009,2011,
            Gaussian, Inc.  All Rights Reserved.
  
 This is part of the Gaussian(R) 09 program.  It is based on
 the Gaussian(R) 03 system (copyright 2003, Gaussian, Inc.),
 the Gaussian(R) 98 system (copyright 1998, Gaussian, Inc.),
 the Gaussian(R) 94 system (copyright 1995, Gaussian, Inc.),
 the Gaussian 92(TM) system (copyright 1992, Gaussian, Inc.),
 the Gaussian 90(TM) system (copyright 1990, Gaussian, Inc.),
 the Gaussian 88(TM) system (copyright 1988, Gaussian, Inc.),
 the Gaussian 86(TM) system (copyright 1986, Carnegie Mellon
 University), and the Gaussian 82(TM) system (copyright 1983,
 Carnegie Mellon University). Gaussian is a federally registered
 trademark of Gaussian, Inc.
  
 This software contains proprietary and confidential information,
 including trade secrets, belonging to Gaussian, Inc.
  
 This software is provided under written license and may be
 used, copied, transmitted, or stored only in accord with that
 written license.
  
 The following legend is applicable only to US Government
 contracts under FAR:
  
                    RESTRICTED RIGHTS LEGEND
  
 Use, reproduction and disclosure by the US Government is
 subject to restrictions as set forth in subparagraphs (a)
 and (c) of the Commercial Computer Software - Restricted
 Rights clause in FAR 52.227-19.
  
 Gaussian, Inc.
 340 Quinnipiac St., Bldg. 40, Wallingford CT 06492
  
  
 ---------------------------------------------------------------
 Warning -- This program may not be used in any manner that
 competes with the business of Gaussian, Inc. or will provide
 assistance to any competitor of Gaussian, Inc.  The licensee
 of this program is prohibited from giving any competitor of
 Gaussian, Inc. access to this program.  By using this program,
 the user acknowledges that Gaussian, Inc. is engaged in the
 business of creating and licensing software in the field of
 computational chemistry and represents and warrants to the
 licensee that it is not a competitor of Gaussian, Inc. and that
 it will not use this program in any manner prohibited above.
 ---------------------------------------------------------------
  

 Cite this work as:
 Gaussian 09, Revision C.01,
 M. J. Frisch, G. W. Trucks, H. B. Schlegel, G. E. Scuseria, 
 M. A. Robb, J. R. Cheeseman, G. Scalmani, V. Barone, B. Mennucci, 
 G. A. Petersson, H. Nakatsuji, M. Caricato, X. Li, H. P. Hratchian, 
 A. F. Izmaylov, J. Bloino, G. Zheng, J. L. Sonnenberg, M. Hada, 
 M. Ehara, K. Toyota, R. Fukuda, J. Hasegawa, M. Ishida, T. Nakajima, 
 Y. Honda, O. Kitao, H. Nakai, T. Vreven, J. A. Montgomery, Jr., 
 J. E. Peralta, F. Ogliaro, M. Bearpark, J. J. Heyd, E. Brothers, 
 K. N. Kudin, V. N. Staroverov, T. Keith, R. Kobayashi, J. Normand, 
 K. Raghavachari, A. Rendell, J. C. Burant, S. S. Iyengar, J. Tomasi, 
 M. Cossi, N. Rega, J. M. Millam, M. Klene, J. E. Knox, J. B. Cross, 
 V. Bakken, C. Adamo, J. Jaramillo, R. Gomperts, R. E. Stratmann, 
 O. Yazyev, A. J. Austin, R. Cammi, C. Pomelli, J. W. Ochterski, 
 R. L. Martin, K. Morokuma, V. G. Zakrzewski, G. A. Voth, 
 P. Salvador, J. J. Dannenberg, S. Dapprich, A. D. Daniels, 
 O. Farkas, J. B. Foresman, J. V. Ortiz, J. Cioslowski, 
 and D. J. Fox, Gaussian, Inc., Wallingford CT, 2010.
 
 ******************************************
 Gaussian 09:  EM64L-G09RevC.01 23-Sep-2011
                20-Jan-2021 
 ******************************************
 %chk=eth_uhf.chk
 %mem=1GB
 %nprocshared=1
 Will use up to    1 processors via shared memory.
 ---------------------------------------------------------------------
 #p nosymm int=nobasistransform UHF/def2svp guess=mix stable=opt 5D 7F
 ---------------------------------------------------------------------
 1/38=1/1;
 2/12=2,15=1,17=6,18=5,40=1/2;
 3/5=43,7=101,8=11,11=2,16=1,25=1,30=1,60=-1,116=2/1,2,3;
 4/13=-1/1;
 5/5=2,38=5/2;
 6/7=2,8=2,9=2,10=2,28=1/1;
 8/6=1,10=90,11=11/1;
 9/8=-3,42=1,46=1/14;
 5/5=2,8=3,17=40,38=5/8(-2);
 6/7=2,8=2,9=2,10=2,28=1/1;
 99/5=1,9=1/99;
 Leave Link    1 at Wed Jan 20 01:39:17 2021, MaxMem=  134217728 cpu:       0.0
 (Enter /share/apps/gaussian/G09C01Z/srwang-mod-2020/g09/l101.exe)
 ------------------------------------
 HF file generated by AutoMR of MOKIT
 ------------------------------------
 Charge =  0 Multiplicity = 1
 Symbolic Z-Matrix:
 C                     0.73236  -0.00001  -0.00002 
 H                     1.30179  -0.65478   0.65484 
 H                     1.3018    0.65485  -0.65476 
 C                    -0.73236  -0.00001   0.00002 
 H                    -1.30179  -0.65478  -0.65484 
 H                    -1.3018    0.65485   0.65476 
 
 NAtoms=      6 NQM=        0 NQMF=       0 NMMI=      6 NMMIF=      0
                NMic=       0 NMicF=      0.
                    Isotopes and Nuclear Properties:
 (Nuclear quadrupole moments (NQMom) in fm**2, nuclear magnetic moments (NMagM)
  in nuclear magnetons)

  Atom         1           2           3           4           5           6
 IAtWgt=          12           1           1          12           1           1
 AtmWgt=  12.0000000   1.0078250   1.0078250  12.0000000   1.0078250   1.0078250
 NucSpn=           0           1           1           0           1           1
 AtZEff=   0.0000000   0.0000000   0.0000000   0.0000000   0.0000000   0.0000000
 NQMom=    0.0000000   0.0000000   0.0000000   0.0000000   0.0000000   0.0000000
 NMagM=    0.0000000   2.7928460   2.7928460   0.0000000   2.7928460   2.7928460
 Leave Link  101 at Wed Jan 20 01:39:17 2021, MaxMem=  134217728 cpu:       0.1
 (Enter /share/apps/gaussian/G09C01Z/srwang-mod-2020/g09/l202.exe)
                          Input orientation:                          
 ---------------------------------------------------------------------
 Center     Atomic      Atomic             Coordinates (Angstroms)
 Number     Number       Type             X           Y           Z
 ---------------------------------------------------------------------
      1          6           0        0.732363   -0.000012   -0.000020
      2          1           0        1.301788   -0.654778    0.654835
      3          1           0        1.301802    0.654848   -0.654762
      4          6           0       -0.732363   -0.000012    0.000020
      5          1           0       -1.301788   -0.654778   -0.654836
      6          1           0       -1.301802    0.654848    0.654762
 ---------------------------------------------------------------------
                    Distance matrix (angstroms):
                    1          2          3          4          5
     1  C    0.000000
     2  H    1.087106   0.000000
     3  H    1.087101   1.852070   0.000000
     4  C    1.464726   2.235010   2.235041   0.000000
     5  H    2.235011   2.914420   2.914413   1.087106   0.000000
     6  H    2.235041   2.914413   2.914379   1.087101   1.852071
                    6
     6  H    0.000000
 Symmetry turned off by external request.
 Stoichiometry    C2H4
 Framework group  C1[X(C2H4)]
 Deg. of freedom    12
 Full point group                 C1      NOp   1
 Rotational constants (GHZ):    146.1897517     23.5797844     23.5797016
 Leave Link  202 at Wed Jan 20 01:39:17 2021, MaxMem=  134217728 cpu:       0.0
 (Enter /share/apps/gaussian/G09C01Z/srwang-mod-2020/g09/l301.exe)
 Standard basis: def2SVP (5D, 7F)
 Integral buffers will be    131072 words long.
 Raffenetti 2 integral format.
 Two-electron integral symmetry is turned off.
    48 basis functions,    78 primitive gaussians,    50 cartesian basis functions
     8 alpha electrons        8 beta electrons
       nuclear repulsion energy        31.6688660762 Hartrees.
 IExCor=    0 DFT=F Ex=HF Corr=None ExCW=0 ScaHFX=  1.000000
 ScaDFX=  1.000000  1.000000  1.000000  1.000000 ScalE2=  1.000000  1.000000
 IRadAn=      0 IRanWt=     -1 IRanGd=            0 ICorTp=0
 NAtoms=    6 NActive=    6 NUniq=    6 SFac= 1.00D+00 NAtFMM=   60 NAOKFM=F Big=F
 Leave Link  301 at Wed Jan 20 01:39:17 2021, MaxMem=  134217728 cpu:       0.0
 (Enter /share/apps/gaussian/G09C01Z/srwang-mod-2020/g09/l302.exe)
 NPDir=0 NMtPBC=     1 NCelOv=     1 NCel=       1 NClECP=     1 NCelD=      1
         NCelK=      1 NCelE2=     1 NClLst=     1 CellRange=     0.0.
 One-electron integrals computed using PRISM.
   1 Symmetry operations used in ECPInt.
 ECPInt:  NShTT=     300 NPrTT=    1028 LenC2=     301 LenP2D=     973.
 LDataN:  DoStor=T MaxTD1= 4 Len=   56
 Bad symmetry data in SVDSVc:  NBasis=   48 NT=   48 NBlks=1 MaxCmp=1 NBF=   48
 NBasis=    48 RedAO= T  NBF=    48
 NBsUse=    48 1.00D-06 NBFU=    48
 Leave Link  302 at Wed Jan 20 01:39:17 2021, MaxMem=  134217728 cpu:       0.1
 (Enter /share/apps/gaussian/G09C01Z/srwang-mod-2020/g09/l303.exe)
 DipDrv:  MaxL=1.
 Leave Link  303 at Wed Jan 20 01:39:17 2021, MaxMem=  134217728 cpu:       0.0
 (Enter /share/apps/gaussian/G09C01Z/srwang-mod-2020/g09/l401.exe)
 Harris functional with IExCor=  205 diagonalized for initial guess.
 ExpMin= 1.22D-01 ExpMax= 1.24D+03 ExpMxC= 1.86D+02 IAcc=1 IRadAn=         1 AccDes= 0.00D+00
 HarFok:  IExCor=  205 AccDes= 0.00D+00 IRadAn=         1 IDoV= 1
 ScaDFX=  1.000000  1.000000  1.000000  1.000000
 FoFCou: FMM=F IPFlag=           0 FMFlag=      100000 FMFlg1=           0
         NFxFlg=           0 DoJE=T BraDBF=F KetDBF=T FulRan=T
         Omega=  0.000000  0.000000  1.000000  0.000000  0.000000 ICntrl=     500 IOpCl=  0
         NMat0=    1 NMatS0=    1 NMatT0=    0 NMatD0=    1 NMtDS0=    0 NMtDT0=    0
         I1Cent=           4 NGrid=           0.
 Symmetry not used in FoFCou.
 Harris En= -77.9871726826605    
 Mixing orbitals, IMix= 1 IMixAn=  0 NRI=1 NE=    8 Coef=  7.07106781D-01  7.07106781D-01
 Mixing orbitals, IMix= 1 IMixAn=  0 NRI=1 NE=    8 Coef= -7.07106781D-01  7.07106781D-01
 Initial guess <Sx>= 0.0000 <Sy>= 0.0000 <Sz>= 0.0000 <S**2>= 1.0000 S= 0.6180
 Leave Link  401 at Wed Jan 20 01:39:17 2021, MaxMem=  134217728 cpu:       0.2
 (Enter /share/apps/gaussian/G09C01Z/srwang-mod-2020/g09/l502.exe)
 UHF open shell SCF:
 Requested convergence on RMS density matrix=1.00D-08 within 128 cycles.
 Requested convergence on MAX density matrix=1.00D-06.
 Requested convergence on             energy=1.00D-06.
 No special actions if energy rises.
 Using DIIS extrapolation, IDIIS=  1040.
 Two-electron integral symmetry not used.
 Keep R1 and R2 ints in memory in canonical form, NReq=2473179.
 IEnd=       26258 IEndB=       26258 NGot=   134217728 MDV=   132583733
 LenX=   132583733 LenY=   132580792
 Symmetry not used in FoFDir.
 MinBra= 0 MaxBra= 2 Meth= 1.
 IRaf=       0 NMat=   1 IRICut=       1 DoRegI=T DoRafI=F ISym2E= 0 JSym2E=0.

 Cycle   1  Pass 1  IDiag  1:
 E= -77.8140814950443    
 DIIS: error= 3.91D-02 at cycle   1 NSaved=   1.
 NSaved= 1 IEnMin= 1 EnMin= -77.8140814950443     IErMin= 1 ErrMin= 3.91D-02
 ErrMax= 3.91D-02 EMaxC= 1.00D-01 BMatC= 3.66D-01 BMatP= 3.66D-01
 IDIUse=3 WtCom= 6.09D-01 WtEn= 3.91D-01
 Coeff-Com:  0.100D+01
 Coeff-En:   0.100D+01
 Coeff:      0.100D+01
 Gap=     0.519 Goal=   None    Shift=    0.000
 Gap=     0.519 Goal=   None    Shift=    0.000
 GapD=    0.519 DampG=2.000 DampE=0.500 DampFc=1.0000 IDamp=-1.
 RMSDP=7.21D-03 MaxDP=9.62D-02              OVMax= 1.22D-01

 Cycle   2  Pass 1  IDiag  1:
 E= -77.9017732628552     Delta-E=       -0.087691767811 Rises=F Damp=F
 DIIS: error= 1.66D-02 at cycle   2 NSaved=   2.
 NSaved= 2 IEnMin= 2 EnMin= -77.9017732628552     IErMin= 2 ErrMin= 1.66D-02
 ErrMax= 1.66D-02 EMaxC= 1.00D-01 BMatC= 3.73D-02 BMatP= 3.66D-01
 IDIUse=3 WtCom= 8.34D-01 WtEn= 1.66D-01
 Coeff-Com:  0.163D+00 0.837D+00
 Coeff-En:   0.000D+00 0.100D+01
 Coeff:      0.136D+00 0.864D+00
 Gap=     0.494 Goal=   None    Shift=    0.000
 Gap=     0.494 Goal=   None    Shift=    0.000
 RMSDP=2.32D-03 MaxDP=3.29D-02 DE=-8.77D-02 OVMax= 3.22D-02

 Cycle   3  Pass 1  IDiag  1:
 E= -77.9126899241393     Delta-E=       -0.010916661284 Rises=F Damp=F
 DIIS: error= 3.25D-03 at cycle   3 NSaved=   3.
 NSaved= 3 IEnMin= 3 EnMin= -77.9126899241393     IErMin= 3 ErrMin= 3.25D-03
 ErrMax= 3.25D-03 EMaxC= 1.00D-01 BMatC= 2.63D-03 BMatP= 3.73D-02
 IDIUse=3 WtCom= 9.68D-01 WtEn= 3.25D-02
 Coeff-Com: -0.467D-01 0.264D-01 0.102D+01
 Coeff-En:   0.000D+00 0.000D+00 0.100D+01
 Coeff:     -0.452D-01 0.255D-01 0.102D+01
 Gap=     0.501 Goal=   None    Shift=    0.000
 Gap=     0.501 Goal=   None    Shift=    0.000
 RMSDP=6.69D-04 MaxDP=8.58D-03 DE=-1.09D-02 OVMax= 1.43D-02

 Cycle   4  Pass 1  IDiag  1:
 E= -77.9140799641016     Delta-E=       -0.001390039962 Rises=F Damp=F
 DIIS: error= 1.41D-03 at cycle   4 NSaved=   4.
 NSaved= 4 IEnMin= 4 EnMin= -77.9140799641016     IErMin= 4 ErrMin= 1.41D-03
 ErrMax= 1.41D-03 EMaxC= 1.00D-01 BMatC= 4.62D-04 BMatP= 2.63D-03
 IDIUse=3 WtCom= 9.86D-01 WtEn= 1.41D-02
 Coeff-Com:  0.164D-01-0.666D-01-0.630D+00 0.168D+01
 Coeff-En:   0.000D+00 0.000D+00 0.000D+00 0.100D+01
 Coeff:      0.162D-01-0.656D-01-0.621D+00 0.167D+01
 Gap=     0.508 Goal=   None    Shift=    0.000
 Gap=     0.508 Goal=   None    Shift=    0.000
 RMSDP=4.93D-04 MaxDP=6.86D-03 DE=-1.39D-03 OVMax= 7.86D-03

 Cycle   5  Pass 1  IDiag  1:
 E= -77.9144688707818     Delta-E=       -0.000388906680 Rises=F Damp=F
 DIIS: error= 5.47D-04 at cycle   5 NSaved=   5.
 NSaved= 5 IEnMin= 5 EnMin= -77.9144688707818     IErMin= 5 ErrMin= 5.47D-04
 ErrMax= 5.47D-04 EMaxC= 1.00D-01 BMatC= 5.10D-05 BMatP= 4.62D-04
 IDIUse=3 WtCom= 9.95D-01 WtEn= 5.47D-03
 Coeff-Com: -0.469D-02 0.379D-01 0.268D+00-0.100D+01 0.170D+01
 Coeff-En:   0.000D+00 0.000D+00 0.000D+00 0.000D+00 0.100D+01
 Coeff:     -0.467D-02 0.377D-01 0.266D+00-0.999D+00 0.170D+01
 Gap=     0.509 Goal=   None    Shift=    0.000
 Gap=     0.509 Goal=   None    Shift=    0.000
 RMSDP=2.13D-04 MaxDP=2.94D-03 DE=-3.89D-04 OVMax= 3.11D-03

 Cycle   6  Pass 1  IDiag  1:
 E= -77.9145197745656     Delta-E=       -0.000050903784 Rises=F Damp=F
 DIIS: error= 1.70D-04 at cycle   6 NSaved=   6.
 NSaved= 6 IEnMin= 6 EnMin= -77.9145197745656     IErMin= 6 ErrMin= 1.70D-04
 ErrMax= 1.70D-04 EMaxC= 1.00D-01 BMatC= 3.50D-06 BMatP= 5.10D-05
 IDIUse=3 WtCom= 9.98D-01 WtEn= 1.70D-03
 Coeff-Com: -0.334D-03-0.179D-02-0.328D-02 0.685D-01-0.452D+00 0.139D+01
 Coeff-En:   0.000D+00 0.000D+00 0.000D+00 0.000D+00 0.000D+00 0.100D+01
 Coeff:     -0.333D-03-0.179D-02-0.328D-02 0.683D-01-0.451D+00 0.139D+01
 Gap=     0.509 Goal=   None    Shift=    0.000
 Gap=     0.509 Goal=   None    Shift=    0.000
 RMSDP=6.99D-05 MaxDP=7.16D-04 DE=-5.09D-05 OVMax= 1.19D-03

 Cycle   7  Pass 1  IDiag  1:
 E= -77.9145237769536     Delta-E=       -0.000004002388 Rises=F Damp=F
 DIIS: error= 3.70D-05 at cycle   7 NSaved=   7.
 NSaved= 7 IEnMin= 7 EnMin= -77.9145237769536     IErMin= 7 ErrMin= 3.70D-05
 ErrMax= 3.70D-05 EMaxC= 1.00D-01 BMatC= 2.04D-07 BMatP= 3.50D-06
 IDIUse=1 WtCom= 1.00D+00 WtEn= 0.00D+00
 Coeff-Com:  0.382D-03-0.772D-03-0.109D-01 0.955D-02 0.159D+00-0.738D+00
 Coeff-Com:  0.158D+01
 Coeff:      0.382D-03-0.772D-03-0.109D-01 0.955D-02 0.159D+00-0.738D+00
 Coeff:      0.158D+01
 Gap=     0.509 Goal=   None    Shift=    0.000
 Gap=     0.509 Goal=   None    Shift=    0.000
 RMSDP=1.58D-05 MaxDP=1.25D-04 DE=-4.00D-06 OVMax= 2.85D-04

 Cycle   8  Pass 1  IDiag  1:
 E= -77.9145239744419     Delta-E=       -0.000000197488 Rises=F Damp=F
 DIIS: error= 9.98D-06 at cycle   8 NSaved=   8.
 NSaved= 8 IEnMin= 8 EnMin= -77.9145239744419     IErMin= 8 ErrMin= 9.98D-06
 ErrMax= 9.98D-06 EMaxC= 1.00D-01 BMatC= 1.90D-08 BMatP= 2.04D-07
 IDIUse=1 WtCom= 1.00D+00 WtEn= 0.00D+00
 Coeff-Com: -0.190D-03 0.609D-03 0.673D-02-0.118D-01-0.567D-01 0.339D+00
 Coeff-Com: -0.992D+00 0.171D+01
 Coeff:     -0.190D-03 0.609D-03 0.673D-02-0.118D-01-0.567D-01 0.339D+00
 Coeff:     -0.992D+00 0.171D+01
 Gap=     0.509 Goal=   None    Shift=    0.000
 Gap=     0.509 Goal=   None    Shift=    0.000
 RMSDP=4.84D-06 MaxDP=5.64D-05 DE=-1.97D-07 OVMax= 7.33D-05

 Cycle   9  Pass 1  IDiag  1:
 E= -77.9145239896326     Delta-E=       -0.000000015191 Rises=F Damp=F
 DIIS: error= 2.03D-06 at cycle   9 NSaved=   9.
 NSaved= 9 IEnMin= 9 EnMin= -77.9145239896326     IErMin= 9 ErrMin= 2.03D-06
 ErrMax= 2.03D-06 EMaxC= 1.00D-01 BMatC= 5.31D-10 BMatP= 1.90D-08
 IDIUse=1 WtCom= 1.00D+00 WtEn= 0.00D+00
 Coeff-Com:  0.847D-04-0.289D-03-0.314D-02 0.613D-02 0.216D-01-0.140D+00
 Coeff-Com:  0.436D+00-0.846D+00 0.153D+01
 Coeff:      0.847D-04-0.289D-03-0.314D-02 0.613D-02 0.216D-01-0.140D+00
 Coeff:      0.436D+00-0.846D+00 0.153D+01
 Gap=     0.509 Goal=   None    Shift=    0.000
 Gap=     0.509 Goal=   None    Shift=    0.000
 RMSDP=7.96D-07 MaxDP=8.17D-06 DE=-1.52D-08 OVMax= 1.20D-05

 Cycle  10  Pass 1  IDiag  1:
 E= -77.9145239900071     Delta-E=       -0.000000000374 Rises=F Damp=F
 DIIS: error= 5.25D-07 at cycle  10 NSaved=  10.
 NSaved=10 IEnMin=10 EnMin= -77.9145239900071     IErMin=10 ErrMin= 5.25D-07
 ErrMax= 5.25D-07 EMaxC= 1.00D-01 BMatC= 3.05D-11 BMatP= 5.31D-10
 IDIUse=1 WtCom= 1.00D+00 WtEn= 0.00D+00
 Coeff-Com: -0.284D-04 0.102D-03 0.108D-02-0.218D-02-0.677D-02 0.454D-01
 Coeff-Com: -0.146D+00 0.296D+00-0.719D+00 0.153D+01
 Coeff:     -0.284D-04 0.102D-03 0.108D-02-0.218D-02-0.677D-02 0.454D-01
 Coeff:     -0.146D+00 0.296D+00-0.719D+00 0.153D+01
 Gap=     0.509 Goal=   None    Shift=    0.000
 Gap=     0.509 Goal=   None    Shift=    0.000
 RMSDP=1.62D-07 MaxDP=1.73D-06 DE=-3.74D-10 OVMax= 2.62D-06

 Cycle  11  Pass 1  IDiag  1:
 E= -77.9145239900323     Delta-E=       -0.000000000025 Rises=F Damp=F
 DIIS: error= 5.22D-08 at cycle  11 NSaved=  11.
 NSaved=11 IEnMin=11 EnMin= -77.9145239900323     IErMin=11 ErrMin= 5.22D-08
 ErrMax= 5.22D-08 EMaxC= 1.00D-01 BMatC= 6.92D-13 BMatP= 3.05D-11
 IDIUse=1 WtCom= 1.00D+00 WtEn= 0.00D+00
 Coeff-Com:  0.410D-05-0.148D-04-0.156D-03 0.308D-03 0.969D-03-0.646D-02
 Coeff-Com:  0.210D-01-0.434D-01 0.123D+00-0.405D+00 0.131D+01
 Coeff:      0.410D-05-0.148D-04-0.156D-03 0.308D-03 0.969D-03-0.646D-02
 Coeff:      0.210D-01-0.434D-01 0.123D+00-0.405D+00 0.131D+01
 Gap=     0.509 Goal=   None    Shift=    0.000
 Gap=     0.509 Goal=   None    Shift=    0.000
 RMSDP=3.64D-08 MaxDP=3.41D-07 DE=-2.53D-11 OVMax= 4.43D-07

 Cycle  12  Pass 1  IDiag  1:
 E= -77.9145239900330     Delta-E=       -0.000000000001 Rises=F Damp=F
 DIIS: error= 4.89D-09 at cycle  12 NSaved=  12.
 NSaved=12 IEnMin=12 EnMin= -77.9145239900330     IErMin=12 ErrMin= 4.89D-09
 ErrMax= 4.89D-09 EMaxC= 1.00D-01 BMatC= 9.48D-15 BMatP= 6.92D-13
 IDIUse=1 WtCom= 1.00D+00 WtEn= 0.00D+00
 Coeff-Com: -0.629D-06 0.223D-05 0.242D-04-0.474D-04-0.142D-03 0.946D-03
 Coeff-Com: -0.314D-02 0.658D-02-0.212D-01 0.842D-01-0.348D+00 0.128D+01
 Coeff:     -0.629D-06 0.223D-05 0.242D-04-0.474D-04-0.142D-03 0.946D-03
 Coeff:     -0.314D-02 0.658D-02-0.212D-01 0.842D-01-0.348D+00 0.128D+01
 Gap=     0.509 Goal=   None    Shift=    0.000
 Gap=     0.509 Goal=   None    Shift=    0.000
 RMSDP=4.70D-09 MaxDP=3.64D-08 DE=-6.39D-13 OVMax= 5.19D-08

 SCF Done:  E(UHF) =  -77.9145239900     A.U. after   12 cycles
             Convg  =    0.4700D-08             -V/T =  2.0052
 <Sx>= 0.0000 <Sy>= 0.0000 <Sz>= 0.0000 <S**2>= 1.0343 S= 0.6333
 <L.S>= 0.000000000000E+00
 KE= 7.750967764560D+01 PE=-2.440426399475D+02 EE= 5.694957223564D+01
 Annihilation of the first spin contaminant:
 S**2 before annihilation     1.0343,   after     0.2762
 Leave Link  502 at Wed Jan 20 01:39:17 2021, MaxMem=  134217728 cpu:       0.1
 (Enter /share/apps/gaussian/G09C01Z/srwang-mod-2020/g09/l601.exe)
 Copying SCF densities to generalized density rwf, IOpCl= 1 IROHF=0.

 **********************************************************************

            Population analysis using the SCF density.

 **********************************************************************

 Alpha  occ. eigenvalues --  -11.24311 -11.21418  -0.98774  -0.78037  -0.58927
 Alpha  occ. eigenvalues --   -0.57688  -0.55988  -0.36549
 Alpha virt. eigenvalues --    0.14372   0.21503   0.22693   0.27113   0.27317
 Alpha virt. eigenvalues --    0.44065   0.60431   0.66376   0.68381   0.70538
 Alpha virt. eigenvalues --    0.77510   0.79122   0.83968   0.85082   0.90264
 Alpha virt. eigenvalues --    0.93015   0.94605   0.99667   1.43055   1.49427
 Alpha virt. eigenvalues --    1.74966   1.78274   1.87199   1.89391   1.90456
 Alpha virt. eigenvalues --    1.93987   2.13465   2.14997   2.19466   2.38992
 Alpha virt. eigenvalues --    2.41091   2.59677   2.62810   2.63363   2.65184
 Alpha virt. eigenvalues --    3.03609   3.20171   3.26288   3.33152   3.33612
  Beta  occ. eigenvalues --  -11.24311 -11.21418  -0.98774  -0.78037  -0.58927
  Beta  occ. eigenvalues --   -0.57688  -0.55988  -0.36549
  Beta virt. eigenvalues --    0.14372   0.21503   0.22693   0.27113   0.27317
  Beta virt. eigenvalues --    0.44065   0.60431   0.66376   0.68381   0.70538
  Beta virt. eigenvalues --    0.77510   0.79122   0.83968   0.85082   0.90264
  Beta virt. eigenvalues --    0.93015   0.94605   0.99667   1.43055   1.49427
  Beta virt. eigenvalues --    1.74966   1.78274   1.87199   1.89391   1.90457
  Beta virt. eigenvalues --    1.93987   2.13465   2.14997   2.19466   2.38992
  Beta virt. eigenvalues --    2.41091   2.59677   2.62810   2.63363   2.65184
  Beta virt. eigenvalues --    3.03609   3.20171   3.26288   3.33152   3.33612
          Condensed to atoms (all electrons):
              1          2          3          4          5          6
     1  C    5.069923   0.411925   0.411923   0.322897  -0.038846  -0.038841
     2  H    0.411925   0.587508  -0.032344  -0.038846   0.001135   0.001134
     3  H    0.411923  -0.032344   0.587505  -0.038841   0.001134   0.001133
     4  C    0.322897  -0.038846  -0.038841   5.069923   0.411924   0.411923
     5  H   -0.038846   0.001135   0.001134   0.411924   0.587508  -0.032344
     6  H   -0.038841   0.001134   0.001133   0.411923  -0.032344   0.587505
 Mulliken atomic charges:
              1
     1  C   -0.138980
     2  H    0.069489
     3  H    0.069490
     4  C   -0.138980
     5  H    0.069489
     6  H    0.069490
 Sum of Mulliken atomic charges =  -0.00000
 Mulliken charges with hydrogens summed into heavy atoms:
              1
     1  C    0.000000
     4  C   -0.000000
 Sum of Mulliken charges with hydrogens summed into heavy atoms =  -0.00000
          Atomic-Atomic Spin Densities.
              1          2          3          4          5          6
     1  C   -1.489563   0.009876   0.009872  -0.000000   0.016498   0.016495
     2  H    0.009876   0.159991  -0.014090  -0.016498   0.000000   0.000001
     3  H    0.009872  -0.014090   0.159995  -0.016495  -0.000001  -0.000000
     4  C   -0.000000  -0.016498  -0.016495   1.489563  -0.009876  -0.009872
     5  H    0.016498   0.000000  -0.000001  -0.009876  -0.159991   0.014090
     6  H    0.016495   0.000001  -0.000000  -0.009872   0.014090  -0.159995
 Mulliken atomic spin densities:
              1
     1  C   -1.436822
     2  H    0.139280
     3  H    0.139282
     4  C    1.436823
     5  H   -0.139280
     6  H   -0.139282
 Sum of Mulliken atomic spin densities =  -0.00000
 Electronic spatial extent (au):  <R**2>=             89.9609
 Charge=             -0.0000 electrons
 Dipole moment (field-independent basis, Debye):
    X=              0.0000    Y=              0.0002    Z=             -0.0000  Tot=              0.0002
 Quadrupole moment (field-independent basis, Debye-Ang):
   XX=            -13.2040   YY=            -13.9233   ZZ=            -13.9233
   XY=             -0.0000   XZ=              0.0002   YZ=              0.0000
 Traceless Quadrupole moment (field-independent basis, Debye-Ang):
   XX=              0.4795   YY=             -0.2397   ZZ=             -0.2398
   XY=             -0.0000   XZ=              0.0002   YZ=              0.0000
 Octapole moment (field-independent basis, Debye-Ang**2):
  XXX=              0.0000  YYY=              0.0004  ZZZ=              0.0000  XYY=              0.0000
  XXY=              0.0004  XXZ=              0.0000  XZZ=             -0.0000  YZZ=              0.0000
  YYZ=              0.0000  XYZ=             -1.8839
 Hexadecapole moment (field-independent basis, Debye-Ang**3):
 XXXX=            -78.7542 YYYY=            -22.7605 ZZZZ=            -22.7603 XXXY=             -0.0000
 XXXZ=              0.0003 YYYX=             -0.0000 YYYZ=             -0.0000 ZZZX=              0.0005
 ZZZY=             -0.0000 XXYY=            -16.2249 XXZZ=            -16.2250 YYZZ=             -6.8925
 XXYZ=              0.0000 YYXZ=             -0.0000 ZZXY=              0.0000
 N-N= 3.166886607623D+01 E-N=-3.660639596899D+02  KE= 1.162645163688D+02
                          Isotropic Fermi Contact Couplings
        Atom                 a.u.       MegaHertz       Gauss      10(-4) cm-1
     1  C(13)             -0.39302    -220.91607     -78.82835     -73.68967
     2  H(1)               0.04648     103.87354      37.06466      34.64848
     3  H(1)               0.04648     103.87545      37.06534      34.64912
     4  C(13)              0.39302     220.91618      78.82838      73.68971
     5  H(1)              -0.04648    -103.87362     -37.06469     -34.64851
     6  H(1)              -0.04648    -103.87543     -37.06533     -34.64911
 --------------------------------------------------------
       Center         ----  Spin Dipole Couplings  ----
                      3XX-RR        3YY-RR        3ZZ-RR
 --------------------------------------------------------
     1   Atom        0.563717     -0.281841     -0.281877
     2   Atom        0.048914     -0.024450     -0.024464
     3   Atom        0.048909     -0.024462     -0.024447
     4   Atom       -0.563718      0.281841      0.281876
     5   Atom       -0.048914      0.024450      0.024464
     6   Atom       -0.048909      0.024462      0.024447
 --------------------------------------------------------
                        XY            XZ            YZ
 --------------------------------------------------------
     1   Atom        0.000032      0.000026     -0.817552
     2   Atom        0.047743     -0.047746      0.022775
     3   Atom       -0.047748      0.047743      0.022773
     4   Atom        0.000032     -0.000027     -0.817552
     5   Atom        0.047743      0.047746      0.022775
     6   Atom       -0.047748     -0.047743      0.022773
 --------------------------------------------------------


 ---------------------------------------------------------------------------------
              Anisotropic Spin Dipole Couplings in Principal Axis System
 ---------------------------------------------------------------------------------

       Atom             a.u.   MegaHertz   Gauss  10(-4) cm-1        Axes

              Baa    -1.0994  -147.530   -52.643   -49.211 -0.0000  0.7071  0.7071
     1 C(13)  Bbb     0.5357    71.885    25.650    23.978 -0.0001  0.7071 -0.7071
              Bcc     0.5637    75.645    26.992    25.233  1.0000  0.0001 -0.0001
 
              Baa    -0.0820   -43.775   -15.620   -14.602  0.4583 -0.6284  0.6286
     2 H(1)   Bbb    -0.0017    -0.897    -0.320    -0.299 -0.0001  0.7072  0.7071
              Bcc     0.0837    44.673    15.940    14.901  0.8888  0.3241 -0.3240
 
              Baa    -0.0820   -43.775   -15.620   -14.602  0.4583  0.6286 -0.6284
     3 H(1)   Bbb    -0.0017    -0.897    -0.320    -0.299 -0.0001  0.7070  0.7072
              Bcc     0.0837    44.672    15.940    14.901  0.8888 -0.3241  0.3241
 
              Baa    -0.5637   -75.645   -26.992   -25.233  1.0000 -0.0001 -0.0001
     4 C(13)  Bbb    -0.5357   -71.885   -25.650   -23.978  0.0001  0.7071  0.7071
              Bcc     1.0994   147.530    52.643    49.211 -0.0000 -0.7071  0.7071
 
              Baa    -0.0837   -44.673   -15.940   -14.901  0.8888 -0.3241 -0.3240
     5 H(1)   Bbb     0.0017     0.897     0.320     0.299  0.0001  0.7072 -0.7071
              Bcc     0.0820    43.775    15.620    14.602  0.4583  0.6284  0.6286
 
              Baa    -0.0837   -44.672   -15.940   -14.901  0.8888  0.3241  0.3241
     6 H(1)   Bbb     0.0017     0.897     0.320     0.299 -0.0001 -0.7070  0.7072
              Bcc     0.0820    43.775    15.620    14.602 -0.4583  0.6286  0.6284
 

 ---------------------------------------------------------------------------------

 No NMR shielding tensors so no spin-rotation constants.
 Leave Link  601 at Wed Jan 20 01:39:17 2021, MaxMem=  134217728 cpu:       0.1
 (Enter /share/apps/gaussian/G09C01Z/srwang-mod-2020/g09/l801.exe)
 Range of M.O.s used for correlation:     1    48
 NBasis=    48 NAE=     8 NBE=     8 NFC=     0 NFV=     0
 NROrb=     48 NOA=     8 NOB=     8 NVA=    40 NVB=    40
 Leave Link  801 at Wed Jan 20 01:39:18 2021, MaxMem=  134217728 cpu:       0.0
 (Enter /share/apps/gaussian/G09C01Z/srwang-mod-2020/g09/l914.exe)
 UHF ground state
 Doing stability rather than CIS.
 MDV=   134217728 DFT=F DoStab=T Mixed=F DoRPA=F DoScal=F NonHer=F
 Keep R1 and R2 ints in memory in canonical form, NReq=2691700.
 Symmetry not used in FoFDir.
 MinBra= 0 MaxBra= 2 Meth= 1.
 IRaf=       0 NMat=   1 IRICut=       1 DoRegI=T DoRafI=F ISym2E= 0 JSym2E=0.
 Making orbital integer symmetry assigments:
    12 initial guesses have been made.
 Convergence on wavefunction:    0.001000000000000
 Davidson Disk Diagonalization:  ConvIn= 1.00D-03 SkipCon=T Conv= 1.00D-03.
 Max sub-space:   200 roots to seek:    12 dimension of matrix:    640
 Iteration     1 Dimension    12 NMult    12
 CISAX:  IP=  1 NPass=   1 NMax=    12.
 CISAX will form    12 AO SS matrices at one time.
 NMat=    12 NSing=    12.
 Excitation Energies [eV] at current iteration:
 Root      1 :     5.616801022684871
 Root      2 :     5.818745541964082
 Root      3 :     8.619357662999864
 Root      4 :     8.619365387988859
 Root      5 :     9.451559154152097
 Root      6 :     9.451595268319959
 Root      7 :     9.659648347293224
 Root      8 :     9.801329995563350
 Root      9 :    10.399690244740830
 Root     10 :    10.399698975264740
 Root     11 :    12.484914926721650
 Root     12 :    12.934059764275440
 Iteration     2 Dimension    24 NMult    24
 CISAX:  IP=  1 NPass=   1 NMax=    12.
 CISAX will form    12 AO SS matrices at one time.
 NMat=    12 NSing=    12.
 Root      1 not converged, maximum delta is    0.049264713084539
 Excitation Energies [eV] at current iteration:
 Root      1 :     5.276931444402411   Change is   -0.339869578282460
 Root      2 :     5.532566318604235   Change is   -0.286179223359848
 Root      3 :     7.968395945790848   Change is   -0.650961717209017
 Iteration     3 Dimension    27 NMult    27
 CISAX:  IP=  1 NPass=   1 NMax=     3.
 CISAX will form     3 AO SS matrices at one time.
 NMat=     3 NSing=     3.
 Root      1 not converged, maximum delta is    0.006114684372306
 Excitation Energies [eV] at current iteration:
 Root      1 :     5.270754191792302   Change is   -0.006177252610109
 Root      2 :     5.510293854878624   Change is   -0.022272463725611
 Root      3 :     7.824484534103864   Change is   -0.143911411686983
 Iteration     4 Dimension    30 NMult    30
 CISAX:  IP=  1 NPass=   1 NMax=     3.
 CISAX will form     3 AO SS matrices at one time.
 NMat=     3 NSing=     3.
 Root      1 not converged, maximum delta is    0.002299115280390
 Excitation Energies [eV] at current iteration:
 Root      1 :     5.270557118550457   Change is   -0.000197073241845
 Root      2 :     5.507644716927494   Change is   -0.002649137951129
 Root      3 :     7.807261683722873   Change is   -0.017222850380992
 Iteration     5 Dimension    33 NMult    33
 CISAX:  IP=  1 NPass=   1 NMax=     3.
 CISAX will form     3 AO SS matrices at one time.
 NMat=     3 NSing=     3.
 Root      1 has converged.
 Excitation Energies [eV] at current iteration:
 Root      1 :     5.270532346191040   Change is   -0.000024772359417
 Root      2 :     5.507601259436147   Change is   -0.000043457491347
 Root      3 :     7.806020721130649   Change is   -0.001240962592224
 Convergence achieved on expansion vectors.
 ***********************************************************************
 Stability analysis using <AA,BB:AA,BB> singles matrix:
 ***********************************************************************

 Eigenvectors of the stability matrix:
 
 Excited state symmetry could not be determined.
 Eigenvector   1:  1.000-?Sym  Eigenvalue= 0.1936885  <S**2>=0.000
      5A ->  9A       -0.15359
      8A ->  9A       -0.68292
      5B ->  9B       -0.15359
      8B ->  9B        0.68292
 SavETr:  write IOETrn=   770 NScale= 10 NData=  16 NLR=1 LETran=      28.
 The wavefunction is stable under the perturbations considered.
 Leave Link  914 at Wed Jan 20 01:39:18 2021, MaxMem=  134217728 cpu:       0.2
 (Enter /share/apps/gaussian/G09C01Z/srwang-mod-2020/g09/l508.exe)
 The wavefunction is already stable.
 Leave Link  508 at Wed Jan 20 01:39:18 2021, MaxMem=  134217728 cpu:       0.0
 (Enter /share/apps/gaussian/G09C01Z/srwang-mod-2020/g09/l601.exe)
 Copying SCF densities to generalized density rwf, IOpCl= 1 IROHF=0.

 **********************************************************************

            Population analysis using the SCF density.

 **********************************************************************

 Alpha  occ. eigenvalues --  -11.24311 -11.21418  -0.98774  -0.78037  -0.58927
 Alpha  occ. eigenvalues --   -0.57688  -0.55988  -0.36549
 Alpha virt. eigenvalues --    0.14372   0.21503   0.22693   0.27113   0.27317
 Alpha virt. eigenvalues --    0.44065   0.60431   0.66376   0.68381   0.70538
 Alpha virt. eigenvalues --    0.77510   0.79122   0.83968   0.85082   0.90264
 Alpha virt. eigenvalues --    0.93015   0.94605   0.99667   1.43055   1.49427
 Alpha virt. eigenvalues --    1.74966   1.78274   1.87199   1.89391   1.90456
 Alpha virt. eigenvalues --    1.93987   2.13465   2.14997   2.19466   2.38992
 Alpha virt. eigenvalues --    2.41091   2.59677   2.62810   2.63363   2.65184
 Alpha virt. eigenvalues --    3.03609   3.20171   3.26288   3.33152   3.33612
  Beta  occ. eigenvalues --  -11.24311 -11.21418  -0.98774  -0.78037  -0.58927
  Beta  occ. eigenvalues --   -0.57688  -0.55988  -0.36549
  Beta virt. eigenvalues --    0.14372   0.21503   0.22693   0.27113   0.27317
  Beta virt. eigenvalues --    0.44065   0.60431   0.66376   0.68381   0.70538
  Beta virt. eigenvalues --    0.77510   0.79122   0.83968   0.85082   0.90264
  Beta virt. eigenvalues --    0.93015   0.94605   0.99667   1.43055   1.49427
  Beta virt. eigenvalues --    1.74966   1.78274   1.87199   1.89391   1.90457
  Beta virt. eigenvalues --    1.93987   2.13465   2.14997   2.19466   2.38992
  Beta virt. eigenvalues --    2.41091   2.59677   2.62810   2.63363   2.65184
  Beta virt. eigenvalues --    3.03609   3.20171   3.26288   3.33152   3.33612
          Condensed to atoms (all electrons):
              1          2          3          4          5          6
     1  C    5.069923   0.411925   0.411923   0.322897  -0.038846  -0.038841
     2  H    0.411925   0.587508  -0.032344  -0.038846   0.001135   0.001134
     3  H    0.411923  -0.032344   0.587505  -0.038841   0.001134   0.001133
     4  C    0.322897  -0.038846  -0.038841   5.069923   0.411924   0.411923
     5  H   -0.038846   0.001135   0.001134   0.411924   0.587508  -0.032344
     6  H   -0.038841   0.001134   0.001133   0.411923  -0.032344   0.587505
 Mulliken atomic charges:
              1
     1  C   -0.138980
     2  H    0.069489
     3  H    0.069490
     4  C   -0.138980
     5  H    0.069489
     6  H    0.069490
 Sum of Mulliken atomic charges =  -0.00000
 Mulliken charges with hydrogens summed into heavy atoms:
              1
     1  C    0.000000
     4  C   -0.000000
 Sum of Mulliken charges with hydrogens summed into heavy atoms =  -0.00000
          Atomic-Atomic Spin Densities.
              1          2          3          4          5          6
     1  C   -1.489563   0.009876   0.009872  -0.000000   0.016498   0.016495
     2  H    0.009876   0.159991  -0.014090  -0.016498   0.000000   0.000001
     3  H    0.009872  -0.014090   0.159995  -0.016495  -0.000001  -0.000000
     4  C   -0.000000  -0.016498  -0.016495   1.489563  -0.009876  -0.009872
     5  H    0.016498   0.000000  -0.000001  -0.009876  -0.159991   0.014090
     6  H    0.016495   0.000001  -0.000000  -0.009872   0.014090  -0.159995
 Mulliken atomic spin densities:
              1
     1  C   -1.436822
     2  H    0.139280
     3  H    0.139282
     4  C    1.436823
     5  H   -0.139280
     6  H   -0.139282
 Sum of Mulliken atomic spin densities =  -0.00000
 Electronic spatial extent (au):  <R**2>=             89.9609
 Charge=             -0.0000 electrons
 Dipole moment (field-independent basis, Debye):
    X=              0.0000    Y=              0.0002    Z=             -0.0000  Tot=              0.0002
 Quadrupole moment (field-independent basis, Debye-Ang):
   XX=            -13.2040   YY=            -13.9233   ZZ=            -13.9233
   XY=             -0.0000   XZ=              0.0002   YZ=              0.0000
 Traceless Quadrupole moment (field-independent basis, Debye-Ang):
   XX=              0.4795   YY=             -0.2397   ZZ=             -0.2398
   XY=             -0.0000   XZ=              0.0002   YZ=              0.0000
 Octapole moment (field-independent basis, Debye-Ang**2):
  XXX=              0.0000  YYY=              0.0004  ZZZ=              0.0000  XYY=              0.0000
  XXY=              0.0004  XXZ=              0.0000  XZZ=             -0.0000  YZZ=              0.0000
  YYZ=              0.0000  XYZ=             -1.8839
 Hexadecapole moment (field-independent basis, Debye-Ang**3):
 XXXX=            -78.7542 YYYY=            -22.7605 ZZZZ=            -22.7603 XXXY=             -0.0000
 XXXZ=              0.0003 YYYX=             -0.0000 YYYZ=             -0.0000 ZZZX=              0.0005
 ZZZY=             -0.0000 XXYY=            -16.2249 XXZZ=            -16.2250 YYZZ=             -6.8925
 XXYZ=              0.0000 YYXZ=             -0.0000 ZZXY=              0.0000
 N-N= 3.166886607623D+01 E-N=-3.660639596899D+02  KE= 1.162645163688D+02
                          Isotropic Fermi Contact Couplings
        Atom                 a.u.       MegaHertz       Gauss      10(-4) cm-1
     1  C(13)             -0.39302    -220.91607     -78.82835     -73.68967
     2  H(1)               0.04648     103.87354      37.06466      34.64848
     3  H(1)               0.04648     103.87545      37.06534      34.64912
     4  C(13)              0.39302     220.91618      78.82838      73.68971
     5  H(1)              -0.04648    -103.87362     -37.06469     -34.64851
     6  H(1)              -0.04648    -103.87543     -37.06533     -34.64911
 --------------------------------------------------------
       Center         ----  Spin Dipole Couplings  ----
                      3XX-RR        3YY-RR        3ZZ-RR
 --------------------------------------------------------
     1   Atom        0.563717     -0.281841     -0.281877
     2   Atom        0.048914     -0.024450     -0.024464
     3   Atom        0.048909     -0.024462     -0.024447
     4   Atom       -0.563718      0.281841      0.281876
     5   Atom       -0.048914      0.024450      0.024464
     6   Atom       -0.048909      0.024462      0.024447
 --------------------------------------------------------
                        XY            XZ            YZ
 --------------------------------------------------------
     1   Atom        0.000032      0.000026     -0.817552
     2   Atom        0.047743     -0.047746      0.022775
     3   Atom       -0.047748      0.047743      0.022773
     4   Atom        0.000032     -0.000027     -0.817552
     5   Atom        0.047743      0.047746      0.022775
     6   Atom       -0.047748     -0.047743      0.022773
 --------------------------------------------------------


 ---------------------------------------------------------------------------------
              Anisotropic Spin Dipole Couplings in Principal Axis System
 ---------------------------------------------------------------------------------

       Atom             a.u.   MegaHertz   Gauss  10(-4) cm-1        Axes

              Baa    -1.0994  -147.530   -52.643   -49.211 -0.0000  0.7071  0.7071
     1 C(13)  Bbb     0.5357    71.885    25.650    23.978 -0.0001  0.7071 -0.7071
              Bcc     0.5637    75.645    26.992    25.233  1.0000  0.0001 -0.0001
 
              Baa    -0.0820   -43.775   -15.620   -14.602  0.4583 -0.6284  0.6286
     2 H(1)   Bbb    -0.0017    -0.897    -0.320    -0.299 -0.0001  0.7072  0.7071
              Bcc     0.0837    44.673    15.940    14.901  0.8888  0.3241 -0.3240
 
              Baa    -0.0820   -43.775   -15.620   -14.602  0.4583  0.6286 -0.6284
     3 H(1)   Bbb    -0.0017    -0.897    -0.320    -0.299 -0.0001  0.7070  0.7072
              Bcc     0.0837    44.672    15.940    14.901  0.8888 -0.3241  0.3241
 
              Baa    -0.5637   -75.645   -26.992   -25.233  1.0000 -0.0001 -0.0001
     4 C(13)  Bbb    -0.5357   -71.885   -25.650   -23.978  0.0001  0.7071  0.7071
              Bcc     1.0994   147.530    52.643    49.211 -0.0000 -0.7071  0.7071
 
              Baa    -0.0837   -44.673   -15.940   -14.901  0.8888 -0.3241 -0.3240
     5 H(1)   Bbb     0.0017     0.897     0.320     0.299  0.0001  0.7072 -0.7071
              Bcc     0.0820    43.775    15.620    14.602  0.4583  0.6284  0.6286
 
              Baa    -0.0837   -44.672   -15.940   -14.901  0.8888  0.3241  0.3241
     6 H(1)   Bbb     0.0017     0.897     0.320     0.299 -0.0001 -0.7070  0.7072
              Bcc     0.0820    43.775    15.620    14.602 -0.4583  0.6286  0.6284
 

 ---------------------------------------------------------------------------------

 No NMR shielding tensors so no spin-rotation constants.
 Leave Link  601 at Wed Jan 20 01:39:18 2021, MaxMem=  134217728 cpu:       0.1
 (Enter /share/apps/gaussian/G09C01Z/srwang-mod-2020/g09/l9999.exe)
 1\1\GINC-XN01\Stability\UHF\def2SVP\C2H4\SRWANG\20-Jan-2021\0\\#p nosy
 mm int=nobasistransform UHF/def2svp guess=mix stable=opt 5D 7F\\HF fil
 e generated by AutoMR of MOKIT\\0,1\C,0,0.732363,-0.000012,-0.00002\H,
 0,1.301788,-0.654778,0.654835\H,0,1.301802,0.654848,-0.654762\C,0,-0.7
 32363,-0.000012,0.00002\H,0,-1.301788,-0.654778,-0.654836\H,0,-1.30180
 2,0.654848,0.654762\\Version=EM64L-G09RevC.01\HF=-77.914524\S2=1.03428
 4\S2-1=0.\S2A=0.276176\RMSD=4.700e-09\Dipole=0.,0.0000628,0.\Quadrupol
 e=0.3565208,-0.1782417,-0.1782792,-0.0000006,0.0001279,0.0000005\PG=C0
 1 [X(C2H4)]\\@


 GOD DOES NOT PLAY WITH DICE.
               -- A. EINSTEIN
 Job cpu time:  0 days  0 hours  0 minutes  1.3 seconds.
 File lengths (MBytes):  RWF=     13 Int=      0 D2E=      0 Chk=      8 Scr=      1
 Normal termination of Gaussian 09 at Wed Jan 20 01:39:18 2021.
