HF file generated by AutoMR of MOKIT
Stability RHF                                                         def2SVP
Number of atoms                            I                6
Info1-9                                    I   N=           9
          16          15           0           0           0         110
           7           1           2
Charge                                     I                0
Multiplicity                               I                1
Number of electrons                        I               16
Number of alpha electrons                  I                8
Number of beta electrons                   I                8
Number of basis functions                  I               48
Number of independent functions            I               48
Number of point charges in /Mol/           I                0
Number of translation vectors              I                0
Atomic numbers                             I   N=           6
           6           1           1           6           1           1
Nuclear charges                            R   N=           6
  6.00000000E+00  1.00000000E+00  1.00000000E+00  6.00000000E+00  1.00000000E+00
  1.00000000E+00
Current cartesian coordinates              R   N=          18
  1.38396550E+00 -2.26767136E-05 -3.77945227E-05  2.46002280E+00 -1.23735110E+00
  1.23745881E+00  2.46004926E+00  1.23748338E+00 -1.23732086E+00 -1.38396550E+00
 -2.26767136E-05  3.77945227E-05 -2.46002280E+00 -1.23735110E+00 -1.23746070E+00
 -2.46004926E+00  1.23748338E+00  1.23732086E+00
Force Field                                I                0
Int Atom Types                             I   N=           6
           0           0           0           0           0           0
MM charges                                 R   N=           6
  0.00000000E+00  0.00000000E+00  0.00000000E+00  0.00000000E+00  0.00000000E+00
  0.00000000E+00
Integer atomic weights                     I   N=           6
          12           1           1          12           1           1
Real atomic weights                        R   N=           6
  1.20000000E+01  1.00782504E+00  1.00782504E+00  1.20000000E+01  1.00782504E+00
  1.00782504E+00
Atom fragment info                         I   N=           6
           0           0           0           0           0           0
Atom residue num                           I   N=           6
           0           0           0           0           0           0
Nuclear spins                              I   N=           6
           0           1           1           0           1           1
Nuclear ZEff                               R   N=           6
 -3.60000000E+00 -1.00000000E+00 -1.00000000E+00 -3.60000000E+00 -1.00000000E+00
 -1.00000000E+00
Nuclear QMom                               R   N=           6
  0.00000000E+00  0.00000000E+00  0.00000000E+00  0.00000000E+00  0.00000000E+00
  0.00000000E+00
Nuclear GFac                               R   N=           6
  0.00000000E+00  2.79284600E+00  2.79284600E+00  0.00000000E+00  2.79284600E+00
  2.79284600E+00
MicOpt                                     I   N=           6
          -1          -1          -1          -1          -1          -1
Number of contracted shells                I               24
Number of primitive shells                 I               44
Pure/Cartesian d shells                    I                0
Pure/Cartesian f shells                    I                0
Highest angular momentum                   I                2
Largest degree of contraction              I                5
Shell types                                I   N=          24
           0           0           0           1           1          -2
           0           0           1           0           0           1
           0           0           0           1           1          -2
           0           0           1           0           0           1
Number of primitives per shell             I   N=          24
           5           1           1           3           1           1
           3           1           1           3           1           1
           5           1           1           3           1           1
           3           1           1           3           1           1
Shell to atom map                          I   N=          24
           1           1           1           1           1           1
           2           2           2           3           3           3
           4           4           4           4           4           4
           5           5           5           6           6           6
Primitive exponents                        R   N=          44
  1.23840169E+03  1.86290050E+02  4.22511763E+01  1.16765579E+01  3.59305065E+00
  4.02451474E-01  1.30901827E-01  9.46809706E+00  2.01035451E+00  5.47710047E-01
  1.52686138E-01  8.00000000E-01  1.30107010E+01  1.96225720E+00  4.44537960E-01
  1.21949620E-01  8.00000000E-01  1.30107010E+01  1.96225720E+00  4.44537960E-01
  1.21949620E-01  8.00000000E-01  1.23840169E+03  1.86290050E+02  4.22511763E+01
  1.16765579E+01  3.59305065E+00  4.02451474E-01  1.30901827E-01  9.46809706E+00
  2.01035451E+00  5.47710047E-01  1.52686138E-01  8.00000000E-01  1.30107010E+01
  1.96225720E+00  4.44537960E-01  1.21949620E-01  8.00000000E-01  1.30107010E+01
  1.96225720E+00  4.44537960E-01  1.21949620E-01  8.00000000E-01
Contraction coefficients                   R   N=          44
  5.51736505E-03  4.10888286E-02  1.82253821E-01  4.68284594E-01  4.45758173E-01
  1.00000000E+00  1.00000000E+00  5.68883320E-02  3.12940593E-01  7.60650165E-01
  1.00000000E+00  1.00000000E+00  3.34854848E-02  2.34721871E-01  8.13770285E-01
  1.00000000E+00  1.00000000E+00  3.34854848E-02  2.34721871E-01  8.13770285E-01
  1.00000000E+00  1.00000000E+00  5.51736505E-03  4.10888286E-02  1.82253821E-01
  4.68284594E-01  4.45758173E-01  1.00000000E+00  1.00000000E+00  5.68883320E-02
  3.12940593E-01  7.60650165E-01  1.00000000E+00  1.00000000E+00  3.34854848E-02
  2.34721871E-01  8.13770285E-01  1.00000000E+00  1.00000000E+00  3.34854848E-02
  2.34721871E-01  8.13770285E-01  1.00000000E+00  1.00000000E+00
Coordinates of each shell                  R   N=          72
  1.38396550E+00 -2.26767136E-05 -3.77945227E-05  1.38396550E+00 -2.26767136E-05
 -3.77945227E-05  1.38396550E+00 -2.26767136E-05 -3.77945227E-05  1.38396550E+00
 -2.26767136E-05 -3.77945227E-05  1.38396550E+00 -2.26767136E-05 -3.77945227E-05
  1.38396550E+00 -2.26767136E-05 -3.77945227E-05  2.46002280E+00 -1.23735110E+00
  1.23745881E+00  2.46002280E+00 -1.23735110E+00  1.23745881E+00  2.46002280E+00
 -1.23735110E+00  1.23745881E+00  2.46004926E+00  1.23748338E+00 -1.23732086E+00
  2.46004926E+00  1.23748338E+00 -1.23732086E+00  2.46004926E+00  1.23748338E+00
 -1.23732086E+00 -1.38396550E+00 -2.26767136E-05  3.77945227E-05 -1.38396550E+00
 -2.26767136E-05  3.77945227E-05 -1.38396550E+00 -2.26767136E-05  3.77945227E-05
 -1.38396550E+00 -2.26767136E-05  3.77945227E-05 -1.38396550E+00 -2.26767136E-05
  3.77945227E-05 -1.38396550E+00 -2.26767136E-05  3.77945227E-05 -2.46002280E+00
 -1.23735110E+00 -1.23746070E+00 -2.46002280E+00 -1.23735110E+00 -1.23746070E+00
 -2.46002280E+00 -1.23735110E+00 -1.23746070E+00 -2.46004926E+00  1.23748338E+00
  1.23732086E+00 -2.46004926E+00  1.23748338E+00  1.23732086E+00 -2.46004926E+00
  1.23748338E+00  1.23732086E+00
Constraint Structure                       R   N=          18
  1.38396550E+00 -2.26767136E-05 -3.77945227E-05  2.46002280E+00 -1.23735110E+00
  1.23745881E+00  2.46004926E+00  1.23748338E+00 -1.23732086E+00 -1.38396550E+00
 -2.26767136E-05  3.77945227E-05 -2.46002280E+00 -1.23735110E+00 -1.23746070E+00
 -2.46004926E+00  1.23748338E+00  1.23732086E+00
Num ILSW                                   I              100
ILSW                                       I   N=         100
           0           0           0           0           2           1
           0           0           0           0           0          -1
           0           0           0           0           0           0
           0           0           0           0           0           0
           1           1           0           0           0           0
           0           0      100000           0          -1           0
           0           0           0           0           0           0
           0           0           0           1           0           0
           0           0           1           0           0           0
           0           0           4          40           0           0
           0           0           0           0           0           0
           0           0           0           0           0           0
           0           0           0           0           0           0
           0           0           0           0           0           0
           0           0           0           0           0           0
           0           0           0           0           0           0
           0           0           0           0
Num RLSW                                   I               40
RLSW                                       R   N=          40
  1.00000000E+00  1.00000000E+00  1.00000000E+00  1.00000000E+00  1.00000000E+00
  0.00000000E+00  0.00000000E+00  1.00000000E+00  0.00000000E+00  0.00000000E+00
  0.00000000E+00  0.00000000E+00  1.00000000E+00  0.00000000E+00  0.00000000E+00
  0.00000000E+00  0.00000000E+00  1.00000000E+00  0.00000000E+00  0.00000000E+00
  0.00000000E+00  0.00000000E+00  1.00000000E+00  0.00000000E+00  0.00000000E+00
  0.00000000E+00  0.00000000E+00  1.00000000E+00  0.00000000E+00  0.00000000E+00
  0.00000000E+00  0.00000000E+00  1.00000000E+00  0.00000000E+00  0.00000000E+00
  0.00000000E+00  0.00000000E+00  0.00000000E+00  1.00000000E+00  1.00000000E+00
ECP-MxAtEC                                 I           250000
ECP-MaxLECP                                I               10
ECP-MaxAtL                                 I          2250000
ECP-MxTECP                                 I         11250000
ECP-LenNCZ                                 I                0
ECP-KFirst                                 I   N=          60
           0           0           0           0           0           0
           0           0           0           0           0           0
           0           0           0           0           0           0
           0           0           0           0           0           0
           0           0           0           0           0           0
           0           0           0           0           0           0
           0           0           0           0           0           0
           0           0           0           0           0           0
           0           0           0           0           0           0
           0           0           0           0           0           0
ECP-KLast                                  I   N=          60
           0           0           0           0           0           0
           0           0           0           0           0           0
           0           0           0           0           0           0
           0           0           0           0           0           0
           0           0           0           0           0           0
           0           0           0           0           0           0
           0           0           0           0           0           0
           0           0           0           0           0           0
           0           0           0           0           0           0
           0           0           0           0           0           0
ECP-LMax                                   I   N=           6
           0           0           0           0           0           0
ECP-LPSkip                                 I   N=           6
           1           1           1           1           1           1
ECP-RNFroz                                 R   N=           6
  0.00000000E+00  0.00000000E+00  0.00000000E+00  0.00000000E+00  0.00000000E+00
  0.00000000E+00
ECP-NLP                                    I                0
ECP-CLP1                                   R      0.000000000000000E+00
ECP-CLP2                                   R      0.000000000000000E+00
ECP-ZLP                                    R      0.000000000000000E+00
MxBond                                     I                3
NBond                                      I   N=           6
           3           1           1           3           1           1
IBond                                      I   N=          18
           2           3           4           1           0           0
           1           0           0           1           5           6
           4           0           0           4           0           0
RBond                                      R   N=          18
  1.00000000E+00  1.00000000E+00  1.00000000E+00  1.00000000E+00  0.00000000E+00
  0.00000000E+00  1.00000000E+00  0.00000000E+00  0.00000000E+00  1.00000000E+00
  1.00000000E+00  1.00000000E+00  1.00000000E+00  0.00000000E+00  0.00000000E+00
  1.00000000E+00  0.00000000E+00  0.00000000E+00
Virial Ratio                               R      2.005223171566842E+00
SCF Energy                                 R     -7.791452399003296E+01
Total Energy                               R     -7.791452399003296E+01
S**2                                       R      1.034283752909358E+00
S**2 after annihilation                    R      2.761764311757678E-01
RMS Density                                R      4.699708711937538E-09
External E-field                           R   N=          35
  0.00000000E+00  0.00000000E+00  0.00000000E+00  0.00000000E+00  0.00000000E+00
  0.00000000E+00  0.00000000E+00  0.00000000E+00  0.00000000E+00  0.00000000E+00
  0.00000000E+00  0.00000000E+00  0.00000000E+00  0.00000000E+00  0.00000000E+00
  0.00000000E+00  0.00000000E+00  0.00000000E+00  0.00000000E+00  0.00000000E+00
  0.00000000E+00  0.00000000E+00  0.00000000E+00  0.00000000E+00  0.00000000E+00
  0.00000000E+00  0.00000000E+00  0.00000000E+00  0.00000000E+00  0.00000000E+00
  0.00000000E+00  0.00000000E+00  0.00000000E+00  0.00000000E+00  0.00000000E+00
IOpCl                                      I                0
IROHF                                      I                0
Alpha Orbital Energies                     R   N=          48
  1.99999865E+00  1.99999788E+00  1.98849180E+00  1.98728803E+00  1.98728784E+00
  1.98728300E+00  1.98165182E+00  1.00004095E+00  9.99959051E-01  1.83481836E-02
  1.27170012E-02  1.27121598E-02  1.27119689E-02  1.15081970E-02  2.12325548E-06
  1.35375762E-06  1.13140601E-15  1.08784483E-15  5.73156619E-16  5.10996073E-16
  4.13447894E-16  3.84567171E-16  2.92779379E-16  2.72025491E-16  2.24309509E-16
  1.45032057E-16  8.53152053E-17  5.87347594E-17  3.94467032E-17  3.17661389E-17
  2.25160614E-17  1.10980268E-17  7.37821987E-18 -9.03210493E-20 -8.45787223E-18
 -1.44657552E-17 -2.36980812E-17 -4.54132337E-17 -8.18316627E-17 -9.81785146E-17
 -1.20605843E-16 -1.28780373E-16 -1.74208787E-16 -1.88586638E-16 -3.47684974E-16
 -6.25767303E-16 -9.37907575E-16 -1.00847466E-15
Alpha MO coefficients                      R   N=        2304
 -7.04278823E-01 -1.67964459E-02  1.54615891E-02 -2.96249317E-03 -2.81672079E-08
  2.96851333E-08  5.26876475E-04  4.88808716E-08  4.97407936E-07 -2.45771202E-04
 -6.62164261E-08  8.10697520E-04  4.25718563E-04 -7.19970648E-08  3.75259980E-03
 -3.86507112E-03 -3.65558320E-04  6.77862980E-04 -6.78000192E-04  3.75268962E-03
 -3.86475734E-03 -3.65610647E-04 -6.78006968E-04  6.77837891E-04 -7.04278600E-01
 -1.67964387E-02  1.54615772E-02  2.96249498E-03 -2.68637326E-08 -2.76274686E-08
 -5.26875074E-04  5.10135839E-08 -4.97250966E-07 -2.45772335E-04 -6.63153927E-08
 -8.10697360E-04  4.25719287E-04  7.25341418E-08  3.75259260E-03 -3.86506617E-03
  3.65558694E-04  6.77863208E-04  6.78001601E-04  3.75268861E-03 -3.86475618E-03
  3.65610431E-04 -6.78006594E-04 -6.77837372E-04 -7.02727096E-01 -2.16936887E-02
  2.23021203E-02  2.62351258E-03 -1.16611320E-08 -5.83534766E-08 -1.46034015E-03
  4.17653031E-07  1.61422004E-07  6.11005114E-04  4.37666519E-09  9.19495740E-04
 -1.05824112E-03 -1.11543951E-07  4.47715926E-03 -2.79307308E-03 -7.55474118E-04
  8.71759855E-04 -8.71917062E-04  4.47722643E-03 -2.79339359E-03 -7.55435260E-04
 -8.71951657E-04  8.71754975E-04  7.02727317E-01  2.16936930E-02 -2.23021193E-02
  2.62350890E-03  9.26108260E-09 -6.03805717E-08 -1.46034228E-03 -4.20023309E-07
  1.61089877E-07 -6.11004237E-04 -4.42434089E-09  9.19495997E-04  1.05824101E-03
 -1.12171084E-07 -4.47715111E-03  2.79307019E-03 -7.55474720E-04 -8.71759840E-04
 -8.71918522E-04 -4.47722774E-03  2.79339432E-03 -7.55435446E-04  8.71951721E-04
  8.71754896E-04 -4.47762683E-02  7.71024672E-02  4.74261494E-02  3.46646229E-01
  1.17450344E-04 -6.56460877E-05  1.44084944E-01  4.72642132E-05 -2.97866513E-05
  6.23947737E-03 -4.43955840E-06 -7.73015358E-03 -1.08076367E-02  1.48718466E-06
  1.94677807E-01  5.90155507E-02 -2.53862770E-03  1.08590252E-02 -1.08595416E-02
  1.94868646E-01  5.90780165E-02 -2.54708485E-03 -1.08650105E-02  1.08640599E-02
 -4.47736640E-02  7.70969546E-02  4.74236791E-02 -3.46643595E-01  1.20365094E-04
  6.97161556E-05 -1.44084144E-01  4.85821491E-05  3.14226584E-05  6.23942702E-03
 -4.48242751E-06  7.73001091E-03 -1.08075378E-02 -1.73770125E-06  1.94670584E-01
  5.90135838E-02  2.53834060E-03  1.08586907E-02  1.08592407E-02  1.94868882E-01
  5.90785980E-02  2.54710400E-03 -1.08649001E-02 -1.08639323E-02  1.07967386E-03
 -2.28537322E-03 -1.05951753E-03 -1.21318765E-03  2.63037521E-01 -1.86609320E-01
 -4.01852983E-04  1.09297147E-01 -8.69624721E-02 -2.79556333E-05 -1.46159115E-02
  6.21232205E-05  4.35898166E-05  3.02077813E-03 -2.38508835E-01 -8.32350917E-02
  9.73468745E-03 -5.78782149E-03  7.05208967E-03  2.35526582E-01  8.25971088E-02
 -9.62648306E-03 -5.60670736E-03  6.86741574E-03 -1.03544366E-03  2.20633101E-03
  1.01771514E-03 -9.14396523E-04  2.44048587E-01  1.58727728E-01 -2.72694653E-04
  1.00367401E-01  7.54343556E-02  1.89015104E-05 -1.43713709E-02  5.46252018E-05
 -3.70926831E-05 -1.42685960E-03 -2.10992181E-01 -7.40087279E-02 -8.61926789E-03
 -4.88152390E-03 -6.29253298E-03  2.13630503E-01  7.45372897E-02  8.72373090E-03
 -5.04675747E-03 -6.45456059E-03 -1.34237863E-02  2.85076935E-02  1.31835898E-02
  1.34936487E-02 -1.57876426E-01  2.42875789E-01  4.27777116E-03 -7.50414409E-02
  9.98779707E-02  2.97870431E-04  1.41072838E-03 -7.40841611E-04 -5.11672253E-04
 -1.43083161E-02  2.29076664E-01  7.76007576E-02 -9.30273890E-03  7.44115404E-03
 -6.03842590E-03 -1.93411906E-01 -7.01998910E-02  7.95299674E-03  5.24375430E-03
 -3.83787287E-03  1.34267566E-02 -2.85128633E-02 -1.31866547E-02  1.35167135E-02
  1.85982033E-01  2.62016445E-01  4.28766758E-03  8.66622919E-02  1.08879027E-01
 -2.98511725E-04 -3.01737098E-03 -7.41394466E-04  5.12249772E-04 -1.45548212E-02
 -2.53994054E-01 -8.63172537E-02 -1.03200517E-02 -8.03269600E-03 -6.77826482E-03
  2.18303429E-01  7.89081259E-02  8.97003958E-03 -5.83405152E-03 -4.57607248E-03
  1.44300044E-01 -3.06438782E-01 -1.41722871E-01 -1.45120960E-01 -1.66292067E-02
  2.39574688E-02 -4.59963145E-02 -7.78763164E-03  9.92708948E-03 -3.17917200E-03
  2.38210287E-04  7.96274800E-03  5.50738139E-03 -1.35451161E-03 -1.70301886E-01
 -3.23092117E-02  6.37961447E-03 -1.11856632E-02  1.13080548E-02 -2.13094188E-01
 -4.72801930E-02  8.12767964E-03  1.24508623E-02 -1.23277379E-02 -1.44300649E-01
  3.06439772E-01  1.41723670E-01 -1.45127575E-01  1.55277506E-02  2.32073040E-02
 -4.59991071E-02  7.33217104E-03  9.57427214E-03  3.17931270E-03 -1.75245500E-04
  7.96289306E-03 -5.50759513E-03 -1.34485632E-03  1.71281329E-01  3.26517701E-02
  6.41950309E-03  1.12089921E-02  1.13372105E-02  2.12121661E-01  4.69398353E-02
  8.08785174E-03 -1.24278882E-02 -1.22989681E-02 -1.75457826E-01  3.75901830E-01
  1.12439402E-01 -2.20638694E-01  9.05342648E-06  4.77628416E-06 -7.83341064E-02
  5.07360805E-06  5.70764583E-07 -9.69579898E-03 -1.27150048E-06  1.62992635E-04
  1.67937728E-02 -2.42366630E-07  5.69331390E-02 -2.74306718E-03 -7.77243439E-03
  5.65942029E-03 -5.65983994E-03  5.69388418E-02 -2.74086027E-03 -7.77264414E-03
 -5.65991872E-03  5.65927349E-03 -1.75458029E-01  3.75902287E-01  1.12439605E-01
  2.20638495E-01  8.82408615E-06 -5.12933336E-06  7.83340219E-02  4.93940744E-06
 -7.28995881E-07 -9.69579602E-03 -1.26721705E-06 -1.62978411E-04  1.67937674E-02
  2.63336172E-07  5.69336729E-02 -2.74291978E-03  7.77244376E-03  5.65943607E-03
  5.65986122E-03  5.69388048E-02 -2.74090604E-03  7.77264247E-03 -5.65992403E-03
 -5.65928196E-03 -1.41285022E-05  3.29250588E-05  3.44176803E-05  5.80411228E-06
 -3.31633252E-01 -2.96061839E-01  6.64937950E-06 -2.78321365E-01 -2.33213186E-01
  5.86182346E-07  1.52554586E-02  1.26876589E-06  1.06551573E-07 -1.37789576E-02
  8.83798196E-02  7.47638224E-02  1.76104534E-04 -7.44279863E-03 -8.06761660E-03
 -8.83967711E-02 -7.47740662E-02 -1.74677775E-04 -7.44163250E-03 -8.06834405E-03
  1.41509802E-05 -3.29813655E-05 -3.44975180E-05  5.92859921E-06  3.31633364E-01
 -2.96061744E-01  6.73982761E-06  2.78321446E-01 -2.33213080E-01 -5.95667808E-07
 -1.52554614E-02  1.27458958E-06 -1.01953815E-07 -1.37789483E-02 -8.83798534E-02
 -7.47639037E-02  1.76109273E-04  7.44279115E-03 -8.06761100E-03  8.83967795E-02
  7.47740434E-02 -1.74673764E-04  7.44163278E-03 -8.06834457E-03  9.95476042E-06
 -2.48755000E-05 -2.60804314E-05 -1.61915233E-05  2.96057264E-01  3.31643520E-01
 -1.07167037E-05  2.33206248E-01  2.78329398E-01  8.51765728E-08  1.37787910E-02
 -1.21787100E-06  1.61669380E-06 -1.52548374E-02  8.83962441E-02  7.47718355E-02
  1.74558200E-04  8.06810917E-03  7.44145456E-03 -8.83805018E-02 -7.47635795E-02
 -1.76011220E-04  8.06736286E-03  7.44329353E-03  1.00149346E-05 -2.50086737E-05
 -2.62278705E-05  1.62844984E-05  2.96057422E-01 -3.31643406E-01  1.07884015E-05
  2.33206354E-01 -2.78329301E-01  8.90153013E-08  1.37787933E-02  1.22145144E-06
  1.61786803E-06  1.52548297E-02  8.83963408E-02  7.47719460E-02 -1.74554485E-04
  8.06811212E-03 -7.44143517E-03 -8.83804474E-02 -7.47635276E-02  1.76015662E-04
  8.06736619E-03 -7.44329341E-03  2.08282134E-01 -6.83682918E-01 -1.03672544E+00
  4.53112238E-01 -1.57540115E-05 -9.74490510E-06  4.87921604E-01 -2.39861388E-05
 -4.34681165E-05 -3.22423108E-02  4.93533481E-06 -1.25186765E-01  5.58406915E-02
 -4.73154263E-07  2.10639562E-01  1.41489443E-01 -4.25327526E-03  2.78205106E-03
 -2.78662173E-03  2.10640833E-01  1.41474774E-01 -4.25253015E-03 -2.78708630E-03
  2.78233068E-03 -2.08282322E-01  6.83683542E-01  1.03672593E+00  4.53111781E-01
  1.54610097E-05 -1.04532322E-05  4.87921389E-01  2.37460656E-05 -4.39593165E-05
  3.22422801E-02 -4.97696358E-06 -1.25186914E-01 -5.58408295E-02 -4.13919380E-07
 -2.10640600E-01 -1.41490189E-01 -4.25326301E-03 -2.78205026E-03 -2.78663911E-03
 -2.10640929E-01 -1.41474697E-01 -4.25254319E-03  2.78710100E-03  2.78233146E-03
  1.33638026E-01 -4.59127649E-01 -5.87298667E-01 -3.48909844E-01 -2.30864753E-02
  5.07819965E-02 -2.59785291E-01 -3.21782806E-02  3.84094979E-02 -4.13554195E-02
 -3.50603036E-03 -1.44718625E-01  7.16186802E-02  2.57884990E-03  4.25545375E-01
  2.71946741E-01  7.65662842E-03 -1.86636415E-03  1.63546275E-03  5.09756666E-01
  3.49086368E-01  1.14944121E-02  3.83525628E-03 -4.06683311E-03  1.33638624E-01
 -4.59128612E-01 -5.87304216E-01  3.48921926E-01 -2.07386108E-02 -4.97594420E-02
  2.59792774E-01 -3.04176152E-02 -3.69499624E-02 -4.13553750E-02 -3.38984892E-03
  1.44719457E-01  7.16189082E-02 -2.41770862E-03  4.27473365E-01  2.73711046E-01
 -7.74423073E-03 -1.92191937E-03 -1.68042821E-03  5.07843585E-01  3.47332547E-01
 -1.14069790E-02  3.77990989E-03  4.02201433E-03 -1.24328763E-02  4.27089421E-02
  5.46584392E-02  3.24504042E-02 -2.04394376E-01  5.25091558E-01  2.41668016E-02
 -3.12063246E-01  3.84984158E-01  3.83918596E-03 -3.54773298E-02  1.34639650E-02
 -6.66647261E-03  2.45723517E-02 -4.59217922E-01 -4.09658958E-01 -1.98383719E-02
  9.86256715E-03 -1.23966599E-02  3.72200903E-01  3.51868435E-01  1.80557913E-02
  9.32405965E-03 -1.18739122E-02 -1.24358660E-02  4.27157411E-02  5.46823796E-02
 -3.24924076E-02 -2.64306843E-01 -5.51181340E-01 -2.41915673E-02 -3.56997660E-01
 -4.22227806E-01  3.83859896E-03 -3.84418997E-02 -1.34678592E-02 -6.66788667E-03
 -2.86871018E-02 -5.08255696E-01 -4.54568005E-01  2.20723874E-02  1.12783931E-02
  1.35431835E-02  4.21182755E-01  3.96739233E-01 -2.02892788E-02  1.07382315E-02
  1.30206580E-02  1.00148157E-03 -3.41931800E-03 -4.47311751E-03 -2.82894846E-03
  5.53416932E-01 -2.65073189E-01 -2.05818429E-03  4.23831721E-01 -3.58265301E-01
 -2.97054857E-04  2.87848573E-02 -1.08924017E-03  5.36486568E-04 -3.85907086E-02
  4.70044653E-01  4.29623184E-01  2.13306137E-02 -1.33614988E-02  1.10647123E-02
 -4.62817150E-01 -4.24821303E-01 -2.11872350E-02 -1.33064338E-02  1.10269915E-02
  9.57438470E-04 -3.31005759E-03 -4.13895725E-03  2.28635854E-03 -5.27533892E-01
 -2.05638340E-01  1.75090014E-03 -3.86884090E-01 -3.13688596E-01 -3.08221666E-04
 -2.47027485E-02  1.03235923E-03  5.13753978E-04 -3.56495563E-02 -4.14568459E-01
 -3.80537119E-01  1.89741848E-02  1.21814978E-02  9.61972373E-03  4.21053484E-01
  3.84841650E-01 -1.91116741E-02  1.22109678E-02  9.66475121E-03  4.41011531E-02
 -8.84253143E-02 -4.05229975E-01 -6.39734178E-01 -2.59323317E-04  8.73695811E-05
 -3.99431888E-01 -2.04700119E-04  1.20855157E-04 -7.97538077E-03 -4.70132595E-06
 -5.94809591E-02  1.38091633E-02  2.70638541E-05  4.31715595E-01  3.10339606E-01
  5.79500767E-03 -6.03724711E-03  6.02912140E-03  4.32095784E-01  3.10682938E-01
  5.81385514E-03  6.04127985E-03 -6.04792123E-03 -4.40987619E-02  8.84169930E-02
  4.05219026E-01 -6.39727909E-01  2.63252594E-04  9.61109965E-05 -3.99427018E-01
  2.10471137E-04  1.27445104E-04  7.97454825E-03  5.33575960E-06 -5.94781981E-02
 -1.38078120E-02  2.75774821E-05 -4.31699610E-01 -3.10327121E-01  5.79447807E-03
  6.03700448E-03  6.02880781E-03 -4.32094650E-01 -3.10684071E-01  5.81401118E-03
 -6.04138074E-03 -6.04810266E-03 -1.46754372E-01  1.19485775E+00 -2.14554206E+00
 -6.78878432E-02 -4.31902933E-06  1.97195338E-06 -3.04972758E-01 -2.41860325E-05
 -5.47110294E-05  1.38628383E-01 -4.91247396E-06  3.62699508E-01 -2.40093161E-01
 -4.53418436E-06  1.98996586E-01  7.25584449E-01  5.88089550E-02 -8.08761687E-02
  8.08746524E-02  1.98994792E-01  7.25571533E-01  5.88136442E-02  8.08786995E-02
 -8.08739081E-02 -1.46754396E-01  1.19485786E+00 -2.14554290E+00  6.78876715E-02
 -4.36507468E-06 -1.87568966E-06  3.04971885E-01 -2.45570004E-05  5.46685853E-05
  1.38628210E-01 -5.00239252E-06 -3.62699651E-01 -2.40093415E-01  4.64787480E-06
  1.98996587E-01  7.25583818E-01 -5.88088041E-02 -8.08760379E-02 -8.08746089E-02
  1.98994798E-01  7.25571757E-01 -5.88136956E-02  8.08787173E-02  8.08739620E-02
 -1.33207402E-01  1.29917621E+00 -5.31313614E+00  2.63602542E-01  1.23187923E-05
  7.17747376E-06  1.12656628E+00 -4.37485889E-05 -1.04570258E-04  7.53407793E-02
 -1.08687779E-05  3.42901262E-01 -1.30477380E-01 -1.67449656E-05  1.65524499E-01
  7.90506192E-01  8.29110820E-02 -1.23927846E-01  1.23933020E-01  1.65503591E-01
  7.90488772E-01  8.29092980E-02  1.23937215E-01 -1.23923538E-01  1.33207349E-01
 -1.29917553E+00  5.31313443E+00  2.63602368E-01 -1.25281299E-05  7.11775244E-06
  1.12656677E+00  4.42390310E-05 -1.04511614E-04 -7.53405531E-02  1.10321266E-05
  3.42901192E-01  1.30477511E-01 -1.68326064E-05 -1.65524684E-01 -7.90504914E-01
  8.29108493E-02  1.23927523E-01  1.23932842E-01 -1.65503539E-01 -7.90488632E-01
  8.29093017E-02 -1.23937171E-01 -1.23923537E-01  4.49052966E-02 -2.22824602E-01
  1.39274187E-01  9.11947802E-02 -2.38041835E-02  1.92164132E-02 -8.43402920E-02
  1.22975680E-01 -1.00450953E-01 -3.12181667E-02 -9.12322485E-02  1.54452745E-01
  2.37871821E-02 -4.99902151E-02 -2.52353125E-01  3.60749737E-01  1.24748129E-01
 -1.49671977E-01  9.12410647E-02 -4.15841952E-01  3.63421418E-01  1.34566511E-01
  1.21218151E-01 -1.68749133E-01  8.34810879E-02 -4.24278716E-01  1.28190419E-01
 -1.43818948E-01 -6.83155939E-02  5.54236322E-02  1.14385993E-01 -2.16356513E-02
 -2.66690763E-02 -7.93151850E-02  1.05381555E-01 -2.70560265E-01 -1.23253048E-01
  5.06935625E-02 -2.53162947E-01  3.22642709E-01 -2.44033049E-02 -8.76438412E-02
 -3.52352310E-02 -2.02312518E-01  3.78405605E-01 -3.18888551E-02  2.57073315E-01
  3.12128737E-02  6.22408022E-02 -3.26659683E-01 -4.62818679E-01  1.06727466E-01
 -2.02296258E-02 -2.87190010E-02 -4.54160170E-01 -1.72984878E-01  1.04622399E-01
  2.38622793E-01  2.03250995E-01  8.22738633E-02 -2.94007888E-01 -2.01552657E-02
 -1.52837070E-01  4.67338538E-01 -1.97949662E-01  1.71109828E-01  6.04315226E-02
  1.55313228E-02  6.99582448E-01 -2.82599452E-01  1.48806721E-02  1.22818086E-01
 -2.68217794E-02  1.68715287E-01 -1.46567368E+00  4.87189793E-02  7.84235275E-02
 -2.98899685E-02  3.83812678E-01 -3.47809091E-02  1.00374723E-01  2.36281749E-01
 -8.96176732E-02  1.21592728E-01  1.75804418E-02 -1.92248790E-02 -1.02351087E-01
  8.44764221E-01  2.25576623E-01  2.02644900E-01 -4.32605434E-02 -1.24459417E-01
  7.31947437E-01  2.24244377E-01 -1.90946584E-01 -5.81320252E-02  1.05185249E-02
 -2.26014262E-02 -1.29356206E+00 -2.85986170E-01  2.41589018E-01 -1.68335098E-01
 -3.94807965E-01 -3.04815510E-02 -7.25909253E-02 -1.44661254E-01  1.10316798E-02
  1.00030931E-01 -8.66284766E-02  1.71271449E-01  1.77486366E-01  8.71813505E-01
 -1.91302494E-01  1.87977287E-01 -5.34609073E-01  1.91574838E-01  4.17383867E-01
  1.90956110E-02 -2.95664116E-01  3.04804306E-01  6.05843492E-02 -3.26341672E-01
 -6.52601191E-01  3.54574481E-01  3.03943448E-01  4.43939397E-02  2.05337079E-02