HF file generated by AutoMR of MOKIT
Stability RHF                                                         def2SVP
Number of atoms                            I                6
Info1-9                                    I   N=           9
          16          15           0           0           0         110
           7           1           2
Charge                                     I                0
Multiplicity                               I                1
Number of electrons                        I               16
Number of alpha electrons                  I                8
Number of beta electrons                   I                8
Number of basis functions                  I               48
Number of independent functions            I               48
Number of point charges in /Mol/           I                0
Number of translation vectors              I                0
Atomic numbers                             I   N=           6
           6           1           1           6           1           1
Nuclear charges                            R   N=           6
  6.00000000E+00  1.00000000E+00  1.00000000E+00  6.00000000E+00  1.00000000E+00
  1.00000000E+00
Current cartesian coordinates              R   N=          18
  1.38396550E+00 -2.26767136E-05 -3.77945227E-05  2.46002280E+00 -1.23735110E+00
  1.23745881E+00  2.46004926E+00  1.23748338E+00 -1.23732086E+00 -1.38396550E+00
 -2.26767136E-05  3.77945227E-05 -2.46002280E+00 -1.23735110E+00 -1.23746070E+00
 -2.46004926E+00  1.23748338E+00  1.23732086E+00
Force Field                                I                0
Int Atom Types                             I   N=           6
           0           0           0           0           0           0
MM charges                                 R   N=           6
  0.00000000E+00  0.00000000E+00  0.00000000E+00  0.00000000E+00  0.00000000E+00
  0.00000000E+00
Integer atomic weights                     I   N=           6
          12           1           1          12           1           1
Real atomic weights                        R   N=           6
  1.20000000E+01  1.00782504E+00  1.00782504E+00  1.20000000E+01  1.00782504E+00
  1.00782504E+00
Atom fragment info                         I   N=           6
           0           0           0           0           0           0
Atom residue num                           I   N=           6
           0           0           0           0           0           0
Nuclear spins                              I   N=           6
           0           1           1           0           1           1
Nuclear ZEff                               R   N=           6
 -3.60000000E+00 -1.00000000E+00 -1.00000000E+00 -3.60000000E+00 -1.00000000E+00
 -1.00000000E+00
Nuclear QMom                               R   N=           6
  0.00000000E+00  0.00000000E+00  0.00000000E+00  0.00000000E+00  0.00000000E+00
  0.00000000E+00
Nuclear GFac                               R   N=           6
  0.00000000E+00  2.79284600E+00  2.79284600E+00  0.00000000E+00  2.79284600E+00
  2.79284600E+00
MicOpt                                     I   N=           6
          -1          -1          -1          -1          -1          -1
Number of contracted shells                I               24
Number of primitive shells                 I               44
Pure/Cartesian d shells                    I                0
Pure/Cartesian f shells                    I                0
Highest angular momentum                   I                2
Largest degree of contraction              I                5
Shell types                                I   N=          24
           0           0           0           1           1          -2
           0           0           1           0           0           1
           0           0           0           1           1          -2
           0           0           1           0           0           1
Number of primitives per shell             I   N=          24
           5           1           1           3           1           1
           3           1           1           3           1           1
           5           1           1           3           1           1
           3           1           1           3           1           1
Shell to atom map                          I   N=          24
           1           1           1           1           1           1
           2           2           2           3           3           3
           4           4           4           4           4           4
           5           5           5           6           6           6
Primitive exponents                        R   N=          44
  1.23840169E+03  1.86290050E+02  4.22511763E+01  1.16765579E+01  3.59305065E+00
  4.02451474E-01  1.30901827E-01  9.46809706E+00  2.01035451E+00  5.47710047E-01
  1.52686138E-01  8.00000000E-01  1.30107010E+01  1.96225720E+00  4.44537960E-01
  1.21949620E-01  8.00000000E-01  1.30107010E+01  1.96225720E+00  4.44537960E-01
  1.21949620E-01  8.00000000E-01  1.23840169E+03  1.86290050E+02  4.22511763E+01
  1.16765579E+01  3.59305065E+00  4.02451474E-01  1.30901827E-01  9.46809706E+00
  2.01035451E+00  5.47710047E-01  1.52686138E-01  8.00000000E-01  1.30107010E+01
  1.96225720E+00  4.44537960E-01  1.21949620E-01  8.00000000E-01  1.30107010E+01
  1.96225720E+00  4.44537960E-01  1.21949620E-01  8.00000000E-01
Contraction coefficients                   R   N=          44
  5.51736505E-03  4.10888286E-02  1.82253821E-01  4.68284594E-01  4.45758173E-01
  1.00000000E+00  1.00000000E+00  5.68883320E-02  3.12940593E-01  7.60650165E-01
  1.00000000E+00  1.00000000E+00  3.34854848E-02  2.34721871E-01  8.13770285E-01
  1.00000000E+00  1.00000000E+00  3.34854848E-02  2.34721871E-01  8.13770285E-01
  1.00000000E+00  1.00000000E+00  5.51736505E-03  4.10888286E-02  1.82253821E-01
  4.68284594E-01  4.45758173E-01  1.00000000E+00  1.00000000E+00  5.68883320E-02
  3.12940593E-01  7.60650165E-01  1.00000000E+00  1.00000000E+00  3.34854848E-02
  2.34721871E-01  8.13770285E-01  1.00000000E+00  1.00000000E+00  3.34854848E-02
  2.34721871E-01  8.13770285E-01  1.00000000E+00  1.00000000E+00
Coordinates of each shell                  R   N=          72
  1.38396550E+00 -2.26767136E-05 -3.77945227E-05  1.38396550E+00 -2.26767136E-05
 -3.77945227E-05  1.38396550E+00 -2.26767136E-05 -3.77945227E-05  1.38396550E+00
 -2.26767136E-05 -3.77945227E-05  1.38396550E+00 -2.26767136E-05 -3.77945227E-05
  1.38396550E+00 -2.26767136E-05 -3.77945227E-05  2.46002280E+00 -1.23735110E+00
  1.23745881E+00  2.46002280E+00 -1.23735110E+00  1.23745881E+00  2.46002280E+00
 -1.23735110E+00  1.23745881E+00  2.46004926E+00  1.23748338E+00 -1.23732086E+00
  2.46004926E+00  1.23748338E+00 -1.23732086E+00  2.46004926E+00  1.23748338E+00
 -1.23732086E+00 -1.38396550E+00 -2.26767136E-05  3.77945227E-05 -1.38396550E+00
 -2.26767136E-05  3.77945227E-05 -1.38396550E+00 -2.26767136E-05  3.77945227E-05
 -1.38396550E+00 -2.26767136E-05  3.77945227E-05 -1.38396550E+00 -2.26767136E-05
  3.77945227E-05 -1.38396550E+00 -2.26767136E-05  3.77945227E-05 -2.46002280E+00
 -1.23735110E+00 -1.23746070E+00 -2.46002280E+00 -1.23735110E+00 -1.23746070E+00
 -2.46002280E+00 -1.23735110E+00 -1.23746070E+00 -2.46004926E+00  1.23748338E+00
  1.23732086E+00 -2.46004926E+00  1.23748338E+00  1.23732086E+00 -2.46004926E+00
  1.23748338E+00  1.23732086E+00
Constraint Structure                       R   N=          18
  1.38396550E+00 -2.26767136E-05 -3.77945227E-05  2.46002280E+00 -1.23735110E+00
  1.23745881E+00  2.46004926E+00  1.23748338E+00 -1.23732086E+00 -1.38396550E+00
 -2.26767136E-05  3.77945227E-05 -2.46002280E+00 -1.23735110E+00 -1.23746070E+00
 -2.46004926E+00  1.23748338E+00  1.23732086E+00
Num ILSW                                   I              100
ILSW                                       I   N=         100
           0           0           0           0           2           1
           0           0           0           0           0          -1
           0           0           0           0           0           0
           0           0           0           0           0           0
           1           1           0           0           0           0
           0           0      100000           0          -1           0
           0           0           0           0           0           0
           0           0           0           1           0           0
           0           0           1           0           0           0
           0           0           4          40           0           0
           0           0           0           0           0           0
           0           0           0           0           0           0
           0           0           0           0           0           0
           0           0           0           0           0           0
           0           0           0           0           0           0
           0           0           0           0           0           0
           0           0           0           0
Num RLSW                                   I               40
RLSW                                       R   N=          40
  1.00000000E+00  1.00000000E+00  1.00000000E+00  1.00000000E+00  1.00000000E+00
  0.00000000E+00  0.00000000E+00  1.00000000E+00  0.00000000E+00  0.00000000E+00
  0.00000000E+00  0.00000000E+00  1.00000000E+00  0.00000000E+00  0.00000000E+00
  0.00000000E+00  0.00000000E+00  1.00000000E+00  0.00000000E+00  0.00000000E+00
  0.00000000E+00  0.00000000E+00  1.00000000E+00  0.00000000E+00  0.00000000E+00
  0.00000000E+00  0.00000000E+00  1.00000000E+00  0.00000000E+00  0.00000000E+00
  0.00000000E+00  0.00000000E+00  1.00000000E+00  0.00000000E+00  0.00000000E+00
  0.00000000E+00  0.00000000E+00  0.00000000E+00  1.00000000E+00  1.00000000E+00
ECP-MxAtEC                                 I           250000
ECP-MaxLECP                                I               10
ECP-MaxAtL                                 I          2250000
ECP-MxTECP                                 I         11250000
ECP-LenNCZ                                 I                0
ECP-KFirst                                 I   N=          60
           0           0           0           0           0           0
           0           0           0           0           0           0
           0           0           0           0           0           0
           0           0           0           0           0           0
           0           0           0           0           0           0
           0           0           0           0           0           0
           0           0           0           0           0           0
           0           0           0           0           0           0
           0           0           0           0           0           0
           0           0           0           0           0           0
ECP-KLast                                  I   N=          60
           0           0           0           0           0           0
           0           0           0           0           0           0
           0           0           0           0           0           0
           0           0           0           0           0           0
           0           0           0           0           0           0
           0           0           0           0           0           0
           0           0           0           0           0           0
           0           0           0           0           0           0
           0           0           0           0           0           0
           0           0           0           0           0           0
ECP-LMax                                   I   N=           6
           0           0           0           0           0           0
ECP-LPSkip                                 I   N=           6
           1           1           1           1           1           1
ECP-RNFroz                                 R   N=           6
  0.00000000E+00  0.00000000E+00  0.00000000E+00  0.00000000E+00  0.00000000E+00
  0.00000000E+00
ECP-NLP                                    I                0
ECP-CLP1                                   R      0.000000000000000E+00
ECP-CLP2                                   R      0.000000000000000E+00
ECP-ZLP                                    R      0.000000000000000E+00
MxBond                                     I                3
NBond                                      I   N=           6
           3           1           1           3           1           1
IBond                                      I   N=          18
           2           3           4           1           0           0
           1           0           0           1           5           6
           4           0           0           4           0           0
RBond                                      R   N=          18
  1.00000000E+00  1.00000000E+00  1.00000000E+00  1.00000000E+00  0.00000000E+00
  0.00000000E+00  1.00000000E+00  0.00000000E+00  0.00000000E+00  1.00000000E+00
  1.00000000E+00  1.00000000E+00  1.00000000E+00  0.00000000E+00  0.00000000E+00
  1.00000000E+00  0.00000000E+00  0.00000000E+00
Virial Ratio                               R      2.005223171566842E+00
SCF Energy                                 R     -7.791452399003296E+01
Total Energy                               R     -7.791452399003296E+01
S**2                                       R      1.034283752909358E+00
S**2 after annihilation                    R      2.761764311757678E-01
RMS Density                                R      4.699708711937538E-09
External E-field                           R   N=          35
  0.00000000E+00  0.00000000E+00  0.00000000E+00  0.00000000E+00  0.00000000E+00
  0.00000000E+00  0.00000000E+00  0.00000000E+00  0.00000000E+00  0.00000000E+00
  0.00000000E+00  0.00000000E+00  0.00000000E+00  0.00000000E+00  0.00000000E+00
  0.00000000E+00  0.00000000E+00  0.00000000E+00  0.00000000E+00  0.00000000E+00
  0.00000000E+00  0.00000000E+00  0.00000000E+00  0.00000000E+00  0.00000000E+00
  0.00000000E+00  0.00000000E+00  0.00000000E+00  0.00000000E+00  0.00000000E+00
  0.00000000E+00  0.00000000E+00  0.00000000E+00  0.00000000E+00  0.00000000E+00
IOpCl                                      I                0
IROHF                                      I                0
Alpha Orbital Energies                     R   N=          48
  0.00000000E+00  0.00000000E+00  0.00000000E+00  0.00000000E+00  0.00000000E+00
  0.00000000E+00  0.00000000E+00  0.00000000E+00  0.00000000E+00  0.00000000E+00
  0.00000000E+00  0.00000000E+00  0.00000000E+00  0.00000000E+00  0.00000000E+00
  0.00000000E+00  0.00000000E+00  0.00000000E+00  0.00000000E+00  0.00000000E+00
  0.00000000E+00  0.00000000E+00  0.00000000E+00  0.00000000E+00  0.00000000E+00
  0.00000000E+00  0.00000000E+00  0.00000000E+00  0.00000000E+00  0.00000000E+00
  0.00000000E+00  0.00000000E+00  0.00000000E+00  0.00000000E+00  0.00000000E+00
  0.00000000E+00  0.00000000E+00  0.00000000E+00  0.00000000E+00  0.00000000E+00
  0.00000000E+00  0.00000000E+00  0.00000000E+00  0.00000000E+00  0.00000000E+00
  0.00000000E+00  0.00000000E+00  0.00000000E+00
Alpha MO coefficients                      R   N=        2304
  7.00776816E-01  2.37828680E-02 -1.30159376E-02  1.18449537E-03  1.62695791E-07
  1.68911472E-07 -9.66377644E-04  2.02619547E-08 -4.26513645E-07  1.11493977E-04
  5.74444127E-08 -8.33939383E-04 -1.93142562E-04  6.82070442E-08 -1.56397322E-03
  4.10997030E-03  1.95743669E-04 -4.92210236E-04  4.92331556E-04 -1.56412647E-03
  4.10961380E-03  1.95793819E-04  4.92339284E-04 -4.92192942E-04  7.00837925E-01
  2.37851394E-02 -1.30176382E-02 -1.18444295E-03  1.63510699E-07 -1.69793709E-07
  9.66211064E-04  1.89370355E-08  4.26645515E-07  1.11446092E-04  5.75324714E-08
  8.34027466E-04 -1.93058195E-04 -6.88002627E-08 -1.56411988E-03  4.11025561E-03
 -1.95800040E-04 -4.92269769E-04 -4.92391983E-04 -1.56427412E-03  4.10990292E-03
 -1.95849246E-04  4.92397867E-04  4.92251323E-04 -7.00568787E-01 -2.61224333E-02
  1.98545335E-02  5.99268087E-04 -1.77752506E-07 -2.06405490E-07 -2.04951280E-03
  3.59416913E-07  9.86487304E-08  5.59289630E-04  3.35106482E-09  1.00838150E-03
 -9.68660749E-04 -1.24918077E-07  1.67779823E-03 -3.31115245E-03 -6.33898576E-04
  6.79084288E-04 -6.79223068E-04  1.67778429E-03 -3.31151245E-03 -6.33852890E-04
 -6.79254640E-04  6.79082381E-04  7.00507656E-01  2.61203538E-02 -1.98533907E-02
  5.99372720E-04  1.78934598E-07 -2.06575587E-07 -2.04959850E-03 -3.60843059E-07
  9.85309962E-08 -5.59298471E-04 -3.47977744E-09  1.00830808E-03  9.68677836E-04
 -1.25556054E-07 -1.67766015E-03  3.31078929E-03 -6.33882334E-04 -6.79041583E-04
 -6.79181569E-04 -1.67764875E-03  3.31115387E-03 -6.33835730E-04  6.79211453E-04
  6.79039196E-04 -1.93987320E-01  3.81122892E-01  1.26798758E-01 -9.24033540E-02
  7.79122673E-06  1.02029991E-05 -2.43895241E-02  4.49425153E-06  3.92971127E-06
 -7.83217892E-03 -3.52011996E-07 -3.86040322E-03  1.35656650E-02 -1.77154131E-07
  1.16058142E-01  1.41207688E-02 -8.46667551E-03  9.14818328E-03 -9.14887858E-03
  1.16055811E-01  1.41185399E-02 -8.46678929E-03 -9.14887054E-03  9.14782125E-03
 -1.93987250E-01  3.81122791E-01  1.26798792E-01  9.24034235E-02  7.85917236E-06
 -1.01958283E-05  2.43895488E-02  4.48727839E-06 -3.95469339E-06 -7.83217901E-03
 -3.53244178E-07  3.86040356E-03  1.35656716E-02  1.70899659E-07  1.16057948E-01
  1.41207396E-02  8.46665643E-03  9.14816455E-03  9.14887204E-03  1.16055774E-01
  1.41185450E-02  8.46678797E-03 -9.14886249E-03 -9.14781729E-03 -1.56663936E-01
  3.11710253E-01  1.55075408E-01  1.43049043E-01  1.06376997E-05  1.15654894E-05
  4.23036731E-02  4.81130767E-06  5.03864937E-06  3.16963849E-03  2.94874469E-07
 -9.09014293E-03 -5.49054627E-03  1.11360060E-06  1.90479765E-01  3.71998695E-02
 -7.64462003E-03  1.21318927E-02 -1.21329029E-02  1.90482920E-01  3.72016335E-02
 -7.64504479E-03 -1.21330479E-02  1.21316506E-02  1.56664013E-01 -3.11710456E-01
 -1.55075541E-01  1.43048830E-01 -1.08355157E-05  1.14853394E-05  4.23036470E-02
 -4.84736892E-06  5.05467540E-06 -3.16963977E-03 -2.84955930E-07 -9.09014263E-03
  5.49053325E-03  1.12203253E-06 -1.90479513E-01 -3.71998382E-02 -7.64460630E-03
 -1.21318722E-02 -1.21328998E-02 -1.90483038E-01 -3.72016650E-02 -7.64505494E-03
  1.21330472E-02  1.21316530E-02  5.56369580E-06 -1.90739056E-05  5.77038563E-06
  1.49324812E-04  2.47073784E-01 -1.85252468E-01  5.80629449E-05  1.00218355E-01
 -9.19989828E-02  1.34541080E-06 -1.54783955E-02 -2.43629323E-06 -7.78498637E-06
  3.00682539E-03 -2.28801596E-01 -8.03879504E-02  9.59540284E-03 -5.89029999E-03
  6.74201608E-03  2.28924575E-01  8.04268460E-02 -9.59594315E-03 -5.89832914E-03
  6.74682366E-03  5.68717416E-06 -1.93474404E-05  5.59606376E-06 -1.49292858E-04
  2.43421545E-01  1.80353113E-01 -5.80550257E-05  9.84001473E-02  9.00151283E-02
  1.38707705E-06 -1.54214162E-02  2.43155056E-06 -7.77326304E-06 -2.69814801E-03
 -2.24274682E-01 -7.87975544E-02 -9.40559739E-03 -5.75674139E-03 -6.62559661E-03
  2.24397430E-01  7.88362664E-02  9.40612957E-03 -5.76473281E-03 -6.63041538E-03
  2.16930690E-06 -4.46801688E-06 -9.61992489E-07  3.22292263E-06 -1.80360508E-01
  2.43415596E-01  3.47692067E-06 -9.00204448E-02  9.83967873E-02  2.73297783E-06
  2.69800318E-03 -1.08131209E-07  5.62613346E-07 -1.54220403E-02  2.24338374E-01
  7.88172860E-02 -9.40579655E-03  6.62742408E-03 -5.76160441E-03 -2.24336273E-01
 -7.88189319E-02  9.40593766E-03  6.62866478E-03 -5.75970912E-03 -1.98686797E-06
  3.84521740E-06  1.01337099E-06 -1.51505035E-06  1.85259933E-01  2.47067618E-01
  1.66788077E-06  9.20044217E-02  1.00214951E-01 -2.67595504E-06 -3.00664966E-03
 -2.69082169E-08 -7.94829100E-07 -1.54790084E-02 -2.28863425E-01 -8.04071892E-02
 -9.59559511E-03 -6.74373194E-03 -5.89511701E-03  2.28865152E-01  8.04100253E-02
  9.59574811E-03 -6.74520712E-03 -5.89337497E-03 -1.57301182E-02  5.19846730E-02
 -8.24880621E-03 -4.00018773E-01  8.62543086E-05 -7.29422882E-05 -1.61507924E-01
  3.68257122E-05 -3.87386033E-05 -9.78265534E-03 -8.18516488E-06  7.59525186E-03
  1.69446909E-02 -1.35096957E-08 -1.64864672E-01 -5.67913845E-02 -1.75868028E-05
 -8.56777664E-03  8.56895633E-03 -1.64694205E-01 -5.67282492E-02 -2.40958303E-05
  8.56460038E-03 -8.56309032E-03 -1.57300575E-02  5.19845278E-02 -8.24896533E-03
  4.00018823E-01  8.69500585E-05  7.40385247E-05  1.61507967E-01  3.72184781E-05
  3.92191499E-05 -9.78266462E-03 -8.19182174E-06 -7.59525761E-03  1.69446941E-02
 -3.88942697E-08 -1.64865649E-01 -5.67917830E-02  1.75445007E-05 -8.56780241E-03
 -8.56898842E-03 -1.64693349E-01 -5.67279316E-02  2.41329796E-05  8.56457254E-03
  8.56307051E-03 -1.63657124E-05  3.72813043E-05  6.10177485E-05  3.96604945E-06
 -3.24065951E-01 -2.87450615E-01  3.15046252E-06 -3.03059034E-01 -2.37417485E-01
  8.03736852E-07  1.54706613E-02  2.40713528E-06 -4.17315684E-07 -1.45656001E-02
  7.35924956E-02  6.05480507E-02 -1.19508266E-04 -8.47888612E-03 -9.56376977E-03
 -7.36155779E-02 -6.05733611E-02  1.20811364E-04 -8.47808016E-03 -9.56440567E-03
  1.63956712E-05 -3.73491719E-05 -6.11506566E-05  4.09750379E-06  3.24066035E-01
 -2.87450530E-01  3.25363331E-06  3.03059130E-01 -2.37417381E-01 -8.17480053E-07
 -1.54706679E-02  2.41582130E-06  4.21114422E-07 -1.45655916E-02 -7.35924536E-02
 -6.05481137E-02 -1.19504610E-04  8.47887999E-03 -9.56376523E-03  7.36155760E-02
  6.05733695E-02  1.20815619E-04  8.47808360E-03 -9.56440578E-03 -1.07269535E-05
  2.51412828E-05  3.89062027E-05  1.82163813E-05 -2.87444334E-01 -3.24077787E-01
  1.42009547E-05 -2.37408688E-01 -3.03070076E-01  2.87292787E-07 -1.45655229E-02
  2.48138205E-06 -2.17546363E-06  1.54698604E-02 -7.36149469E-02 -6.05680350E-02
  1.21033321E-04 -9.56417913E-03 -8.47795790E-03  7.35930861E-02  6.05479135E-02
 -1.19744745E-04 -9.56365182E-03 -8.47943005E-03 -1.07883121E-05  2.52737369E-05
  3.90965450E-05 -1.82901768E-05 -2.87444466E-01  3.24077691E-01 -1.42578839E-05
 -2.37408776E-01  3.03069980E-01  2.87988931E-07 -1.45655208E-02 -2.48775155E-06
 -2.17565903E-06 -1.54698535E-02 -7.36150466E-02 -6.05681106E-02 -1.21037702E-04
 -9.56418374E-03  8.47793667E-03  7.35930531E-02  6.05478309E-02  1.19739763E-04
 -9.56365494E-03  8.47942891E-03 -7.89889817E-02  1.41158372E-01  1.63543163E+00
  1.26394507E-01  1.40402703E-05  4.91987312E-06  5.60035760E-01  4.91437381E-05
  5.43254392E-05 -2.58228782E-03  9.33257532E-07 -8.53855021E-03  4.47257537E-03
 -3.96391808E-09  2.11117563E-02 -1.19021966E+00  3.76999490E-03 -4.00969271E-03
  4.00920053E-03  2.11136760E-02 -1.19027499E+00  3.76965215E-03  4.00915411E-03
 -4.00972041E-03 -7.89898809E-02  1.41159401E-01  1.63545020E+00 -1.26395036E-01
  1.38762925E-05 -5.11828863E-06 -5.60037661E-01  4.88687233E-05 -5.48195024E-05
 -2.58226026E-03  9.19203149E-07  8.53853318E-03  4.47254800E-03  1.95733608E-09
  2.11113744E-02 -1.19023039E+00 -3.77000929E-03 -4.00970334E-03 -4.00920943E-03
  2.11133279E-02 -1.19028501E+00 -3.76967744E-03  4.00915986E-03  4.00973955E-03
 -9.42529089E-02  1.05115271E-01  2.08299480E+00  5.34457417E-02  7.82170800E-06
  1.94327246E-05  2.22907265E-01  5.37878971E-05  7.36469006E-05  2.15590932E-03
 -6.97468021E-07  1.60050070E-03 -3.73438398E-03  1.23695252E-06 -3.08048878E-02
 -1.16283944E+00  1.26627000E-03 -2.03155978E-03  2.03198716E-03 -3.07991999E-02
 -1.16278646E+00  1.26703662E-03  2.03199712E-03 -2.03111810E-03  9.42521903E-02
 -1.05113969E-01 -2.08297867E+00  5.34446508E-02 -7.78890842E-06  1.96176292E-05
  2.22901784E-01 -5.39362582E-05  7.42151130E-05 -2.15593642E-03  6.89508409E-07
  1.60059390E-03  3.73443154E-03  1.24542949E-06  3.08052254E-02  1.16282772E+00
  1.26623795E-03  2.03150960E-03  2.03194654E-03  3.07994940E-02  1.16277495E+00
  1.26700870E-03 -2.03195393E-03 -2.03106484E-03 -3.10797208E-06  8.25561868E-06
  3.03239336E-05 -8.59319335E-08 -1.56056712E-01  1.42849951E-01  1.44439458E-05
 -5.78024416E-01  9.41711252E-01  1.31433889E-07  1.00948240E-02 -1.04011473E-06
  1.12196506E-06  1.53976681E-03  1.57586595E-02 -1.34239894E+00  7.92546188E-03
 -5.67082029E-03  4.17342929E-03 -1.57503150E-02  1.34233149E+00 -7.92414330E-03
 -5.67000073E-03  4.17318829E-03 -3.06804598E-06  8.17048880E-06  2.88078070E-05
  6.40255001E-08 -1.56694400E-01 -1.43546346E-01 -1.39759832E-05 -5.82223426E-01
 -9.44294694E-01  1.43683728E-07  1.00880556E-02  1.01940864E-06  1.13746814E-06
 -1.49483395E-03  1.58288520E-02 -1.34838847E+00 -7.96083028E-03 -5.68944170E-03
 -4.19871914E-03 -1.58206786E-02  1.34832300E+00  7.95950256E-03 -5.68865547E-03
 -4.19848189E-03 -4.65557872E-06  9.78500675E-06  4.80162095E-05 -2.83273424E-06
  1.43549317E-01 -1.56691120E-01  3.06359415E-05  9.44318019E-01 -5.82211406E-01
 -2.04305451E-06  1.49454157E-03 -4.14196391E-07 -1.48791609E-06  1.00884323E-02
 -1.58230409E-02  1.34831446E+00 -7.96077934E-03  4.19750368E-03 -5.68927746E-03
  1.58288371E-02 -1.34841298E+00  7.96007297E-03  4.19992145E-03 -5.68874054E-03
  4.72965449E-06 -1.00395956E-05 -5.00161776E-05 -2.75369440E-06 -1.42852916E-01
 -1.56053550E-01  3.12402068E-05 -9.41734373E-01 -5.78012410E-01  2.04850473E-06
 -1.53948158E-03 -4.43580021E-07  1.48642804E-06  1.00951777E-02  1.57525441E-02
 -1.34232143E+00 -7.92539503E-03 -4.17219103E-03 -5.67062183E-03 -1.57586481E-02
  1.34242289E+00  7.92469926E-03 -4.17463496E-03 -5.67010922E-03  8.12226798E-02
 -1.48348658E-01 -3.12908848E+00  2.10026272E-01  1.00887962E-06 -8.66282020E-07
  2.72072922E+00  1.78733067E-05 -6.23887452E-05 -1.00691900E-02 -2.51744212E-06
  1.22524463E-02  1.74407733E-02  2.07603516E-06 -7.54807400E-02 -3.09689401E-01
  1.20740201E-02  2.66923651E-03 -2.66892478E-03 -7.54486603E-02 -3.09784705E-01
  1.20781083E-02 -2.66926080E-03  2.66946545E-03 -8.12226912E-02  1.48348772E-01
  3.12908897E+00  2.10026333E-01 -1.05315281E-06 -8.13610021E-07  2.72072903E+00
 -1.80585349E-05 -6.24157993E-05  1.00691909E-02  2.52006427E-06  1.22524663E-02
 -1.74407570E-02  2.08797675E-06  7.54809769E-02  3.09688449E-01  1.20740212E-02
 -2.66924167E-03 -2.66892259E-03  7.54487262E-02  3.09784735E-01  1.20781096E-02
  2.66926491E-03  2.66947972E-03  1.01927386E-01 -8.38265431E-01  8.20512254E-01
  4.16473510E-01 -1.08269954E-05  5.51568911E-06 -6.46460432E-01  2.89548212E-05
 -4.69054333E-05  3.52000302E-02  3.85798052E-06  7.14126664E-03 -6.09676304E-02
 -4.48901648E-06  5.42901514E-02 -2.44804805E-01 -3.84769948E-02 -2.26846762E-03
  2.26843051E-03  5.42195321E-02 -2.44758443E-01 -3.84807050E-02  2.26836251E-03
 -2.26853031E-03  1.01927372E-01 -8.38265300E-01  8.20512117E-01 -4.16473505E-01
 -1.07941787E-05 -5.64400113E-06  6.46460549E-01  2.90659505E-05  4.70129493E-05
  3.52000333E-02  3.87483914E-06 -7.14124801E-03 -6.09676382E-02  4.51102765E-06
  5.42902894E-02 -2.44804850E-01  3.84769905E-02 -2.26848589E-03 -2.26846076E-03
  5.42194870E-02 -2.44758422E-01  3.84807044E-02  2.26836307E-03  2.26852199E-03
  5.37153325E-02 -5.78641852E-01  1.88170332E+00 -8.01092014E-02 -1.98709456E-05
  6.32695557E-06  8.11915510E-01  1.25007178E-04 -5.84482637E-05 -3.77070377E-03
  2.54004795E-06  6.14933873E-02  6.53527353E-03 -2.02982259E-05 -5.30905632E-01
 -4.97205979E-01  1.31771305E-02  1.99404740E-02 -1.99392152E-02 -5.31085409E-01
 -4.97200689E-01  1.31637429E-02 -1.99392845E-02  1.99391321E-02  5.37152303E-02
 -5.78641665E-01  1.88170396E+00  8.01093756E-02 -1.99266780E-05 -6.44890486E-06
 -8.11913630E-01  1.25847624E-04  5.86819625E-05 -3.77072840E-03  2.46747956E-06
 -6.14934865E-02  6.53522673E-03  2.02848634E-05 -5.30906687E-01 -4.97203244E-01
 -1.31771236E-02  1.99404611E-02  1.99391928E-02 -5.31085640E-01 -4.97200650E-01
 -1.31637416E-02 -1.99392787E-02 -1.99391615E-02 -3.65094265E-02  6.84242425E-01
 -3.17242142E+00  2.82242042E-01 -2.30192608E-05  7.57663668E-06  2.35812777E-01
  5.72069543E-05 -1.19586522E-04 -9.56069870E-03  1.10639537E-05 -7.00492216E-02
  1.65575807E-02 -2.01401201E-06  4.91497250E-01  3.03217165E-01 -1.32580066E-02
 -5.14809071E-03  5.14075517E-03  4.91374501E-01  3.03213299E-01 -1.32624238E-02
  5.14283909E-03 -5.15054745E-03  3.65093998E-02 -6.84242042E-01  3.17241850E+00
  2.82241923E-01  2.26849017E-05  7.70640900E-06  2.35814146E-01 -5.57387942E-05
 -1.18165169E-04  9.56065683E-03 -1.10410526E-05 -7.00491629E-02 -1.65576154E-02
 -1.85458411E-06 -4.91496115E-01 -3.03215027E-01 -1.32581353E-02  5.14799813E-03
  5.14069809E-03 -4.91374787E-01 -3.03213035E-01 -1.32623298E-02 -5.14281899E-03
 -5.15050178E-03 -2.34070066E-05  1.56059366E-04 -2.93906050E-04  3.22349466E-05
 -4.73735046E-01 -4.46746256E-01 -8.86349780E-05  6.81728552E-01  1.41378299E-01
  7.44964203E-06  2.56804827E-03 -3.25796909E-06  3.53403754E-06 -2.06214875E-02
  2.52408105E-01  1.46372072E-01  3.84889102E-02 -1.95272099E-02 -3.05236463E-02
 -2.52377598E-01 -1.46184301E-01 -3.84861319E-02 -1.95304139E-02 -3.05319537E-02
 -2.35207668E-05  1.57196466E-04 -2.97991141E-04 -3.26140868E-05 -4.74732500E-01
  4.47803905E-01  8.75433082E-05  6.82044150E-01 -1.42899457E-01  7.44777208E-06
  2.52203427E-03  3.33359439E-06  3.55867821E-06  2.06158165E-02  2.51845986E-01
  1.46045535E-01 -3.84031803E-02 -1.95953237E-02  3.05671932E-02 -2.51814613E-01
 -1.45857749E-01  3.84003972E-02 -1.95985734E-02  3.05756045E-02 -2.88385753E-05
  1.71377794E-04 -3.72087092E-04  1.54109326E-05 -4.47822682E-01 -4.74755796E-01
  2.27944723E-05  1.43005385E-01  6.82018358E-01 -4.19217819E-06 -2.06035571E-02
  5.24145319E-06 -4.23809635E-06  2.52033555E-03 -2.51803059E-01 -1.45869128E-01
 -3.84018343E-02 -3.05702811E-02 -1.95991380E-02  2.51752992E-01  1.46022903E-01
  3.83960927E-02 -3.05687781E-02 -1.95945723E-02  2.89077639E-05 -1.71669583E-04
  3.73460881E-04  1.58099360E-05  4.46765242E-01 -4.73757910E-01  2.19656082E-05