HF file generated by AutoMR of MOKIT
Stability RHF                                                         def2SVP
Number of atoms                            I                6
Info1-9                                    I   N=           9
          16          15           0           0           0         110
           7           1           2
Charge                                     I                0
Multiplicity                               I                1
Number of electrons                        I               16
Number of alpha electrons                  I                8
Number of beta electrons                   I                8
Number of basis functions                  I               48
Number of independent functions            I               48
Number of point charges in /Mol/           I                0
Number of translation vectors              I                0
Atomic numbers                             I   N=           6
           6           1           1           6           1           1
Nuclear charges                            R   N=           6
  6.00000000E+00  1.00000000E+00  1.00000000E+00  6.00000000E+00  1.00000000E+00
  1.00000000E+00
Current cartesian coordinates              R   N=          18
  1.38396550E+00 -2.26767136E-05 -3.77945227E-05  2.46002280E+00 -1.23735110E+00
  1.23745881E+00  2.46004926E+00  1.23748338E+00 -1.23732086E+00 -1.38396550E+00
 -2.26767136E-05  3.77945227E-05 -2.46002280E+00 -1.23735110E+00 -1.23746070E+00
 -2.46004926E+00  1.23748338E+00  1.23732086E+00
Force Field                                I                0
Int Atom Types                             I   N=           6
           0           0           0           0           0           0
MM charges                                 R   N=           6
  0.00000000E+00  0.00000000E+00  0.00000000E+00  0.00000000E+00  0.00000000E+00
  0.00000000E+00
Integer atomic weights                     I   N=           6
          12           1           1          12           1           1
Real atomic weights                        R   N=           6
  1.20000000E+01  1.00782504E+00  1.00782504E+00  1.20000000E+01  1.00782504E+00
  1.00782504E+00
Atom fragment info                         I   N=           6
           0           0           0           0           0           0
Atom residue num                           I   N=           6
           0           0           0           0           0           0
Nuclear spins                              I   N=           6
           0           1           1           0           1           1
Nuclear ZEff                               R   N=           6
 -3.60000000E+00 -1.00000000E+00 -1.00000000E+00 -3.60000000E+00 -1.00000000E+00
 -1.00000000E+00
Nuclear QMom                               R   N=           6
  0.00000000E+00  0.00000000E+00  0.00000000E+00  0.00000000E+00  0.00000000E+00
  0.00000000E+00
Nuclear GFac                               R   N=           6
  0.00000000E+00  2.79284600E+00  2.79284600E+00  0.00000000E+00  2.79284600E+00
  2.79284600E+00
MicOpt                                     I   N=           6
          -1          -1          -1          -1          -1          -1
Number of contracted shells                I               24
Number of primitive shells                 I               44
Pure/Cartesian d shells                    I                0
Pure/Cartesian f shells                    I                0
Highest angular momentum                   I                2
Largest degree of contraction              I                5
Shell types                                I   N=          24
           0           0           0           1           1          -2
           0           0           1           0           0           1
           0           0           0           1           1          -2
           0           0           1           0           0           1
Number of primitives per shell             I   N=          24
           5           1           1           3           1           1
           3           1           1           3           1           1
           5           1           1           3           1           1
           3           1           1           3           1           1
Shell to atom map                          I   N=          24
           1           1           1           1           1           1
           2           2           2           3           3           3
           4           4           4           4           4           4
           5           5           5           6           6           6
Primitive exponents                        R   N=          44
  1.23840169E+03  1.86290050E+02  4.22511763E+01  1.16765579E+01  3.59305065E+00
  4.02451474E-01  1.30901827E-01  9.46809706E+00  2.01035451E+00  5.47710047E-01
  1.52686138E-01  8.00000000E-01  1.30107010E+01  1.96225720E+00  4.44537960E-01
  1.21949620E-01  8.00000000E-01  1.30107010E+01  1.96225720E+00  4.44537960E-01
  1.21949620E-01  8.00000000E-01  1.23840169E+03  1.86290050E+02  4.22511763E+01
  1.16765579E+01  3.59305065E+00  4.02451474E-01  1.30901827E-01  9.46809706E+00
  2.01035451E+00  5.47710047E-01  1.52686138E-01  8.00000000E-01  1.30107010E+01
  1.96225720E+00  4.44537960E-01  1.21949620E-01  8.00000000E-01  1.30107010E+01
  1.96225720E+00  4.44537960E-01  1.21949620E-01  8.00000000E-01
Contraction coefficients                   R   N=          44
  5.51736505E-03  4.10888286E-02  1.82253821E-01  4.68284594E-01  4.45758173E-01
  1.00000000E+00  1.00000000E+00  5.68883320E-02  3.12940593E-01  7.60650165E-01
  1.00000000E+00  1.00000000E+00  3.34854848E-02  2.34721871E-01  8.13770285E-01
  1.00000000E+00  1.00000000E+00  3.34854848E-02  2.34721871E-01  8.13770285E-01
  1.00000000E+00  1.00000000E+00  5.51736505E-03  4.10888286E-02  1.82253821E-01
  4.68284594E-01  4.45758173E-01  1.00000000E+00  1.00000000E+00  5.68883320E-02
  3.12940593E-01  7.60650165E-01  1.00000000E+00  1.00000000E+00  3.34854848E-02
  2.34721871E-01  8.13770285E-01  1.00000000E+00  1.00000000E+00  3.34854848E-02
  2.34721871E-01  8.13770285E-01  1.00000000E+00  1.00000000E+00
Coordinates of each shell                  R   N=          72
  1.38396550E+00 -2.26767136E-05 -3.77945227E-05  1.38396550E+00 -2.26767136E-05
 -3.77945227E-05  1.38396550E+00 -2.26767136E-05 -3.77945227E-05  1.38396550E+00
 -2.26767136E-05 -3.77945227E-05  1.38396550E+00 -2.26767136E-05 -3.77945227E-05
  1.38396550E+00 -2.26767136E-05 -3.77945227E-05  2.46002280E+00 -1.23735110E+00
  1.23745881E+00  2.46002280E+00 -1.23735110E+00  1.23745881E+00  2.46002280E+00
 -1.23735110E+00  1.23745881E+00  2.46004926E+00  1.23748338E+00 -1.23732086E+00
  2.46004926E+00  1.23748338E+00 -1.23732086E+00  2.46004926E+00  1.23748338E+00
 -1.23732086E+00 -1.38396550E+00 -2.26767136E-05  3.77945227E-05 -1.38396550E+00
 -2.26767136E-05  3.77945227E-05 -1.38396550E+00 -2.26767136E-05  3.77945227E-05
 -1.38396550E+00 -2.26767136E-05  3.77945227E-05 -1.38396550E+00 -2.26767136E-05
  3.77945227E-05 -1.38396550E+00 -2.26767136E-05  3.77945227E-05 -2.46002280E+00
 -1.23735110E+00 -1.23746070E+00 -2.46002280E+00 -1.23735110E+00 -1.23746070E+00
 -2.46002280E+00 -1.23735110E+00 -1.23746070E+00 -2.46004926E+00  1.23748338E+00
  1.23732086E+00 -2.46004926E+00  1.23748338E+00  1.23732086E+00 -2.46004926E+00
  1.23748338E+00  1.23732086E+00
Constraint Structure                       R   N=          18
  1.38396550E+00 -2.26767136E-05 -3.77945227E-05  2.46002280E+00 -1.23735110E+00
  1.23745881E+00  2.46004926E+00  1.23748338E+00 -1.23732086E+00 -1.38396550E+00
 -2.26767136E-05  3.77945227E-05 -2.46002280E+00 -1.23735110E+00 -1.23746070E+00
 -2.46004926E+00  1.23748338E+00  1.23732086E+00
Num ILSW                                   I              100
ILSW                                       I   N=         100
           0           0           0           0           2           1
           0           0           0           0           0          -1
           0           0           0           0           0           0
           0           0           0           0           0           0
           1           1           0           0           0           0
           0           0      100000           0          -1           0
           0           0           0           0           0           0
           0           0           0           1           0           0
           0           0           1           0           0           0
           0           0           4          40           0           0
           0           0           0           0           0           0
           0           0           0           0           0           0
           0           0           0           0           0           0
           0           0           0           0           0           0
           0           0           0           0           0           0
           0           0           0           0           0           0
           0           0           0           0
Num RLSW                                   I               40
RLSW                                       R   N=          40
  1.00000000E+00  1.00000000E+00  1.00000000E+00  1.00000000E+00  1.00000000E+00
  0.00000000E+00  0.00000000E+00  1.00000000E+00  0.00000000E+00  0.00000000E+00
  0.00000000E+00  0.00000000E+00  1.00000000E+00  0.00000000E+00  0.00000000E+00
  0.00000000E+00  0.00000000E+00  1.00000000E+00  0.00000000E+00  0.00000000E+00
  0.00000000E+00  0.00000000E+00  1.00000000E+00  0.00000000E+00  0.00000000E+00
  0.00000000E+00  0.00000000E+00  1.00000000E+00  0.00000000E+00  0.00000000E+00
  0.00000000E+00  0.00000000E+00  1.00000000E+00  0.00000000E+00  0.00000000E+00
  0.00000000E+00  0.00000000E+00  0.00000000E+00  1.00000000E+00  1.00000000E+00
ECP-MxAtEC                                 I           250000
ECP-MaxLECP                                I               10
ECP-MaxAtL                                 I          2250000
ECP-MxTECP                                 I         11250000
ECP-LenNCZ                                 I                0
ECP-KFirst                                 I   N=          60
           0           0           0           0           0           0
           0           0           0           0           0           0
           0           0           0           0           0           0
           0           0           0           0           0           0
           0           0           0           0           0           0
           0           0           0           0           0           0
           0           0           0           0           0           0
           0           0           0           0           0           0
           0           0           0           0           0           0
           0           0           0           0           0           0
ECP-KLast                                  I   N=          60
           0           0           0           0           0           0
           0           0           0           0           0           0
           0           0           0           0           0           0
           0           0           0           0           0           0
           0           0           0           0           0           0
           0           0           0           0           0           0
           0           0           0           0           0           0
           0           0           0           0           0           0
           0           0           0           0           0           0
           0           0           0           0           0           0
ECP-LMax                                   I   N=           6
           0           0           0           0           0           0
ECP-LPSkip                                 I   N=           6
           1           1           1           1           1           1
ECP-RNFroz                                 R   N=           6
  0.00000000E+00  0.00000000E+00  0.00000000E+00  0.00000000E+00  0.00000000E+00
  0.00000000E+00
ECP-NLP                                    I                0
ECP-CLP1                                   R      0.000000000000000E+00
ECP-CLP2                                   R      0.000000000000000E+00
ECP-ZLP                                    R      0.000000000000000E+00
MxBond                                     I                3
NBond                                      I   N=           6
           3           1           1           3           1           1
IBond                                      I   N=          18
           2           3           4           1           0           0
           1           0           0           1           5           6
           4           0           0           4           0           0
RBond                                      R   N=          18
  1.00000000E+00  1.00000000E+00  1.00000000E+00  1.00000000E+00  0.00000000E+00
  0.00000000E+00  1.00000000E+00  0.00000000E+00  0.00000000E+00  1.00000000E+00
  1.00000000E+00  1.00000000E+00  1.00000000E+00  0.00000000E+00  0.00000000E+00
  1.00000000E+00  0.00000000E+00  0.00000000E+00
Virial Ratio                               R      2.005223171566842E+00
SCF Energy                                 R     -7.791452399003296E+01
Total Energy                               R     -7.791452399003296E+01
S**2                                       R      1.034283752909358E+00
S**2 after annihilation                    R      2.761764311757678E-01
RMS Density                                R      4.699708711937538E-09
External E-field                           R   N=          35
  0.00000000E+00  0.00000000E+00  0.00000000E+00  0.00000000E+00  0.00000000E+00
  0.00000000E+00  0.00000000E+00  0.00000000E+00  0.00000000E+00  0.00000000E+00
  0.00000000E+00  0.00000000E+00  0.00000000E+00  0.00000000E+00  0.00000000E+00
  0.00000000E+00  0.00000000E+00  0.00000000E+00  0.00000000E+00  0.00000000E+00
  0.00000000E+00  0.00000000E+00  0.00000000E+00  0.00000000E+00  0.00000000E+00
  0.00000000E+00  0.00000000E+00  0.00000000E+00  0.00000000E+00  0.00000000E+00
  0.00000000E+00  0.00000000E+00  0.00000000E+00  0.00000000E+00  0.00000000E+00
IOpCl                                      I                0
IROHF                                      I                0
Alpha Orbital Energies                     R   N=          48
  2.00000000E+00  2.00000000E+00  1.98931276E+00  1.98541967E+00  1.98541959E+00
  1.98541943E+00  1.98541935E+00  1.00005238E+00  9.99947620E-01  1.45806483E-02
  1.45805686E-02  1.45804092E-02  1.45803294E-02  1.06872446E-02  0.00000000E+00
  0.00000000E+00  0.00000000E+00  0.00000000E+00  0.00000000E+00  0.00000000E+00
  0.00000000E+00  0.00000000E+00  0.00000000E+00  0.00000000E+00  0.00000000E+00
  0.00000000E+00  0.00000000E+00  0.00000000E+00  0.00000000E+00  0.00000000E+00
  0.00000000E+00  0.00000000E+00  0.00000000E+00  0.00000000E+00  0.00000000E+00
  0.00000000E+00  0.00000000E+00  0.00000000E+00  0.00000000E+00  0.00000000E+00
  0.00000000E+00  0.00000000E+00  0.00000000E+00  0.00000000E+00  0.00000000E+00
  0.00000000E+00  0.00000000E+00  0.00000000E+00
Alpha MO coefficients                      R   N=        2304
  7.04993098E-01  1.89074523E-02 -1.41007612E-02  1.93188689E-03  1.20331068E-07
 -1.05505757E-07 -7.48963257E-04 -4.00489630E-08 -5.30323723E-07  1.73720776E-04
  5.43959915E-08 -7.16779702E-04 -3.00920297E-04  6.18371228E-08 -2.87854491E-03
  3.80204536E-03  2.34334924E-04 -5.31134475E-04  5.31247691E-04 -2.87856638E-03
  3.80172888E-03  2.34380386E-04  5.31259667E-04 -5.31117123E-04  7.01177809E-01
  1.87838333E-02 -1.39891960E-02 -1.94216297E-03  1.45060999E-07 -4.93491482E-08
  7.57726773E-04 -6.52742144E-09  4.59397745E-07  1.76770587E-04  4.10785307E-08
  7.12067974E-04 -3.06192171E-04 -7.06607403E-08 -2.86086983E-03  3.78634200E-03
 -2.30853204E-04 -5.27285848E-04 -5.27409612E-04 -2.86094298E-03  3.78605845E-03
 -2.30900011E-04  5.27416232E-04  5.27266402E-04 -7.00077817E-01 -2.27288430E-02
  2.04562480E-02  1.87244571E-03 -3.56523870E-08 -2.22637398E-07 -1.61675323E-03
  3.41188708E-07  1.11676014E-07  5.59885080E-04 -2.79357851E-09  8.63187140E-04
 -9.69698236E-04 -8.52063241E-08  3.20727516E-03 -2.87667317E-03 -6.39140886E-04
  7.04746495E-04 -7.04882148E-04  3.20721235E-03 -2.87688368E-03 -6.39097652E-04
 -7.04916808E-04  7.04749592E-04  7.03899147E-01  2.28308946E-02 -2.05327250E-02
  1.86140174E-03 -3.50978443E-09 -2.61025384E-07 -1.61285096E-03 -4.21491385E-07
  1.17205660E-07 -5.58909898E-04 -8.97564689E-09  8.67063522E-04  9.68024601E-04
 -1.07074091E-07 -3.22257148E-03  2.89732374E-03 -6.40412762E-04 -7.07621480E-04
 -7.07764969E-04 -3.22289003E-03  2.89755172E-03 -6.40376947E-04  7.07797034E-04
  7.07621434E-04 -1.41422652E-01  3.06255652E-01  7.88958900E-02 -3.54731339E-01
 -1.03202423E-05  1.30315796E-05 -1.28198707E-01 -3.46694168E-06  3.18662104E-06
 -1.23565022E-02 -1.90899849E-06  2.79818167E-03  2.14025851E-02 -5.76228089E-07
 -3.63785796E-02 -2.92517218E-02 -5.84368288E-03  3.10981051E-04 -3.10877737E-04
 -3.63956470E-02 -2.92520619E-02 -5.84248829E-03 -3.09893406E-04  3.09864904E-04
 -1.41419556E-01  3.06251720E-01  7.88915847E-02  3.54732745E-01 -4.95796010E-06
 -5.73752680E-06  1.28199399E-01 -7.87659987E-07  1.00200198E-07 -1.23567900E-02
 -1.84682606E-06 -2.79836552E-03  2.14029462E-02  5.67268956E-07 -3.63847567E-02
 -2.92520236E-02  5.84326393E-03  3.10466084E-04  3.10487188E-04 -3.63930116E-02
 -2.92527176E-02  5.84243941E-03 -3.09978771E-04 -3.09994025E-04  1.40215566E-02
 -3.66674906E-02 -2.80674213E-02  3.45259928E-02  2.78302567E-02  2.78285773E-02
  2.53866045E-02  1.92295564E-03  1.92269873E-03 -9.57223050E-04 -6.15455811E-03
  5.14201178E-04  1.65797906E-03 -6.15594845E-03  3.69230446E-03  6.02849291E-03
  7.33592636E-04  5.16822861E-04  1.03813969E-04  3.69001642E-03  6.02160544E-03
  7.33377969E-04  1.03743641E-04  5.16753159E-04 -1.36390764E-01  2.79040541E-01
  1.12666540E-01 -1.80762486E-01  2.17741705E-01  2.17710513E-01 -6.43630502E-02
  8.98984638E-02  8.98831209E-02  2.31455421E-03 -1.01214162E-02  9.42829602E-03
 -4.01523776E-03 -1.01235722E-02 -3.22665891E-02 -3.45766904E-02 -2.60506899E-03
  6.03554464E-03  6.03489897E-03  4.25920901E-01  1.28386949E-01  1.38605128E-02
 -1.56212898E-02 -1.56186797E-02 -1.36389166E-01  2.79037133E-01  1.12665519E-01
  1.80757188E-01  2.17744522E-01 -2.17713753E-01  6.43565648E-02  8.98998394E-02
 -8.98853318E-02  2.31481008E-03 -1.01213086E-02 -9.42839341E-03 -4.01538006E-03
  1.01233162E-02 -3.22723570E-02 -3.45749097E-02  2.60536267E-03  6.03519558E-03
 -6.03465321E-03  4.25921525E-01  1.28389956E-01 -1.38607077E-02 -1.56211494E-02
  1.56183655E-02  1.40211777E-02 -3.66665067E-02 -2.80698812E-02 -3.45242861E-02
  2.78309158E-02 -2.78290077E-02 -2.53886172E-02  1.92355100E-03 -1.92287395E-03
 -9.57338872E-04 -6.15480970E-03 -5.14316450E-04  1.65819174E-03  6.15595679E-03
  3.69192507E-03  6.02763103E-03 -7.33514024E-04  5.16892285E-04 -1.03729731E-04
  3.68962484E-03  6.02132620E-03 -7.33366224E-04  1.03588909E-04 -5.17000818E-04
 -1.36387946E-01  2.79034880E-01  1.12664497E-01  1.80787649E-01 -2.17711731E-01
  2.17724843E-01  6.43795224E-02 -8.98852336E-02  8.98903353E-02  2.31952181E-03
  1.01230945E-02 -9.42848947E-03 -4.01332571E-03 -1.01217049E-02  4.25921739E-01
  1.28386915E-01 -1.38597128E-02  1.56192593E-02 -1.56213708E-02 -3.22507486E-02
 -3.45757860E-02  2.60451103E-03 -6.03588994E-03  6.03603086E-03  1.40243016E-02
 -3.66724038E-02 -2.80670548E-02 -3.45411190E-02 -2.78282848E-02  2.78296826E-02
 -2.53911083E-02 -1.92299035E-03  1.92114080E-03 -9.57070967E-04  6.15548834E-03
 -5.13841820E-04  1.65777918E-03 -6.15537105E-03  3.69565151E-03  6.02756764E-03
 -7.33771229E-04 -1.03559126E-04  5.17035384E-04  3.69534704E-03  6.03072022E-03
 -7.33744891E-04 -5.17046628E-04  1.03687583E-04  1.40221567E-02 -3.66677537E-02
 -2.80709868E-02  3.45345768E-02 -2.78279733E-02 -2.78315136E-02  2.53915202E-02
 -1.92190817E-03 -1.92277564E-03 -9.57510784E-04  6.15590573E-03  5.13976962E-04
  1.65843569E-03  6.15503175E-03  3.69375930E-03  6.02898654E-03  7.33894275E-04
 -1.03734952E-04 -5.16941716E-04  3.69438075E-03  6.02772420E-03  7.33600650E-04
 -5.17101414E-04 -1.03697840E-04 -1.36389020E-01  2.79036330E-01  1.12664869E-01
 -1.80776014E-01 -2.17711781E-01 -2.17731215E-01 -6.43716102E-02 -8.98859011E-02
 -8.98936382E-02  2.32007958E-03  1.01232769E-02  9.42876132E-03 -4.01328067E-03
  1.01216719E-02  4.25921418E-01  1.28389907E-01  1.38597172E-02  1.56192097E-02
  1.56210205E-02 -3.22566866E-02 -3.45740928E-02 -2.60462426E-03 -6.03551812E-03
 -6.03592041E-03 -1.61181344E-05  3.76125768E-05  5.03843300E-05  4.22381926E-06
 -3.22765239E-01 -2.87302967E-01  9.16120502E-06 -3.06678764E-01 -2.38380608E-01
  5.40775548E-07  1.51614161E-02  1.83405992E-06  2.73038588E-07 -1.42284018E-02
  6.92437166E-02  5.53857424E-02 -1.22934918E-04 -8.39912110E-03 -9.51779649E-03
 -6.92684569E-02 -5.54072766E-02  1.24549749E-04 -8.39807187E-03 -9.51821711E-03
  1.59149144E-05 -3.39698029E-05 -5.86881584E-05  7.31076463E-06  3.22765673E-01
 -2.87304108E-01  9.24131086E-06  3.06678178E-01 -2.38378555E-01 -1.15879396E-06
 -1.51616351E-02  3.19414505E-06  7.17109410E-07 -1.42275870E-02 -6.92470413E-02
 -5.53835706E-02 -1.23259361E-04  8.39875507E-03 -9.51783987E-03  6.92690774E-02
  5.54102752E-02  1.24371564E-04  8.39820191E-03 -9.51858267E-03 -1.04203771E-05
  2.38070500E-05  3.16028930E-05  2.30320771E-05 -2.87294723E-01 -3.22778484E-01
  2.33300915E-05 -2.38369394E-01 -3.06695003E-01  1.43015957E-07 -1.42277946E-02
  2.96887888E-06 -1.56476266E-06  1.51604509E-02 -6.92664396E-02 -5.54037066E-02
  1.24852191E-04 -9.51801930E-03 -8.39835610E-03  6.92464388E-02  5.53756939E-02
 -1.23287023E-04 -9.51829151E-03 -8.39926139E-03 -1.06352163E-05  2.19344851E-05
  5.36906232E-05 -2.10599230E-05 -2.87297231E-01  3.22780882E-01 -4.98252948E-06
 -2.38364837E-01  3.06694181E-01  1.23668579E-06 -1.42272282E-02 -2.16729665E-06
 -3.41688866E-06 -1.51599913E-02 -6.92662147E-02 -5.53926838E-02 -1.24672250E-04
 -9.51864799E-03  8.39769278E-03  6.92464666E-02  5.53765832E-02  1.23766966E-04
 -9.51760987E-03  8.39957645E-03 -4.91455598E-03  2.40757350E-03 -5.86367610E-02
 -2.05946325E-02 -3.74374203E-02 -3.74411553E-02  2.02978064E-02 -5.31285677E-02
 -5.31303019E-02 -2.18999945E-03 -3.58113250E-03  1.37472997E-03  3.79400085E-03
 -3.58021663E-03 -4.31001183E-03 -7.48843427E-03  1.33955616E-03 -1.87344364E-03
 -7.75805605E-04 -4.30803543E-03 -7.48254510E-03  1.33911451E-03 -7.75604258E-04
 -1.87319550E-03  1.84539139E-01 -7.85517331E-01  1.69783199E-01  4.23097911E-01
  5.07198901E-01  5.07265972E-01  6.07987056E-02  5.93740842E-02  5.93884424E-02
 -1.00375402E-02 -7.23099547E-02 -8.44425208E-02  1.73631915E-02 -7.22971616E-02
  9.80533001E-01  1.31466660E-01 -1.11338651E-02 -1.65239727E-02 -1.65332938E-02
  2.99468753E-02 -5.24771789E-02  7.97103103E-03 -6.89857075E-03 -6.89719406E-03
  1.84537109E-01 -7.85512130E-01  1.69805044E-01 -4.23127223E-01  5.07197488E-01
 -5.07254599E-01 -6.08000467E-02  5.93637895E-02 -5.93949101E-02 -1.00247121E-02
 -7.23148615E-02  8.44351205E-02  1.73524766E-02  7.23071931E-02  9.80534914E-01
  1.31458082E-01  1.11270364E-02 -1.65261089E-02  1.65359567E-02  2.99502665E-02
 -5.24707555E-02 -7.96909627E-03 -6.89830083E-03  6.89561281E-03 -4.91112213E-03
  2.39903060E-03 -5.86546767E-02  2.05820519E-02 -3.74355747E-02  3.74401526E-02
 -2.03126939E-02 -5.31261597E-02  5.31331951E-02 -2.19121802E-03 -3.58165700E-03
 -1.37479890E-03  3.79616686E-03  3.58024907E-03 -4.31074311E-03 -7.48541630E-03
 -1.33952098E-03 -1.87334429E-03  7.76085111E-04 -4.30731429E-03 -7.48216453E-03
 -1.33897060E-03 -7.76017994E-04  1.87240127E-03  1.84537604E-01 -7.85511407E-01
  1.69772043E-01 -4.23056246E-01 -5.07298894E-01  5.07207399E-01 -6.07755045E-02
 -5.93938746E-02  5.93727616E-02 -1.00265930E-02  7.22856246E-02  8.44596080E-02
  1.73982721E-02 -7.22997896E-02  2.99222899E-02 -5.25146735E-02 -7.97498097E-03
  6.89821137E-03 -6.90143772E-03  9.80527466E-01  1.31474065E-01  1.11520393E-02
  1.65244239E-02 -1.65258302E-02 -4.91821048E-03  2.41861887E-03 -5.86153766E-02
  2.06120990E-02  3.74468687E-02 -3.74421291E-02 -2.02753309E-02  5.31345290E-02
 -5.31306889E-02 -2.18990124E-03  3.58001643E-03 -1.37352847E-03  3.79236947E-03
 -3.58152162E-03 -4.30998022E-03 -7.48844262E-03 -1.33909774E-03  7.76573346E-04
 -1.87338323E-03 -4.30594908E-03 -7.48386319E-03 -1.33873549E-03  1.87308029E-03
 -7.76819629E-04 -4.91704285E-03  2.41384437E-03 -5.86132565E-02 -2.06076185E-02
  3.74456714E-02  3.74421231E-02  2.02771109E-02  5.31352972E-02  5.31320904E-02
 -2.19016698E-03  3.58053827E-03  1.37302369E-03  3.79225738E-03  3.58105948E-03
 -4.31355822E-03 -7.48708703E-03  1.33928061E-03  7.76423385E-04  1.87357034E-03
 -4.30648793E-03 -7.48333782E-03  1.33878986E-03  1.87258079E-03  7.76864292E-04
  1.84539658E-01 -7.85523684E-01  1.69785475E-01  4.23073551E-01 -5.07289568E-01
 -5.07202928E-01  6.07701753E-02 -5.93930737E-02 -5.93706287E-02 -1.00234473E-02
  7.22878055E-02 -8.44580439E-02  1.73950213E-02  7.23023524E-02  2.99293132E-02
 -5.25087355E-02  7.97409363E-03  6.89805692E-03  6.90146393E-03  9.80533910E-01
  1.31459566E-01 -1.11497751E-02  1.65177266E-02  1.65278312E-02  1.94574745E-01
 -7.75512992E-01  2.24041468E-01  8.43149448E-01  2.48908649E-05 -4.49751779E-05
  5.72404944E-02  5.57617497E-06 -6.45372801E-06  7.21047237E-02  2.93289760E-05
 -3.57943733E-03 -1.24890162E-01 -1.87899920E-05  1.55426544E-02 -4.80657265E-02
 -1.55368811E-03  1.01646495E-02 -1.01679266E-02  1.55183153E-02 -4.81174961E-02
 -1.55538521E-03 -1.01753289E-02  1.01744376E-02 -1.94570658E-01  7.75493684E-01
 -2.24040128E-01  8.43155313E-01 -1.09861782E-05 -2.66102481E-05  5.72452887E-02
 -3.59123395E-06 -4.70199960E-06 -7.21064237E-02 -2.32723598E-05 -3.57909527E-03
  1.24893051E-01 -1.78167025E-07 -1.55315474E-02  4.80840050E-02 -1.55402408E-03
 -1.01674253E-02 -1.01699056E-02 -1.55183847E-02  4.81101898E-02 -1.55500099E-03
  1.01737429E-02  1.01723160E-02  2.45035440E-03 -1.68180830E-01  1.77364147E+00
 -1.12761456E-01  1.13694568E-05 -2.05321981E-05  5.82467333E-01 -3.29498193E-05
  1.44285616E-04 -3.32231751E-03  1.91106446E-06 -5.19645668E-02  5.75386006E-03
  5.19658405E-06  3.71311424E-01 -1.33443699E+00  2.03703458E-02 -4.55671920E-02
  4.55698541E-02  3.71307822E-01 -1.33424845E+00  2.03678400E-02  4.55630342E-02
 -4.55608484E-02  2.44949916E-03 -1.68180364E-01  1.77365834E+00  1.12768413E-01
  9.16928033E-07  1.85659185E-05 -5.82478357E-01  1.88877309E-05 -1.14838736E-04
 -3.32288098E-03  3.19521110E-08  5.19645144E-02  5.75434754E-03 -5.63952869E-06
  3.71300662E-01 -1.33437969E+00 -2.03687098E-02 -4.55660262E-02 -4.55675414E-02
  3.71325907E-01 -1.33433846E+00 -2.03705861E-02  4.55646741E-02  4.55640694E-02
  4.30800191E-02 -5.31848808E-01  3.27688721E+00 -5.00275050E-02  3.15031513E-05
 -4.59019660E-05 -5.07458863E-02 -2.16509119E-04  3.95369841E-04  5.05132941E-04
  1.70962602E-05 -4.32724753E-02 -8.75702590E-04 -1.07245779E-05  3.10301244E-01
 -1.44790045E+00  2.83902400E-02 -4.26246417E-02  4.26276760E-02  3.10062794E-01
 -1.44676243E+00  2.83538054E-02  4.25987830E-02 -4.25952247E-02 -4.30806514E-02
  5.31852135E-01 -3.27687646E+00 -5.00258692E-02 -1.33642990E-05  2.71128669E-05
 -5.07513486E-02 -6.64361441E-05 -6.17406518E-05 -5.04539846E-04 -5.29751740E-06
 -4.32714013E-02  8.75380319E-04  1.01751811E-05 -3.10172415E-01  1.44722660E+00
  2.83677802E-02  4.26044215E-02  4.26145830E-02 -3.10182763E-01  1.44741299E+00
  2.83766700E-02 -4.26172671E-02 -4.26072839E-02 -1.55365573E-06  1.83048301E-06
 -2.09338472E-04 -1.72854991E-05 -1.27662284E-01 -8.57573695E-02  2.44640590E-04
  4.63286771E-01  1.31651764E-01 -8.98753068E-07 -2.36902624E-02  1.30409315E-06
 -3.83055132E-06 -8.25392899E-03 -5.70550011E-02  2.96796380E-01 -1.06375710E-02
 -5.65591452E-03 -1.98814821E-02  5.70435613E-02 -2.96926993E-01  1.06383343E-02
 -5.64590788E-03 -1.98837495E-02  6.72019711E-07 -1.60920959E-05  2.39315171E-04
 -3.20730651E-05  1.68628272E-01  1.39616308E-01  2.61917128E-04 -1.26004476E+00
 -1.17913197E+00  1.08553258E-05  5.89428396E-02  3.64440131E-06  3.47336082E-06
  5.46013975E-02  4.19655593E-01 -2.18345632E+00 -7.82450210E-02 -5.05954653E-02
 -5.40796677E-02 -4.19642031E-01  2.18354140E+00  7.82499716E-02 -5.06108006E-02
 -5.40697551E-02 -1.09773594E-05  1.27446999E-04 -7.29042790E-04  5.12581614E-05
  1.39622253E-01 -1.68626556E-01 -2.03950391E-04 -1.17917002E+00  1.26001294E+00
  1.31719783E-05  5.45997136E-02  9.48713739E-06  1.06080139E-06 -5.89436928E-02
  4.19550991E-01 -2.18304539E+00  7.82354157E-02 -5.40544719E-02  5.05965495E-02
 -4.19746396E-01  2.18395471E+00 -7.82590629E-02 -5.40959120E-02  5.06112230E-02
  9.04643144E-06 -1.35392808E-04  6.61785866E-04  2.14423084E-05 -8.57555127E-02
  1.27662742E-01 -1.50733383E-04  1.31669665E-01 -4.63266355E-01  2.66769670E-06
 -8.25360226E-03  9.00859785E-06 -3.63569769E-06  2.36907109E-02  5.71161877E-02
 -2.97241895E-01 -1.06439726E-02 -1.98947349E-02  5.63899729E-03 -5.69934652E-02
  2.96456019E-01  1.06313909E-02 -1.98697834E-02  5.66326982E-03  1.03159655E-01
 -8.45917354E-01  8.60357965E-01  4.05851172E-01 -1.44005010E-05  2.36264465E-05
 -6.41806065E-01  4.90109413E-05 -8.48209027E-05  3.49844824E-02  1.96113219E-06
  3.46374658E-03 -6.05943934E-02  5.54343657E-07  8.04275235E-02 -2.82266484E-01
 -3.73886127E-02 -4.96072845E-03  4.96252013E-03  8.04062006E-02 -2.82350501E-01
 -3.73839283E-02  4.96711532E-03 -4.96543830E-03  1.03202559E-01 -8.46102478E-01
  8.55928842E-01 -4.05266373E-01 -1.40808750E-05 -2.39888462E-05  6.36301342E-01