HF file generated by AutoMR of MOKIT                                    
Stability UHF                                                         def2SVP             
Number of atoms                            I                6
Info1-9                                    I   N=           9
          16          15           0           0           0         110
           7           1           2
Charge                                     I                0
Multiplicity                               I                1
Number of electrons                        I               16
Number of alpha electrons                  I                8
Number of beta electrons                   I                8
Number of basis functions                  I               48
Number of independent functions            I               48
Number of point charges in /Mol/           I                0
Number of translation vectors              I                0
Atomic numbers                             I   N=           6
           6           1           1           6           1           1
Nuclear charges                            R   N=           6
  6.00000000E+00  1.00000000E+00  1.00000000E+00  6.00000000E+00  1.00000000E+00
  1.00000000E+00
Current cartesian coordinates              R   N=          18
  1.38396550E+00 -2.26767136E-05 -3.77945227E-05  2.46002280E+00 -1.23735110E+00
  1.23745881E+00  2.46004926E+00  1.23748338E+00 -1.23732086E+00 -1.38396550E+00
 -2.26767136E-05  3.77945227E-05 -2.46002280E+00 -1.23735110E+00 -1.23746070E+00
 -2.46004926E+00  1.23748338E+00  1.23732086E+00
Force Field                                I                0
Int Atom Types                             I   N=           6
           0           0           0           0           0           0
MM charges                                 R   N=           6
  0.00000000E+00  0.00000000E+00  0.00000000E+00  0.00000000E+00  0.00000000E+00
  0.00000000E+00
Integer atomic weights                     I   N=           6
          12           1           1          12           1           1
Real atomic weights                        R   N=           6
  1.20000000E+01  1.00782504E+00  1.00782504E+00  1.20000000E+01  1.00782504E+00
  1.00782504E+00
Atom fragment info                         I   N=           6
           0           0           0           0           0           0
Atom residue num                           I   N=           6
           0           0           0           0           0           0
Nuclear spins                              I   N=           6
           0           1           1           0           1           1
Nuclear ZEff                               R   N=           6
 -3.60000000E+00 -1.00000000E+00 -1.00000000E+00 -3.60000000E+00 -1.00000000E+00
 -1.00000000E+00
Nuclear QMom                               R   N=           6
  0.00000000E+00  0.00000000E+00  0.00000000E+00  0.00000000E+00  0.00000000E+00
  0.00000000E+00
Nuclear GFac                               R   N=           6
  0.00000000E+00  2.79284600E+00  2.79284600E+00  0.00000000E+00  2.79284600E+00
  2.79284600E+00
MicOpt                                     I   N=           6
          -1          -1          -1          -1          -1          -1
Number of contracted shells                I               24
Number of primitive shells                 I               44
Pure/Cartesian d shells                    I                0
Pure/Cartesian f shells                    I                0
Highest angular momentum                   I                2
Largest degree of contraction              I                5
Shell types                                I   N=          24
           0           0           0           1           1          -2
           0           0           1           0           0           1
           0           0           0           1           1          -2
           0           0           1           0           0           1
Number of primitives per shell             I   N=          24
           5           1           1           3           1           1
           3           1           1           3           1           1
           5           1           1           3           1           1
           3           1           1           3           1           1
Shell to atom map                          I   N=          24
           1           1           1           1           1           1
           2           2           2           3           3           3
           4           4           4           4           4           4
           5           5           5           6           6           6
Primitive exponents                        R   N=          44
  1.23840169E+03  1.86290050E+02  4.22511763E+01  1.16765579E+01  3.59305065E+00
  4.02451474E-01  1.30901827E-01  9.46809706E+00  2.01035451E+00  5.47710047E-01
  1.52686138E-01  8.00000000E-01  1.30107010E+01  1.96225720E+00  4.44537960E-01
  1.21949620E-01  8.00000000E-01  1.30107010E+01  1.96225720E+00  4.44537960E-01
  1.21949620E-01  8.00000000E-01  1.23840169E+03  1.86290050E+02  4.22511763E+01
  1.16765579E+01  3.59305065E+00  4.02451474E-01  1.30901827E-01  9.46809706E+00
  2.01035451E+00  5.47710047E-01  1.52686138E-01  8.00000000E-01  1.30107010E+01
  1.96225720E+00  4.44537960E-01  1.21949620E-01  8.00000000E-01  1.30107010E+01
  1.96225720E+00  4.44537960E-01  1.21949620E-01  8.00000000E-01
Contraction coefficients                   R   N=          44
  5.51736505E-03  4.10888286E-02  1.82253821E-01  4.68284594E-01  4.45758173E-01
  1.00000000E+00  1.00000000E+00  5.68883320E-02  3.12940593E-01  7.60650165E-01
  1.00000000E+00  1.00000000E+00  3.34854848E-02  2.34721871E-01  8.13770285E-01
  1.00000000E+00  1.00000000E+00  3.34854848E-02  2.34721871E-01  8.13770285E-01
  1.00000000E+00  1.00000000E+00  5.51736505E-03  4.10888286E-02  1.82253821E-01
  4.68284594E-01  4.45758173E-01  1.00000000E+00  1.00000000E+00  5.68883320E-02
  3.12940593E-01  7.60650165E-01  1.00000000E+00  1.00000000E+00  3.34854848E-02
  2.34721871E-01  8.13770285E-01  1.00000000E+00  1.00000000E+00  3.34854848E-02
  2.34721871E-01  8.13770285E-01  1.00000000E+00  1.00000000E+00
Coordinates of each shell                  R   N=          72
  1.38396550E+00 -2.26767136E-05 -3.77945227E-05  1.38396550E+00 -2.26767136E-05
 -3.77945227E-05  1.38396550E+00 -2.26767136E-05 -3.77945227E-05  1.38396550E+00
 -2.26767136E-05 -3.77945227E-05  1.38396550E+00 -2.26767136E-05 -3.77945227E-05
  1.38396550E+00 -2.26767136E-05 -3.77945227E-05  2.46002280E+00 -1.23735110E+00
  1.23745881E+00  2.46002280E+00 -1.23735110E+00  1.23745881E+00  2.46002280E+00
 -1.23735110E+00  1.23745881E+00  2.46004926E+00  1.23748338E+00 -1.23732086E+00
  2.46004926E+00  1.23748338E+00 -1.23732086E+00  2.46004926E+00  1.23748338E+00
 -1.23732086E+00 -1.38396550E+00 -2.26767136E-05  3.77945227E-05 -1.38396550E+00
 -2.26767136E-05  3.77945227E-05 -1.38396550E+00 -2.26767136E-05  3.77945227E-05
 -1.38396550E+00 -2.26767136E-05  3.77945227E-05 -1.38396550E+00 -2.26767136E-05
  3.77945227E-05 -1.38396550E+00 -2.26767136E-05  3.77945227E-05 -2.46002280E+00
 -1.23735110E+00 -1.23746070E+00 -2.46002280E+00 -1.23735110E+00 -1.23746070E+00
 -2.46002280E+00 -1.23735110E+00 -1.23746070E+00 -2.46004926E+00  1.23748338E+00
  1.23732086E+00 -2.46004926E+00  1.23748338E+00  1.23732086E+00 -2.46004926E+00
  1.23748338E+00  1.23732086E+00
Constraint Structure                       R   N=          18
  1.38396550E+00 -2.26767136E-05 -3.77945227E-05  2.46002280E+00 -1.23735110E+00
  1.23745881E+00  2.46004926E+00  1.23748338E+00 -1.23732086E+00 -1.38396550E+00
 -2.26767136E-05  3.77945227E-05 -2.46002280E+00 -1.23735110E+00 -1.23746070E+00
 -2.46004926E+00  1.23748338E+00  1.23732086E+00
Num ILSW                                   I              100
ILSW                                       I   N=         100
           1           0           0           0           2           1
           0           0           0           0           0          -1
           0           0           0           0           0           0
           0           0           0           0           0           0
           1           1           0           0           0           0
           0           0      100000           0          -1           0
           0           0           0           0           0           0
           0           0           0           1           0           0
           0           0           1           0           0           0
           0           0           4          40           0           0
           0           0           0           0           0           0
           0           0           0           0           0           0
           0           0           0           0           0           0
           0           0           0           0           0           0
           0           0           0           0           0           0
           0           0           0           0           0           0
           0           0           0           0
Num RLSW                                   I               40
RLSW                                       R   N=          40
  1.00000000E+00  1.00000000E+00  1.00000000E+00  1.00000000E+00  1.00000000E+00
  0.00000000E+00  0.00000000E+00  1.00000000E+00  0.00000000E+00  0.00000000E+00
  0.00000000E+00  0.00000000E+00  1.00000000E+00  0.00000000E+00  0.00000000E+00
  0.00000000E+00  0.00000000E+00  1.00000000E+00  0.00000000E+00  0.00000000E+00
  0.00000000E+00  0.00000000E+00  1.00000000E+00  0.00000000E+00  0.00000000E+00
  0.00000000E+00  0.00000000E+00  1.00000000E+00  0.00000000E+00  0.00000000E+00
  0.00000000E+00  0.00000000E+00  1.00000000E+00  0.00000000E+00  0.00000000E+00
  0.00000000E+00  0.00000000E+00  0.00000000E+00  1.00000000E+00  1.00000000E+00
ECP-MxAtEC                                 I           250000
ECP-MaxLECP                                I               10
ECP-MaxAtL                                 I          2250000
ECP-MxTECP                                 I         11250000
ECP-LenNCZ                                 I                0
ECP-KFirst                                 I   N=          60
           0           0           0           0           0           0
           0           0           0           0           0           0
           0           0           0           0           0           0
           0           0           0           0           0           0
           0           0           0           0           0           0
           0           0           0           0           0           0
           0           0           0           0           0           0
           0           0           0           0           0           0
           0           0           0           0           0           0
           0           0           0           0           0           0
ECP-KLast                                  I   N=          60
           0           0           0           0           0           0
           0           0           0           0           0           0
           0           0           0           0           0           0
           0           0           0           0           0           0
           0           0           0           0           0           0
           0           0           0           0           0           0
           0           0           0           0           0           0
           0           0           0           0           0           0
           0           0           0           0           0           0
           0           0           0           0           0           0
ECP-LMax                                   I   N=           6
           0           0           0           0           0           0
ECP-LPSkip                                 I   N=           6
           1           1           1           1           1           1
ECP-RNFroz                                 R   N=           6
  0.00000000E+00  0.00000000E+00  0.00000000E+00  0.00000000E+00  0.00000000E+00
  0.00000000E+00
ECP-NLP                                    I                0
ECP-CLP1                                   R      0.000000000000000E+00
ECP-CLP2                                   R      0.000000000000000E+00
ECP-ZLP                                    R      0.000000000000000E+00
MxBond                                     I                3
NBond                                      I   N=           6
           3           1           1           3           1           1
IBond                                      I   N=          18
           2           3           4           1           0           0
           1           0           0           1           5           6
           4           0           0           4           0           0
RBond                                      R   N=          18
  1.00000000E+00  1.00000000E+00  1.00000000E+00  1.00000000E+00  0.00000000E+00
  0.00000000E+00  1.00000000E+00  0.00000000E+00  0.00000000E+00  1.00000000E+00
  1.00000000E+00  1.00000000E+00  1.00000000E+00  0.00000000E+00  0.00000000E+00
  1.00000000E+00  0.00000000E+00  0.00000000E+00
Virial Ratio                               R      2.005223171566842E+00
SCF Energy                                 R     -7.791452399003296E+01
Total Energy                               R     -7.791452399003296E+01
S**2                                       R      1.034283752909358E+00
S**2 after annihilation                    R      2.761764311757678E-01
RMS Density                                R      4.699708711937538E-09
External E-field                           R   N=          35
  0.00000000E+00  0.00000000E+00  0.00000000E+00  0.00000000E+00  0.00000000E+00
  0.00000000E+00  0.00000000E+00  0.00000000E+00  0.00000000E+00  0.00000000E+00
  0.00000000E+00  0.00000000E+00  0.00000000E+00  0.00000000E+00  0.00000000E+00
  0.00000000E+00  0.00000000E+00  0.00000000E+00  0.00000000E+00  0.00000000E+00
  0.00000000E+00  0.00000000E+00  0.00000000E+00  0.00000000E+00  0.00000000E+00
  0.00000000E+00  0.00000000E+00  0.00000000E+00  0.00000000E+00  0.00000000E+00
  0.00000000E+00  0.00000000E+00  0.00000000E+00  0.00000000E+00  0.00000000E+00
IOpCl                                      I                1
IROHF                                      I                0
Alpha Orbital Energies                     R   N=          48
 -1.12431065E+01 -1.12141771E+01 -9.87739839E-01 -7.80374559E-01 -5.89267263E-01
 -5.76875395E-01 -5.59880619E-01 -3.65487691E-01  1.43722741E-01  2.15033532E-01
  2.26932134E-01  2.71130717E-01  2.73165932E-01  4.40653739E-01  6.04309717E-01
  6.63760368E-01  6.83810733E-01  7.05380514E-01  7.75098940E-01  7.91216403E-01
  8.39679825E-01  8.50821633E-01  9.02641229E-01  9.30150876E-01  9.46051614E-01
  9.96670272E-01  1.43054527E+00  1.49427089E+00  1.74966470E+00  1.78274400E+00
  1.87198817E+00  1.89390902E+00  1.90456489E+00  1.93986883E+00  2.13465399E+00
  2.14996738E+00  2.19466171E+00  2.38992301E+00  2.41091340E+00  2.59676753E+00
  2.62809931E+00  2.63362648E+00  2.65183917E+00  3.03609222E+00  3.20170569E+00
  3.26288338E+00  3.33152333E+00  3.33612389E+00
Beta Orbital Energies                      R   N=          48
 -1.12431064E+01 -1.12141772E+01 -9.87739864E-01 -7.80374517E-01 -5.89267209E-01
 -5.76875461E-01 -5.59880619E-01 -3.65487677E-01  1.43722750E-01  2.15033573E-01
  2.26932104E-01  2.71130748E-01  2.73165901E-01  4.40653737E-01  6.04309714E-01
  6.63760406E-01  6.83810737E-01  7.05380458E-01  7.75099018E-01  7.91216324E-01
  8.39679815E-01  8.50821721E-01  9.02641148E-01  9.30151025E-01  9.46051481E-01
  9.96670268E-01  1.43054531E+00  1.49427084E+00  1.74966463E+00  1.78274406E+00
  1.87198815E+00  1.89390864E+00  1.90456524E+00  1.93986889E+00  2.13465408E+00
  2.14996732E+00  2.19466167E+00  2.38992298E+00  2.41091345E+00  2.59676737E+00
  2.62809944E+00  2.63362651E+00  2.65183913E+00  3.03609225E+00  3.20170572E+00
  3.26288333E+00  3.33152390E+00  3.33612331E+00
Alpha MO coefficients                      R   N=        2304
  1.19668724E-02 -1.33908170E-03  4.91509459E-03  1.31257937E-03 -2.14210203E-08
 -4.38997718E-08 -2.28779286E-03  2.71827865E-07 -2.64029063E-07  4.84024247E-04
  4.26497278E-08  1.10740573E-04 -8.38339410E-04 -3.35964842E-08  4.84062007E-05
  6.51114424E-04 -3.13550814E-04  1.32214758E-04 -1.32227222E-04  4.83042630E-05
  6.50606078E-04 -3.13480617E-04 -1.32243466E-04  1.32225090E-04  9.90256116E-01
  3.73400299E-02 -2.43845138E-02 -4.66593328E-04  1.67184309E-07 -1.92462460E-07
 -8.39474013E-04 -2.97084812E-07  4.48755829E-07 -1.36419358E-04  1.77009999E-08
  7.04736109E-04  2.36254357E-04 -1.20594050E-07 -2.40634790E-03  5.51160308E-03
 -6.18247703E-04 -8.82983143E-04 -8.83175586E-04 -2.40645279E-03  5.51160772E-03
 -6.18250881E-04  8.83201343E-04  8.82969936E-04  9.91370064E-01  3.33690464E-02
 -2.21749270E-02  4.10594418E-04  2.16109295E-07  2.36582629E-07  6.84668330E-04
 -2.71883249E-07 -3.84154277E-07 -4.91599350E-04  5.94885334E-08 -1.89396043E-03
  8.51388909E-04  1.55849492E-07 -2.20646257E-03  5.00058295E-03  5.66480765E-04
 -7.86824365E-04  7.86999916E-04 -2.20654643E-03  5.00060183E-03  5.66482679E-04
  7.87023954E-04 -7.86812712E-04 -1.15728403E-02 -2.01961164E-03  4.79763949E-03
 -1.21323304E-03 -1.82497739E-08  3.84732458E-08  1.98940107E-03  2.55122804E-07
  2.30671108E-07  4.60648426E-04  3.91540098E-08 -1.20761790E-04 -7.97850182E-04
  4.03691577E-08  1.14539727E-04  4.74120261E-04  3.06591524E-04  1.33384349E-04
  1.33398558E-04  1.14453967E-04  4.73654204E-04  3.06526021E-04 -1.33416195E-04
 -1.33396404E-04 -1.47567350E-01  2.82408913E-01  1.39689532E-02 -1.03403819E-01
  4.05372074E-06  7.15206358E-06 -4.09224438E-03  2.10617279E-06 -1.81618318E-06
 -1.01341894E-02 -3.82795053E-07 -1.00115213E-02  1.75525361E-02  8.32655914E-09
  8.70075896E-02  1.87300108E-02 -6.99959241E-03  6.36947680E-03 -6.37031654E-03
  8.70052316E-02  1.87277778E-02 -6.99949365E-03 -6.37025140E-03  6.36915616E-03
 -2.33675709E-01  4.67122666E-01  2.46831804E-01  7.19055697E-02  4.96526913E-07
 -2.30006591E-06  3.92700454E-02 -8.36166354E-07 -5.04024369E-07 -3.63491944E-03
 -8.90990241E-07 -7.34577951E-03  6.29616512E-03  3.89788129E-08  1.32680790E-01
  3.01600396E-03  9.67796460E-03  1.15313589E-02  1.15322221E-02  1.32681318E-01
  3.01666631E-03  9.67826529E-03 -1.15322949E-02 -1.15309497E-02 -1.85016900E-01
  3.62871447E-01  1.21589464E-01  1.13530393E-01  1.20098233E-05  1.21480739E-05
  3.14981323E-02  2.17575240E-06  2.91240065E-06 -1.49189400E-03  9.66602433E-07
 -2.02817649E-02  2.58309512E-03  1.38884230E-06  2.33446904E-01  6.02908079E-02
 -8.63303677E-03  1.36163507E-02 -1.36182473E-02  2.33450185E-01  6.02920462E-02
 -8.63351891E-03 -1.36184850E-02  1.36160301E-02  1.16125257E-01 -2.32771380E-01
 -1.38758192E-01  1.72673136E-01 -2.43261987E-06  2.80189078E-06  6.45957295E-02
 -1.06105043E-07 -2.87858938E-07 -6.66149219E-03 -8.26844035E-08 -1.20871819E-03
  1.15380888E-02  4.89620863E-07 -1.46927749E-01 -2.06829797E-02 -6.27506813E-03
 -1.00257289E-02 -1.00263737E-02 -1.46929432E-01 -2.06825602E-02 -6.27550615E-03
  1.00265457E-02  1.00255446E-02 -1.11626664E-08 -2.69809748E-06  5.24060145E-06
  5.60715578E-05  2.72898148E-01 -2.72886134E-01  1.73039639E-05  9.89478224E-02
 -9.89440543E-02 -2.59142827E-06 -9.29663998E-03 -7.91857860E-07 -4.06486492E-06
  9.29567083E-03 -3.11132124E-01 -1.16272350E-01  1.21279691E-02 -8.00839096E-03
  8.01121361E-03  3.11186477E-01  1.16292125E-01 -1.21282499E-02 -8.01376357E-03
  8.01087211E-03  5.47108154E-06 -1.73815421E-05 -6.30041207E-06 -6.60186488E-05
  1.47291130E-01 -1.47239298E-01 -2.78575033E-05  8.74482634E-02 -8.74233577E-02
  1.66991276E-06 -9.40722511E-03  1.89174575E-06 -2.75935960E-06  9.40540004E-03
  5.48468393E-06  1.26754235E-06 -6.60674149E-07  3.11674995E-03 -3.11482349E-03
  5.58232402E-05  1.50249692E-05  1.76081072E-06  3.11320094E-03 -3.11847147E-03
  5.45852830E-06 -1.43307124E-05  7.62956943E-07  9.89319354E-05  3.94134252E-02
  3.94605539E-02  3.63275504E-05  9.78977784E-03  9.80734184E-03  2.88617830E-06
 -8.35254319E-03 -1.32559988E-06 -5.10403224E-06 -8.35425937E-03  7.21450762E-05
  2.61862000E-05 -1.03954589E-06  9.22190306E-04  9.16294186E-04  1.82646608E-05
  5.41414538E-06  1.03526153E-06  9.17623927E-04  9.20860530E-04  2.87416998E-06
 -1.24827538E-05  5.33278899E-06 -1.10974114E-04  3.19037748E-01  3.19058108E-01
 -4.51669644E-05  1.57654732E-01  1.57667761E-01  2.34207049E-09 -1.12455605E-02
  1.72176445E-06 -5.47888274E-06 -1.12475797E-02 -2.97398490E-01 -8.59404736E-02
 -1.42947812E-02 -9.25035373E-03 -9.25120818E-03  2.97479482E-01  8.59639401E-02
  1.42954864E-02 -9.25639763E-03 -9.25400778E-03 -1.45993052E-02  4.42272357E-02
 -8.34681829E-03 -3.73516504E-01  4.92825202E-05 -3.86546486E-05 -1.39546742E-01
  1.82739707E-05 -1.77028224E-05 -9.70636892E-03 -6.26924715E-06  6.86533792E-03
  1.68123846E-02 -2.37202679E-06 -1.73242150E-01 -6.49913527E-02 -4.16747420E-04
 -8.41195756E-03  8.41359606E-03 -1.73140226E-01 -6.49500848E-02 -4.20154721E-04
  8.41124914E-03 -8.40923752E-03 -1.72269270E-02  6.01030084E-02 -7.48054202E-03
  4.25716139E-01  1.03723495E-04  6.36724192E-05  1.84152292E-01  5.64394190E-05
  3.09347423E-05 -9.53832984E-03 -6.49626906E-06 -8.28165005E-03  1.65213297E-02
 -1.13102246E-06 -1.56101027E-01 -4.86335861E-02 -2.95046032E-04 -8.67078179E-03
 -8.67244261E-03 -1.55943196E-01 -4.85844179E-02 -2.88139618E-04  8.66796992E-03
  8.66597370E-03  4.05800933E-06 -8.51942618E-06 -1.14365233E-05  1.10383450E-05
  8.48947517E-02 -8.48877129E-02  5.11052680E-06  6.25774114E-02 -6.25728314E-02
 -1.15621534E-06 -2.41990750E-02 -2.54632725E-07 -1.66362065E-06  2.41989452E-02
 -1.79000993E-01 -1.19524132E-01  2.66780002E-03 -2.49420359E-03  2.49527230E-03
  1.79003408E-01  1.19528149E-01 -2.66781628E-03 -2.49488722E-03  2.49404263E-03
 -1.18253996E-05  2.96512729E-05  5.21054367E-05 -1.25777540E-05 -4.14604853E-01
  4.14611784E-01 -1.08892284E-05 -3.64967318E-01  3.64974479E-01  6.16239116E-07
 -9.45124815E-04 -2.60459201E-06 -1.47368747E-06  9.45762515E-04 -1.74569205E-05
 -1.15533754E-05 -1.15350553E-06 -1.19645071E-02  1.19627408E-02 -2.12160660E-05
 -1.43083083E-05 -1.19274918E-06 -1.19626650E-02  1.19650835E-02  1.33768038E-05
 -1.88289529E-05 -7.05004324E-05 -8.14462867E-06  2.66270571E-01  2.66275994E-01
 -3.68293307E-05  5.02487958E-01  5.02497757E-01  1.16354534E-06 -2.64250452E-03
  3.03934027E-06 -1.33282988E-06 -2.64290765E-03  1.05531153E-05  3.02924996E-05
 -2.80417755E-07  1.39339729E-02  1.39331934E-02  7.68989946E-06  2.16203853E-05
 -4.05147096E-07  1.39330257E-02  1.39343575E-02 -5.05830906E-06  9.11271620E-06
  2.64701456E-05  4.66057494E-06  3.75635762E-03  3.74858070E-03 -1.94297504E-05
  7.54743016E-02  7.54590973E-02  1.11183065E-06  2.62679391E-02 -8.96702787E-07
  4.85238835E-07  2.62675825E-02  1.36637717E-01  3.24113125E-01 -6.34709546E-03
  1.84617546E-03  1.84600601E-03 -1.36641320E-01 -3.24164319E-01  6.34742845E-03
  1.84614360E-03  1.84546764E-03 -1.71850987E-03  3.60753145E-02  1.31827162E-02
  7.07860753E-02  3.31204579E-06 -1.11323240E-05  3.10772873E-01  2.81494282E-06
 -1.18803988E-05 -2.50710341E-03  1.41091253E-06 -6.16034587E-03  4.34252805E-03
 -4.99414827E-07  3.44795982E-02 -2.24550583E-01  2.23608068E-03 -1.73890891E-03
  1.73802806E-03  3.44770251E-02 -2.24630815E-01  2.23539580E-03  1.73798454E-03
 -1.73915999E-03 -1.17323597E-01  1.78868906E-01  2.54619371E+00 -1.36209820E-01
  1.43772113E-05 -1.61720324E-05 -5.64663109E-01  6.37735210E-05 -9.09132152E-05
  1.55068204E-03 -7.95569346E-07 -3.17674982E-03 -2.68567552E-03 -2.81626770E-07
 -1.86726132E-02 -1.63947182E+00 -4.52811329E-03 -5.06816249E-03 -5.06819440E-03
 -1.86636572E-02 -1.63946127E+00 -4.52844367E-03  5.06803845E-03  5.06782329E-03
 -1.25534783E-01  1.66283995E-01  2.66356414E+00  1.16018991E-01  1.40095060E-05
  1.74990103E-05  5.38780473E-01  7.42252473E-05  9.24938342E-05 -2.55685139E-03
  7.49747354E-07 -1.39519750E-02  4.42789067E-03  1.74930412E-06  8.99100978E-03
 -1.66415273E+00  2.65775295E-03 -3.53213794E-03  3.53190007E-03  8.99659922E-03
 -1.66414603E+00  2.65813900E-03  3.53184701E-03 -3.53186807E-03  2.17459952E-02
  1.63875757E-02 -6.30005382E-01 -2.83057404E-02  1.96201145E-06  1.25557993E-05
 -1.59251329E-01 -1.54855771E-05  1.98260949E-05 -4.67942488E-03  9.68771950E-07
  1.02349063E-02  8.10502157E-03  9.03592806E-07  4.25065123E-02  1.84027671E-01
 -1.06986111E-03 -8.90526372E-04 -8.89669756E-04  4.25050038E-02  1.83960373E-01
 -1.06900255E-03  8.89642992E-04  8.90907449E-04 -3.54051414E-06  8.33289583E-06
  5.02885626E-05 -3.38706643E-06  1.88035252E-02  1.89230382E-02  2.39820478E-05
  3.16387711E-01  3.17002957E-01 -9.88127800E-07  5.29191866E-03 -3.77427225E-07
 -3.83461447E-07  5.28844031E-03  1.31290727E-05 -5.88636634E-04  2.95681101E-06
  3.54708559E-04  3.59331653E-04 -4.07040231E-06  4.83101064E-04 -2.74413513E-06
  3.56740922E-04  3.59524422E-04  9.05920558E-07 -7.64810627E-07 -2.46742886E-05
 -8.36059231E-07 -2.13731955E-01 -2.13723437E-01  1.05037363E-05 -1.05514560E+00
 -1.05527394E+00  2.86851903E-07  8.90635533E-03  3.98079456E-07  1.28432173E-06
  8.90011464E-03  3.29878625E-02 -1.86733977E+00 -1.31966547E-02 -7.28080681E-03
 -7.28071196E-03 -3.29869019E-02  1.86737201E+00  1.31954180E-02 -7.28172876E-03
 -7.28068945E-03  1.37888997E-06 -1.80622344E-06 -1.21104346E-05  2.15072909E-06
 -2.09549227E-01  2.09535760E-01 -1.20565030E-05 -1.09794607E+00  1.09774510E+00
  2.94243441E-06  6.75343251E-03 -3.14165992E-07  2.45528889E-06 -6.75658782E-03
  3.16047086E-02 -1.91290551E+00  1.05728382E-02 -6.58840023E-03  6.58935175E-03
 -3.16030440E-02  1.91292879E+00 -1.05712586E-02 -6.58984878E-03  6.58842528E-03
 -6.03966679E-06  1.58860204E-05  5.12184468E-05  1.74729111E-06 -1.03050479E-02
  1.04259350E-02 -3.18944014E-05  2.64496835E-01 -2.63891082E-01 -1.55176119E-06
  1.10154177E-02  1.21523967E-06 -3.75197416E-07 -1.10206699E-02 -3.28512245E-06
  4.75218828E-04  3.57173623E-06 -9.47020549E-04  9.50190912E-04  1.58147863E-05
 -5.93866009E-04 -4.16261408E-06 -9.44613541E-04  9.49785677E-04  8.60783548E-02
 -1.66362757E-01 -3.12736214E+00  2.23425773E-01  9.25195665E-07 -1.35624735E-06
  2.72913812E+00  2.33363403E-05 -5.07420202E-05 -6.22826608E-03 -1.63260824E-06
  1.95297597E-02  1.07884324E-02  3.03430995E-06 -9.03051205E-02 -3.00167645E-01
  1.27305312E-02  4.01609966E-03 -4.01501826E-03 -9.02708908E-02 -3.00262808E-01
  1.27344228E-02 -4.01543069E-03  4.01641591E-03 -7.49950088E-02  1.23055917E-01
  3.15550218E+00  1.90750133E-01 -3.37054730E-06  1.28187407E-06  2.72044651E+00
 -1.81529067E-05 -7.06028947E-05  1.38118647E-02  3.74906478E-06  5.02034859E-03
 -2.39227883E-02  1.29567260E-06  6.24399473E-02  3.13634141E-01  1.11895786E-02
 -1.38553837E-03 -1.38588574E-03  6.24069430E-02  3.13731332E-01  1.11941137E-02
  1.38607678E-03  1.38577372E-03  8.90992389E-02 -7.39456684E-01  4.74576664E-01
  4.13210170E-01 -1.15623829E-05  5.85094020E-06 -5.70091834E-01  2.71185916E-05
 -5.74025819E-05  3.39450351E-02  4.71269490E-06  1.40574701E-03 -5.87942491E-02
 -4.99689338E-06  8.38788705E-02 -2.16425838E-01 -4.21210778E-02 -2.20019356E-03
  2.19930930E-03  8.37991596E-02 -2.16367709E-01 -4.21248914E-02  2.19922988E-03
 -2.20017382E-03  1.16743688E-01 -9.52565224E-01  1.22512080E+00 -4.11971448E-01
 -5.52409110E-06 -1.02507692E-05  6.89806262E-01  2.44670372E-05  4.51054659E-05
  3.60719243E-02  2.82904291E-06 -1.51073938E-02 -6.24776667E-02  4.48157059E-06
  1.04342653E-02 -2.91344303E-01  3.41309460E-02 -2.07399351E-03 -2.07523136E-03
  1.03729296E-02 -2.91305613E-01  3.41340626E-02  2.07509899E-03  2.07396622E-03
  1.99283085E-02 -1.79322805E-01  4.19513038E-01  1.12495608E-02 -1.92807765E-05
  1.45578445E-05  8.44151457E-01  1.26913945E-04 -1.01571636E-04 -8.00842463E-03
  8.74699420E-06  2.55909693E-02  1.38736162E-02 -1.82785728E-05 -2.97793899E-01
 -3.12206359E-01  6.26388454E-03  1.74157131E-02 -1.74162138E-02 -2.97999894E-01
 -3.12175604E-01  6.25235769E-03 -1.74161359E-02  1.74143266E-02  7.42220999E-02
 -8.17856422E-01  2.96853271E+00  2.04360213E-01  1.64933240E-05 -2.70044313E-05
 -7.13550231E-01  4.92935097E-05  2.38434712E-05 -4.21516993E-05 -5.36936859E-06
 -9.18845902E-02  7.77247119E-05  1.81250779E-05 -6.73415944E-01 -5.88415116E-01
 -2.20075484E-02  1.77661072E-02  1.77600927E-02 -6.73503626E-01 -5.88415487E-01
 -2.19996255E-02 -1.77610504E-02 -1.77659800E-02  8.16410493E-06 -8.85189881E-05
  3.44572051E-04 -6.48037887E-07  1.12028700E-02 -1.11988969E-02 -5.41023938E-05
  1.49702180E-01 -1.49708419E-01  5.39698631E-06  1.24008009E-03  2.59977447E-06
  1.07944163E-06 -1.24249896E-03  2.13915723E-01  1.59712017E-01  4.54035036E-02
  5.44982257E-03 -5.44767436E-03 -2.13995669E-01 -1.59772303E-01 -4.53987303E-02
  5.44525483E-03 -5.44833394E-03 -2.68908467E-05  1.69057123E-04 -3.98099430E-04
 -4.88422104E-05 -6.88635864E-01  6.88646167E-01 -4.34341630E-05  7.13357458E-01
 -7.13341909E-01  1.56178645E-06 -2.59763881E-03 -4.86995740E-06 -9.38490771E-07
  2.60059088E-03 -1.44753420E-05  6.24058030E-05 -1.85140047E-06 -2.83752723E-02
  2.83773432E-02 -3.79450824E-05  6.06652636E-05 -5.15879208E-07 -2.83776674E-02
  2.83772843E-02  4.92974683E-02 -8.74352923E-01  3.68889798E+00 -2.61197181E-01
  4.91543430E-06 -5.91075595E-06  5.13738180E-02  5.55107496E-06  6.81130697E-05
  6.20334963E-03 -6.50173959E-06  7.70645522E-02 -1.07415042E-02 -7.29516494E-06
 -6.65293158E-01 -4.79720763E-01  1.25772906E-02  1.48671993E-02 -1.48613964E-02
 -6.65250401E-01 -4.79697286E-01  1.25812238E-02 -1.48640640E-02  1.48693672E-02