HF file generated by AutoMR of MOKIT
Stability RHF                                                         def2SVP
Number of atoms                            I                6
Info1-9                                    I   N=           9
          16          15           0           0           0         110
           7           1           2
Charge                                     I                0
Multiplicity                               I                1
Number of electrons                        I               16
Number of alpha electrons                  I                8
Number of beta electrons                   I                8
Number of basis functions                  I               48
Number of independent functions            I               48
Number of point charges in /Mol/           I                0
Number of translation vectors              I                0
Atomic numbers                             I   N=           6
           6           1           1           6           1           1
Nuclear charges                            R   N=           6
  6.00000000E+00  1.00000000E+00  1.00000000E+00  6.00000000E+00  1.00000000E+00
  1.00000000E+00
Current cartesian coordinates              R   N=          18
  1.38396550E+00 -2.26767136E-05 -3.77945227E-05  2.46002280E+00 -1.23735110E+00
  1.23745881E+00  2.46004926E+00  1.23748338E+00 -1.23732086E+00 -1.38396550E+00
 -2.26767136E-05  3.77945227E-05 -2.46002280E+00 -1.23735110E+00 -1.23746070E+00
 -2.46004926E+00  1.23748338E+00  1.23732086E+00
Force Field                                I                0
Int Atom Types                             I   N=           6
           0           0           0           0           0           0
MM charges                                 R   N=           6
  0.00000000E+00  0.00000000E+00  0.00000000E+00  0.00000000E+00  0.00000000E+00
  0.00000000E+00
Integer atomic weights                     I   N=           6
          12           1           1          12           1           1
Real atomic weights                        R   N=           6
  1.20000000E+01  1.00782504E+00  1.00782504E+00  1.20000000E+01  1.00782504E+00
  1.00782504E+00
Atom fragment info                         I   N=           6
           0           0           0           0           0           0
Atom residue num                           I   N=           6
           0           0           0           0           0           0
Nuclear spins                              I   N=           6
           0           1           1           0           1           1
Nuclear ZEff                               R   N=           6
 -3.60000000E+00 -1.00000000E+00 -1.00000000E+00 -3.60000000E+00 -1.00000000E+00
 -1.00000000E+00
Nuclear QMom                               R   N=           6
  0.00000000E+00  0.00000000E+00  0.00000000E+00  0.00000000E+00  0.00000000E+00
  0.00000000E+00
Nuclear GFac                               R   N=           6
  0.00000000E+00  2.79284600E+00  2.79284600E+00  0.00000000E+00  2.79284600E+00
  2.79284600E+00
MicOpt                                     I   N=           6
          -1          -1          -1          -1          -1          -1
Number of contracted shells                I               24
Number of primitive shells                 I               44
Pure/Cartesian d shells                    I                0
Pure/Cartesian f shells                    I                0
Highest angular momentum                   I                2
Largest degree of contraction              I                5
Shell types                                I   N=          24
           0           0           0           1           1          -2
           0           0           1           0           0           1
           0           0           0           1           1          -2
           0           0           1           0           0           1
Number of primitives per shell             I   N=          24
           5           1           1           3           1           1
           3           1           1           3           1           1
           5           1           1           3           1           1
           3           1           1           3           1           1
Shell to atom map                          I   N=          24
           1           1           1           1           1           1
           2           2           2           3           3           3
           4           4           4           4           4           4
           5           5           5           6           6           6
Primitive exponents                        R   N=          44
  1.23840169E+03  1.86290050E+02  4.22511763E+01  1.16765579E+01  3.59305065E+00
  4.02451474E-01  1.30901827E-01  9.46809706E+00  2.01035451E+00  5.47710047E-01
  1.52686138E-01  8.00000000E-01  1.30107010E+01  1.96225720E+00  4.44537960E-01
  1.21949620E-01  8.00000000E-01  1.30107010E+01  1.96225720E+00  4.44537960E-01
  1.21949620E-01  8.00000000E-01  1.23840169E+03  1.86290050E+02  4.22511763E+01
  1.16765579E+01  3.59305065E+00  4.02451474E-01  1.30901827E-01  9.46809706E+00
  2.01035451E+00  5.47710047E-01  1.52686138E-01  8.00000000E-01  1.30107010E+01
  1.96225720E+00  4.44537960E-01  1.21949620E-01  8.00000000E-01  1.30107010E+01
  1.96225720E+00  4.44537960E-01  1.21949620E-01  8.00000000E-01
Contraction coefficients                   R   N=          44
  5.51736505E-03  4.10888286E-02  1.82253821E-01  4.68284594E-01  4.45758173E-01
  1.00000000E+00  1.00000000E+00  5.68883320E-02  3.12940593E-01  7.60650165E-01
  1.00000000E+00  1.00000000E+00  3.34854848E-02  2.34721871E-01  8.13770285E-01
  1.00000000E+00  1.00000000E+00  3.34854848E-02  2.34721871E-01  8.13770285E-01
  1.00000000E+00  1.00000000E+00  5.51736505E-03  4.10888286E-02  1.82253821E-01
  4.68284594E-01  4.45758173E-01  1.00000000E+00  1.00000000E+00  5.68883320E-02
  3.12940593E-01  7.60650165E-01  1.00000000E+00  1.00000000E+00  3.34854848E-02
  2.34721871E-01  8.13770285E-01  1.00000000E+00  1.00000000E+00  3.34854848E-02
  2.34721871E-01  8.13770285E-01  1.00000000E+00  1.00000000E+00
Coordinates of each shell                  R   N=          72
  1.38396550E+00 -2.26767136E-05 -3.77945227E-05  1.38396550E+00 -2.26767136E-05
 -3.77945227E-05  1.38396550E+00 -2.26767136E-05 -3.77945227E-05  1.38396550E+00
 -2.26767136E-05 -3.77945227E-05  1.38396550E+00 -2.26767136E-05 -3.77945227E-05
  1.38396550E+00 -2.26767136E-05 -3.77945227E-05  2.46002280E+00 -1.23735110E+00
  1.23745881E+00  2.46002280E+00 -1.23735110E+00  1.23745881E+00  2.46002280E+00
 -1.23735110E+00  1.23745881E+00  2.46004926E+00  1.23748338E+00 -1.23732086E+00
  2.46004926E+00  1.23748338E+00 -1.23732086E+00  2.46004926E+00  1.23748338E+00
 -1.23732086E+00 -1.38396550E+00 -2.26767136E-05  3.77945227E-05 -1.38396550E+00
 -2.26767136E-05  3.77945227E-05 -1.38396550E+00 -2.26767136E-05  3.77945227E-05
 -1.38396550E+00 -2.26767136E-05  3.77945227E-05 -1.38396550E+00 -2.26767136E-05
  3.77945227E-05 -1.38396550E+00 -2.26767136E-05  3.77945227E-05 -2.46002280E+00
 -1.23735110E+00 -1.23746070E+00 -2.46002280E+00 -1.23735110E+00 -1.23746070E+00
 -2.46002280E+00 -1.23735110E+00 -1.23746070E+00 -2.46004926E+00  1.23748338E+00
  1.23732086E+00 -2.46004926E+00  1.23748338E+00  1.23732086E+00 -2.46004926E+00
  1.23748338E+00  1.23732086E+00
Constraint Structure                       R   N=          18
  1.38396550E+00 -2.26767136E-05 -3.77945227E-05  2.46002280E+00 -1.23735110E+00
  1.23745881E+00  2.46004926E+00  1.23748338E+00 -1.23732086E+00 -1.38396550E+00
 -2.26767136E-05  3.77945227E-05 -2.46002280E+00 -1.23735110E+00 -1.23746070E+00
 -2.46004926E+00  1.23748338E+00  1.23732086E+00
Num ILSW                                   I              100
ILSW                                       I   N=         100
           0           0           0           0           2           1
           0           0           0           0           0          -1
           0           0           0           0           0           0
           0           0           0           0           0           0
           1           1           0           0           0           0
           0           0      100000           0          -1           0
           0           0           0           0           0           0
           0           0           0           1           0           0
           0           0           1           0           0           0
           0           0           4          40           0           0
           0           0           0           0           0           0
           0           0           0           0           0           0
           0           0           0           0           0           0
           0           0           0           0           0           0
           0           0           0           0           0           0
           0           0           0           0           0           0
           0           0           0           0
Num RLSW                                   I               40
RLSW                                       R   N=          40
  1.00000000E+00  1.00000000E+00  1.00000000E+00  1.00000000E+00  1.00000000E+00
  0.00000000E+00  0.00000000E+00  1.00000000E+00  0.00000000E+00  0.00000000E+00
  0.00000000E+00  0.00000000E+00  1.00000000E+00  0.00000000E+00  0.00000000E+00
  0.00000000E+00  0.00000000E+00  1.00000000E+00  0.00000000E+00  0.00000000E+00
  0.00000000E+00  0.00000000E+00  1.00000000E+00  0.00000000E+00  0.00000000E+00
  0.00000000E+00  0.00000000E+00  1.00000000E+00  0.00000000E+00  0.00000000E+00
  0.00000000E+00  0.00000000E+00  1.00000000E+00  0.00000000E+00  0.00000000E+00
  0.00000000E+00  0.00000000E+00  0.00000000E+00  1.00000000E+00  1.00000000E+00
ECP-MxAtEC                                 I           250000
ECP-MaxLECP                                I               10
ECP-MaxAtL                                 I          2250000
ECP-MxTECP                                 I         11250000
ECP-LenNCZ                                 I                0
ECP-KFirst                                 I   N=          60
           0           0           0           0           0           0
           0           0           0           0           0           0
           0           0           0           0           0           0
           0           0           0           0           0           0
           0           0           0           0           0           0
           0           0           0           0           0           0
           0           0           0           0           0           0
           0           0           0           0           0           0
           0           0           0           0           0           0
           0           0           0           0           0           0
ECP-KLast                                  I   N=          60
           0           0           0           0           0           0
           0           0           0           0           0           0
           0           0           0           0           0           0
           0           0           0           0           0           0
           0           0           0           0           0           0
           0           0           0           0           0           0
           0           0           0           0           0           0
           0           0           0           0           0           0
           0           0           0           0           0           0
           0           0           0           0           0           0
ECP-LMax                                   I   N=           6
           0           0           0           0           0           0
ECP-LPSkip                                 I   N=           6
           1           1           1           1           1           1
ECP-RNFroz                                 R   N=           6
  0.00000000E+00  0.00000000E+00  0.00000000E+00  0.00000000E+00  0.00000000E+00
  0.00000000E+00
ECP-NLP                                    I                0
ECP-CLP1                                   R      0.000000000000000E+00
ECP-CLP2                                   R      0.000000000000000E+00
ECP-ZLP                                    R      0.000000000000000E+00
MxBond                                     I                3
NBond                                      I   N=           6
           3           1           1           3           1           1
IBond                                      I   N=          18
           2           3           4           1           0           0
           1           0           0           1           5           6
           4           0           0           4           0           0
RBond                                      R   N=          18
  1.00000000E+00  1.00000000E+00  1.00000000E+00  1.00000000E+00  0.00000000E+00
  0.00000000E+00  1.00000000E+00  0.00000000E+00  0.00000000E+00  1.00000000E+00
  1.00000000E+00  1.00000000E+00  1.00000000E+00  0.00000000E+00  0.00000000E+00
  1.00000000E+00  0.00000000E+00  0.00000000E+00
Virial Ratio                               R      2.005223171566842E+00
SCF Energy                                 R     -7.791452399003296E+01
Total Energy                               R     -7.791452399003296E+01
S**2                                       R      1.034283752909358E+00
S**2 after annihilation                    R      2.761764311757678E-01
RMS Density                                R      4.699708711937538E-09
External E-field                           R   N=          35
  0.00000000E+00  0.00000000E+00  0.00000000E+00  0.00000000E+00  0.00000000E+00
  0.00000000E+00  0.00000000E+00  0.00000000E+00  0.00000000E+00  0.00000000E+00
  0.00000000E+00  0.00000000E+00  0.00000000E+00  0.00000000E+00  0.00000000E+00
  0.00000000E+00  0.00000000E+00  0.00000000E+00  0.00000000E+00  0.00000000E+00
  0.00000000E+00  0.00000000E+00  0.00000000E+00  0.00000000E+00  0.00000000E+00
  0.00000000E+00  0.00000000E+00  0.00000000E+00  0.00000000E+00  0.00000000E+00
  0.00000000E+00  0.00000000E+00  0.00000000E+00  0.00000000E+00  0.00000000E+00
IOpCl                                      I                0
IROHF                                      I                0
Alpha Orbital Energies                     R   N=          48
  1.99999944E+00  1.99999918E+00  1.99797057E+00  1.99747226E+00  1.99747223E+00
  1.99634512E+00  1.99356348E+00  1.00001808E+00  9.99981925E-01  6.43652054E-03
  3.65487894E-03  2.52777078E-03  2.52773905E-03  2.02942677E-03  0.00000000E+00
  0.00000000E+00  0.00000000E+00  0.00000000E+00  0.00000000E+00  0.00000000E+00
  0.00000000E+00  0.00000000E+00  0.00000000E+00  0.00000000E+00  0.00000000E+00
  0.00000000E+00  0.00000000E+00  0.00000000E+00  0.00000000E+00  0.00000000E+00
  0.00000000E+00  0.00000000E+00  0.00000000E+00  0.00000000E+00  0.00000000E+00
  0.00000000E+00  0.00000000E+00  0.00000000E+00  0.00000000E+00  0.00000000E+00
  0.00000000E+00  0.00000000E+00  0.00000000E+00  0.00000000E+00  0.00000000E+00
  0.00000000E+00  0.00000000E+00  0.00000000E+00
Alpha MO coefficients                      R   N=        2304
 -7.04484652E-01 -1.57973342E-02  1.26120665E-02 -3.12678199E-03 -2.01504839E-08
  2.93434186E-08  1.07425135E-03  3.87760295E-08  4.31129754E-07 -2.08316369E-04
 -7.46295591E-08  9.94701537E-04  3.60853721E-04 -8.46711389E-08  3.76478325E-03
 -3.46218801E-03 -3.32272003E-04  6.12763684E-04 -6.12898536E-04  3.76486721E-03
 -3.46189628E-03 -3.32323710E-04 -6.12903389E-04  6.12741494E-04 -7.04365223E-01
 -1.70474092E-02  1.83729411E-02  3.40582047E-03 -3.91826983E-08 -1.34966218E-08
  2.97843646E-04  8.03199796E-08 -5.63128300E-07 -3.21381240E-04 -5.89225921E-08
 -5.70013656E-04  5.56665583E-04  6.15006167E-08  3.60632483E-03 -4.31608216E-03
  3.93374522E-04  7.21333635E-04  7.21470921E-04  3.60644420E-03 -4.31574913E-03
  3.93425480E-04 -7.21476936E-04 -7.21307815E-04  7.03306564E-01  1.98812471E-02
 -2.13334844E-02 -3.07919313E-03  1.76887217E-08 -1.73142808E-08  1.52526964E-03
 -4.03282822E-07 -1.59305275E-07 -7.12495654E-04 -3.31575933E-09 -1.12935490E-03
  1.23402084E-03  1.09582413E-07 -5.23208243E-03  2.16978606E-03  7.40058959E-04
 -8.60152526E-04  8.60315468E-04 -5.23207569E-03  2.17013014E-03  7.40016319E-04
  8.60346163E-04 -8.60145121E-04 -7.03144603E-01 -2.12552076E-02  2.40536599E-02
 -3.19211280E-03 -1.39696097E-08 -8.98689568E-09  1.07715653E-03  4.50322220E-07
 -2.28224581E-07  5.22808360E-04  1.18874226E-08 -5.92918715E-04 -9.05496743E-04
  1.07179925E-07  4.94624879E-03 -3.13762138E-03  8.06321853E-04  9.41312737E-04
  9.41467806E-04  4.94625502E-03 -3.13797291E-03  8.06284470E-04 -9.41500600E-04
 -9.41305818E-04  1.71263374E-02 -1.68411421E-02 -3.01244707E-02 -3.76788594E-01
 -4.55343396E-05  2.07372540E-05 -1.54814666E-01 -1.70317113E-05  8.23232839E-06
 -8.09701535E-03  1.73095243E-07  8.09576179E-03  1.40249279E-02 -1.27646167E-06
 -1.82977064E-01 -5.86382428E-02  1.43954548E-03 -1.00405635E-02  1.00413576E-02
 -1.83045183E-01 -5.86584621E-02  1.44306133E-03  1.00436127E-02 -1.00423912E-02
  1.71259791E-02 -1.68403726E-02 -3.01241851E-02  3.76788217E-01 -4.68704774E-05
 -2.24071863E-05  1.54814582E-01 -1.76332673E-05 -8.87283181E-06 -8.09701506E-03
  1.97633686E-07 -8.09574121E-03  1.40249150E-02  1.39681543E-06 -1.82974923E-01
 -5.86376332E-02 -1.43945687E-03 -1.00404758E-02 -1.00412882E-02 -1.83046303E-01
 -5.86589307E-02 -1.44310853E-03  1.00436238E-02  1.00423993E-02 -2.83925441E-06
  3.36375363E-06  3.53784463E-06  6.37171130E-05 -2.57751573E-01  1.92161953E-01
  2.82738295E-05 -1.06417676E-01  9.28821062E-02  3.73453572E-06  1.53632413E-02
 -1.78260017E-06 -1.01745050E-06 -3.51274445E-03  2.38107992E-01  8.36246326E-02
 -9.95610618E-03  6.05988187E-03 -7.06739801E-03 -2.38046012E-01 -8.36018487E-02
  9.95615654E-03  6.05821283E-03 -7.06229257E-03  5.95809072E-07 -4.11657623E-06
 -7.33566409E-08 -5.99015823E-05 -2.38072528E-01 -1.64831483E-01 -2.69027483E-05
 -9.67950227E-02 -8.16808236E-02  3.37688721E-06  1.50684567E-02  1.54721994E-06
 -9.41474977E-07  1.83521090E-03  2.13227406E-01  7.48873514E-02  8.91564370E-03
  5.31533414E-03  6.44006119E-03 -2.13175277E-01 -7.48662343E-02 -8.91607280E-03
  5.31413734E-03  6.43577309E-03  2.46636242E-05 -5.40566407E-05 -2.64307687E-05
 -2.30912866E-05  1.64836774E-01 -2.38068650E-01 -8.67301857E-06  8.16836169E-02
 -9.67931891E-02 -2.96281724E-06 -1.83512015E-03  1.62583414E-06  2.90293224E-07
  1.50689131E-02 -2.13236266E-01 -7.48832803E-02  8.91723729E-03 -6.43951250E-03
  5.31764215E-03  2.13168351E-01  7.48724277E-02 -8.91450727E-03 -6.43649339E-03
  5.31155156E-03 -2.47604492E-05  5.38284569E-05  2.68149579E-05 -3.26087619E-05
 -1.92167665E-01 -2.57747015E-01 -1.28687339E-05 -9.28851767E-02 -1.06415581E-01
  3.43080942E-06  3.51258455E-03  1.86339067E-06 -5.04706206E-07  1.53636969E-02
  2.38116148E-01  8.36212949E-02  9.95749304E-03  7.06660674E-03  6.06228581E-03
 -2.38039511E-01 -8.36071415E-02 -9.95478438E-03  7.06330429E-03  6.05553466E-03
  1.43735824E-01 -3.11076726E-01 -1.51018420E-01 -1.43546726E-01 -4.46999323E-05
  3.60879891E-05 -4.36289682E-02 -2.10807743E-05  1.46969841E-05 -3.18768803E-03
  2.74494090E-07  8.76756605E-03  5.52165068E-03 -3.92895642E-06 -1.90845341E-01
 -3.80399438E-02  7.56479728E-03 -1.20952751E-02  1.20964850E-02 -1.90934920E-01
 -3.80720549E-02  7.56884559E-03  1.20990612E-02 -1.20973696E-02 -1.43735651E-01
  3.11076343E-01  1.51018437E-01 -1.43547869E-01  4.35261109E-05  3.51740931E-05
 -4.36294781E-02  2.05542538E-05  1.41924093E-05  3.18772753E-03 -2.00183739E-07
  8.76758669E-03 -5.52170561E-03 -3.92251578E-06  1.90846732E-01  3.80405040E-02
  7.56482616E-03  1.20953028E-02  1.20965347E-02  1.90934176E-01  3.80718028E-02
  7.56879365E-03 -1.20990454E-02 -1.20973502E-02 -1.80180913E-01  3.84355000E-01
  1.22375561E-01 -1.62236834E-01  4.19459568E-06  9.71789071E-06 -5.33246145E-02
  2.99094052E-06  3.01241591E-06 -9.18485648E-03 -6.70925389E-07 -1.85576670E-03
  1.59085914E-02 -2.98925030E-07  8.50379070E-02  4.34360190E-03 -8.28720865E-03
  7.44991022E-03 -7.45049008E-03  8.50329054E-02  4.34129461E-03 -8.28707909E-03
 -7.45035142E-03  7.44945356E-03 -1.80181084E-01  3.84355398E-01  1.22375763E-01
  1.62236672E-01  4.09021361E-06 -9.90415531E-06  5.33245388E-02  2.90344486E-06
 -3.10924879E-06 -9.18485269E-03 -6.68818270E-07  1.85577996E-03  1.59085877E-02
  3.08301938E-07  8.50382273E-02  4.34368745E-03  8.28721015E-03  7.44991775E-03
  7.45050606E-03  8.50329770E-02  4.34129077E-03  8.28708225E-03 -7.45035787E-03
 -7.44946288E-03 -1.57521089E-05  3.66106482E-05  5.14750973E-05  4.17238298E-06
 -3.27362252E-01 -2.89285985E-01  3.98838042E-06 -2.94173978E-01 -2.36369257E-01
  7.43407843E-07  1.61071385E-02  2.14078853E-06 -3.03084742E-07 -1.46784933E-02
  7.85864244E-02  6.57825991E-02 -8.09425979E-05 -8.17153141E-03 -9.29241670E-03
 -7.86078965E-02 -6.58024616E-02  8.22789661E-05 -8.17067472E-03 -9.29312572E-03
  1.57773015E-05 -3.66687322E-05 -5.16011112E-05  4.30454996E-06  3.27362357E-01
 -2.89285882E-01  4.09276216E-06  2.94174064E-01 -2.36369136E-01 -7.55089764E-07
 -1.61071438E-02  2.14826294E-06  3.06740848E-07 -1.46784829E-02 -7.85864269E-02
 -6.57826476E-02 -8.09383586E-05  8.17152360E-03 -9.29241215E-03  7.86079170E-02
  6.58024570E-02  8.22829923E-05  8.17067639E-03 -9.29312549E-03  1.00932389E-05
 -2.45372169E-05 -3.26021522E-05 -1.77297170E-05  2.89280331E-01  3.27370556E-01
 -1.27190166E-05  2.36364584E-01  2.94182449E-01 -1.42302451E-07  1.46785632E-02
 -1.75295005E-06  1.84714914E-06 -1.61068587E-02  7.86069232E-02  6.57994776E-02
 -8.23232877E-05  9.29298667E-03  8.17056720E-03 -7.85874533E-02 -6.57850941E-02
  8.09613396E-05  9.29225411E-03  8.17213743E-03  1.01577859E-05 -2.46812159E-05
 -3.27899262E-05  1.78103386E-05  2.89280484E-01 -3.27370442E-01  1.27769770E-05
  2.36364692E-01 -2.94182360E-01 -1.42105134E-07  1.46785642E-02  1.76023765E-06
  1.84868896E-06  1.61068522E-02  7.86069999E-02  6.57995798E-02  8.23275469E-05
  9.29299115E-03 -8.17054790E-03 -7.85873904E-02 -6.57850277E-02 -8.09568630E-05
  9.29225743E-03 -8.17213703E-03  1.88704331E-01 -5.41278800E-01 -1.51690414E+00
  3.20934732E-01 -1.22245087E-06 -9.92151522E-06  5.38763215E-01 -2.69832537E-05
 -7.28808681E-05 -4.63171546E-02  8.54689551E-06 -1.87647198E-01  8.02159069E-02
 -7.71554538E-07  2.57437044E-01  2.50483998E-01 -4.75584329E-03 -1.59914023E-03
  1.59184524E-03  2.57413007E-01  2.50438767E-01 -4.75562476E-03  1.59145416E-03
 -1.59828249E-03 -1.88704466E-01  5.41279163E-01  1.51690467E+00  3.20934371E-01
  1.12609052E-06 -1.02689210E-05  5.38763050E-01  2.69573178E-05 -7.32112019E-05
  4.63170853E-02 -8.57551392E-06 -1.87647379E-01 -8.02160756E-02 -6.75013941E-07
 -2.57437644E-01 -2.50484479E-01 -4.75585666E-03  1.59911768E-03  1.59180206E-03
 -2.57413283E-01 -2.50438934E-01 -4.75562478E-03 -1.59144329E-03 -1.59830075E-03
 -1.08395538E-01  3.00335343E-01  8.22010796E-01  3.14107539E-01  3.12400407E-05
 -8.46469361E-05  2.98052618E-01  1.31203063E-04 -3.57945013E-05  6.17679164E-02
 -3.68515369E-06  2.11003953E-01 -1.06975195E-01 -1.76236481E-05 -4.40382327E-01
 -3.92869063E-01 -1.29474270E-02  2.99248337E-03 -2.97593187E-03 -4.40553520E-01
 -3.93081576E-01 -1.29546270E-02 -2.97872817E-03  2.99555057E-03 -1.08395350E-01
  3.00334562E-01  8.22009642E-01 -3.14109542E-01  2.87420550E-05  8.38051217E-05
 -2.98054146E-01  1.29257381E-04  3.35242343E-05  6.17677258E-02 -3.83104578E-06
 -2.11003729E-01 -1.06975199E-01  1.75684559E-05 -4.40384868E-01 -3.92871720E-01
  1.29474831E-02  2.99250726E-03  2.97588243E-03 -4.40552102E-01 -3.93079633E-01
  1.29545527E-02 -2.97865076E-03 -2.99556783E-03 -1.86135728E-05  3.75507967E-05
  1.97945630E-04  5.36866652E-05 -1.20980109E-01  5.26946071E-01  6.21237010E-05
 -4.42884256E-01  4.57035031E-01 -3.48674629E-06 -3.75090901E-02  4.01608958E-05
 -2.68693097E-05  1.55868724E-02 -4.11905314E-01 -4.92051444E-01 -1.76195371E-02
  4.97775520E-03 -1.19124707E-02  4.11728847E-01  4.91873420E-01  1.76140487E-02
  4.96433300E-03 -1.19250130E-02 -1.80603661E-05  3.47191610E-05  1.99339840E-04
 -7.13789637E-05 -1.79988069E-01 -5.43535088E-01 -7.35899769E-05 -4.96124800E-01
 -5.08795110E-01 -5.26968198E-06 -3.94612939E-02 -4.08089885E-05 -2.81255620E-05
 -1.98295871E-02 -4.59962838E-01 -5.49457057E-01  1.96750226E-02  6.32676932E-03
  1.25339938E-02  4.59769802E-01  5.49268922E-01 -1.96694410E-02  6.31181990E-03
  1.25481213E-02 -2.72730822E-06  1.28434158E-05 -8.58866489E-06 -1.20413361E-04
  5.43542043E-01 -1.79976654E-01 -7.34376837E-05  5.08813004E-01 -4.96120630E-01
  1.57806971E-05  1.98294228E-02 -8.67042356E-06  1.26165785E-05 -3.94612604E-02
  4.59925418E-01  5.49397321E-01  1.96722775E-02 -1.25482741E-02  6.31182089E-03
 -4.59808586E-01 -5.49335563E-01 -1.96720726E-02 -1.25341314E-02  6.32650702E-03
  5.24095512E-06 -1.82370308E-05 -1.78042456E-05 -1.12045088E-04 -5.26951993E-01
 -1.20969356E-01 -6.42705778E-05 -4.57052221E-01 -4.42881845E-01 -1.57049806E-05
 -1.55865964E-02 -2.96392767E-06 -9.00759510E-06 -3.75089848E-02 -4.11863621E-01
 -4.91984702E-01  1.76164174E-02  1.19251126E-02  4.96419462E-03  4.11771615E-01
  4.91947107E-01 -1.76169868E-02  1.19125322E-02  4.97751475E-03  9.04560680E-03
 -1.38223575E-01  4.49237350E-01  7.00689579E-01  1.06221647E-04 -1.85230973E-05
  5.28273831E-01  1.04114721E-04 -4.85470049E-05  1.17320161E-02 -1.00847969E-05
  4.00229265E-02 -2.03179926E-02 -2.73836765E-05 -3.94653896E-01 -3.49712340E-01
 -8.30643582E-03  2.27647776E-03 -2.26526014E-03 -3.94785246E-01 -3.49871463E-01
 -8.31461740E-03 -2.27088971E-03  2.28243245E-03 -9.04585005E-03  1.38224319E-01
 -4.49234946E-01  7.00688844E-01 -1.07289764E-04 -2.21768368E-05  5.28272916E-01
 -1.07708905E-04 -5.18691205E-05 -1.17317772E-02  9.85274206E-06  4.00222241E-02
  2.03176544E-02 -2.75633344E-05  3.94649474E-01  3.49707456E-01 -8.30625629E-03
 -2.27641136E-03 -2.26510426E-03  3.94787278E-01  3.49874261E-01 -8.31469877E-03
  2.27089272E-03  2.28254763E-03 -1.38028601E-01  1.21577573E+00 -7.19035398E+00
 -9.36717489E-02  1.19480289E-06  1.22508308E-05  3.83261051E+00  7.81897314E-05
 -1.71424743E-04  6.66056736E-02  6.20896478E-08  5.53135335E-02 -1.15362085E-01
  2.13534857E-05 -4.70804891E-02  1.90854487E-01 -1.67581311E-01 -1.64689671E-01
  1.64713378E-01 -4.71624461E-02  1.90747100E-01 -1.67576370E-01  1.64726124E-01
 -1.64695068E-01  1.38545674E-01 -1.21633567E+00  7.19254244E+00 -9.34844278E-02
 -1.44442783E-06  1.21044698E-05  3.83179796E+00 -7.86037949E-05 -1.72466403E-04
 -6.66137936E-02  1.75076912E-07  5.53693622E-02  1.15376231E-01  2.16679729E-05
  4.71544212E-02 -1.91995807E-01 -1.67561824E-01  1.64615329E-01  1.64639318E-01
  4.72375318E-02 -1.91887414E-01 -1.67556477E-01 -1.64652393E-01 -1.64621309E-01
  1.75952147E-01 -1.32007662E+00  3.16385085E+00 -3.14496126E-01 -1.53257691E-05
 -3.37419888E-05  9.30909526E-01  4.46590319E-05  1.52076500E-04 -4.11516261E-02
 -3.61525369E-06  4.42456964E-02  7.12768345E-02  4.95424793E-06  2.10917655E-01
 -1.51911116E+00 -1.11237533E-01  2.55886355E-02 -2.56155850E-02  2.10924688E-01
 -1.51905668E+00 -1.11238489E-01 -2.56094169E-02  2.55816902E-02  1.76377052E-01
 -1.31935042E+00  3.15980054E+00  3.14565332E-01 -1.64101621E-05  3.29670787E-05
 -9.33744352E-01  4.72932677E-05 -1.51208840E-04 -4.11199005E-02 -3.27297418E-06
 -4.42415475E-02  7.12218174E-02 -4.42950442E-06  2.10945769E-01 -1.51947714E+00
  1.11314472E-01  2.53981643E-02  2.54253234E-02  2.10953948E-01 -1.51942714E+00
  1.11315938E-01 -2.54199557E-02 -2.53920649E-02  1.40802359E-01 -1.00359372E+00
  1.21397212E+00 -4.59406561E-01 -1.39227526E-04  4.84825869E-05  1.79891279E+00
  5.20128650E-04 -1.65900047E-04 -3.03220041E-02  1.88305202E-06  1.09528416E-01
  5.25260303E-02 -3.74732318E-05  2.98791588E-01 -1.35516610E+00 -2.17987066E-01
  1.78803045E-02 -1.79286839E-02  2.98798785E-01 -1.35578786E+00 -2.17976968E-01
 -1.79702544E-02  1.79208036E-02 -1.41077879E-01  1.00297331E+00 -1.21335179E+00
 -4.59320706E-01  1.41373344E-04  5.06761220E-05  1.79891010E+00 -5.24137269E-04
 -1.72025158E-04  3.02914788E-02 -2.92408464E-06  1.09434728E-01 -5.24729890E-02
 -3.78482377E-05 -2.98676141E-01  1.35495172E+00 -2.17909847E-01 -1.77807786E-02
 -1.78289958E-02 -2.98685542E-01  1.35558559E+00 -2.17900052E-01  1.78718791E-02
  1.78226206E-02  2.28971222E-05 -1.45433142E-04  9.51303468E-05 -9.96858636E-05
  5.26175600E-01 -3.96946450E-01  3.14975166E-04 -1.93494149E+00  1.06469669E+00
 -1.13791957E-05 -4.15512190E-04  2.00997831E-05  1.84510402E-05  1.59676646E-01
  1.24241619E-01 -1.58121989E+00  5.30711175E-02  1.34053822E-01 -4.25783131E-02
 -1.24083267E-01  1.58078413E+00 -5.31505658E-02  1.34040039E-01 -4.25732899E-02
 -2.31517838E-05  1.45799189E-04 -9.68399269E-05 -1.00061680E-04 -5.10250327E-01
 -3.75582712E-01  3.15431963E-04  1.89267365E+00  9.85801396E-01  1.17747907E-05
 -6.17015992E-03  1.97008912E-05 -1.83749954E-05  1.59794718E-01 -1.19225825E-01
  1.51735873E+00  5.09264845E-02 -1.32410987E-01 -3.70857812E-02  1.19065958E-01
 -1.51692082E+00 -5.10052109E-02 -1.32397792E-01 -3.70806082E-02  2.15173285E-06
  6.85873410E-06 -1.48195623E-05 -1.70865752E-05 -3.75593994E-01  5.10242334E-01
  8.04752907E-06  9.85813838E-01 -1.89261794E+00 -9.41006136E-06  1.59794185E-01
 -1.28195535E-06 -4.48630738E-06  6.16629366E-03 -1.19134107E-01  1.51712747E+00
 -5.09629109E-02 -3.70863237E-02  1.32393499E-01  1.19181778E-01 -1.51713503E+00
  5.09674455E-02 -3.70863472E-02  1.32413129E-01  7.96549117E-07  1.58337318E-05
 -2.29241714E-05  1.15883585E-05 -3.96957378E-01 -5.26166237E-01  1.12446242E-05