 Entering Gaussian System, Link 0=/share/apps/gaussian/G09C01Z/srwang-mod-2020/g09/g09
 Input=eth_rhf.gjf
 Output=eth_rhf.log
 Initial command:
 /share/apps/gaussian/G09C01Z/srwang-mod-2020/g09/l1.exe /scratch/scr/srwang/gau/Gau-855.inp -scrdir=/scratch/scr/srwang/gau/
 Entering Link 1 = /share/apps/gaussian/G09C01Z/srwang-mod-2020/g09/l1.exe PID=       856.
  
 Copyright (c) 1988,1990,1992,1993,1995,1998,2003,2009,2011,
            Gaussian, Inc.  All Rights Reserved.
  
 This is part of the Gaussian(R) 09 program.  It is based on
 the Gaussian(R) 03 system (copyright 2003, Gaussian, Inc.),
 the Gaussian(R) 98 system (copyright 1998, Gaussian, Inc.),
 the Gaussian(R) 94 system (copyright 1995, Gaussian, Inc.),
 the Gaussian 92(TM) system (copyright 1992, Gaussian, Inc.),
 the Gaussian 90(TM) system (copyright 1990, Gaussian, Inc.),
 the Gaussian 88(TM) system (copyright 1988, Gaussian, Inc.),
 the Gaussian 86(TM) system (copyright 1986, Carnegie Mellon
 University), and the Gaussian 82(TM) system (copyright 1983,
 Carnegie Mellon University). Gaussian is a federally registered
 trademark of Gaussian, Inc.
  
 This software contains proprietary and confidential information,
 including trade secrets, belonging to Gaussian, Inc.
  
 This software is provided under written license and may be
 used, copied, transmitted, or stored only in accord with that
 written license.
  
 The following legend is applicable only to US Government
 contracts under FAR:
  
                    RESTRICTED RIGHTS LEGEND
  
 Use, reproduction and disclosure by the US Government is
 subject to restrictions as set forth in subparagraphs (a)
 and (c) of the Commercial Computer Software - Restricted
 Rights clause in FAR 52.227-19.
  
 Gaussian, Inc.
 340 Quinnipiac St., Bldg. 40, Wallingford CT 06492
  
  
 ---------------------------------------------------------------
 Warning -- This program may not be used in any manner that
 competes with the business of Gaussian, Inc. or will provide
 assistance to any competitor of Gaussian, Inc.  The licensee
 of this program is prohibited from giving any competitor of
 Gaussian, Inc. access to this program.  By using this program,
 the user acknowledges that Gaussian, Inc. is engaged in the
 business of creating and licensing software in the field of
 computational chemistry and represents and warrants to the
 licensee that it is not a competitor of Gaussian, Inc. and that
 it will not use this program in any manner prohibited above.
 ---------------------------------------------------------------
  

 Cite this work as:
 Gaussian 09, Revision C.01,
 M. J. Frisch, G. W. Trucks, H. B. Schlegel, G. E. Scuseria, 
 M. A. Robb, J. R. Cheeseman, G. Scalmani, V. Barone, B. Mennucci, 
 G. A. Petersson, H. Nakatsuji, M. Caricato, X. Li, H. P. Hratchian, 
 A. F. Izmaylov, J. Bloino, G. Zheng, J. L. Sonnenberg, M. Hada, 
 M. Ehara, K. Toyota, R. Fukuda, J. Hasegawa, M. Ishida, T. Nakajima, 
 Y. Honda, O. Kitao, H. Nakai, T. Vreven, J. A. Montgomery, Jr., 
 J. E. Peralta, F. Ogliaro, M. Bearpark, J. J. Heyd, E. Brothers, 
 K. N. Kudin, V. N. Staroverov, T. Keith, R. Kobayashi, J. Normand, 
 K. Raghavachari, A. Rendell, J. C. Burant, S. S. Iyengar, J. Tomasi, 
 M. Cossi, N. Rega, J. M. Millam, M. Klene, J. E. Knox, J. B. Cross, 
 V. Bakken, C. Adamo, J. Jaramillo, R. Gomperts, R. E. Stratmann, 
 O. Yazyev, A. J. Austin, R. Cammi, C. Pomelli, J. W. Ochterski, 
 R. L. Martin, K. Morokuma, V. G. Zakrzewski, G. A. Voth, 
 P. Salvador, J. J. Dannenberg, S. Dapprich, A. D. Daniels, 
 O. Farkas, J. B. Foresman, J. V. Ortiz, J. Cioslowski, 
 and D. J. Fox, Gaussian, Inc., Wallingford CT, 2010.
 
 ******************************************
 Gaussian 09:  EM64L-G09RevC.01 23-Sep-2011
                20-Jan-2021 
 ******************************************
 %chk=eth_rhf.chk
 %mem=1GB
 %nprocshared=1
 Will use up to    1 processors via shared memory.
 ------------------------------------------------
 #p nosymm int=nobasistransform RHF/def2svp 5D 7F
 ------------------------------------------------
 1/38=1/1;
 2/12=2,15=1,17=6,18=5,40=1/2;
 3/5=43,7=101,8=11,11=1,16=1,25=1,30=1,60=-1,116=1/1,2,3;
 4//1;
 5/5=2,38=5/2;
 6/7=2,8=2,9=2,10=2,28=1/1;
 99/5=1,9=1/99;
 Leave Link    1 at Wed Jan 20 01:39:16 2021, MaxMem=  134217728 cpu:       0.0
 (Enter /share/apps/gaussian/G09C01Z/srwang-mod-2020/g09/l101.exe)
 ------------------------------------
 HF file generated by AutoMR of MOKIT
 ------------------------------------
 Charge =  0 Multiplicity = 1
 Symbolic Z-Matrix:
 C                     0.73236  -0.00001  -0.00002 
 H                     1.30179  -0.65478   0.65484 
 H                     1.3018    0.65485  -0.65476 
 C                    -0.73236  -0.00001   0.00002 
 H                    -1.30179  -0.65478  -0.65484 
 H                    -1.3018    0.65485   0.65476 
 
 NAtoms=      6 NQM=        0 NQMF=       0 NMMI=      6 NMMIF=      0
                NMic=       0 NMicF=      0.
                    Isotopes and Nuclear Properties:
 (Nuclear quadrupole moments (NQMom) in fm**2, nuclear magnetic moments (NMagM)
  in nuclear magnetons)

  Atom         1           2           3           4           5           6
 IAtWgt=          12           1           1          12           1           1
 AtmWgt=  12.0000000   1.0078250   1.0078250  12.0000000   1.0078250   1.0078250
 NucSpn=           0           1           1           0           1           1
 AtZEff=   0.0000000   0.0000000   0.0000000   0.0000000   0.0000000   0.0000000
 NQMom=    0.0000000   0.0000000   0.0000000   0.0000000   0.0000000   0.0000000
 NMagM=    0.0000000   2.7928460   2.7928460   0.0000000   2.7928460   2.7928460
 Leave Link  101 at Wed Jan 20 01:39:16 2021, MaxMem=  134217728 cpu:       0.1
 (Enter /share/apps/gaussian/G09C01Z/srwang-mod-2020/g09/l202.exe)
                          Input orientation:                          
 ---------------------------------------------------------------------
 Center     Atomic      Atomic             Coordinates (Angstroms)
 Number     Number       Type             X           Y           Z
 ---------------------------------------------------------------------
      1          6           0        0.732363   -0.000012   -0.000020
      2          1           0        1.301788   -0.654778    0.654835
      3          1           0        1.301802    0.654848   -0.654762
      4          6           0       -0.732363   -0.000012    0.000020
      5          1           0       -1.301788   -0.654778   -0.654836
      6          1           0       -1.301802    0.654848    0.654762
 ---------------------------------------------------------------------
                    Distance matrix (angstroms):
                    1          2          3          4          5
     1  C    0.000000
     2  H    1.087106   0.000000
     3  H    1.087101   1.852070   0.000000
     4  C    1.464726   2.235010   2.235041   0.000000
     5  H    2.235011   2.914420   2.914413   1.087106   0.000000
     6  H    2.235041   2.914413   2.914379   1.087101   1.852071
                    6
     6  H    0.000000
 Symmetry turned off by external request.
 Stoichiometry    C2H4
 Framework group  C1[X(C2H4)]
 Deg. of freedom    12
 Full point group                 C1      NOp   1
 Rotational constants (GHZ):    146.1897517     23.5797844     23.5797016
 Leave Link  202 at Wed Jan 20 01:39:16 2021, MaxMem=  134217728 cpu:       0.0
 (Enter /share/apps/gaussian/G09C01Z/srwang-mod-2020/g09/l301.exe)
 Standard basis: def2SVP (5D, 7F)
 Integral buffers will be    131072 words long.
 Raffenetti 1 integral format.
 Two-electron integral symmetry is turned off.
    48 basis functions,    78 primitive gaussians,    50 cartesian basis functions
     8 alpha electrons        8 beta electrons
       nuclear repulsion energy        31.6688660762 Hartrees.
 IExCor=    0 DFT=F Ex=HF Corr=None ExCW=0 ScaHFX=  1.000000
 ScaDFX=  1.000000  1.000000  1.000000  1.000000 ScalE2=  1.000000  1.000000
 IRadAn=      0 IRanWt=     -1 IRanGd=            0 ICorTp=0
 NAtoms=    6 NActive=    6 NUniq=    6 SFac= 1.00D+00 NAtFMM=   60 NAOKFM=F Big=F
 Leave Link  301 at Wed Jan 20 01:39:16 2021, MaxMem=  134217728 cpu:       0.0
 (Enter /share/apps/gaussian/G09C01Z/srwang-mod-2020/g09/l302.exe)
 NPDir=0 NMtPBC=     1 NCelOv=     1 NCel=       1 NClECP=     1 NCelD=      1
         NCelK=      1 NCelE2=     1 NClLst=     1 CellRange=     0.0.
 One-electron integrals computed using PRISM.
   1 Symmetry operations used in ECPInt.
 ECPInt:  NShTT=     300 NPrTT=    1028 LenC2=     301 LenP2D=     973.
 LDataN:  DoStor=T MaxTD1= 4 Len=   56
 Bad symmetry data in SVDSVc:  NBasis=   48 NT=   48 NBlks=1 MaxCmp=1 NBF=   48
 NBasis=    48 RedAO= T  NBF=    48
 NBsUse=    48 1.00D-06 NBFU=    48
 Leave Link  302 at Wed Jan 20 01:39:16 2021, MaxMem=  134217728 cpu:       0.1
 (Enter /share/apps/gaussian/G09C01Z/srwang-mod-2020/g09/l303.exe)
 DipDrv:  MaxL=1.
 Leave Link  303 at Wed Jan 20 01:39:16 2021, MaxMem=  134217728 cpu:       0.0
 (Enter /share/apps/gaussian/G09C01Z/srwang-mod-2020/g09/l401.exe)
 Harris functional with IExCor=  205 diagonalized for initial guess.
 ExpMin= 1.22D-01 ExpMax= 1.24D+03 ExpMxC= 1.86D+02 IAcc=1 IRadAn=         1 AccDes= 0.00D+00
 HarFok:  IExCor=  205 AccDes= 0.00D+00 IRadAn=         1 IDoV= 1
 ScaDFX=  1.000000  1.000000  1.000000  1.000000
 FoFCou: FMM=F IPFlag=           0 FMFlag=      100000 FMFlg1=           0
         NFxFlg=           0 DoJE=T BraDBF=F KetDBF=T FulRan=T
         Omega=  0.000000  0.000000  1.000000  0.000000  0.000000 ICntrl=     500 IOpCl=  0
         NMat0=    1 NMatS0=    1 NMatT0=    0 NMatD0=    1 NMtDS0=    0 NMtDT0=    0
         I1Cent=           4 NGrid=           0.
 Symmetry not used in FoFCou.
 Harris En= -77.9871726826605    
 Leave Link  401 at Wed Jan 20 01:39:16 2021, MaxMem=  134217728 cpu:       0.1
 (Enter /share/apps/gaussian/G09C01Z/srwang-mod-2020/g09/l502.exe)
 Closed shell SCF:
 Requested convergence on RMS density matrix=1.00D-08 within 128 cycles.
 Requested convergence on MAX density matrix=1.00D-06.
 Requested convergence on             energy=1.00D-06.
 No special actions if energy rises.
 Using DIIS extrapolation, IDIIS=  1040.
 Two-electron integral symmetry not used.
 Keep R1 ints in memory in canonical form, NReq=1659722.
 IEnd=       26258 IEndB=       26258 NGot=   134217728 MDV=   133397183
 LenX=   133397183 LenY=   133394242
 Symmetry not used in FoFDir.
 MinBra= 0 MaxBra= 2 Meth= 1.
 IRaf=       0 NMat=   1 IRICut=       1 DoRegI=T DoRafI=F ISym2E= 0 JSym2E=0.

 Cycle   1  Pass 1  IDiag  1:
 E= -77.7092436796080    
 DIIS: error= 3.93D-02 at cycle   1 NSaved=   1.
 NSaved= 1 IEnMin= 1 EnMin= -77.7092436796080     IErMin= 1 ErrMin= 3.93D-02
 ErrMax= 3.93D-02 EMaxC= 1.00D-01 BMatC= 9.16D-02 BMatP= 9.16D-02
 IDIUse=3 WtCom= 6.07D-01 WtEn= 3.93D-01
 Coeff-Com:  0.100D+01
 Coeff-En:   0.100D+01
 Coeff:      0.100D+01
 Gap=     0.309 Goal=   None    Shift=    0.000
 GapD=    0.309 DampG=1.000 DampE=0.500 DampFc=0.5000 IDamp=-1.
 Damping current iteration by 5.00D-01
 RMSDP=7.71D-03 MaxDP=9.59D-02              OVMax= 1.35D-01

 Cycle   2  Pass 1  IDiag  1:
 E= -77.7587718219752     Delta-E=       -0.049528142367 Rises=F Damp=T
 DIIS: error= 1.82D-02 at cycle   2 NSaved=   2.
 NSaved= 2 IEnMin= 2 EnMin= -77.7587718219752     IErMin= 2 ErrMin= 1.82D-02
 ErrMax= 1.82D-02 EMaxC= 1.00D-01 BMatC= 1.70D-02 BMatP= 9.16D-02
 IDIUse=3 WtCom= 8.18D-01 WtEn= 1.82D-01
 Coeff-Com: -0.599D+00 0.160D+01
 Coeff-En:   0.000D+00 0.100D+01
 Coeff:     -0.489D+00 0.149D+01
 Gap=     0.294 Goal=   None    Shift=    0.000
 RMSDP=2.43D-03 MaxDP=2.98D-02 DE=-4.95D-02 OVMax= 2.90D-02

 Cycle   3  Pass 1  IDiag  1:
 E= -77.8017251711696     Delta-E=       -0.042953349194 Rises=F Damp=F
 DIIS: error= 1.60D-03 at cycle   3 NSaved=   3.
 NSaved= 3 IEnMin= 3 EnMin= -77.8017251711696     IErMin= 3 ErrMin= 1.60D-03
 ErrMax= 1.60D-03 EMaxC= 1.00D-01 BMatC= 9.66D-05 BMatP= 1.70D-02
 IDIUse=3 WtCom= 9.84D-01 WtEn= 1.60D-02
 Coeff-Com:  0.137D-01-0.733D-01 0.106D+01
 Coeff-En:   0.000D+00 0.000D+00 0.100D+01
 Coeff:      0.135D-01-0.721D-01 0.106D+01
 Gap=     0.292 Goal=   None    Shift=    0.000
 RMSDP=3.09D-04 MaxDP=3.17D-03 DE=-4.30D-02 OVMax= 5.87D-03

 Cycle   4  Pass 1  IDiag  1:
 E= -77.8018890104213     Delta-E=       -0.000163839252 Rises=F Damp=F
 DIIS: error= 5.05D-04 at cycle   4 NSaved=   4.
 NSaved= 4 IEnMin= 4 EnMin= -77.8018890104213     IErMin= 4 ErrMin= 5.05D-04
 ErrMax= 5.05D-04 EMaxC= 1.00D-01 BMatC= 6.55D-06 BMatP= 9.66D-05
 IDIUse=3 WtCom= 9.95D-01 WtEn= 5.05D-03
 Coeff-Com:  0.847D-02-0.131D-01-0.185D+00 0.119D+01
 Coeff-En:   0.000D+00 0.000D+00 0.000D+00 0.100D+01
 Coeff:      0.843D-02-0.130D-01-0.184D+00 0.119D+01
 Gap=     0.292 Goal=   None    Shift=    0.000
 RMSDP=1.23D-04 MaxDP=1.08D-03 DE=-1.64D-04 OVMax= 2.10D-03

 Cycle   5  Pass 1  IDiag  1:
 E= -77.8019070543923     Delta-E=       -0.000018043971 Rises=F Damp=F
 DIIS: error= 2.03D-04 at cycle   5 NSaved=   5.
 NSaved= 5 IEnMin= 5 EnMin= -77.8019070543923     IErMin= 5 ErrMin= 2.03D-04
 ErrMax= 2.03D-04 EMaxC= 1.00D-01 BMatC= 9.37D-07 BMatP= 6.55D-06
 IDIUse=3 WtCom= 9.98D-01 WtEn= 2.03D-03
 Coeff-Com:  0.176D-02-0.829D-03-0.775D-01 0.162D+00 0.915D+00
 Coeff-En:   0.000D+00 0.000D+00 0.000D+00 0.000D+00 0.100D+01
 Coeff:      0.176D-02-0.827D-03-0.774D-01 0.161D+00 0.915D+00
 Gap=     0.292 Goal=   None    Shift=    0.000
 RMSDP=4.07D-05 MaxDP=4.90D-04 DE=-1.80D-05 OVMax= 1.00D-03

 Cycle   6  Pass 1  IDiag  1:
 E= -77.8019094985681     Delta-E=       -0.000002444176 Rises=F Damp=F
 DIIS: error= 9.87D-05 at cycle   6 NSaved=   6.
 NSaved= 6 IEnMin= 6 EnMin= -77.8019094985681     IErMin= 6 ErrMin= 9.87D-05
 ErrMax= 9.87D-05 EMaxC= 1.00D-01 BMatC= 3.17D-07 BMatP= 9.37D-07
 IDIUse=1 WtCom= 1.00D+00 WtEn= 0.00D+00
 Coeff-Com: -0.770D-03 0.128D-02 0.227D-01-0.224D+00 0.292D+00 0.909D+00
 Coeff:     -0.770D-03 0.128D-02 0.227D-01-0.224D+00 0.292D+00 0.909D+00
 Gap=     0.292 Goal=   None    Shift=    0.000
 RMSDP=2.17D-05 MaxDP=1.90D-04 DE=-2.44D-06 OVMax= 5.24D-04

 Cycle   7  Pass 1  IDiag  1:
 E= -77.8019102572448     Delta-E=       -0.000000758677 Rises=F Damp=F
 DIIS: error= 3.42D-05 at cycle   7 NSaved=   7.
 NSaved= 7 IEnMin= 7 EnMin= -77.8019102572448     IErMin= 7 ErrMin= 3.42D-05
 ErrMax= 3.42D-05 EMaxC= 1.00D-01 BMatC= 2.63D-08 BMatP= 3.17D-07
 IDIUse=1 WtCom= 1.00D+00 WtEn= 0.00D+00
 Coeff-Com:  0.142D-03-0.588D-03 0.530D-02 0.389D-01-0.126D+00-0.493D+00
 Coeff-Com:  0.158D+01
 Coeff:      0.142D-03-0.588D-03 0.530D-02 0.389D-01-0.126D+00-0.493D+00
 Coeff:      0.158D+01
 Gap=     0.292 Goal=   None    Shift=    0.000
 RMSDP=1.24D-05 MaxDP=1.15D-04 DE=-7.59D-07 OVMax= 3.75D-04

 Cycle   8  Pass 1  IDiag  1:
 E= -77.8019104246358     Delta-E=       -0.000000167391 Rises=F Damp=F
 DIIS: error= 1.54D-05 at cycle   8 NSaved=   8.
 NSaved= 8 IEnMin= 8 EnMin= -77.8019104246358     IErMin= 8 ErrMin= 1.54D-05
 ErrMax= 1.54D-05 EMaxC= 1.00D-01 BMatC= 9.12D-09 BMatP= 2.63D-08
 IDIUse=1 WtCom= 1.00D+00 WtEn= 0.00D+00
 Coeff-Com: -0.733D-04 0.399D-03-0.552D-02-0.220D-01 0.159D+00 0.133D+00
 Coeff-Com: -0.103D+01 0.176D+01
 Coeff:     -0.733D-04 0.399D-03-0.552D-02-0.220D-01 0.159D+00 0.133D+00
 Coeff:     -0.103D+01 0.176D+01
 Gap=     0.292 Goal=   None    Shift=    0.000
 RMSDP=7.00D-06 MaxDP=5.54D-05 DE=-1.67D-07 OVMax= 2.68D-04

 Cycle   9  Pass 1  IDiag  1:
 E= -77.8019104801991     Delta-E=       -0.000000055563 Rises=F Damp=F
 DIIS: error= 1.04D-05 at cycle   9 NSaved=   9.
 NSaved= 9 IEnMin= 9 EnMin= -77.8019104801991     IErMin= 9 ErrMin= 1.04D-05
 ErrMax= 1.04D-05 EMaxC= 1.00D-01 BMatC= 4.17D-09 BMatP= 9.12D-09
 IDIUse=1 WtCom= 1.00D+00 WtEn= 0.00D+00
 Coeff-Com:  0.101D-03-0.584D-03 0.925D-02 0.213D-01-0.178D+00-0.303D+00
 Coeff-Com:  0.171D+01-0.413D+01 0.387D+01
 Coeff:      0.101D-03-0.584D-03 0.925D-02 0.213D-01-0.178D+00-0.303D+00
 Coeff:      0.171D+01-0.413D+01 0.387D+01
 Gap=     0.292 Goal=   None    Shift=    0.000
 RMSDP=1.34D-05 MaxDP=1.04D-04 DE=-5.56D-08 OVMax= 5.18D-04

 Cycle  10  Pass 1  IDiag  1:
 E= -77.8019105279944     Delta-E=       -0.000000047795 Rises=F Damp=F
 DIIS: error= 1.05D-06 at cycle  10 NSaved=  10.
 NSaved=10 IEnMin=10 EnMin= -77.8019105279944     IErMin=10 ErrMin= 1.05D-06
 ErrMax= 1.05D-06 EMaxC= 1.00D-01 BMatC= 6.18D-11 BMatP= 4.17D-09
 IDIUse=1 WtCom= 1.00D+00 WtEn= 0.00D+00
 Coeff-Com: -0.352D-04 0.207D-03-0.333D-02-0.748D-02 0.663D-01 0.106D+00
 Coeff-Com: -0.623D+00 0.160D+01-0.165D+01 0.151D+01
 Coeff:     -0.352D-04 0.207D-03-0.333D-02-0.748D-02 0.663D-01 0.106D+00
 Coeff:     -0.623D+00 0.160D+01-0.165D+01 0.151D+01
 Gap=     0.292 Goal=   None    Shift=    0.000
 RMSDP=1.48D-06 MaxDP=1.35D-05 DE=-4.78D-08 OVMax= 5.65D-05

 Cycle  11  Pass 1  IDiag  1:
 E= -77.8019105285500     Delta-E=       -0.000000000556 Rises=F Damp=F
 DIIS: error= 8.27D-08 at cycle  11 NSaved=  11.
 NSaved=11 IEnMin=11 EnMin= -77.8019105285500     IErMin=11 ErrMin= 8.27D-08
 ErrMax= 8.27D-08 EMaxC= 1.00D-01 BMatC= 2.87D-13 BMatP= 6.18D-11
 IDIUse=1 WtCom= 1.00D+00 WtEn= 0.00D+00
 Coeff-Com:  0.360D-05-0.241D-04 0.396D-03 0.856D-03-0.784D-02-0.125D-01
 Coeff-Com:  0.739D-01-0.193D+00 0.205D+00-0.261D+00 0.119D+01
 Coeff:      0.360D-05-0.241D-04 0.396D-03 0.856D-03-0.784D-02-0.125D-01
 Coeff:      0.739D-01-0.193D+00 0.205D+00-0.261D+00 0.119D+01
 Gap=     0.292 Goal=   None    Shift=    0.000
 RMSDP=5.52D-08 MaxDP=4.56D-07 DE=-5.56D-10 OVMax= 1.75D-06

 Cycle  12  Pass 1  IDiag  1:
 E= -77.8019105285512     Delta-E=       -0.000000000001 Rises=F Damp=F
 DIIS: error= 1.53D-08 at cycle  12 NSaved=  12.
 NSaved=12 IEnMin=12 EnMin= -77.8019105285512     IErMin=12 ErrMin= 1.53D-08
 ErrMax= 1.53D-08 EMaxC= 1.00D-01 BMatC= 6.21D-15 BMatP= 2.87D-13
 IDIUse=1 WtCom= 1.00D+00 WtEn= 0.00D+00
 Coeff-Com: -0.823D-06 0.546D-05-0.871D-04-0.181D-03 0.171D-02 0.270D-02
 Coeff-Com: -0.162D-01 0.425D-01-0.456D-01 0.634D-01-0.368D+00 0.132D+01
 Coeff:     -0.823D-06 0.546D-05-0.871D-04-0.181D-03 0.171D-02 0.270D-02
 Coeff:     -0.162D-01 0.425D-01-0.456D-01 0.634D-01-0.368D+00 0.132D+01
 Gap=     0.292 Goal=   None    Shift=    0.000
 RMSDP=8.51D-09 MaxDP=5.19D-08 DE=-1.24D-12 OVMax= 1.16D-07

 SCF Done:  E(RHF) =  -77.8019105286     A.U. after   12 cycles
             Convg  =    0.8505D-08             -V/T =  2.0068
 KE= 7.727723155090D+01 PE=-2.436159460165D+02 EE= 5.686793786080D+01
 Leave Link  502 at Wed Jan 20 01:39:16 2021, MaxMem=  134217728 cpu:       0.1
 (Enter /share/apps/gaussian/G09C01Z/srwang-mod-2020/g09/l601.exe)
 Copying SCF densities to generalized density rwf, IOpCl= 0 IROHF=0.

 **********************************************************************

            Population analysis using the SCF density.

 **********************************************************************

 Alpha  occ. eigenvalues --  -11.25910 -11.25836  -0.98672  -0.79753  -0.59262
 Alpha  occ. eigenvalues --   -0.58199  -0.57077  -0.25433
 Alpha virt. eigenvalues --    0.03785   0.21573   0.21866   0.26691   0.26788
 Alpha virt. eigenvalues --    0.43486   0.60056   0.66391   0.69095   0.74029
 Alpha virt. eigenvalues --    0.74433   0.78504   0.79044   0.84483   0.88912
 Alpha virt. eigenvalues --    0.92776   0.92795   0.98354   1.43258   1.47633
 Alpha virt. eigenvalues --    1.75621   1.76220   1.86453   1.89126   1.89156
 Alpha virt. eigenvalues --    1.93291   2.13335   2.13338   2.18579   2.37615
 Alpha virt. eigenvalues --    2.40412   2.59989   2.60277   2.62318   2.63908
 Alpha virt. eigenvalues --    3.02393   3.19010   3.25101   3.32035   3.32271
          Condensed to atoms (all electrons):
              1          2          3          4          5          6
     1  C    5.011632   0.403981   0.403969   0.455851  -0.046306  -0.046304
     2  H    0.403981   0.591180  -0.042294  -0.046306  -0.003847   0.005870
     3  H    0.403969  -0.042294   0.591204  -0.046304   0.005870  -0.003850
     4  C    0.455851  -0.046306  -0.046304   5.011633   0.403981   0.403969
     5  H   -0.046306  -0.003847   0.005870   0.403981   0.591180  -0.042294
     6  H   -0.046304   0.005870  -0.003850   0.403969  -0.042294   0.591204
 Mulliken atomic charges:
              1
     1  C   -0.182823
     2  H    0.091417
     3  H    0.091406
     4  C   -0.182823
     5  H    0.091417
     6  H    0.091406
 Sum of Mulliken atomic charges =  -0.00000
 Mulliken charges with hydrogens summed into heavy atoms:
              1
     1  C    0.000000
     4  C   -0.000000
 Sum of Mulliken charges with hydrogens summed into heavy atoms =  -0.00000
 Electronic spatial extent (au):  <R**2>=             90.2042
 Charge=             -0.0000 electrons
 Dipole moment (field-independent basis, Debye):
    X=              0.0000    Y=              0.0002    Z=             -0.0000  Tot=              0.0002
 Quadrupole moment (field-independent basis, Debye-Ang):
   XX=            -12.8414   YY=            -14.7439   ZZ=            -13.7925
   XY=             -0.0000   XZ=              0.0003   YZ=              0.0000
 Traceless Quadrupole moment (field-independent basis, Debye-Ang):
   XX=              0.9512   YY=             -0.9513   ZZ=              0.0001
   XY=             -0.0000   XZ=              0.0003   YZ=              0.0000
 Octapole moment (field-independent basis, Debye-Ang**2):
  XXX=              0.0000  YYY=              0.0003  ZZZ=              0.0000  XYY=              0.0000
  XXY=              0.0004  XXZ=             -0.0000  XZZ=             -0.0000  YZZ=              0.0000
  YYZ=              0.0000  XYZ=             -2.2885
 Hexadecapole moment (field-independent basis, Debye-Ang**3):
 XXXX=            -78.1669 YYYY=            -24.7022 ZZZZ=            -22.6403 XXXY=             -0.0000
 XXXZ=              0.0005 YYYX=             -0.0000 YYYZ=             -0.0000 ZZZX=              0.0008
 ZZZY=             -0.0000 XXYY=            -18.1254 XXZZ=            -14.4024 YYZZ=             -7.1433
 XXYZ=              0.0000 YYXZ=              0.0001 ZZXY=              0.0000
 N-N= 3.166886607623D+01 E-N=-2.436159460280D+02  KE= 7.727723155090D+01
 No NMR shielding tensors so no spin-rotation constants.
 Leave Link  601 at Wed Jan 20 01:39:17 2021, MaxMem=  134217728 cpu:       0.1
 (Enter /share/apps/gaussian/G09C01Z/srwang-mod-2020/g09/l9999.exe)
 1\1\GINC-XN01\SP\RHF\def2SVP\C2H4\SRWANG\20-Jan-2021\0\\#p nosymm int=
 nobasistransform RHF/def2svp 5D 7F\\HF file generated by AutoMR of MOK
 IT\\0,1\C,0,0.732363,-0.000012,-0.00002\H,0,1.301788,-0.654778,0.65483
 5\H,0,1.301802,0.654848,-0.654762\C,0,-0.732363,-0.000012,0.00002\H,0,
 -1.301788,-0.654778,-0.654836\H,0,-1.301802,0.654848,0.654762\\Version
 =EM64L-G09RevC.01\HF=-77.8019105\RMSD=8.505e-09\Dipole=0.,0.0000642,-0
 .0000003\Quadrupole=0.7072043,-0.7072917,0.0000875,-0.0000008,0.000224
 1,0.0000004\PG=C01 [X(C2H4)]\\@


 We're simply so accustomed to the marvels of everyday thought
 that we never wonder about it.
 -- Marvin Minsky in "Why people think computers are smart"
 Job cpu time:  0 days  0 hours  0 minutes  0.8 seconds.
 File lengths (MBytes):  RWF=      9 Int=      0 D2E=      0 Chk=      8 Scr=      1
 Normal termination of Gaussian 09 at Wed Jan 20 01:39:17 2021.
