

#INFO: **** input file is /share/home/srwang/ExSCF/test/dft/castpss.py ****
#import phf
from pyscf import lib
#import scipy
import numpy as np
import sys, os, contextlib

from pyphf import util, casdft, guess, autocas

#xyz = 'h2.xyz' #sys.argv[1]
#fch = 'test_uhf.fchk' #sys.argv[2]
#bas = '../h2.bas'
#bas = 'cc-pvtz'

lib.num_threads(4)

#for r in np.arange(0.8, 2.55, 0.1):
r = 2.0
output = 'castpss_%.1f.out' % r
os.system("echo '\n' > %s" % output)
#print('scan %.1f' % r)
with open(output, 'a', encoding='utf-8') as f:
    with contextlib.redirect_stdout(f):
        xyz = '''N 0.0 0.0 0.0; N 0.0 0.0 %f'''%r
        #mf = util.guess_from_fchk(xyz, bas, fch)
        bas = 'cc-pvtz'
        mf = guess.from_frag(xyz, bas, [[0],[1]], [0,0], [3,-3], cycle=50)
        guess.check_stab(mf)
        #f.flush()
        #mf2 = util.SUHF(mf)
        #mf2.cut_no = False
        #mf2.verbose = 4
        #mf2.max_cycle = 50
        #mf2.diis_on = True
        #mf2.output = 'sudft_%.1f.out'%r
        #mf2.kernel()
        mc = autocas.cas(mf, crazywfn=True)
        
        mf3 = casdft.CASDFT(mc)
        #mf3.dens = 'relaxed'
        mf3.suxc = 'TPSS'
        mf3.trunc = 'fc'
        mf3.kernel()
                    
#INFO: ******************** input file end ********************


System: uname_result(system='Linux', node='xn01', release='3.10.0-1127.el7.x86_64', version='#1 SMP Tue Feb 18 16:39:12 EST 2020', machine='x86_64', processor='x86_64')  Threads 4
Python 3.7.4 (default, Aug 13 2019, 20:35:49) 
[GCC 7.3.0]
numpy 1.17.2  scipy 1.4.1
Date: Wed May 19 15:29:08 2021
PySCF version 1.7.6a1
PySCF path  /share/home/srwang/pyscf/pyscf
GIT HEAD      ref: refs/heads/master
GIT master branch  80f71dfe77ac5f9caae26788acf76446987635bd

[CONFIG] conf_file None
[INPUT] verbose = 4
[INPUT] num. atoms = 2
[INPUT] num. electrons = 14
[INPUT] charge = 0
[INPUT] spin (= nelec alpha-beta = 2S) = 0
[INPUT] symmetry False subgroup None
[INPUT] Mole.unit = angstrom
[INPUT]  1 N      0.000000000000   0.000000000000   0.000000000000 AA    0.000000000000   0.000000000000   0.000000000000 Bohr
[INPUT]  2 N      0.000000000000   0.000000000000   2.000000000000 AA    0.000000000000   0.000000000000   3.779452249130 Bohr

nuclear repulsion = 12.96484166754
number of shells = 18
number of NR pGTOs = 84
number of NR cGTOs = 60
basis = cc-pvtz
ecp = {}
CPU time:         1.28
**** generating fragment guess ****
fragments: [('N', [0.0, 0.0, 0.0])] [('N', [0.0, 0.0, 2.0])]
converged SCF energy = -54.4006862065109  <S^2> = 3.7560899  2S+1 = 4.0030438
converged SCF energy = -54.4006862065109  <S^2> = 3.7560899  2S+1 = 4.0030438
       na   nb
atom1   5    2
atom2   2    5


******** <class 'pyscf.scf.uhf.UHF'> ********
method = UHF
initial guess = minao
damping factor = 0
level_shift factor = 0
DIIS = <class 'pyscf.scf.diis.CDIIS'>
diis_start_cycle = 1
diis_space = 8
SCF conv_tol = 1e-09
SCF conv_tol_grad = None
SCF max_cycles = 50
direct_scf = True
direct_scf_tol = 1e-13
chkfile to save SCF result = /share/home/srwang/ExSCF/test/dft/tmp19r_r1dc
max_memory 4000 MB (current use 120 MB)
number electrons alpha = 7  beta = 7
Set gradient conv threshold to 3.16228e-05
init E= -108.888411705218
  alpha nocc = 7  HOMO = -0.499803534259008  LUMO = 0.143320556821606
  beta  nocc = 7  HOMO = -0.49980353425902  LUMO = 0.143320556821606
cycle= 1 E= -108.785584426576  delta_E= 0.103  |g|= 0.0409  |ddm|= 0.258
  alpha nocc = 7  HOMO = -0.541287915654487  LUMO = 0.141738465759094
  beta  nocc = 7  HOMO = -0.541287915654493  LUMO = 0.141738465759094
cycle= 2 E= -108.787610829853  delta_E= -0.00203  |g|= 0.0192  |ddm|= 0.0346
  alpha nocc = 7  HOMO = -0.540081244424322  LUMO = 0.139877392679522
  beta  nocc = 7  HOMO = -0.540081244424327  LUMO = 0.139877392679519
cycle= 3 E= -108.788410530241  delta_E= -0.0008  |g|= 0.0103  |ddm|= 0.0293
  alpha nocc = 7  HOMO = -0.539654361738258  LUMO = 0.138357877764018
  beta  nocc = 7  HOMO = -0.539654361738263  LUMO = 0.138357877764011
cycle= 4 E= -108.788632407082  delta_E= -0.000222  |g|= 0.00337  |ddm|= 0.0197
  alpha nocc = 7  HOMO = -0.539053243477942  LUMO = 0.138507458966267
  beta  nocc = 7  HOMO = -0.539053243477946  LUMO = 0.138507458966263
cycle= 5 E= -108.788653527647  delta_E= -2.11e-05  |g|= 0.000696  |ddm|= 0.00623
  alpha nocc = 7  HOMO = -0.539364745550795  LUMO = 0.138501643255876
  beta  nocc = 7  HOMO = -0.539364745550803  LUMO = 0.138501643255872
cycle= 6 E= -108.788654272414  delta_E= -7.45e-07  |g|= 0.000157  |ddm|= 0.00112
  alpha nocc = 7  HOMO = -0.539334373932784  LUMO = 0.138535121317803
  beta  nocc = 7  HOMO = -0.539334373932785  LUMO = 0.138535121317796
cycle= 7 E= -108.788654305278  delta_E= -3.29e-08  |g|= 4.38e-05  |ddm|= 0.000251
  alpha nocc = 7  HOMO = -0.539376880141259  LUMO = 0.138515000541121
  beta  nocc = 7  HOMO = -0.539376880141268  LUMO = 0.138515000541121
cycle= 8 E= -108.788654307652  delta_E= -2.37e-09  |g|= 1.05e-05  |ddm|= 6.27e-05
  alpha nocc = 7  HOMO = -0.539382124931021  LUMO = 0.138516534953986
  beta  nocc = 7  HOMO = -0.539382124931032  LUMO = 0.13851653495398
cycle= 9 E= -108.78865430781  delta_E= -1.58e-10  |g|= 2.13e-06  |ddm|= 1.8e-05
  alpha nocc = 7  HOMO = -0.539381859938191  LUMO = 0.138516483358985
  beta  nocc = 7  HOMO = -0.539381859938194  LUMO = 0.138516483358977
Extra cycle  E= -108.788654307813  delta_E= -3.65e-12  |g|= 8.53e-07  |ddm|= 2.53e-06
converged SCF energy = -108.788654307813  <S^2> = 2.7586824  2S+1 = 3.4691108
time for guess: 0.361
**** checking UHF/UKS internal stability ...
tol 0.0001  toloose 0.01
max_cycle 50  max_space 12  max_memory 2000  incore True
davidson 0 1  |r|= 3.33  e= [2.84910794]  max|de|= 2.85  lindep= 0.749
davidson 1 2  |r|= 1.09  e= [2.07578831]  max|de|= -0.773  lindep= 0.984
davidson 2 3  |r|= 0.697  e= [1.38134261]  max|de|= -0.694  lindep= 0.999
davidson 3 4  |r|= 0.417  e= [0.8462383]  max|de|= -0.535  lindep= 0.974
davidson 4 5  |r|= 0.376  e= [0.70363588]  max|de|= -0.143  lindep= 0.981
davidson 5 6  |r|= 0.258  e= [0.58032146]  max|de|= -0.123  lindep= 0.989
davidson 6 7  |r|= 0.114  e= [0.55015159]  max|de|= -0.0302  lindep= 0.932
davidson 7 8  |r|= 0.0572  e= [0.5442194]  max|de|= -0.00593  lindep= 0.912
davidson 8 9  |r|= 0.0257  e= [0.54290939]  max|de|= -0.00131  lindep= 0.955
davidson 9 10  |r|= 0.0341  e= [0.54223063]  max|de|= -0.000679  lindep= 0.924
davidson 10 11  |r|= 0.0361  e= [0.54135552]  max|de|= -0.000875  lindep= 0.937
davidson 11 12  |r|= 0.0238  e= [0.54067059]  max|de|= -0.000685  lindep= 0.94
davidson 12 1  |r|= 0.0238  e= [0.54067059]  max|de|= 1.44e-15  lindep= 0.997
davidson 13 2  |r|= 0.0146  e= [0.5404941]  max|de|= -0.000176  lindep= 0.936
davidson 14 3  |r|= 0.0137  e= [0.54034275]  max|de|= -0.000151  lindep= 0.975
davidson 15 4  |r|= 0.0295  e= [0.53998869]  max|de|= -0.000354  lindep= 0.857
davidson 16 5  |r|= 0.041  e= [0.53916291]  max|de|= -0.000826  lindep= 0.866
davidson 17 6  |r|= 0.0166  e= [0.53862495]  max|de|= -0.000538  lindep= 0.926
davidson 18 7  |r|= 0.0116  e= [0.53843544]  max|de|= -0.00019  lindep= 0.955
davidson 19 8  |r|= 0.0141  e= [0.53829423]  max|de|= -0.000141  lindep= 0.917
davidson 20 9  |r|= 0.0174  e= [0.5380918]  max|de|= -0.000202  lindep= 0.87
root 0 converged  |r|= 0.00561  e= 0.5380068811184825  max|de|= -8.49e-05
converged 21 10  |r|= 0.00561  e= [0.53800688]  max|de|= -8.49e-05
UHF/UKS wavefunction is stable in the internal stability analysis
Converting <class 'pyscf.scf.uhf.UHF'> to RHF

******** <class 'pyscf.mcscf.mc1step.CASSCF'> ********
CAS (3e+3e, 6o), ncore = 4, nvir = 50
max_cycle_macro = 200
max_cycle_micro = 4
conv_tol = 1e-07
conv_tol_grad = None
orbital rotation max_stepsize = 0.02
augmented hessian ah_max_cycle = 30
augmented hessian ah_conv_tol = 1e-12
augmented hessian ah_linear dependence = 1e-14
augmented hessian ah_level shift = 0
augmented hessian ah_start_tol = 2.5
augmented hessian ah_start_cycle = 3
augmented hessian ah_grad_trust_region = 3
kf_trust_region = 3
kf_interval = 4
ci_response_space = 4
ci_grad_trust_region = 3
with_dep4 0
natorb = True
canonicalization = True
sorting_mo_energy = False
ao2mo_level = 2
chkfile = /share/home/srwang/ExSCF/test/dft/tmp19r_r1dc
max_memory 1000 MB (current use 141 MB)
internal_rotation = False
******** <class 'pyscf.fci.direct_spin1.FCISolver'> ********
max. cycles = 300
conv_tol = 1e-08
davidson only = True
linear dependence = 1e-10
level shift = 0.2
max iter space = 100
max_memory 1000 MB
nroots = 1
pspace_size = 1200
spin = 0
Start 1-step CASSCF
Start CASCI
    CPU time for integral transformation to CAS space      0.00 sec, wall time      0.00 sec
core energy = -99.3282436735262
    CPU time for effective h1e in CAS space      0.00 sec, wall time      0.00 sec
davidson 0 1  |r|= 0.427  e= [-8.86603989]  max|de|= -8.87  lindep= 0.907
davidson 1 2  |r|= 0.304  e= [-9.08094093]  max|de|= -0.215  lindep= 0.661
davidson 2 3  |r|= 0.31  e= [-9.19802113]  max|de|= -0.117  lindep= 0.857
davidson 3 4  |r|= 0.184  e= [-9.30449646]  max|de|= -0.106  lindep=  0.5
davidson 4 5  |r|= 0.161  e= [-9.34971493]  max|de|= -0.0452  lindep= 0.744
davidson 5 6  |r|= 0.235  e= [-9.38779814]  max|de|= -0.0381  lindep= 0.908
davidson 6 7  |r|= 0.188  e= [-9.43520696]  max|de|= -0.0474  lindep= 0.964
davidson 7 8  |r|= 0.0647  e= [-9.4714892]  max|de|= -0.0363  lindep= 0.99
davidson 8 9  |r|= 0.0278  e= [-9.47660702]  max|de|= -0.00512  lindep= 0.996
davidson 9 10  |r|= 0.0231  e= [-9.47836666]  max|de|= -0.00176  lindep= 0.982
davidson 10 11  |r|= 0.00852  e= [-9.47885026]  max|de|= -0.000484  lindep= 0.999
davidson 11 12  |r|= 0.00437  e= [-9.47887786]  max|de|= -2.76e-05  lindep= 0.996
davidson 12 13  |r|= 0.00245  e= [-9.47890861]  max|de|= -3.07e-05  lindep= 0.985
davidson 13 14  |r|= 0.00164  e= [-9.4789139]  max|de|= -5.29e-06  lindep= 0.985
davidson 14 15  |r|= 0.000714  e= [-9.47891744]  max|de|= -3.54e-06  lindep= 0.977
davidson 15 16  |r|= 0.00029  e= [-9.4789179]  max|de|= -4.64e-07  lindep= 0.987
davidson 16 17  |r|= 9.7e-05  e= [-9.47891799]  max|de|= -8.13e-08  lindep= 0.99
davidson 17 18  |r|= 7.21e-05  e= [-9.478918]  max|de|= -1.42e-08  lindep= 0.986
root 0 converged  |r|= 2.85e-05  e= -9.47891800574126  max|de|= -6.02e-09
converged 18 19  |r|= 2.85e-05  e= [-9.47891801]  max|de|= -6.02e-09
    CPU time for FCI solver      1.18 sec, wall time      0.29 sec
CAS space CI energy = -9.47891800574126
CASCI E = -108.807161679267  S^2 = 0.0000000
Set conv_tol_grad to 0.000316228
    CPU time for Initializing 1-step CASSCF      1.36 sec, wall time      0.34 sec
    CPU time for CAS DM      0.00 sec, wall time      0.00 sec
    |g|=0.0844
    CPU time for gen h_op      0.08 sec, wall time      0.02 sec
    imic 1(3)  |g[o]|=0.0216  |dxi|=0.0287  max(|x|)=0.0262  |dr|=0.0287  eig=-0.0011  seig=0.00654
    CPU time for aug_hess in 1 inner iters      0.09 sec, wall time      0.02 sec
    CPU time for orbital rotation      0.17 sec, wall time      0.04 sec
    CPU time for update CAS DM      0.18 sec, wall time      0.05 sec
micro 1  |u-1|=0.0406  |g[o]|=0.0844  |g[c]|=0.00555  |ddm|=0.025
    CPU time for micro iter 1      0.00 sec, wall time      0.00 sec
    |g|=0.0227 (keyframe), |g-correction|=0.00305
    CPU time for gen h_op      0.08 sec, wall time      0.02 sec
    imic 2(4)  |g[o]|=0.00433  |dxi|=0.0133  max(|x|)=0.00909  |dr|=0.0133  eig=-0.000123  seig=0.00653
    CPU time for aug_hess in 2 inner iters      0.03 sec, wall time      0.01 sec
    CPU time for orbital rotation      0.11 sec, wall time      0.03 sec
    CPU time for update CAS DM      0.18 sec, wall time      0.04 sec
micro 2  |u-1|=0.0591  |g[o]|=0.0227  |g[c]|=0.0032  |ddm|=0.0371
    CPU time for micro iter 2      0.00 sec, wall time      0.00 sec
    |g|=0.00486 (keyframe), |g-correction|=0.00143
    CPU time for gen h_op      0.08 sec, wall time      0.02 sec
    imic 3(5)  |g[o]|=0.00317  |dxi|=0.00317  max(|x|)=0.00145  |dr|=0.00317  eig=-9.34e-06  seig=0.00652
    imic 4(6)  |g[o]|=0.00138  |dxi|=0.00151  max(|x|)=0.000813  |dr|=0.00431  eig=-2.3e-06  seig=0.00638
    CPU time for aug_hess in 4 inner iters      0.06 sec, wall time      0.02 sec
    CPU time for orbital rotation      0.14 sec, wall time      0.04 sec
    CPU time for update CAS DM      0.19 sec, wall time      0.05 sec
micro 3  |u-1|=0.0634  |g[o]|=0.00486  |g[c]|=0.00151  |ddm|=0.0407
    CPU time for micro iter 3      0.00 sec, wall time      0.00 sec
    |g|=0.00138 (keyframe), |g-correction|=0.000355
    CPU time for gen h_op      0.08 sec, wall time      0.02 sec
    imic 5(7)  |g[o]|=0.000847  |dxi|=0.000859  max(|x|)=0.000529  |dr|=0.000859  eig=-5.98e-07  seig=0.00632
    imic 6(8)  |g[o]|=0.000392  |dxi|=0.000331  max(|x|)=0.000163  |dr|=0.00098  eig=-1.7e-07  seig=0.00631
    CPU time for aug_hess in 6 inner iters      0.07 sec, wall time      0.02 sec
    CPU time for orbital rotation      0.15 sec, wall time      0.04 sec
micro 4  |u-1|=0.0644  |g[o]|=0.00138
Active space overlap to initial guess, SVD = [0.99997375 0.99997375 0.99993718 0.99993718 0.99972628 0.99946361]
Active space overlap to last step, SVD = [0.99997375 0.99997375 0.99993718 0.99993718 0.99972628 0.99946361]
    CPU time for update eri      0.16 sec, wall time      0.04 sec
Start CASCI
    CPU time for integral transformation to CAS space      0.00 sec, wall time      0.00 sec
core energy = -99.3092886284219
    CPU time for effective h1e in CAS space      0.00 sec, wall time      0.00 sec
davidson 0 1  |r|= 0.000492  e= [-9.49911518]  max|de|= -9.5  lindep=    1
davidson 1 2  |r|= 0.000465  e= [-9.49911543]  max|de|= -2.56e-07  lindep= 0.998
davidson 2 3  |r|= 0.000224  e= [-9.49911555]  max|de|= -1.15e-07  lindep= 0.998
davidson 3 4  |r|= 0.000104  e= [-9.49911558]  max|de|= -3.21e-08  lindep= 0.952
davidson 4 5  |r|= 8.62e-05  e= [-9.49911559]  max|de|= -1.43e-08  lindep= 0.945
root 0 converged  |r|= 3.05e-05  e= -9.49911560097055  max|de|= -6.82e-09
converged 5 6  |r|= 3.05e-05  e= [-9.4991156]  max|de|= -6.82e-09
    CPU time for FCI solver      0.55 sec, wall time      0.14 sec
CAS space CI energy = -9.49911560097055
macro iter 1 (11 JK  4 micro), CASSCF E = -108.808404229392  dE = -0.0012425501  S^2 = 0.0000000
               |grad[o]|=0.0844  |grad[c]|= 0.0015121719677877654  |ddm|=0.0407
    CPU time for CASCI solver      0.59 sec, wall time      0.15 sec
    CPU time for macro iter 1      1.88 sec, wall time      0.47 sec
    |g|=0.000702
    CPU time for gen h_op      0.08 sec, wall time      0.02 sec
    imic 1(3)  |g[o]|=0.000173  |dxi|=0.000396  max(|x|)=0.000196  |dr|=0.000396  eig=-2.23e-07  seig=1.06e-07
    CPU time for aug_hess in 1 inner iters      0.09 sec, wall time      0.02 sec
    CPU time for orbital rotation      0.19 sec, wall time      0.05 sec
    CPU time for update CAS DM      0.18 sec, wall time      0.04 sec
micro 1  |u-1|=0.00056  |g[o]|=0.000702  |g[c]|=5.43e-05  |ddm|=0.000317
    CPU time for micro iter 1      0.00 sec, wall time      0.00 sec
    |g|=0.000178 (keyframe), |g-correction|=3.23e-05
    CPU time for gen h_op      0.08 sec, wall time      0.02 sec
    imic 2(4)  |g[o]|=7.28e-05  |dxi|=7.1e-05  max(|x|)=2.98e-05  |dr|=7.1e-05  eig=-8.38e-09  seig=1e-07
    imic 3(5)  |g[o]|=2.33e-05  |dxi|=2.04e-05  max(|x|)=1.23e-05  |dr|=8.07e-05  eig=-7.52e-10  seig=9.98e-08
    CPU time for orbital rotation      0.14 sec, wall time      0.04 sec
    CPU time for update CAS DM      0.18 sec, wall time      0.04 sec
micro 2  |u-1|=0.000586  |g[o]|=0.000178  |g[c]|=2.76e-05  |ddm|=0.00039
    CPU time for micro iter 2      0.00 sec, wall time      0.00 sec
Active space overlap to initial guess, SVD = [0.99997368 0.99997368 0.99993481 0.99993481 0.99972641 0.99945908]
Active space overlap to last step, SVD = [1.         1.         0.99999999 0.99999997 0.99999997 0.99999997]
    CPU time for update eri      0.15 sec, wall time      0.04 sec
Start CASCI
    CPU time for integral transformation to CAS space      0.00 sec, wall time      0.00 sec
core energy = -99.3092440260069
    CPU time for effective h1e in CAS space      0.00 sec, wall time      0.00 sec
davidson 0 1  |r|= 7.11e-06  e= [-9.49916044]  max|de|= -9.5  lindep=    1
Linear dependency in trial subspace. |r| for each state [7.105907447102595e-06]
    CPU time for FCI solver      0.30 sec, wall time      0.07 sec
CAS space CI energy = -9.49916044349692
macro iter 2 (6 JK  2 micro), CASSCF E = -108.808404469504  dE = -2.4011139e-07  S^2 = 0.0000000
               |grad[o]|=0.000702  |grad[c]|= 2.7571617252012253e-05  |ddm|=0.00039
    CPU time for CASCI solver      0.33 sec, wall time      0.08 sec
    CPU time for macro iter 2      1.16 sec, wall time      0.29 sec
    |g|=2.44e-05
    CPU time for gen h_op      0.08 sec, wall time      0.02 sec
    CPU time for orbital rotation      0.10 sec, wall time      0.02 sec
    CPU time for update CAS DM      0.18 sec, wall time      0.04 sec
micro 1  |u-1|=    0  |g[o]|=2.44e-05  |g[c]|=7.11e-06  |ddm|=1.18e-05
    CPU time for micro iter 1      0.00 sec, wall time      0.00 sec
Active space overlap to initial guess, SVD = [0.99997368 0.99997368 0.99993481 0.99993481 0.99972641 0.99945908]
Active space overlap to last step, SVD = [1. 1. 1. 1. 1. 1.]
    CPU time for update eri      0.15 sec, wall time      0.04 sec
Start CASCI
    CPU time for integral transformation to CAS space      0.00 sec, wall time      0.00 sec
core energy = -99.3092440260069
    CPU time for effective h1e in CAS space      0.00 sec, wall time      0.00 sec
davidson 0 1  |r|= 1.95e-06  e= [-9.49916044]  max|de|= -9.5  lindep=    1
Linear dependency in trial subspace. |r| for each state [1.9481608118372646e-06]
    CPU time for FCI solver      0.29 sec, wall time      0.07 sec
CAS space CI energy = -9.49916044355474
macro iter 3 (1 JK  1 micro), CASSCF E = -108.808404469562  dE = -5.7838179e-11  S^2 = 0.0000000
               |grad[o]|=2.44e-05  |grad[c]|= 7.105907447076553e-06  |ddm|=1.18e-05
    CPU time for CASCI solver      0.33 sec, wall time      0.08 sec
    CPU time for macro iter 3      0.75 sec, wall time      0.19 sec
1-step CASSCF converged in 3 macro (18 JK 7 micro) steps
CASSCF canonicalization
where_natorb [0, 2, 1, 4, 3, 5]
Natural occ [1.64520234 1.29702928 1.29702928 0.70295435 0.70295435 0.35483039]
Natural orbital (expansion on meta-Lowdin AOs) in CAS space
               #1        #2        #3        #4        #5       
  0 N 1s      -0.00121  -0.00000   0.00000   0.00000  -0.00000
  0 N 2s      -0.00353   0.00000   0.00000  -0.00000   0.00000
  0 N 3s      -0.02214  -0.00000  -0.00000  -0.00000  -0.00000
  0 N 4s       0.00267  -0.00000   0.00000   0.00000   0.00000
  0 N 2px      0.00000   0.44454   0.54887   0.55875   0.43318
  0 N 2py     -0.00000  -0.54887   0.44454   0.43318  -0.55875
  0 N 2pz     -0.70614   0.00000   0.00000   0.00000   0.00000
  0 N 3px     -0.00000  -0.01894  -0.02338  -0.00861  -0.00667
  0 N 3py      0.00000   0.02338  -0.01894  -0.00667   0.00861
  0 N 3pz      0.01916  -0.00000  -0.00000  -0.00000  -0.00000
  0 N 4px      0.00000   0.00097   0.00120  -0.00322  -0.00249
  0 N 4py     -0.00000  -0.00120   0.00097  -0.00249   0.00322
  0 N 4pz      0.00502   0.00000   0.00000   0.00000   0.00000
  0 N 3dxy     0.00000  -0.00000  -0.00000  -0.00000   0.00000
  0 N 3dyz     0.00000  -0.01104   0.00894   0.00248  -0.00321
  0 N 3dz^2   -0.02103   0.00000   0.00000   0.00000   0.00000
  0 N 3dxz     0.00000   0.00894   0.01104   0.00321   0.00248
 0 N 3dx2-y2   0.00000   0.00000   0.00000   0.00000  -0.00000
  0 N 4dxy     0.00000   0.00000  -0.00000   0.00000  -0.00000
  0 N 4dyz    -0.00000  -0.00308   0.00250  -0.00037   0.00048
  0 N 4dz^2   -0.00407   0.00000   0.00000   0.00000   0.00000
  0 N 4dxz     0.00000   0.00250   0.00308  -0.00048  -0.00037
 0 N 4dx2-y2   0.00000   0.00000  -0.00000  -0.00000  -0.00000
  0 N 4f-3     0.00000  -0.00000   0.00000   0.00000  -0.00000
  0 N 4f-2     0.00000   0.00000   0.00000  -0.00000  -0.00000
  0 N 4f-1    -0.00000  -0.00130   0.00106  -0.00100   0.00129
  0 N 4f 0    -0.00294  -0.00000   0.00000   0.00000  -0.00000
  0 N 4f 1     0.00000   0.00106   0.00130  -0.00129  -0.00100
  0 N 4f 2    -0.00000   0.00000  -0.00000   0.00000   0.00000
  0 N 4f 3     0.00000  -0.00000  -0.00000  -0.00000  -0.00000
  1 N 1s      -0.00121   0.00000  -0.00000   0.00000   0.00000
  1 N 2s      -0.00352  -0.00000  -0.00000   0.00000  -0.00000
  1 N 3s      -0.02214   0.00000   0.00000   0.00000   0.00000
  1 N 4s       0.00267  -0.00000  -0.00000  -0.00000   0.00000
  1 N 2px      0.00000   0.44454   0.54887  -0.55875  -0.43318
  1 N 2py     -0.00000  -0.54887   0.44454  -0.43318   0.55875
  1 N 2pz      0.70614  -0.00000   0.00000   0.00000   0.00000
  1 N 3px      0.00000  -0.01894  -0.02338   0.00861   0.00667
  1 N 3py      0.00000   0.02338  -0.01894   0.00667  -0.00861
  1 N 3pz     -0.01915  -0.00000  -0.00000  -0.00000  -0.00000
  1 N 4px     -0.00000   0.00097   0.00120   0.00322   0.00249
  1 N 4py     -0.00000  -0.00120   0.00097   0.00249  -0.00322
  1 N 4pz     -0.00502   0.00000   0.00000   0.00000  -0.00000
  1 N 3dxy     0.00000   0.00000  -0.00000   0.00000  -0.00000
  1 N 3dyz     0.00000   0.01104  -0.00894   0.00248  -0.00321
  1 N 3dz^2   -0.02103   0.00000  -0.00000  -0.00000   0.00000
  1 N 3dxz     0.00000  -0.00894  -0.01104   0.00321   0.00248
 1 N 3dx2-y2   0.00000   0.00000  -0.00000  -0.00000  -0.00000
  1 N 4dxy     0.00000  -0.00000  -0.00000  -0.00000   0.00000
  1 N 4dyz     0.00000   0.00308  -0.00250  -0.00037   0.00048
  1 N 4dz^2   -0.00407   0.00000  -0.00000  -0.00000   0.00000
  1 N 4dxz     0.00000  -0.00250  -0.00308  -0.00048  -0.00037
 1 N 4dx2-y2   0.00000   0.00000   0.00000   0.00000   0.00000
  1 N 4f-3     0.00000  -0.00000   0.00000  -0.00000   0.00000
  1 N 4f-2    -0.00000   0.00000   0.00000  -0.00000  -0.00000
  1 N 4f-1     0.00000  -0.00130   0.00106   0.00100  -0.00129
  1 N 4f 0     0.00294  -0.00000   0.00000   0.00000  -0.00000
  1 N 4f 1    -0.00000   0.00106   0.00130   0.00129   0.00100
  1 N 4f 2    -0.00000   0.00000  -0.00000   0.00000   0.00000
  1 N 4f 3     0.00000  -0.00000  -0.00000   0.00000   0.00000
               #6       
  0 N 1s       0.00025
  0 N 2s      -0.12202
  0 N 3s       0.01357
  0 N 4s       0.00186
  0 N 2px      0.00000
  0 N 2py     -0.00000
  0 N 2pz     -0.69631
  0 N 3px     -0.00000
  0 N 3py      0.00000
  0 N 3pz     -0.00058
  0 N 4px      0.00000
  0 N 4py     -0.00000
  0 N 4pz      0.00778
  0 N 3dxy     0.00000
  0 N 3dyz    -0.00000
  0 N 3dz^2    0.00144
  0 N 3dxz    -0.00000
 0 N 3dx2-y2  -0.00000
  0 N 4dxy    -0.00000
  0 N 4dyz    -0.00000
  0 N 4dz^2    0.00342
  0 N 4dxz    -0.00000
 0 N 4dx2-y2  -0.00000
  0 N 4f-3    -0.00000
  0 N 4f-2     0.00000
  0 N 4f-1    -0.00000
  0 N 4f 0     0.00261
  0 N 4f 1    -0.00000
  0 N 4f 2     0.00000
  0 N 4f 3    -0.00000
  1 N 1s      -0.00025
  1 N 2s       0.12202
  1 N 3s      -0.01357
  1 N 4s      -0.00186
  1 N 2px     -0.00000
  1 N 2py      0.00000
  1 N 2pz     -0.69631
  1 N 3px     -0.00000
  1 N 3py     -0.00000
  1 N 3pz     -0.00058
  1 N 4px      0.00000
  1 N 4py      0.00000
  1 N 4pz      0.00778
  1 N 3dxy    -0.00000
  1 N 3dyz    -0.00000
  1 N 3dz^2   -0.00144
  1 N 3dxz    -0.00000
 1 N 3dx2-y2  -0.00000
  1 N 4dxy     0.00000
  1 N 4dyz    -0.00000
  1 N 4dz^2   -0.00342
  1 N 4dxz    -0.00000
 1 N 4dx2-y2  -0.00000
  1 N 4f-3    -0.00000
  1 N 4f-2     0.00000
  1 N 4f-1     0.00000
  1 N 4f 0     0.00261
  1 N 4f 1     0.00000
  1 N 4f 2     0.00000
  1 N 4f 3    -0.00000
<CAS-nat-orb|mo-hf>  5  5    0.99945908
<CAS-nat-orb|mo-hf>  6  7    0.99560083
<CAS-nat-orb|mo-hf>  7  6    0.99560083
<CAS-nat-orb|mo-hf>  8  9    0.99343440
<CAS-nat-orb|mo-hf>  9  8    0.99343440
<CAS-nat-orb|mo-hf>  10  10    0.99972641
i = 1  <i|F|i> = -15.65413407
i = 2  <i|F|i> = -15.65403570
i = 3  <i|F|i> =  -1.01003991
i = 4  <i|F|i> =  -0.90833158
i = 5  <i|F|i> =  -0.38518623
i = 6  <i|F|i> =  -0.26556378
i = 7  <i|F|i> =  -0.26556378
i = 8  <i|F|i> =  -0.11325253
i = 9  <i|F|i> =  -0.11325253
i = 10  <i|F|i> =   0.05846132
i = 11  <i|F|i> =   0.58152623
i = 12  <i|F|i> =   0.61793684
i = 13  <i|F|i> =   0.61793684
i = 14  <i|F|i> =   0.66510662
i = 15  <i|F|i> =   0.68716173
i = 16  <i|F|i> =   0.68716173
i = 17  <i|F|i> =   0.74687834
i = 18  <i|F|i> =   1.00892016
i = 19  <i|F|i> =   1.10043193
i = 20  <i|F|i> =   1.10043193
i = 21  <i|F|i> =   1.20260233
i = 22  <i|F|i> =   1.20260234
i = 23  <i|F|i> =   1.30378298
i = 24  <i|F|i> =   1.30856508
i = 25  <i|F|i> =   1.30856508
i = 26  <i|F|i> =   1.56373285
i = 27  <i|F|i> =   1.56373285
i = 28  <i|F|i> =   2.01276813
i = 29  <i|F|i> =   3.14797999
i = 30  <i|F|i> =   3.21041691
i = 31  <i|F|i> =   3.21041691
i = 32  <i|F|i> =   3.27294297
i = 33  <i|F|i> =   3.27294297
i = 34  <i|F|i> =   3.42493510
i = 35  <i|F|i> =   4.07628261
i = 36  <i|F|i> =   4.07628261
i = 37  <i|F|i> =   4.08514315
i = 38  <i|F|i> =   4.18369832
i = 39  <i|F|i> =   4.18369832
i = 40  <i|F|i> =   4.22257068
i = 41  <i|F|i> =   4.22257068
i = 42  <i|F|i> =   4.22952364
i = 43  <i|F|i> =   4.22952364
i = 44  <i|F|i> =   4.26557933
i = 45  <i|F|i> =   4.26557933
i = 46  <i|F|i> =   4.38521715
i = 47  <i|F|i> =   4.38521715
i = 48  <i|F|i> =   4.53126515
i = 49  <i|F|i> =   4.79247409
i = 50  <i|F|i> =   4.79247409
i = 51  <i|F|i> =   4.79811701
i = 52  <i|F|i> =   4.79811702
i = 53  <i|F|i> =   4.86738333
i = 54  <i|F|i> =   4.86738333
i = 55  <i|F|i> =   4.99340858
i = 56  <i|F|i> =   5.12349306
i = 57  <i|F|i> =   5.12349306
i = 58  <i|F|i> =   5.62315061
i = 59  <i|F|i> =   5.85441306
i = 60  <i|F|i> =   6.40845123
    CPU time for 1-step CASSCF      5.61 sec, wall time      1.43 sec
CASSCF energy = -108.808404469562
CASCI E = -108.808404469562  E(CI) = -9.49916044355474  S^2 = 0.0000000

******** <class 'pyphf.casdft.CASDFT'> ********
truncation: fc
***** Start DFT Correlation for CAS+DFT **********
tot grids = 28092
grids:  {} 
 (28092, 3)
natocc [2.         2.         2.         2.         1.64520234 1.29702928
 1.29702928 0.70295435 0.70295435 0.35483039 0.         0.
 0.         0.         0.         0.         0.         0.
 0.         0.         0.         0.         0.         0.
 0.         0.         0.         0.         0.         0.
 0.         0.         0.         0.         0.         0.
 0.         0.         0.         0.         0.         0.
 0.         0.         0.         0.         0.         0.
 0.         0.         0.         0.         0.         0.
 0.         0.         0.         0.         0.         0.        ]
ref [2.0, 2.0, 2.0, 2.0, 2.0, 2.0, 2.0, 2.0, 2.0, 2.0, 0.0, 0.0, 0.0, 0.0, 0.0, 0.0, 0.0, 0.0, 0.0, 0.0, 0.0, 0.0, 0.0, 0.0, 0.0, 0.0, 0.0, 0.0, 0.0, 0.0, 0.0, 0.0, 0.0, 0.0, 0.0, 0.0, 0.0, 0.0, 0.0, 0.0, 0.0, 0.0, 0.0, 0.0, 0.0, 0.0, 0.0, 0.0, 0.0, 0.0, 0.0, 0.0, 0.0, 0.0, 0.0, 0.0, 0.0, 0.0, 0.0, 0.0]
rhoall 0.0 198.42503966195176
gamma 0.0 198.42503966195176
eta 1.0 1.2864579712284276
f 0.5823323129223263 1.0
[7.00000044 7.00000044] [14.00000088]
core [2.0, 2.0, 2.0, 2.0, 0.0, 0.0, 0.0, 0.0, 0.0, 0.0, 0.0, 0.0, 0.0, 0.0, 0.0, 0.0, 0.0, 0.0, 0.0, 0.0, 0.0, 0.0, 0.0, 0.0, 0.0, 0.0, 0.0, 0.0, 0.0, 0.0, 0.0, 0.0, 0.0, 0.0, 0.0, 0.0, 0.0, 0.0, 0.0, 0.0, 0.0, 0.0, 0.0, 0.0, 0.0, 0.0, 0.0, 0.0, 0.0, 0.0, 0.0, 0.0, 0.0, 0.0, 0.0, 0.0, 0.0, 0.0, 0.0, 0.0]
rhoall 0.0 198.3874141077508
gamma 0.0 198.42503966195176
eta 1.0 1.2864579712284276
eta1 1.0 14.260773666094677
eta2 1.0 16.53682202065468
f 0.0 0.2642355899186518
[3.99999998 3.99999998] [14.00000088]
dE_fc: -0.019225
E(CAS) =   -108.80840447
E_c(TPSS) =     -0.42030678
E(CAS+DFT) =   -109.22871125
f E_c(TPSS) =     -0.32263688
E(CAS+fDFT) =   -109.13104135
fc E_c(TPSS) =     -0.34186208
E(CAS+fcDFT) =   -109.15026654
time for DFT: 0.685
