 Entering Gaussian System, Link 0=g09
 Input=cr2.gjf
 Output=cr2.log
 Initial command:
 /share/apps/gaussian/G09C01Z/srwang-mod-2020/g09/l1.exe /scratch/scr/srwang/gau/Gau-18294.inp -scrdir=/scratch/scr/srwang/gau/
 Entering Link 1 = /share/apps/gaussian/G09C01Z/srwang-mod-2020/g09/l1.exe PID=     18295.
  
 Copyright (c) 1988,1990,1992,1993,1995,1998,2003,2009,2011,
            Gaussian, Inc.  All Rights Reserved.
  
 This is part of the Gaussian(R) 09 program.  It is based on
 the Gaussian(R) 03 system (copyright 2003, Gaussian, Inc.),
 the Gaussian(R) 98 system (copyright 1998, Gaussian, Inc.),
 the Gaussian(R) 94 system (copyright 1995, Gaussian, Inc.),
 the Gaussian 92(TM) system (copyright 1992, Gaussian, Inc.),
 the Gaussian 90(TM) system (copyright 1990, Gaussian, Inc.),
 the Gaussian 88(TM) system (copyright 1988, Gaussian, Inc.),
 the Gaussian 86(TM) system (copyright 1986, Carnegie Mellon
 University), and the Gaussian 82(TM) system (copyright 1983,
 Carnegie Mellon University). Gaussian is a federally registered
 trademark of Gaussian, Inc.
  
 This software contains proprietary and confidential information,
 including trade secrets, belonging to Gaussian, Inc.
  
 This software is provided under written license and may be
 used, copied, transmitted, or stored only in accord with that
 written license.
  
 The following legend is applicable only to US Government
 contracts under FAR:
  
                    RESTRICTED RIGHTS LEGEND
  
 Use, reproduction and disclosure by the US Government is
 subject to restrictions as set forth in subparagraphs (a)
 and (c) of the Commercial Computer Software - Restricted
 Rights clause in FAR 52.227-19.
  
 Gaussian, Inc.
 340 Quinnipiac St., Bldg. 40, Wallingford CT 06492
  
  
 ---------------------------------------------------------------
 Warning -- This program may not be used in any manner that
 competes with the business of Gaussian, Inc. or will provide
 assistance to any competitor of Gaussian, Inc.  The licensee
 of this program is prohibited from giving any competitor of
 Gaussian, Inc. access to this program.  By using this program,
 the user acknowledges that Gaussian, Inc. is engaged in the
 business of creating and licensing software in the field of
 computational chemistry and represents and warrants to the
 licensee that it is not a competitor of Gaussian, Inc. and that
 it will not use this program in any manner prohibited above.
 ---------------------------------------------------------------
  

 Cite this work as:
 Gaussian 09, Revision C.01,
 M. J. Frisch, G. W. Trucks, H. B. Schlegel, G. E. Scuseria, 
 M. A. Robb, J. R. Cheeseman, G. Scalmani, V. Barone, B. Mennucci, 
 G. A. Petersson, H. Nakatsuji, M. Caricato, X. Li, H. P. Hratchian, 
 A. F. Izmaylov, J. Bloino, G. Zheng, J. L. Sonnenberg, M. Hada, 
 M. Ehara, K. Toyota, R. Fukuda, J. Hasegawa, M. Ishida, T. Nakajima, 
 Y. Honda, O. Kitao, H. Nakai, T. Vreven, J. A. Montgomery, Jr., 
 J. E. Peralta, F. Ogliaro, M. Bearpark, J. J. Heyd, E. Brothers, 
 K. N. Kudin, V. N. Staroverov, T. Keith, R. Kobayashi, J. Normand, 
 K. Raghavachari, A. Rendell, J. C. Burant, S. S. Iyengar, J. Tomasi, 
 M. Cossi, N. Rega, J. M. Millam, M. Klene, J. E. Knox, J. B. Cross, 
 V. Bakken, C. Adamo, J. Jaramillo, R. Gomperts, R. E. Stratmann, 
 O. Yazyev, A. J. Austin, R. Cammi, C. Pomelli, J. W. Ochterski, 
 R. L. Martin, K. Morokuma, V. G. Zakrzewski, G. A. Voth, 
 P. Salvador, J. J. Dannenberg, S. Dapprich, A. D. Daniels, 
 O. Farkas, J. B. Foresman, J. V. Ortiz, J. Cioslowski, 
 and D. J. Fox, Gaussian, Inc., Wallingford CT, 2010.
 
 ******************************************
 Gaussian 09:  EM64L-G09RevC.01 23-Sep-2011
                 3-Feb-2021 
 ******************************************
 %nproc=1
 Will use up to    1 processors via shared memory.
 %mem=1gb
 %chk=cr2.chk
 --------------------------------------
 #p uhf/def2svp guess(fragment=2, only)
 --------------------------------------
 1/38=1,62=2002/1;
 2/12=2,17=6,18=5,40=1/2;
 1/38=1,53=3172,62=2002/22;
 3/5=43,7=101,11=2,16=1,25=1,30=1,89=1,116=2/1,2;
 4//1;
 6/7=3,28=1/1;
 1/53=2032,62=2002,63=1/22;
 3/5=7,6=11,7=101,11=2,16=1,25=1,30=1,82=7,89=1,116=2/1,2;
 4//1;
 6/7=3,28=1/1;
 1/53=1022,62=2002,63=2/22;
 3/5=7,6=11,7=101,11=2,16=1,25=1,30=1,82=7,89=1,116=2/1,2;
 4//1;
 6/7=3,28=1/1;
 1/53=3014,62=2002,63=5/22;
 99/5=5/99;
 Leave Link    1 at Wed Feb  3 10:26:35 2021, MaxMem=  134217728 cpu:       0.0
 (Enter /share/apps/gaussian/G09C01Z/srwang-mod-2020/g09/l101.exe)
 -----
 title
 -----
 Charge and multiplicity card seems defective:
 Charge =  0 Multiplicity = 1 in supermolecule
 Charge =  0 Multiplicity = 7 in fragment  1.
 Charge =  0 Multiplicity =-7 in fragment  2.
 Symbolic Z-Matrix:
 Cr(fragment=1)        0.        0.        0. 
 Cr(fragment=2)        0.        0.        2. 
 
 NAtoms=      2 NQM=        0 NQMF=       0 NMMI=      2 NMMIF=      0
                NMic=       0 NMicF=      0.
                    Isotopes and Nuclear Properties:
 (Nuclear quadrupole moments (NQMom) in fm**2, nuclear magnetic moments (NMagM)
  in nuclear magnetons)

  Atom         1           2
 IAtWgt=          52          52
 AtmWgt=  51.9405097  51.9405097
 NucSpn=           0           0
 AtZEff=   0.0000000   0.0000000
 NQMom=    0.0000000   0.0000000
 NMagM=    0.0000000   0.0000000
 Leave Link  101 at Wed Feb  3 10:26:35 2021, MaxMem=  134217728 cpu:       0.1
 (Enter /share/apps/gaussian/G09C01Z/srwang-mod-2020/g09/l202.exe)
                          Input orientation:                          
 ---------------------------------------------------------------------
 Center     Atomic      Atomic             Coordinates (Angstroms)
 Number     Number       Type             X           Y           Z
 ---------------------------------------------------------------------
      1         24           0        0.000000    0.000000    0.000000
      2         24           0        0.000000    0.000000    2.000000
 ---------------------------------------------------------------------
 Stoichiometry    Cr2
 Framework group  D*H[C*(Cr.Cr)]
 Deg. of freedom     1
 Full point group                 D*H     NOp   8
 Largest Abelian subgroup         D2H     NOp   8
 Largest concise Abelian subgroup C2      NOp   2
                         Standard orientation:                         
 ---------------------------------------------------------------------
 Center     Atomic      Atomic             Coordinates (Angstroms)
 Number     Number       Type             X           Y           Z
 ---------------------------------------------------------------------
      1         24           0        0.000000    0.000000    1.000000
      2         24           0        0.000000    0.000000   -1.000000
 ---------------------------------------------------------------------
 Rotational constants (GHZ):      0.0000000      4.8649793      4.8649793
 Mismatch for IA=    1 IOp=  2 Frag= 1 JA=    2 Frag= 2
 Mismatch for IA=    2 IOp=  2 Frag= 2 JA=    1 Frag= 1
 Symmetry turned off in CkCPSy: fragments do not conform to real system point group.
 Leave Link  202 at Wed Feb  3 10:26:35 2021, MaxMem=  134217728 cpu:       0.0
 (Enter /share/apps/gaussian/G09C01Z/srwang-mod-2020/g09/l122.exe)
 Leave Link  122 at Wed Feb  3 10:26:35 2021, MaxMem=  134217728 cpu:       0.0
 (Enter /share/apps/gaussian/G09C01Z/srwang-mod-2020/g09/l301.exe)
 Standard basis: def2SVP (5D, 7F)
 Ernie: Thresh=  0.10000D-02 Tol=  0.10000D-05 Strict=F.
 Integral buffers will be    131072 words long.
 Raffenetti 2 integral format.
 Two-electron integral symmetry is turned off.
    62 basis functions,   162 primitive gaussians,    72 cartesian basis functions
    24 alpha electrons       24 beta electrons
       nuclear repulsion energy       152.4030360739 Hartrees.
 IExCor=    0 DFT=F Ex=HF Corr=None ExCW=0 ScaHFX=  1.000000
 ScaDFX=  1.000000  1.000000  1.000000  1.000000 ScalE2=  1.000000  1.000000
 IRadAn=      0 IRanWt=     -1 IRanGd=            0 ICorTp=0
 NAtoms=    2 NActive=    2 NUniq=    2 SFac= 1.00D+00 NAtFMM=   60 NAOKFM=F Big=F
 Leave Link  301 at Wed Feb  3 10:26:35 2021, MaxMem=  134217728 cpu:       0.1
 (Enter /share/apps/gaussian/G09C01Z/srwang-mod-2020/g09/l302.exe)
 NPDir=0 NMtPBC=     1 NCelOv=     1 NCel=       1 NClECP=     1 NCelD=      1
         NCelK=      1 NCelE2=     1 NClLst=     1 CellRange=     0.0.
 One-electron integrals computed using PRISM.
   1 Symmetry operations used in ECPInt.
 ECPInt:  NShTT=     253 NPrTT=    1791 LenC2=     249 LenP2D=    1523.
 LDataN:  DoStor=T MaxTD1= 6 Len=  172
 Bad symmetry data in SVDSVc:  NBasis=   62 NT=   62 NBlks=1 MaxCmp=1 NBF=   62
 NBasis=    62 RedAO= T  NBF=    62
 NBsUse=    62 1.00D-06 NBFU=    62
 Leave Link  302 at Wed Feb  3 10:26:35 2021, MaxMem=  134217728 cpu:       0.1
 (Enter /share/apps/gaussian/G09C01Z/srwang-mod-2020/g09/l401.exe)
 Harris functional with IExCor=  205 diagonalized for initial guess.
 ExpMin= 2.83D-02 ExpMax= 5.15D+04 ExpMxC= 7.74D+03 IAcc=3 IRadAn=         5 AccDes= 0.00D+00
 HarFok:  IExCor=  205 AccDes= 0.00D+00 IRadAn=         5 IDoV= 1
 ScaDFX=  1.000000  1.000000  1.000000  1.000000
 FoFCou: FMM=F IPFlag=           0 FMFlag=      100000 FMFlg1=           0
         NFxFlg=           0 DoJE=T BraDBF=F KetDBF=T FulRan=T
         Omega=  0.000000  0.000000  1.000000  0.000000  0.000000 ICntrl=     500 IOpCl=  0
         NMat0=    1 NMatS0=    1 NMatT0=    0 NMatD0=    1 NMtDS0=    0 NMtDT0=    0
         I1Cent=           4 NGrid=           0.
 Symmetry not used in FoFCou.
 Harris En= -2084.90191465558    
 Initial guess <Sx>= 0.0000 <Sy>= 0.0000 <Sz>= 0.0000 <S**2>=-0.0000 S=-0.0000
 Leave Link  401 at Wed Feb  3 10:26:35 2021, MaxMem=  134217728 cpu:       0.3
 (Enter /share/apps/gaussian/G09C01Z/srwang-mod-2020/g09/l601.exe)
 Copying SCF densities to generalized density rwf, IOpCl= 1 IROHF=0.

 **********************************************************************

            Population analysis using the SCF density.

 **********************************************************************

 Alpha  occ. eigenvalues -- -213.49541-213.49536 -24.00918 -24.00905 -20.39392
 Alpha  occ. eigenvalues --  -20.39383 -20.39288 -20.39288 -20.39285 -20.39285
 Alpha  occ. eigenvalues --   -2.65129  -2.63285  -1.69967  -1.65771  -1.65771
 Alpha  occ. eigenvalues --   -1.64669  -1.64669  -1.62852  -0.25177  -0.23043
 Alpha  occ. eigenvalues --   -0.23043  -0.21226  -0.16823  -0.16823
 Alpha virt. eigenvalues --   -0.14414  -0.12617  -0.12617  -0.09875  -0.09875
 Alpha virt. eigenvalues --   -0.08897  -0.07590  -0.07590  -0.03951   0.03274
 Alpha virt. eigenvalues --    0.03360   0.06988   0.06988   0.25701   0.42778
 Alpha virt. eigenvalues --    0.42778   0.50585   0.50585   0.55488   0.55488
 Alpha virt. eigenvalues --    0.61649   0.64994   0.71526   0.71526   2.66375
 Alpha virt. eigenvalues --    2.72220   2.72220   2.82211   2.82211   2.85531
 Alpha virt. eigenvalues --    2.85531   2.85980   2.85980   2.88309   2.88309
 Alpha virt. eigenvalues --    3.05283   3.05283   3.06384
  Beta  occ. eigenvalues -- -213.49541-213.49536 -24.00918 -24.00905 -20.39392
  Beta  occ. eigenvalues --  -20.39383 -20.39288 -20.39288 -20.39285 -20.39285
  Beta  occ. eigenvalues --   -2.65129  -2.63285  -1.69967  -1.65771  -1.65771
  Beta  occ. eigenvalues --   -1.64669  -1.64669  -1.62852  -0.25177  -0.23043
  Beta  occ. eigenvalues --   -0.23043  -0.21226  -0.16823  -0.16823
  Beta virt. eigenvalues --   -0.14414  -0.12617  -0.12617  -0.09875  -0.09875
  Beta virt. eigenvalues --   -0.08897  -0.07590  -0.07590  -0.03951   0.03274
  Beta virt. eigenvalues --    0.03360   0.06988   0.06988   0.25701   0.42778
  Beta virt. eigenvalues --    0.42778   0.50585   0.50585   0.55488   0.55488
  Beta virt. eigenvalues --    0.61649   0.64994   0.71526   0.71526   2.66375
  Beta virt. eigenvalues --    2.72220   2.72220   2.82211   2.82211   2.85531
  Beta virt. eigenvalues --    2.85531   2.85980   2.85980   2.88309   2.88309
  Beta virt. eigenvalues --    3.05283   3.05283   3.06384
     Alpha Molecular Orbital Coefficients:
                           1         2         3         4         5
                           O         O         O         O         O
     Eigenvalues --  -213.49541-213.49536 -24.00918 -24.00905 -20.39392
   1 1   Cr 1S          0.70375   0.70376  -0.23396  -0.23400  -0.00059
   2        2S          0.01089   0.01088   0.73529   0.73537   0.00181
   3        3S         -0.00259  -0.00247   0.01866   0.01799  -0.00123
   4        4S          0.00086  -0.00082  -0.00464   0.00491  -0.00186
   5        5S         -0.00041  -0.00041   0.00217   0.00194   0.00130
   6        6PX        -0.00000   0.00000   0.00000   0.00000  -0.00000
   7        6PY         0.00000   0.00000   0.00000   0.00000   0.00000
   8        6PZ        -0.00005  -0.00000  -0.00128  -0.00145   0.70083
   9        7PX        -0.00000  -0.00000  -0.00000   0.00000  -0.00000
  10        7PY         0.00000   0.00000   0.00000  -0.00000   0.00000
  11        7PZ         0.00016  -0.00000  -0.00093  -0.00013   0.01814
  12        8PX        -0.00000   0.00000   0.00000  -0.00000   0.00000
  13        8PY         0.00000   0.00000   0.00000   0.00000   0.00000
  14        8PZ        -0.00013   0.00133   0.00070  -0.00742  -0.00457
  15        9D 0       -0.00013   0.00009   0.00065  -0.00039  -0.00081
  16        9D+1        0.00000   0.00000   0.00000  -0.00000   0.00000
  17        9D-1       -0.00000   0.00000  -0.00000   0.00000  -0.00000
  18        9D+2        0.00000  -0.00000  -0.00000   0.00000   0.00000
  19        9D-2        0.00000   0.00000  -0.00000  -0.00000  -0.00000
  20       10D 0        0.00036  -0.00062  -0.00183   0.00338   0.00255
  21       10D+1        0.00000  -0.00000   0.00000   0.00000  -0.00000
  22       10D-1       -0.00000   0.00000  -0.00000  -0.00000  -0.00000
  23       10D+2       -0.00000  -0.00000   0.00000  -0.00000  -0.00000
  24       10D-2       -0.00000   0.00000   0.00000  -0.00000  -0.00000
  25       11F 0       -0.00002   0.00004   0.00013  -0.00024  -0.00028
  26       11F+1       -0.00000   0.00000  -0.00000  -0.00000   0.00000
  27       11F-1        0.00000   0.00000   0.00000  -0.00000  -0.00000
  28       11F+2       -0.00000  -0.00000  -0.00000   0.00000   0.00000
  29       11F-2       -0.00000   0.00000  -0.00000  -0.00000  -0.00000
  30       11F+3        0.00000  -0.00000   0.00000  -0.00000   0.00000
  31       11F-3        0.00000  -0.00000   0.00000  -0.00000   0.00000
  32 2   Cr 1S          0.70375  -0.70376  -0.23396   0.23400  -0.00059
  33        2S          0.01089  -0.01088   0.73529  -0.73537   0.00181
  34        3S         -0.00259   0.00247   0.01866  -0.01799  -0.00123
  35        4S          0.00086   0.00082  -0.00464  -0.00491  -0.00186
  36        5S         -0.00041   0.00041   0.00217  -0.00194   0.00130
  37        6PX        -0.00000  -0.00000   0.00000   0.00000  -0.00000
  38        6PY         0.00000   0.00000   0.00000  -0.00000   0.00000
  39        6PZ         0.00005  -0.00000   0.00128  -0.00145  -0.70083
  40        7PX        -0.00000   0.00000  -0.00000  -0.00000  -0.00000
  41        7PY         0.00000  -0.00000   0.00000   0.00000   0.00000
  42        7PZ        -0.00016  -0.00000   0.00093  -0.00013  -0.01814
  43        8PX         0.00000  -0.00000  -0.00000   0.00000   0.00000
  44        8PY         0.00000  -0.00000   0.00000  -0.00000  -0.00000
  45        8PZ         0.00013   0.00133  -0.00070  -0.00742   0.00457
  46        9D 0       -0.00013  -0.00009   0.00065   0.00039  -0.00081
  47        9D+1       -0.00000   0.00000  -0.00000  -0.00000  -0.00000
  48        9D-1        0.00000   0.00000   0.00000   0.00000   0.00000
  49        9D+2        0.00000  -0.00000   0.00000  -0.00000   0.00000
  50        9D-2        0.00000   0.00000   0.00000  -0.00000   0.00000
  51       10D 0        0.00036   0.00062  -0.00183  -0.00338   0.00255
  52       10D+1        0.00000  -0.00000  -0.00000   0.00000   0.00000
  53       10D-1        0.00000  -0.00000   0.00000  -0.00000  -0.00000
  54       10D+2        0.00000  -0.00000  -0.00000  -0.00000  -0.00000
  55       10D-2       -0.00000   0.00000  -0.00000  -0.00000  -0.00000
  56       11F 0        0.00002   0.00004  -0.00013  -0.00024   0.00028
  57       11F+1        0.00000  -0.00000  -0.00000  -0.00000   0.00000
  58       11F-1        0.00000  -0.00000  -0.00000   0.00000  -0.00000
  59       11F+2       -0.00000  -0.00000  -0.00000   0.00000   0.00000
  60       11F-2       -0.00000   0.00000  -0.00000  -0.00000   0.00000
  61       11F+3       -0.00000   0.00000  -0.00000   0.00000  -0.00000
  62       11F-3        0.00000  -0.00000   0.00000  -0.00000   0.00000
                           6         7         8         9        10
                           O         O         O         O         O
     Eigenvalues --   -20.39383 -20.39288 -20.39288 -20.39285 -20.39285
   1 1   Cr 1S         -0.00050   0.00000  -0.00000  -0.00000   0.00000
   2        2S          0.00162  -0.00000   0.00000   0.00000  -0.00000
   3        3S          0.00005   0.00000  -0.00000  -0.00000   0.00000
   4        4S          0.00049   0.00000   0.00000  -0.00000   0.00000
   5        5S          0.00234  -0.00000  -0.00000  -0.00000  -0.00000
   6        6PX         0.00000   0.65445   0.25138   0.66935   0.20857
   7        6PY        -0.00000  -0.25138   0.65445  -0.20857   0.66935
   8        6PZ         0.70097  -0.00000   0.00000   0.00000   0.00000
   9        7PX         0.00000   0.01607   0.00617   0.01636   0.00510
  10        7PY        -0.00000  -0.00617   0.01607  -0.00510   0.01636
  11        7PZ         0.01750  -0.00000   0.00000   0.00000   0.00000
  12        8PX        -0.00000  -0.00442  -0.00170  -0.00269  -0.00084
  13        8PY         0.00000   0.00170  -0.00442   0.00084  -0.00269
  14        8PZ        -0.00382   0.00000  -0.00000  -0.00000  -0.00000
  15        9D 0       -0.00009   0.00000  -0.00000  -0.00000   0.00000
  16        9D+1       -0.00000  -0.00018  -0.00007  -0.00026  -0.00008
  17        9D-1        0.00000   0.00007  -0.00018   0.00008  -0.00026
  18        9D+2        0.00000  -0.00000   0.00000   0.00000  -0.00000
  19        9D-2       -0.00000  -0.00000   0.00000   0.00000  -0.00000
  20       10D 0       -0.00147  -0.00000   0.00000   0.00000  -0.00000
  21       10D+1        0.00000   0.00073   0.00028   0.00027   0.00008
  22       10D-1       -0.00000  -0.00028   0.00073  -0.00008   0.00027
  23       10D+2        0.00000   0.00000   0.00000   0.00000   0.00000
  24       10D-2       -0.00000   0.00000  -0.00000   0.00000  -0.00000
  25       11F 0        0.00037  -0.00000  -0.00000  -0.00000   0.00000
  26       11F+1       -0.00000  -0.00002  -0.00001  -0.00003  -0.00001
  27       11F-1        0.00000   0.00001  -0.00002   0.00001  -0.00003
  28       11F+2       -0.00000   0.00000  -0.00000   0.00000  -0.00000
  29       11F-2        0.00000   0.00000  -0.00000   0.00000  -0.00000
  30       11F+3        0.00000  -0.00000  -0.00000  -0.00000  -0.00000
  31       11F-3        0.00000  -0.00000   0.00000  -0.00000   0.00000
  32 2   Cr 1S          0.00050  -0.00000  -0.00000  -0.00000   0.00000
  33        2S         -0.00162   0.00000   0.00000   0.00000  -0.00000
  34        3S         -0.00005   0.00000  -0.00000  -0.00000   0.00000
  35        4S         -0.00049   0.00000  -0.00000  -0.00000  -0.00000
  36        5S         -0.00234   0.00000   0.00000   0.00000  -0.00000
  37        6PX         0.00000  -0.65445  -0.25138   0.66935   0.20857
  38        6PY        -0.00000   0.25138  -0.65445  -0.20857   0.66935
  39        6PZ         0.70097  -0.00000  -0.00000  -0.00000   0.00000
  40        7PX         0.00000  -0.01607  -0.00617   0.01636   0.00510
  41        7PY        -0.00000   0.00617  -0.01607  -0.00510   0.01636
  42        7PZ         0.01750  -0.00000  -0.00000  -0.00000   0.00000
  43        8PX         0.00000   0.00442   0.00170  -0.00269  -0.00084
  44        8PY         0.00000  -0.00170   0.00442   0.00084  -0.00269
  45        8PZ        -0.00382   0.00000   0.00000   0.00000  -0.00000
  46        9D 0        0.00009   0.00000  -0.00000  -0.00000   0.00000
  47        9D+1        0.00000  -0.00018  -0.00007   0.00026   0.00008
  48        9D-1       -0.00000   0.00007  -0.00018  -0.00008   0.00026
  49        9D+2        0.00000  -0.00000   0.00000   0.00000  -0.00000
  50        9D-2       -0.00000   0.00000  -0.00000   0.00000  -0.00000
  51       10D 0        0.00147  -0.00000   0.00000   0.00000  -0.00000
  52       10D+1        0.00000   0.00073   0.00028  -0.00027  -0.00008
  53       10D-1       -0.00000  -0.00028   0.00073   0.00008  -0.00027
  54       10D+2        0.00000   0.00000   0.00000  -0.00000   0.00000
  55       10D-2       -0.00000   0.00000   0.00000   0.00000   0.00000
  56       11F 0        0.00037  -0.00000   0.00000  -0.00000  -0.00000
  57       11F+1        0.00000   0.00002   0.00001  -0.00003  -0.00001
  58       11F-1       -0.00000  -0.00001   0.00002   0.00001  -0.00003
  59       11F+2       -0.00000   0.00000   0.00000  -0.00000  -0.00000
  60       11F-2        0.00000  -0.00000  -0.00000  -0.00000   0.00000
  61       11F+3       -0.00000   0.00000   0.00000  -0.00000  -0.00000
  62       11F-3        0.00000   0.00000  -0.00000  -0.00000   0.00000
                          11        12        13        14        15
                           O         O         O         O         O
     Eigenvalues --    -2.65129  -2.63285  -1.69967  -1.65771  -1.65771
   1 1   Cr 1S          0.08610   0.08710   0.00578   0.00000   0.00000
   2        2S         -0.32128  -0.32460  -0.02068  -0.00000  -0.00000
   3        3S          0.75144   0.76269   0.05649   0.00000   0.00000
   4        4S          0.01801  -0.00630  -0.00376   0.00000  -0.00000
   5        5S         -0.00688  -0.00615   0.00045  -0.00000   0.00000
   6        6PX         0.00000  -0.00000   0.00000  -0.27200   0.01963
   7        6PY        -0.00000   0.00000  -0.00000  -0.01963  -0.27200
   8        6PZ         0.01046   0.00468  -0.26673   0.00000   0.00000
   9        7PX        -0.00000   0.00000  -0.00000   0.74439  -0.05372
  10        7PY         0.00000  -0.00000   0.00000   0.05372   0.74439
  11        7PZ        -0.02735  -0.01303   0.72725  -0.00000  -0.00000
  12        8PX        -0.00000   0.00000  -0.00000   0.00885  -0.00064
  13        8PY         0.00000  -0.00000  -0.00000   0.00064   0.00885
  14        8PZ        -0.00366   0.01818   0.01514  -0.00000  -0.00000
  15        9D 0        0.00330   0.00105  -0.01839   0.00000  -0.00000
  16        9D+1        0.00000   0.00000   0.00000  -0.01088   0.00078
  17        9D-1       -0.00000  -0.00000  -0.00000  -0.00078  -0.01088
  18        9D+2       -0.00000  -0.00000   0.00000   0.00000   0.00000
  19        9D-2       -0.00000   0.00000  -0.00000   0.00000   0.00000
  20       10D 0        0.00612  -0.00765  -0.01184   0.00000  -0.00000
  21       10D+1        0.00000  -0.00000  -0.00000  -0.00427   0.00031
  22       10D-1        0.00000   0.00000  -0.00000  -0.00031  -0.00427
  23       10D+2        0.00000   0.00000  -0.00000   0.00000  -0.00000
  24       10D-2        0.00000   0.00000   0.00000  -0.00000  -0.00000
  25       11F 0       -0.00130   0.00038   0.00376  -0.00000   0.00000
  26       11F+1        0.00000   0.00000  -0.00000   0.00191  -0.00014
  27       11F-1       -0.00000  -0.00000  -0.00000   0.00014   0.00191
  28       11F+2        0.00000   0.00000  -0.00000   0.00000   0.00000
  29       11F-2       -0.00000  -0.00000   0.00000  -0.00000   0.00000
  30       11F+3       -0.00000  -0.00000   0.00000   0.00000  -0.00000
  31       11F-3       -0.00000  -0.00000   0.00000  -0.00000  -0.00000
  32 2   Cr 1S          0.08610  -0.08710   0.00578   0.00000   0.00000
  33        2S         -0.32128   0.32460  -0.02068  -0.00000  -0.00000
  34        3S          0.75144  -0.76269   0.05649  -0.00000   0.00000
  35        4S          0.01801   0.00630  -0.00376  -0.00000  -0.00000
  36        5S         -0.00688   0.00615   0.00045   0.00000   0.00000
  37        6PX         0.00000  -0.00000   0.00000  -0.27200   0.01963
  38        6PY        -0.00000  -0.00000   0.00000  -0.01963  -0.27200
  39        6PZ        -0.01046   0.00468   0.26673   0.00000   0.00000
  40        7PX         0.00000   0.00000  -0.00000   0.74439  -0.05372
  41        7PY         0.00000   0.00000  -0.00000   0.05372   0.74439
  42        7PZ         0.02735  -0.01303  -0.72725  -0.00000  -0.00000
  43        8PX         0.00000  -0.00000  -0.00000   0.00885  -0.00064
  44        8PY         0.00000   0.00000   0.00000   0.00064   0.00885
  45        8PZ         0.00366   0.01818  -0.01514  -0.00000   0.00000
  46        9D 0        0.00330  -0.00105  -0.01839  -0.00000  -0.00000
  47        9D+1       -0.00000   0.00000  -0.00000   0.01088  -0.00078
  48        9D-1        0.00000  -0.00000   0.00000   0.00078   0.01088
  49        9D+2       -0.00000   0.00000   0.00000  -0.00000   0.00000
  50        9D-2        0.00000   0.00000   0.00000   0.00000   0.00000
  51       10D 0        0.00612   0.00765  -0.01184  -0.00000  -0.00000
  52       10D+1        0.00000  -0.00000  -0.00000   0.00427  -0.00031
  53       10D-1       -0.00000   0.00000   0.00000   0.00031   0.00427
  54       10D+2        0.00000  -0.00000  -0.00000   0.00000  -0.00000
  55       10D-2       -0.00000   0.00000  -0.00000  -0.00000  -0.00000
  56       11F 0        0.00130   0.00038  -0.00376  -0.00000  -0.00000
  57       11F+1       -0.00000  -0.00000  -0.00000   0.00191  -0.00014
  58       11F-1        0.00000   0.00000   0.00000   0.00014   0.00191
  59       11F+2        0.00000   0.00000   0.00000   0.00000  -0.00000
  60       11F-2       -0.00000  -0.00000  -0.00000  -0.00000  -0.00000
  61       11F+3        0.00000   0.00000  -0.00000   0.00000  -0.00000
  62       11F-3       -0.00000  -0.00000   0.00000  -0.00000  -0.00000
                          16        17        18        19        20
                           O         O         O         O         O
     Eigenvalues --    -1.64669  -1.64669  -1.62852  -0.25177  -0.23043
   1 1   Cr 1S          0.00000   0.00000  -0.00018  -0.02936   0.00000
   2        2S         -0.00000  -0.00000   0.00035   0.08349  -0.00000
   3        3S          0.00000   0.00000  -0.00366  -0.39887   0.00000
   4        4S         -0.00000   0.00000  -0.00377   0.57121  -0.00000
   5        5S          0.00000  -0.00000  -0.00011   0.02019   0.00000
   6        6PX        -0.18715  -0.20138  -0.00000  -0.00000  -0.03923
   7        6PY        -0.20138   0.18715   0.00000  -0.00000  -0.00162
   8        6PZ        -0.00000   0.00000  -0.27926  -0.03475   0.00000
   9        7PX         0.51258   0.55157   0.00000   0.00000   0.12443
  10        7PY         0.55157  -0.51258  -0.00000   0.00000   0.00514
  11        7PZ         0.00000  -0.00000   0.76644   0.11181  -0.00000
  12        8PX         0.00659   0.00709   0.00000  -0.00000  -0.15578
  13        8PY         0.00709  -0.00659  -0.00000  -0.00000  -0.00643
  14        8PZ        -0.00000  -0.00000   0.00925  -0.08606   0.00000
  15        9D 0       -0.00000   0.00000  -0.00334   0.09303  -0.00000
  16        9D+1       -0.00445  -0.00479  -0.00000  -0.00000   0.47931
  17        9D-1       -0.00479   0.00445   0.00000  -0.00000   0.01979
  18        9D+2        0.00000   0.00000  -0.00000   0.00000   0.00000
  19        9D-2        0.00000  -0.00000   0.00000  -0.00000  -0.00000
  20       10D 0       -0.00000   0.00000   0.00027   0.04466  -0.00000
  21       10D+1       -0.00137  -0.00147  -0.00000  -0.00000   0.25182
  22       10D-1       -0.00147   0.00137   0.00000   0.00000   0.01040
  23       10D+2       -0.00000  -0.00000   0.00000   0.00000  -0.00000
  24       10D-2       -0.00000  -0.00000  -0.00000   0.00000  -0.00000
  25       11F 0        0.00000   0.00000  -0.00005  -0.00060   0.00000
  26       11F+1        0.00039   0.00042   0.00000  -0.00000  -0.01176
  27       11F-1        0.00042  -0.00039  -0.00000   0.00000  -0.00049
  28       11F+2        0.00000   0.00000   0.00000  -0.00000  -0.00000
  29       11F-2       -0.00000  -0.00000  -0.00000   0.00000  -0.00000
  30       11F+3        0.00000   0.00000  -0.00000   0.00000   0.00000
  31       11F-3       -0.00000   0.00000  -0.00000   0.00000  -0.00000
  32 2   Cr 1S          0.00000   0.00000   0.00018  -0.02936  -0.00000
  33        2S         -0.00000  -0.00000  -0.00035   0.08349   0.00000
  34        3S          0.00000   0.00000   0.00366  -0.39887  -0.00000
  35        4S         -0.00000  -0.00000   0.00377   0.57121   0.00000
  36        5S          0.00000   0.00000   0.00011   0.02019  -0.00000
  37        6PX         0.18715   0.20138  -0.00000   0.00000  -0.03923
  38        6PY         0.20138  -0.18715  -0.00000  -0.00000  -0.00162
  39        6PZ        -0.00000   0.00000  -0.27926   0.03475  -0.00000
  40        7PX        -0.51258  -0.55157   0.00000  -0.00000   0.12443
  41        7PY        -0.55157   0.51258   0.00000   0.00000   0.00514
  42        7PZ         0.00000  -0.00000   0.76644  -0.11181   0.00000
  43        8PX        -0.00659  -0.00709   0.00000   0.00000  -0.15578
  44        8PY        -0.00709   0.00659   0.00000   0.00000  -0.00643
  45        8PZ         0.00000  -0.00000   0.00925   0.08606   0.00000
  46        9D 0       -0.00000  -0.00000   0.00334   0.09303  -0.00000
  47        9D+1       -0.00445  -0.00479   0.00000   0.00000  -0.47931
  48        9D-1       -0.00479   0.00445   0.00000   0.00000  -0.01979
  49        9D+2        0.00000  -0.00000   0.00000   0.00000   0.00000
  50        9D-2        0.00000  -0.00000  -0.00000   0.00000   0.00000
  51       10D 0       -0.00000  -0.00000  -0.00027   0.04466  -0.00000
  52       10D+1       -0.00137  -0.00147   0.00000   0.00000  -0.25182
  53       10D-1       -0.00147   0.00137   0.00000   0.00000  -0.01040
  54       10D+2       -0.00000   0.00000  -0.00000   0.00000   0.00000
  55       10D-2       -0.00000   0.00000  -0.00000  -0.00000  -0.00000
  56       11F 0       -0.00000  -0.00000  -0.00005   0.00060  -0.00000
  57       11F+1       -0.00039  -0.00042   0.00000   0.00000  -0.01176
  58       11F-1       -0.00042   0.00039   0.00000   0.00000  -0.00049
  59       11F+2       -0.00000   0.00000   0.00000   0.00000   0.00000
  60       11F-2        0.00000  -0.00000  -0.00000  -0.00000  -0.00000
  61       11F+3       -0.00000  -0.00000   0.00000   0.00000   0.00000
  62       11F-3        0.00000  -0.00000  -0.00000   0.00000  -0.00000
                          21        22        23        24        25
                           O         O         O         O         V
     Eigenvalues --    -0.23043  -0.21226  -0.16823  -0.16823  -0.14414
   1 1   Cr 1S         -0.00000  -0.00261   0.00000   0.00000  -0.02114
   2        2S          0.00000   0.00769  -0.00000  -0.00000   0.05851
   3        3S         -0.00000  -0.03398   0.00000   0.00000  -0.29444
   4        4S          0.00000  -0.03618  -0.00000   0.00000   0.74138
   5        5S          0.00000  -0.06122  -0.00000  -0.00000   0.44308
   6        6PX         0.00162  -0.00000   0.00000   0.00000   0.00000
   7        6PY        -0.03923  -0.00000  -0.00000   0.00000  -0.00000
   8        6PZ        -0.00000  -0.02561   0.00000   0.00000   0.02447
   9        7PX        -0.00514   0.00000   0.00000  -0.00000  -0.00000
  10        7PY         0.12443   0.00000   0.00000  -0.00000   0.00000
  11        7PZ         0.00000   0.08044  -0.00000  -0.00000  -0.07727
  12        8PX         0.00643  -0.00000  -0.00000   0.00000   0.00000
  13        8PY        -0.15578  -0.00000  -0.00000   0.00000  -0.00000
  14        8PZ        -0.00000   0.02345   0.00000  -0.00000   0.10771
  15        9D 0       -0.00000   0.54256  -0.00000  -0.00000  -0.16541
  16        9D+1       -0.01979   0.00000   0.00000  -0.00000   0.00000
  17        9D-1        0.47931   0.00000  -0.00000   0.00000   0.00000
  18        9D+2        0.00000  -0.00000  -0.00000   0.52458  -0.00000
  19        9D-2       -0.00000  -0.00000   0.52458   0.00000   0.00000
  20       10D 0       -0.00000   0.25459  -0.00000  -0.00000  -0.09280
  21       10D+1       -0.01040   0.00000   0.00000  -0.00000  -0.00000
  22       10D-1        0.25182   0.00000  -0.00000   0.00000   0.00000
  23       10D+2        0.00000  -0.00000  -0.00000   0.29602  -0.00000
  24       10D-2       -0.00000   0.00000   0.29602   0.00000   0.00000
  25       11F 0        0.00000  -0.01422  -0.00000   0.00000  -0.00022
  26       11F+1        0.00049  -0.00000  -0.00000   0.00000  -0.00000
  27       11F-1       -0.01176   0.00000   0.00000  -0.00000   0.00000
  28       11F+2       -0.00000  -0.00000   0.00000  -0.00689   0.00000
  29       11F-2       -0.00000  -0.00000  -0.00689  -0.00000  -0.00000
  30       11F+3       -0.00000   0.00000  -0.00000  -0.00000  -0.00000
  31       11F-3       -0.00000  -0.00000  -0.00000   0.00000  -0.00000
  32 2   Cr 1S         -0.00000  -0.00261   0.00000   0.00000   0.02114
  33        2S          0.00000   0.00769  -0.00000  -0.00000  -0.05851
  34        3S         -0.00000  -0.03398   0.00000   0.00000   0.29444
  35        4S          0.00000  -0.03618  -0.00000  -0.00000  -0.74138
  36        5S         -0.00000  -0.06122   0.00000  -0.00000  -0.44308
  37        6PX         0.00162  -0.00000   0.00000  -0.00000  -0.00000
  38        6PY        -0.03923  -0.00000  -0.00000   0.00000   0.00000
  39        6PZ         0.00000   0.02561  -0.00000   0.00000   0.02447
  40        7PX        -0.00514   0.00000   0.00000   0.00000   0.00000
  41        7PY         0.12443   0.00000   0.00000  -0.00000  -0.00000
  42        7PZ        -0.00000  -0.08044   0.00000  -0.00000  -0.07727
  43        8PX         0.00643  -0.00000  -0.00000  -0.00000  -0.00000
  44        8PY        -0.15578   0.00000  -0.00000   0.00000   0.00000
  45        8PZ         0.00000  -0.02345   0.00000  -0.00000   0.10771
  46        9D 0       -0.00000   0.54256  -0.00000  -0.00000   0.16541
  47        9D+1        0.01979  -0.00000  -0.00000  -0.00000  -0.00000
  48        9D-1       -0.47931  -0.00000  -0.00000   0.00000   0.00000
  49        9D+2        0.00000   0.00000  -0.00000   0.52458   0.00000
  50        9D-2       -0.00000   0.00000   0.52458   0.00000   0.00000
  51       10D 0       -0.00000   0.25459  -0.00000  -0.00000   0.09280
  52       10D+1        0.01040  -0.00000   0.00000  -0.00000  -0.00000
  53       10D-1       -0.25182  -0.00000  -0.00000   0.00000   0.00000
  54       10D+2        0.00000   0.00000  -0.00000   0.29602   0.00000
  55       10D-2       -0.00000  -0.00000   0.29602   0.00000   0.00000
  56       11F 0       -0.00000   0.01422  -0.00000  -0.00000  -0.00022
  57       11F+1        0.00049  -0.00000  -0.00000   0.00000  -0.00000
  58       11F-1       -0.01176  -0.00000   0.00000   0.00000  -0.00000
  59       11F+2       -0.00000   0.00000  -0.00000   0.00689   0.00000
  60       11F-2       -0.00000   0.00000   0.00689   0.00000   0.00000
  61       11F+3       -0.00000   0.00000   0.00000  -0.00000   0.00000
  62       11F-3       -0.00000   0.00000   0.00000   0.00000  -0.00000
                          26        27        28        29        30
                           V         V         V         V         V
     Eigenvalues --    -0.12617  -0.12617  -0.09875  -0.09875  -0.08897
   1 1   Cr 1S         -0.00000  -0.00000   0.00000   0.00000   0.00307
   2        2S          0.00000   0.00000  -0.00000  -0.00000  -0.00791
   3        3S         -0.00000  -0.00000   0.00000   0.00000   0.04515
   4        4S          0.00000  -0.00000   0.00000  -0.00000  -0.56239
   5        5S         -0.00000   0.00000  -0.00000   0.00000   0.74076
   6        6PX        -0.00000   0.00000   0.03073  -0.00634  -0.00000
   7        6PY        -0.00000  -0.00000   0.00634   0.03073  -0.00000
   8        6PZ        -0.00000   0.00000   0.00000   0.00000   0.03867
   9        7PX         0.00000  -0.00000  -0.10132   0.02089   0.00000
  10        7PY         0.00000   0.00000  -0.02089  -0.10132   0.00000
  11        7PZ         0.00000  -0.00000  -0.00000  -0.00000  -0.12758
  12        8PX        -0.00000   0.00000   0.23649  -0.04876  -0.00000
  13        8PY        -0.00000  -0.00000   0.04876   0.23649   0.00000
  14        8PZ        -0.00000   0.00000  -0.00000   0.00000   0.40252
  15        9D 0        0.00000   0.00000   0.00000   0.00000   0.52015
  16        9D+1       -0.00000   0.00000   0.54733  -0.11284  -0.00000
  17        9D-1       -0.00000  -0.00000   0.11284   0.54733  -0.00000
  18        9D+2        0.00000   0.57373  -0.00000   0.00000  -0.00000
  19        9D-2        0.57373  -0.00000   0.00000  -0.00000   0.00000
  20       10D 0        0.00000  -0.00000   0.00000   0.00000   0.21857
  21       10D+1       -0.00000   0.00000   0.25695  -0.05297  -0.00000
  22       10D-1        0.00000   0.00000   0.05297   0.25695  -0.00000
  23       10D+2        0.00000   0.28610  -0.00000   0.00000  -0.00000
  24       10D-2        0.28610  -0.00000   0.00000   0.00000   0.00000
  25       11F 0       -0.00000   0.00000   0.00000  -0.00000   0.00231
  26       11F+1       -0.00000   0.00000   0.00002  -0.00000   0.00000
  27       11F-1       -0.00000   0.00000   0.00000   0.00002  -0.00000
  28       11F+2       -0.00000  -0.00198   0.00000  -0.00000   0.00000
  29       11F-2       -0.00198   0.00000  -0.00000   0.00000  -0.00000
  30       11F+3        0.00000  -0.00000  -0.00000   0.00000  -0.00000
  31       11F-3       -0.00000  -0.00000   0.00000   0.00000  -0.00000
  32 2   Cr 1S         -0.00000   0.00000  -0.00000   0.00000  -0.00307
  33        2S          0.00000  -0.00000   0.00000  -0.00000   0.00791
  34        3S         -0.00000  -0.00000  -0.00000   0.00000  -0.04515
  35        4S         -0.00000   0.00000   0.00000   0.00000   0.56239
  36        5S         -0.00000  -0.00000  -0.00000  -0.00000  -0.74076
  37        6PX        -0.00000   0.00000  -0.03073   0.00634  -0.00000
  38        6PY        -0.00000  -0.00000  -0.00634  -0.03073  -0.00000
  39        6PZ         0.00000   0.00000   0.00000   0.00000   0.03867
  40        7PX        -0.00000  -0.00000   0.10132  -0.02089   0.00000
  41        7PY         0.00000   0.00000   0.02089   0.10132   0.00000
  42        7PZ        -0.00000  -0.00000  -0.00000  -0.00000  -0.12758
  43        8PX        -0.00000   0.00000  -0.23649   0.04876  -0.00000
  44        8PY        -0.00000   0.00000  -0.04876  -0.23649  -0.00000
  45        8PZ         0.00000   0.00000  -0.00000   0.00000   0.40252
  46        9D 0        0.00000   0.00000  -0.00000  -0.00000  -0.52015
  47        9D+1       -0.00000   0.00000   0.54733  -0.11284   0.00000
  48        9D-1        0.00000  -0.00000   0.11284   0.54733  -0.00000
  49        9D+2       -0.00000  -0.57373   0.00000  -0.00000   0.00000
  50        9D-2       -0.57373   0.00000  -0.00000   0.00000  -0.00000
  51       10D 0        0.00000   0.00000  -0.00000  -0.00000  -0.21857
  52       10D+1       -0.00000   0.00000   0.25695  -0.05297   0.00000
  53       10D-1        0.00000  -0.00000   0.05297   0.25695  -0.00000
  54       10D+2       -0.00000  -0.28610   0.00000  -0.00000   0.00000
  55       10D-2       -0.28610   0.00000  -0.00000   0.00000   0.00000
  56       11F 0        0.00000   0.00000  -0.00000   0.00000   0.00231
  57       11F+1        0.00000  -0.00000  -0.00002   0.00000   0.00000
  58       11F-1        0.00000  -0.00000  -0.00000  -0.00002   0.00000
  59       11F+2       -0.00000  -0.00198   0.00000   0.00000   0.00000
  60       11F-2       -0.00198   0.00000  -0.00000   0.00000   0.00000
  61       11F+3        0.00000   0.00000   0.00000  -0.00000   0.00000
  62       11F-3        0.00000   0.00000  -0.00000  -0.00000  -0.00000
                          31        32        33        34        35
                           V         V         V         V         V
     Eigenvalues --    -0.07590  -0.07590  -0.03951   0.03274   0.03360
   1 1   Cr 1S          0.00000   0.00000   0.01327   0.01664  -0.00889
   2        2S         -0.00000  -0.00000  -0.03503  -0.04207   0.02355
   3        3S          0.00000   0.00000   0.19278   0.24921  -0.12874
   4        4S          0.00000  -0.00000  -0.65786  -2.17459   1.09363
   5        5S         -0.00000   0.00000   0.78980   2.83423  -0.88120
   6        6PX         0.07876   0.00104   0.00000   0.00000  -0.00000
   7        6PY        -0.00104   0.07876   0.00000  -0.00000  -0.00000
   8        6PZ         0.00000   0.00000   0.06875  -0.03025   0.07823
   9        7PX        -0.25893  -0.00341  -0.00000  -0.00000   0.00000
  10        7PY         0.00341  -0.25893  -0.00000   0.00000   0.00000
  11        7PZ        -0.00000  -0.00000  -0.22641   0.09866  -0.26047
  12        8PX         0.61558   0.00812   0.00000  -0.00000  -0.00000
  13        8PY        -0.00812   0.61558   0.00000  -0.00000  -0.00000
  14        8PZ        -0.00000   0.00000   0.40121   0.18134   0.62963
  15        9D 0        0.00000   0.00000   0.01239  -0.13684  -0.08515
  16        9D+1        0.20434   0.00269  -0.00000  -0.00000   0.00000
  17        9D-1       -0.00269   0.20434  -0.00000   0.00000   0.00000
  18        9D+2       -0.00000  -0.00000   0.00000  -0.00000  -0.00000
  19        9D-2        0.00000   0.00000  -0.00000   0.00000  -0.00000
  20       10D 0        0.00000   0.00000   0.03376  -0.16724   0.00735
  21       10D+1        0.09223   0.00122  -0.00000  -0.00000   0.00000
  22       10D-1       -0.00122   0.09223  -0.00000   0.00000   0.00000
  23       10D+2       -0.00000  -0.00000   0.00000  -0.00000  -0.00000
  24       10D-2       -0.00000   0.00000   0.00000  -0.00000   0.00000
  25       11F 0       -0.00000  -0.00000  -0.00273  -0.00011  -0.00037
  26       11F+1       -0.00296  -0.00004   0.00000   0.00000   0.00000
  27       11F-1        0.00004  -0.00296  -0.00000   0.00000   0.00000
  28       11F+2        0.00000   0.00000  -0.00000   0.00000   0.00000
  29       11F-2       -0.00000  -0.00000   0.00000  -0.00000   0.00000
  30       11F+3       -0.00000  -0.00000  -0.00000   0.00000  -0.00000
  31       11F-3       -0.00000   0.00000  -0.00000   0.00000  -0.00000
  32 2   Cr 1S         -0.00000   0.00000   0.01327  -0.01664  -0.00889
  33        2S          0.00000  -0.00000  -0.03503   0.04207   0.02355
  34        3S          0.00000   0.00000   0.19278  -0.24921  -0.12874
  35        4S         -0.00000  -0.00000  -0.65786   2.17459   1.09363
  36        5S          0.00000   0.00000   0.78980  -2.83423  -0.88120
  37        6PX         0.07876   0.00104  -0.00000   0.00000   0.00000
  38        6PY        -0.00104   0.07876  -0.00000   0.00000   0.00000
  39        6PZ        -0.00000  -0.00000  -0.06875  -0.03025  -0.07823
  40        7PX        -0.25893  -0.00341   0.00000  -0.00000  -0.00000
  41        7PY         0.00341  -0.25893   0.00000  -0.00000  -0.00000
  42        7PZ         0.00000   0.00000   0.22641   0.09866   0.26047
  43        8PX         0.61558   0.00812  -0.00000   0.00000   0.00000
  44        8PY        -0.00812   0.61558  -0.00000   0.00000   0.00000
  45        8PZ        -0.00000  -0.00000  -0.40121   0.18134  -0.62963
  46        9D 0       -0.00000   0.00000   0.01239   0.13684  -0.08515
  47        9D+1       -0.20434  -0.00269   0.00000   0.00000   0.00000
  48        9D-1        0.00269  -0.20434  -0.00000   0.00000   0.00000
  49        9D+2        0.00000  -0.00000   0.00000   0.00000   0.00000
  50        9D-2        0.00000  -0.00000   0.00000   0.00000   0.00000
  51       10D 0       -0.00000  -0.00000   0.03376   0.16724   0.00735
  52       10D+1       -0.09223  -0.00122  -0.00000   0.00000   0.00000
  53       10D-1        0.00122  -0.09223  -0.00000   0.00000   0.00000
  54       10D+2        0.00000  -0.00000   0.00000  -0.00000  -0.00000
  55       10D-2       -0.00000   0.00000  -0.00000  -0.00000  -0.00000
  56       11F 0       -0.00000  -0.00000   0.00273  -0.00011   0.00037
  57       11F+1       -0.00296  -0.00004   0.00000   0.00000  -0.00000
  58       11F-1        0.00004  -0.00296   0.00000  -0.00000  -0.00000
  59       11F+2       -0.00000   0.00000   0.00000  -0.00000  -0.00000
  60       11F-2        0.00000   0.00000   0.00000   0.00000   0.00000
  61       11F+3       -0.00000  -0.00000  -0.00000  -0.00000   0.00000
  62       11F-3       -0.00000   0.00000  -0.00000   0.00000   0.00000
                          36        37        38        39        40
                           V         V         V         V         V
     Eigenvalues --     0.06988   0.06988   0.25701   0.42778   0.42778
   1 1   Cr 1S         -0.00000  -0.00000  -0.00081   0.00000   0.00000
   2        2S          0.00000  -0.00000  -0.00609   0.00000  -0.00000
   3        3S         -0.00000   0.00000  -0.04536  -0.00000   0.00000
   4        4S          0.00000  -0.00000   5.53884  -0.00000  -0.00000
   5        5S         -0.00000   0.00000  -1.17373   0.00000   0.00000
   6        6PX         0.01368   0.07594  -0.00000  -0.00000  -0.00000
   7        6PY         0.07594  -0.01368  -0.00000  -0.00000  -0.00000
   8        6PZ         0.00000  -0.00000  -0.04594  -0.00000   0.00000
   9        7PX        -0.04591  -0.25490   0.00000   0.00000   0.00000
  10        7PY        -0.25490   0.04591   0.00000   0.00000   0.00000
  11        7PZ        -0.00000   0.00000   0.16483   0.00000  -0.00000
  12        8PX         0.17780   0.98727  -0.00000  -0.00000  -0.00000
  13        8PY         0.98727  -0.17780  -0.00000   0.00000   0.00000
  14        8PZ         0.00000  -0.00000  -3.75621   0.00000   0.00000
  15        9D 0       -0.00000   0.00000   0.28156  -0.00000   0.00000
  16        9D+1       -0.05174  -0.28728   0.00000   0.00000   0.00000
  17        9D-1       -0.28728   0.05174   0.00000  -0.00000   0.00000
  18        9D+2        0.00000  -0.00000   0.00000  -0.54079   0.00000
  19        9D-2        0.00000  -0.00000  -0.00000  -0.00000  -0.54079
  20       10D 0        0.00000  -0.00000   0.61560   0.00000  -0.00000
  21       10D+1       -0.02816  -0.15634  -0.00000  -0.00000  -0.00000
  22       10D-1       -0.15634   0.02816  -0.00000   0.00000  -0.00000
  23       10D+2       -0.00000   0.00000  -0.00000   0.61851  -0.00000
  24       10D-2       -0.00000   0.00000   0.00000   0.00000   0.61851
  25       11F 0       -0.00000  -0.00000  -0.00338   0.00000  -0.00000
  26       11F+1       -0.00075  -0.00416   0.00000   0.00000  -0.00000
  27       11F-1       -0.00416   0.00075   0.00000  -0.00000  -0.00000
  28       11F+2        0.00000  -0.00000  -0.00000  -0.00514   0.00000
  29       11F-2        0.00000  -0.00000  -0.00000  -0.00000  -0.00514
  30       11F+3       -0.00000  -0.00000   0.00000  -0.00000   0.00000
  31       11F-3        0.00000  -0.00000   0.00000  -0.00000   0.00000
  32 2   Cr 1S         -0.00000  -0.00000   0.00081  -0.00000   0.00000
  33        2S          0.00000   0.00000   0.00609   0.00000   0.00000
  34        3S         -0.00000  -0.00000   0.04536  -0.00000  -0.00000
  35        4S          0.00000   0.00000  -5.53884   0.00000   0.00000
  36        5S         -0.00000  -0.00000   1.17373  -0.00000  -0.00000
  37        6PX        -0.01368  -0.07594  -0.00000   0.00000   0.00000
  38        6PY        -0.07594   0.01368   0.00000  -0.00000  -0.00000
  39        6PZ        -0.00000   0.00000  -0.04594   0.00000   0.00000
  40        7PX         0.04591   0.25490   0.00000  -0.00000  -0.00000
  41        7PY         0.25490  -0.04591  -0.00000   0.00000   0.00000
  42        7PZ         0.00000  -0.00000   0.16483  -0.00000  -0.00000
  43        8PX        -0.17780  -0.98727  -0.00000   0.00000   0.00000
  44        8PY        -0.98727   0.17780   0.00000  -0.00000  -0.00000
  45        8PZ        -0.00000   0.00000  -3.75621   0.00000   0.00000
  46        9D 0       -0.00000   0.00000  -0.28156  -0.00000   0.00000
  47        9D+1       -0.05174  -0.28728  -0.00000  -0.00000  -0.00000
  48        9D-1       -0.28728   0.05174   0.00000  -0.00000  -0.00000
  49        9D+2        0.00000  -0.00000  -0.00000  -0.54079   0.00000
  50        9D-2        0.00000  -0.00000  -0.00000  -0.00000  -0.54079
  51       10D 0        0.00000  -0.00000  -0.61560   0.00000  -0.00000
  52       10D+1       -0.02816  -0.15634   0.00000   0.00000   0.00000
  53       10D-1       -0.15634   0.02816  -0.00000   0.00000   0.00000
  54       10D+2       -0.00000   0.00000   0.00000   0.61851  -0.00000
  55       10D-2       -0.00000   0.00000   0.00000   0.00000   0.61851
  56       11F 0        0.00000   0.00000  -0.00338  -0.00000   0.00000
  57       11F+1        0.00075   0.00416  -0.00000   0.00000   0.00000
  58       11F-1        0.00416  -0.00075  -0.00000  -0.00000   0.00000
  59       11F+2       -0.00000  -0.00000  -0.00000   0.00514  -0.00000
  60       11F-2        0.00000   0.00000   0.00000   0.00000   0.00514
  61       11F+3        0.00000   0.00000  -0.00000  -0.00000  -0.00000
  62       11F-3       -0.00000   0.00000   0.00000  -0.00000  -0.00000
                          41        42        43        44        45
                           V         V         V         V         V
     Eigenvalues --     0.50585   0.50585   0.55488   0.55488   0.61649
   1 1   Cr 1S         -0.00000   0.00000  -0.00000  -0.00000   0.01296
   2        2S          0.00000  -0.00000   0.00000   0.00000  -0.04281
   3        3S         -0.00000   0.00000  -0.00000  -0.00000   0.15609
   4        4S         -0.00000  -0.00000  -0.00000  -0.00000   6.07947
   5        5S          0.00000   0.00000   0.00000   0.00000  -1.77898
   6        6PX        -0.00492   0.00015   0.00000   0.00000  -0.00000
   7        6PY        -0.00015  -0.00492   0.00000  -0.00000  -0.00000
   8        6PZ        -0.00000   0.00000  -0.00000  -0.00000   0.02711
   9        7PX         0.01538  -0.00046  -0.00000  -0.00000   0.00000
  10        7PY         0.00046   0.01538  -0.00000   0.00000   0.00000
  11        7PZ         0.00000  -0.00000   0.00000   0.00000  -0.09175
  12        8PX         0.14149  -0.00423   0.00000  -0.00000   0.00000
  13        8PY         0.00423   0.14149   0.00000  -0.00000  -0.00000
  14        8PZ         0.00000   0.00000   0.00000  -0.00000  -3.72563
  15        9D 0        0.00000   0.00000   0.00000  -0.00000  -0.44021
  16        9D+1       -0.55690   0.01664   0.00000   0.00000   0.00000
  17        9D-1       -0.01664  -0.55690   0.00000  -0.00000  -0.00000
  18        9D+2       -0.00000  -0.00000  -0.49797   0.00000  -0.00000
  19        9D-2       -0.00000  -0.00000  -0.00000  -0.49797   0.00000
  20       10D 0       -0.00000  -0.00000  -0.00000   0.00000   1.66629
  21       10D+1        0.60362  -0.01804  -0.00000  -0.00000  -0.00000
  22       10D-1        0.01804   0.60362  -0.00000   0.00000   0.00000
  23       10D+2        0.00000  -0.00000   0.80328  -0.00000   0.00000
  24       10D-2        0.00000   0.00000   0.00000   0.80328  -0.00000
  25       11F 0        0.00000  -0.00000   0.00000   0.00000  -0.00840
  26       11F+1        0.00324  -0.00010  -0.00000   0.00000   0.00000
  27       11F-1        0.00010   0.00324  -0.00000   0.00000  -0.00000
  28       11F+2        0.00000  -0.00000   0.01037  -0.00000   0.00000
  29       11F-2       -0.00000  -0.00000   0.00000   0.01037  -0.00000
  30       11F+3       -0.00000   0.00000   0.00000  -0.00000  -0.00000
  31       11F-3        0.00000   0.00000  -0.00000  -0.00000  -0.00000
  32 2   Cr 1S          0.00000   0.00000   0.00000  -0.00000  -0.01296
  33        2S         -0.00000  -0.00000  -0.00000   0.00000   0.04281
  34        3S          0.00000   0.00000   0.00000  -0.00000  -0.15609
  35        4S          0.00000  -0.00000   0.00000  -0.00000  -6.07947
  36        5S         -0.00000   0.00000  -0.00000   0.00000   1.77898
  37        6PX        -0.00492   0.00015   0.00000   0.00000  -0.00000
  38        6PY        -0.00015  -0.00492   0.00000   0.00000   0.00000
  39        6PZ        -0.00000  -0.00000  -0.00000   0.00000   0.02711
  40        7PX         0.01538  -0.00046   0.00000  -0.00000   0.00000
  41        7PY         0.00046   0.01538  -0.00000  -0.00000  -0.00000
  42        7PZ         0.00000   0.00000   0.00000  -0.00000  -0.09175
  43        8PX         0.14149  -0.00423  -0.00000  -0.00000  -0.00000
  44        8PY         0.00423   0.14149  -0.00000   0.00000   0.00000
  45        8PZ         0.00000  -0.00000   0.00000   0.00000  -3.72563
  46        9D 0       -0.00000   0.00000  -0.00000  -0.00000   0.44021
  47        9D+1        0.55690  -0.01664  -0.00000  -0.00000   0.00000
  48        9D-1        0.01664   0.55690   0.00000  -0.00000  -0.00000
  49        9D+2        0.00000  -0.00000   0.49797  -0.00000   0.00000
  50        9D-2       -0.00000  -0.00000   0.00000   0.49797   0.00000
  51       10D 0        0.00000  -0.00000   0.00000   0.00000  -1.66629
  52       10D+1       -0.60362   0.01804   0.00000   0.00000  -0.00000
  53       10D-1       -0.01804  -0.60362  -0.00000   0.00000   0.00000
  54       10D+2       -0.00000   0.00000  -0.80328   0.00000  -0.00000
  55       10D-2        0.00000   0.00000  -0.00000  -0.80328  -0.00000
  56       11F 0        0.00000   0.00000   0.00000  -0.00000  -0.00840
  57       11F+1        0.00324  -0.00010  -0.00000  -0.00000  -0.00000
  58       11F-1        0.00010   0.00324   0.00000  -0.00000   0.00000
  59       11F+2        0.00000  -0.00000   0.01037  -0.00000   0.00000
  60       11F-2       -0.00000   0.00000   0.00000   0.01037  -0.00000
  61       11F+3       -0.00000   0.00000   0.00000   0.00000   0.00000
  62       11F-3        0.00000   0.00000   0.00000   0.00000  -0.00000
                          46        47        48        49        50
                           V         V         V         V         V
     Eigenvalues --     0.64994   0.71526   0.71526   2.66375   2.72220
   1 1   Cr 1S         -0.01431  -0.00000  -0.00000   0.00165  -0.00000
   2        2S          0.03726  -0.00000   0.00000  -0.00545   0.00000
   3        3S         -0.21270   0.00000  -0.00000   0.01846   0.00000
   4        4S         -0.23663  -0.00000  -0.00000   0.00912  -0.00000
   5        5S          0.19773   0.00000   0.00000  -0.00887  -0.00000
   6        6PX         0.00000  -0.00850   0.00610  -0.00000  -0.00025
   7        6PY         0.00000  -0.00610  -0.00850  -0.00000   0.00102
   8        6PZ        -0.06330   0.00000  -0.00000   0.01094   0.00000
   9        7PX         0.00000   0.03407  -0.02444   0.00000   0.00049
  10        7PY        -0.00000   0.02444   0.03407  -0.00000  -0.00201
  11        7PZ         0.22523  -0.00000   0.00000  -0.03290  -0.00000
  12        8PX        -0.00000  -0.65249   0.46807  -0.00000   0.00057
  13        8PY         0.00000  -0.46807  -0.65249   0.00000  -0.00233
  14        8PZ        -0.17753   0.00000   0.00000   0.01846   0.00000
  15        9D 0       -0.53435   0.00000   0.00000   0.05447   0.00000
  16        9D+1       -0.00000  -0.35501   0.25466   0.00000  -0.00190
  17        9D-1        0.00000  -0.25466  -0.35501  -0.00000   0.00773
  18        9D+2        0.00000  -0.00000   0.00000  -0.00000  -0.00000
  19        9D-2        0.00000   0.00000   0.00000  -0.00000   0.00000
  20       10D 0        0.80353  -0.00000  -0.00000  -0.02269   0.00000
  21       10D+1        0.00000   1.06188  -0.76174   0.00000  -0.00821
  22       10D-1       -0.00000   0.76174   1.06188   0.00000   0.03333
  23       10D+2       -0.00000   0.00000  -0.00000   0.00000   0.00000
  24       10D-2       -0.00000  -0.00000  -0.00000   0.00000   0.00000
  25       11F 0        0.02390  -0.00000   0.00000   0.69205  -0.00000
  26       11F+1        0.00000   0.02191  -0.01572   0.00000  -0.16739
  27       11F-1       -0.00000   0.01572   0.02191   0.00000   0.67981
  28       11F+2       -0.00000   0.00000  -0.00000  -0.00000  -0.00000
  29       11F-2       -0.00000  -0.00000  -0.00000   0.00000   0.00000
  30       11F+3        0.00000  -0.00000   0.00000   0.00000   0.00000
  31       11F-3        0.00000   0.00000   0.00000  -0.00000   0.00000
  32 2   Cr 1S         -0.01431   0.00000   0.00000   0.00165   0.00000
  33        2S          0.03726  -0.00000  -0.00000  -0.00545   0.00000
  34        3S         -0.21270   0.00000  -0.00000   0.01846   0.00000
  35        4S         -0.23663  -0.00000   0.00000   0.00912  -0.00000
  36        5S          0.19773  -0.00000  -0.00000  -0.00887  -0.00000
  37        6PX         0.00000   0.00850  -0.00610  -0.00000  -0.00025
  38        6PY         0.00000   0.00610   0.00850  -0.00000   0.00102
  39        6PZ         0.06330  -0.00000   0.00000  -0.01094  -0.00000
  40        7PX        -0.00000  -0.03407   0.02444   0.00000   0.00049
  41        7PY        -0.00000  -0.02444  -0.03407  -0.00000  -0.00201
  42        7PZ        -0.22523   0.00000  -0.00000   0.03290  -0.00000
  43        8PX         0.00000   0.65249  -0.46807   0.00000   0.00057
  44        8PY        -0.00000   0.46807   0.65249  -0.00000  -0.00233
  45        8PZ         0.17753  -0.00000   0.00000  -0.01846  -0.00000
  46        9D 0       -0.53435   0.00000  -0.00000   0.05447   0.00000
  47        9D+1       -0.00000  -0.35501   0.25466  -0.00000   0.00190
  48        9D-1        0.00000  -0.25466  -0.35501   0.00000  -0.00773
  49        9D+2       -0.00000   0.00000   0.00000   0.00000  -0.00000
  50        9D-2       -0.00000  -0.00000  -0.00000   0.00000   0.00000
  51       10D 0        0.80353  -0.00000   0.00000  -0.02269   0.00000
  52       10D+1        0.00000   1.06188  -0.76174   0.00000   0.00821
  53       10D-1       -0.00000   0.76174   1.06188  -0.00000  -0.03333
  54       10D+2        0.00000  -0.00000  -0.00000  -0.00000  -0.00000
  55       10D-2        0.00000   0.00000   0.00000  -0.00000  -0.00000
  56       11F 0       -0.02390   0.00000   0.00000  -0.69205   0.00000
  57       11F+1       -0.00000  -0.02191   0.01572   0.00000  -0.16739
  58       11F-1        0.00000  -0.01572  -0.02191   0.00000   0.67981
  59       11F+2        0.00000  -0.00000  -0.00000  -0.00000  -0.00000
  60       11F-2       -0.00000  -0.00000  -0.00000   0.00000  -0.00000
  61       11F+3        0.00000   0.00000  -0.00000  -0.00000   0.00000
  62       11F-3        0.00000  -0.00000  -0.00000   0.00000   0.00000
                          51        52        53        54        55
                           V         V         V         V         V
     Eigenvalues --     2.72220   2.82211   2.82211   2.85531   2.85531
   1 1   Cr 1S          0.00000  -0.00000   0.00000  -0.00000   0.00000
   2        2S         -0.00000   0.00000  -0.00000   0.00000  -0.00000
   3        3S          0.00000  -0.00000   0.00000  -0.00000   0.00000
   4        4S          0.00000  -0.00000   0.00000   0.00000  -0.00000
   5        5S         -0.00000   0.00000  -0.00000  -0.00000   0.00000
   6        6PX         0.00102   0.00000  -0.00000   0.00000  -0.00000
   7        6PY         0.00025   0.00000   0.00000  -0.00000  -0.00000
   8        6PZ        -0.00000  -0.00000  -0.00000  -0.00000  -0.00000
   9        7PX        -0.00201  -0.00000  -0.00000  -0.00000   0.00000
  10        7PY        -0.00049  -0.00000  -0.00000   0.00000   0.00000
  11        7PZ         0.00000   0.00000  -0.00000  -0.00000   0.00000
  12        8PX        -0.00233  -0.00000   0.00000   0.00000  -0.00000
  13        8PY        -0.00057   0.00000  -0.00000  -0.00000  -0.00000
  14        8PZ        -0.00000   0.00000  -0.00000  -0.00000  -0.00000
  15        9D 0       -0.00000   0.00000  -0.00000   0.00000   0.00000
  16        9D+1        0.00773   0.00000   0.00000   0.00000  -0.00000
  17        9D-1        0.00190   0.00000  -0.00000  -0.00000  -0.00000
  18        9D+2        0.00000  -0.00500   0.00000  -0.00000  -0.00000
  19        9D-2        0.00000  -0.00000  -0.00500  -0.00000  -0.00000
  20       10D 0        0.00000  -0.00000   0.00000   0.00000   0.00000
  21       10D+1        0.03333  -0.00000  -0.00000   0.00000  -0.00000
  22       10D-1        0.00821  -0.00000   0.00000  -0.00000  -0.00000
  23       10D+2        0.00000   0.02790  -0.00000   0.00000   0.00000
  24       10D-2       -0.00000   0.00000   0.02790   0.00000   0.00000
  25       11F 0       -0.00000  -0.00000   0.00000  -0.00000   0.00000
  26       11F+1        0.67981  -0.00000   0.00000   0.00000  -0.00000
  27       11F-1        0.16739  -0.00000  -0.00000  -0.00000  -0.00000
  28       11F+2        0.00000   0.70587  -0.00000  -0.00000   0.00000
  29       11F-2       -0.00000   0.00000   0.70587   0.00000   0.00000
  30       11F+3       -0.00000  -0.00000  -0.00000   0.70680  -0.01709
  31       11F-3        0.00000   0.00000  -0.00000   0.01709   0.70680
  32 2   Cr 1S         -0.00000   0.00000  -0.00000   0.00000   0.00000
  33        2S          0.00000  -0.00000   0.00000  -0.00000  -0.00000
  34        3S         -0.00000   0.00000  -0.00000   0.00000   0.00000
  35        4S         -0.00000   0.00000  -0.00000  -0.00000  -0.00000
  36        5S          0.00000  -0.00000   0.00000   0.00000   0.00000
  37        6PX         0.00102  -0.00000  -0.00000   0.00000  -0.00000
  38        6PY         0.00025  -0.00000   0.00000  -0.00000  -0.00000
  39        6PZ         0.00000   0.00000  -0.00000   0.00000   0.00000
  40        7PX        -0.00201   0.00000  -0.00000  -0.00000   0.00000
  41        7PY        -0.00049  -0.00000  -0.00000   0.00000   0.00000
  42        7PZ        -0.00000  -0.00000   0.00000  -0.00000  -0.00000
  43        8PX        -0.00233   0.00000   0.00000   0.00000  -0.00000
  44        8PY        -0.00057  -0.00000   0.00000  -0.00000  -0.00000
  45        8PZ        -0.00000   0.00000  -0.00000  -0.00000   0.00000
  46        9D 0        0.00000  -0.00000   0.00000  -0.00000   0.00000
  47        9D+1       -0.00773   0.00000  -0.00000  -0.00000   0.00000
  48        9D-1       -0.00190   0.00000  -0.00000   0.00000   0.00000
  49        9D+2       -0.00000  -0.00500   0.00000   0.00000  -0.00000
  50        9D-2        0.00000  -0.00000  -0.00500   0.00000   0.00000
  51       10D 0       -0.00000   0.00000  -0.00000  -0.00000   0.00000
  52       10D+1       -0.03333   0.00000  -0.00000  -0.00000   0.00000
  53       10D-1       -0.00821  -0.00000   0.00000   0.00000   0.00000
  54       10D+2        0.00000   0.02790  -0.00000  -0.00000   0.00000
  55       10D-2       -0.00000   0.00000   0.02790   0.00000   0.00000
  56       11F 0        0.00000   0.00000   0.00000   0.00000  -0.00000
  57       11F+1        0.67981  -0.00000  -0.00000   0.00000  -0.00000
  58       11F-1        0.16739  -0.00000  -0.00000  -0.00000  -0.00000
  59       11F+2       -0.00000  -0.70587   0.00000  -0.00000   0.00000
  60       11F-2       -0.00000  -0.00000  -0.70587  -0.00000  -0.00000
  61       11F+3       -0.00000  -0.00000  -0.00000   0.70680  -0.01709
  62       11F-3        0.00000  -0.00000  -0.00000   0.01709   0.70680
                          56        57        58        59        60
                           V         V         V         V         V
     Eigenvalues --     2.85980   2.85980   2.88309   2.88309   3.05283
   1 1   Cr 1S         -0.00000   0.00000  -0.00000  -0.00000  -0.00000
   2        2S          0.00000  -0.00000   0.00000  -0.00000   0.00000
   3        3S         -0.00000   0.00000  -0.00000   0.00000  -0.00000
   4        4S          0.00000  -0.00000  -0.00000   0.00000  -0.00000
   5        5S         -0.00000   0.00000   0.00000  -0.00000   0.00000
   6        6PX         0.00000   0.00000   0.00000   0.00000   0.00206
   7        6PY         0.00000  -0.00000   0.00000  -0.00000  -0.00197
   8        6PZ        -0.00000   0.00000   0.00000   0.00000   0.00000
   9        7PX        -0.00000  -0.00000  -0.00000  -0.00000  -0.00885
  10        7PY        -0.00000   0.00000  -0.00000  -0.00000   0.00845
  11        7PZ        -0.00000  -0.00000   0.00000   0.00000  -0.00000
  12        8PX        -0.00000  -0.00000   0.00000  -0.00000   0.13752
  13        8PY        -0.00000   0.00000   0.00000  -0.00000  -0.13119
  14        8PZ        -0.00000   0.00000   0.00000  -0.00000   0.00000
  15        9D 0        0.00000  -0.00000   0.00000  -0.00000   0.00000
  16        9D+1       -0.00000  -0.00000  -0.00000   0.00000   0.03089
  17        9D-1       -0.00000   0.00000  -0.00000  -0.00000  -0.02947
  18        9D+2       -0.00000   0.00000   0.01764  -0.00000   0.00000
  19        9D-2       -0.00000  -0.00000   0.00000   0.01764   0.00000
  20       10D 0        0.00000  -0.00000  -0.00000   0.00000  -0.00000
  21       10D+1        0.00000   0.00000   0.00000   0.00000  -0.17964
  22       10D-1        0.00000  -0.00000  -0.00000   0.00000   0.17137
  23       10D+2        0.00000  -0.00000  -0.04295   0.00000  -0.00000
  24       10D-2        0.00000   0.00000  -0.00000  -0.04295  -0.00000
  25       11F 0       -0.00000   0.00000   0.00000  -0.00000   0.00000
  26       11F+1       -0.00000  -0.00000  -0.00000  -0.00000   0.52304
  27       11F-1       -0.00000   0.00000   0.00000   0.00000  -0.49895
  28       11F+2       -0.00000   0.00000   0.70904  -0.00000   0.00000
  29       11F-2        0.00000  -0.00000   0.00000   0.70904  -0.00000
  30       11F+3        0.70717   0.00678   0.00000   0.00000   0.00000
  31       11F-3       -0.00678   0.70717  -0.00000  -0.00000   0.00000
  32 2   Cr 1S          0.00000   0.00000   0.00000  -0.00000   0.00000
  33        2S         -0.00000  -0.00000  -0.00000   0.00000  -0.00000
  34        3S          0.00000   0.00000   0.00000  -0.00000   0.00000
  35        4S         -0.00000  -0.00000   0.00000  -0.00000   0.00000
  36        5S          0.00000   0.00000  -0.00000   0.00000  -0.00000
  37        6PX        -0.00000  -0.00000   0.00000  -0.00000  -0.00206
  38        6PY        -0.00000   0.00000  -0.00000  -0.00000   0.00197
  39        6PZ         0.00000  -0.00000   0.00000   0.00000   0.00000
  40        7PX         0.00000   0.00000  -0.00000  -0.00000   0.00885
  41        7PY         0.00000  -0.00000   0.00000   0.00000  -0.00845
  42        7PZ        -0.00000   0.00000   0.00000  -0.00000   0.00000
  43        8PX         0.00000   0.00000   0.00000   0.00000  -0.13752
  44        8PY         0.00000  -0.00000  -0.00000   0.00000   0.13119
  45        8PZ        -0.00000  -0.00000   0.00000  -0.00000   0.00000
  46        9D 0       -0.00000  -0.00000  -0.00000   0.00000  -0.00000
  47        9D+1       -0.00000  -0.00000  -0.00000   0.00000   0.03089
  48        9D-1       -0.00000   0.00000   0.00000  -0.00000  -0.02947
  49        9D+2        0.00000  -0.00000  -0.01764   0.00000   0.00000
  50        9D-2        0.00000   0.00000  -0.00000  -0.01764   0.00000
  51       10D 0       -0.00000  -0.00000   0.00000  -0.00000   0.00000
  52       10D+1        0.00000   0.00000   0.00000   0.00000  -0.17964
  53       10D-1        0.00000  -0.00000  -0.00000   0.00000   0.17137
  54       10D+2       -0.00000  -0.00000   0.04295  -0.00000  -0.00000
  55       10D-2       -0.00000  -0.00000   0.00000   0.04295  -0.00000
  56       11F 0        0.00000  -0.00000  -0.00000   0.00000   0.00000
  57       11F+1        0.00000   0.00000   0.00000   0.00000  -0.52304
  58       11F-1        0.00000  -0.00000  -0.00000   0.00000   0.49895
  59       11F+2       -0.00000   0.00000   0.70904  -0.00000   0.00000
  60       11F-2       -0.00000   0.00000   0.00000   0.70904   0.00000
  61       11F+3       -0.70717  -0.00678   0.00000   0.00000  -0.00000
  62       11F-3        0.00678  -0.70717   0.00000   0.00000  -0.00000
                          61        62
                           V         V
     Eigenvalues --     3.05283   3.06384
   1 1   Cr 1S         -0.00000   0.00181
   2        2S         -0.00000  -0.00705
   3        3S          0.00000   0.01623
   4        4S          0.00000   0.73532
   5        5S         -0.00000  -0.22342
   6        6PX         0.00197  -0.00000
   7        6PY         0.00206   0.00000
   8        6PZ         0.00000   0.00846
   9        7PX        -0.00845   0.00000
  10        7PY        -0.00885   0.00000
  11        7PZ        -0.00000  -0.02356
  12        8PX         0.13119  -0.00000
  13        8PY         0.13752  -0.00000
  14        8PZ        -0.00000  -0.44885
  15        9D 0        0.00000   0.01487
  16        9D+1        0.02947  -0.00000
  17        9D-1        0.03089  -0.00000
  18        9D+2       -0.00000  -0.00000
  19        9D-2        0.00000   0.00000
  20       10D 0        0.00000   0.15699
  21       10D+1       -0.17137   0.00000
  22       10D-1       -0.17964   0.00000
  23       10D+2       -0.00000   0.00000
  24       10D-2        0.00000  -0.00000
  25       11F 0       -0.00000  -0.72791
  26       11F+1        0.49895  -0.00000
  27       11F-1        0.52304  -0.00000
  28       11F+2       -0.00000   0.00000
  29       11F-2        0.00000   0.00000
  30       11F+3        0.00000  -0.00000
  31       11F-3       -0.00000  -0.00000
  32 2   Cr 1S          0.00000  -0.00181
  33        2S          0.00000   0.00705
  34        3S         -0.00000  -0.01623
  35        4S         -0.00000  -0.73532
  36        5S          0.00000   0.22342
  37        6PX        -0.00197  -0.00000
  38        6PY        -0.00206   0.00000
  39        6PZ         0.00000   0.00846
  40        7PX         0.00845  -0.00000
  41        7PY         0.00885  -0.00000
  42        7PZ        -0.00000  -0.02356
  43        8PX        -0.13119   0.00000
  44        8PY        -0.13752   0.00000
  45        8PZ         0.00000  -0.44885
  46        9D 0       -0.00000  -0.01487
  47        9D+1        0.02947  -0.00000
  48        9D-1        0.03089  -0.00000
  49        9D+2        0.00000   0.00000
  50        9D-2       -0.00000  -0.00000
  51       10D 0       -0.00000  -0.15699
  52       10D+1       -0.17137   0.00000
  53       10D-1       -0.17964   0.00000
  54       10D+2       -0.00000  -0.00000
  55       10D-2        0.00000  -0.00000
  56       11F 0       -0.00000  -0.72791
  57       11F+1       -0.49895   0.00000
  58       11F-1       -0.52304   0.00000
  59       11F+2       -0.00000   0.00000
  60       11F-2        0.00000   0.00000
  61       11F+3       -0.00000   0.00000
  62       11F-3        0.00000  -0.00000
     Beta Molecular Orbital Coefficients:
                           1         2         3         4         5
                           O         O         O         O         O
     Eigenvalues --  -213.49541-213.49536 -24.00918 -24.00905 -20.39392
   1 1   Cr 1S          0.70375   0.70376  -0.23396  -0.23400  -0.00059
   2        2S          0.01089   0.01088   0.73529   0.73537   0.00181
   3        3S         -0.00259  -0.00247   0.01866   0.01799  -0.00123
   4        4S          0.00086  -0.00082  -0.00464   0.00491  -0.00186
   5        5S         -0.00041  -0.00041   0.00217   0.00194   0.00130
   6        6PX        -0.00000   0.00000   0.00000   0.00000  -0.00000
   7        6PY         0.00000   0.00000   0.00000   0.00000   0.00000
   8        6PZ        -0.00005  -0.00000  -0.00128  -0.00145   0.70083
   9        7PX        -0.00000  -0.00000  -0.00000   0.00000  -0.00000
  10        7PY         0.00000   0.00000   0.00000  -0.00000   0.00000
  11        7PZ         0.00016  -0.00000  -0.00093  -0.00013   0.01814
  12        8PX        -0.00000   0.00000   0.00000  -0.00000   0.00000
  13        8PY         0.00000   0.00000   0.00000   0.00000   0.00000
  14        8PZ        -0.00013   0.00133   0.00070  -0.00742  -0.00457
  15        9D 0       -0.00013   0.00009   0.00065  -0.00039  -0.00081
  16        9D+1        0.00000   0.00000   0.00000  -0.00000   0.00000
  17        9D-1       -0.00000   0.00000  -0.00000   0.00000  -0.00000
  18        9D+2        0.00000  -0.00000  -0.00000   0.00000   0.00000
  19        9D-2        0.00000   0.00000  -0.00000  -0.00000  -0.00000
  20       10D 0        0.00036  -0.00062  -0.00183   0.00338   0.00255
  21       10D+1        0.00000  -0.00000   0.00000   0.00000  -0.00000
  22       10D-1       -0.00000   0.00000  -0.00000  -0.00000  -0.00000
  23       10D+2       -0.00000  -0.00000   0.00000  -0.00000  -0.00000
  24       10D-2       -0.00000   0.00000   0.00000  -0.00000  -0.00000
  25       11F 0       -0.00002   0.00004   0.00013  -0.00024  -0.00028
  26       11F+1       -0.00000   0.00000  -0.00000  -0.00000   0.00000
  27       11F-1        0.00000   0.00000   0.00000  -0.00000  -0.00000
  28       11F+2       -0.00000  -0.00000  -0.00000   0.00000   0.00000
  29       11F-2       -0.00000   0.00000  -0.00000  -0.00000  -0.00000
  30       11F+3        0.00000  -0.00000   0.00000  -0.00000   0.00000
  31       11F-3        0.00000  -0.00000   0.00000  -0.00000   0.00000
  32 2   Cr 1S          0.70375  -0.70376  -0.23396   0.23400  -0.00059
  33        2S          0.01089  -0.01088   0.73529  -0.73537   0.00181
  34        3S         -0.00259   0.00247   0.01866  -0.01799  -0.00123
  35        4S          0.00086   0.00082  -0.00464  -0.00491  -0.00186
  36        5S         -0.00041   0.00041   0.00217  -0.00194   0.00130
  37        6PX        -0.00000  -0.00000   0.00000   0.00000  -0.00000
  38        6PY         0.00000   0.00000   0.00000  -0.00000   0.00000
  39        6PZ         0.00005  -0.00000   0.00128  -0.00145  -0.70083
  40        7PX        -0.00000   0.00000  -0.00000  -0.00000  -0.00000
  41        7PY         0.00000  -0.00000   0.00000   0.00000   0.00000
  42        7PZ        -0.00016  -0.00000   0.00093  -0.00013  -0.01814
  43        8PX         0.00000  -0.00000  -0.00000   0.00000   0.00000
  44        8PY         0.00000  -0.00000   0.00000  -0.00000  -0.00000
  45        8PZ         0.00013   0.00133  -0.00070  -0.00742   0.00457
  46        9D 0       -0.00013  -0.00009   0.00065   0.00039  -0.00081
  47        9D+1       -0.00000   0.00000  -0.00000  -0.00000  -0.00000
  48        9D-1        0.00000   0.00000   0.00000   0.00000   0.00000
  49        9D+2        0.00000  -0.00000   0.00000  -0.00000   0.00000
  50        9D-2        0.00000   0.00000   0.00000  -0.00000   0.00000
  51       10D 0        0.00036   0.00062  -0.00183  -0.00338   0.00255
  52       10D+1        0.00000  -0.00000  -0.00000   0.00000   0.00000
  53       10D-1        0.00000  -0.00000   0.00000  -0.00000  -0.00000
  54       10D+2        0.00000  -0.00000  -0.00000  -0.00000  -0.00000
  55       10D-2       -0.00000   0.00000  -0.00000  -0.00000  -0.00000
  56       11F 0        0.00002   0.00004  -0.00013  -0.00024   0.00028
  57       11F+1        0.00000  -0.00000  -0.00000  -0.00000   0.00000
  58       11F-1        0.00000  -0.00000  -0.00000   0.00000  -0.00000
  59       11F+2       -0.00000  -0.00000  -0.00000   0.00000   0.00000
  60       11F-2       -0.00000   0.00000  -0.00000  -0.00000   0.00000
  61       11F+3       -0.00000   0.00000  -0.00000   0.00000  -0.00000
  62       11F-3        0.00000  -0.00000   0.00000  -0.00000   0.00000
                           6         7         8         9        10
                           O         O         O         O         O
     Eigenvalues --   -20.39383 -20.39288 -20.39288 -20.39285 -20.39285
   1 1   Cr 1S         -0.00050   0.00000  -0.00000  -0.00000   0.00000
   2        2S          0.00162  -0.00000   0.00000   0.00000  -0.00000
   3        3S          0.00005   0.00000  -0.00000  -0.00000   0.00000
   4        4S          0.00049   0.00000   0.00000  -0.00000   0.00000
   5        5S          0.00234  -0.00000  -0.00000  -0.00000  -0.00000
   6        6PX         0.00000   0.65445   0.25138   0.66935   0.20857
   7        6PY        -0.00000  -0.25138   0.65445  -0.20857   0.66935
   8        6PZ         0.70097  -0.00000   0.00000   0.00000   0.00000
   9        7PX         0.00000   0.01607   0.00617   0.01636   0.00510
  10        7PY        -0.00000  -0.00617   0.01607  -0.00510   0.01636
  11        7PZ         0.01750  -0.00000   0.00000   0.00000   0.00000
  12        8PX        -0.00000  -0.00442  -0.00170  -0.00269  -0.00084
  13        8PY         0.00000   0.00170  -0.00442   0.00084  -0.00269
  14        8PZ        -0.00382   0.00000  -0.00000  -0.00000  -0.00000
  15        9D 0       -0.00009   0.00000  -0.00000  -0.00000   0.00000
  16        9D+1       -0.00000  -0.00018  -0.00007  -0.00026  -0.00008
  17        9D-1        0.00000   0.00007  -0.00018   0.00008  -0.00026
  18        9D+2        0.00000  -0.00000   0.00000   0.00000  -0.00000
  19        9D-2       -0.00000  -0.00000   0.00000   0.00000  -0.00000
  20       10D 0       -0.00147  -0.00000   0.00000   0.00000  -0.00000
  21       10D+1        0.00000   0.00073   0.00028   0.00027   0.00008
  22       10D-1       -0.00000  -0.00028   0.00073  -0.00008   0.00027
  23       10D+2        0.00000   0.00000   0.00000   0.00000   0.00000
  24       10D-2       -0.00000   0.00000  -0.00000   0.00000  -0.00000
  25       11F 0        0.00037  -0.00000  -0.00000  -0.00000   0.00000
  26       11F+1       -0.00000  -0.00002  -0.00001  -0.00003  -0.00001
  27       11F-1        0.00000   0.00001  -0.00002   0.00001  -0.00003
  28       11F+2       -0.00000   0.00000  -0.00000   0.00000  -0.00000
  29       11F-2        0.00000   0.00000  -0.00000   0.00000  -0.00000
  30       11F+3        0.00000  -0.00000  -0.00000  -0.00000  -0.00000
  31       11F-3        0.00000  -0.00000   0.00000  -0.00000   0.00000
  32 2   Cr 1S          0.00050  -0.00000  -0.00000  -0.00000   0.00000
  33        2S         -0.00162   0.00000   0.00000   0.00000  -0.00000
  34        3S         -0.00005   0.00000  -0.00000  -0.00000   0.00000
  35        4S         -0.00049   0.00000  -0.00000  -0.00000  -0.00000
  36        5S         -0.00234   0.00000   0.00000   0.00000  -0.00000
  37        6PX         0.00000  -0.65445  -0.25138   0.66935   0.20857
  38        6PY        -0.00000   0.25138  -0.65445  -0.20857   0.66935
  39        6PZ         0.70097  -0.00000  -0.00000  -0.00000   0.00000
  40        7PX         0.00000  -0.01607  -0.00617   0.01636   0.00510
  41        7PY        -0.00000   0.00617  -0.01607  -0.00510   0.01636
  42        7PZ         0.01750  -0.00000  -0.00000  -0.00000   0.00000
  43        8PX         0.00000   0.00442   0.00170  -0.00269  -0.00084
  44        8PY         0.00000  -0.00170   0.00442   0.00084  -0.00269
  45        8PZ        -0.00382   0.00000   0.00000   0.00000  -0.00000
  46        9D 0        0.00009   0.00000  -0.00000  -0.00000   0.00000
  47        9D+1        0.00000  -0.00018  -0.00007   0.00026   0.00008
  48        9D-1       -0.00000   0.00007  -0.00018  -0.00008   0.00026
  49        9D+2        0.00000  -0.00000   0.00000   0.00000  -0.00000
  50        9D-2       -0.00000   0.00000  -0.00000   0.00000  -0.00000
  51       10D 0        0.00147  -0.00000   0.00000   0.00000  -0.00000
  52       10D+1        0.00000   0.00073   0.00028  -0.00027  -0.00008
  53       10D-1       -0.00000  -0.00028   0.00073   0.00008  -0.00027
  54       10D+2        0.00000   0.00000   0.00000  -0.00000   0.00000
  55       10D-2       -0.00000   0.00000   0.00000   0.00000   0.00000
  56       11F 0        0.00037  -0.00000   0.00000  -0.00000  -0.00000
  57       11F+1        0.00000   0.00002   0.00001  -0.00003  -0.00001
[...]
 Gaussian, Inc. access to this program.  By using this program,
 the user acknowledges that Gaussian, Inc. is engaged in the
 business of creating and licensing software in the field of
 computational chemistry and represents and warrants to the
 licensee that it is not a competitor of Gaussian, Inc. and that
 it will not use this program in any manner prohibited above.
 ---------------------------------------------------------------
  

 Cite this work as:
 Gaussian 09, Revision C.01,
 M. J. Frisch, G. W. Trucks, H. B. Schlegel, G. E. Scuseria, 
 M. A. Robb, J. R. Cheeseman, G. Scalmani, V. Barone, B. Mennucci, 
 G. A. Petersson, H. Nakatsuji, M. Caricato, X. Li, H. P. Hratchian, 
 A. F. Izmaylov, J. Bloino, G. Zheng, J. L. Sonnenberg, M. Hada, 
 M. Ehara, K. Toyota, R. Fukuda, J. Hasegawa, M. Ishida, T. Nakajima, 
 Y. Honda, O. Kitao, H. Nakai, T. Vreven, J. A. Montgomery, Jr., 
 J. E. Peralta, F. Ogliaro, M. Bearpark, J. J. Heyd, E. Brothers, 
 K. N. Kudin, V. N. Staroverov, T. Keith, R. Kobayashi, J. Normand, 
 K. Raghavachari, A. Rendell, J. C. Burant, S. S. Iyengar, J. Tomasi, 
 M. Cossi, N. Rega, J. M. Millam, M. Klene, J. E. Knox, J. B. Cross, 
 V. Bakken, C. Adamo, J. Jaramillo, R. Gomperts, R. E. Stratmann, 
 O. Yazyev, A. J. Austin, R. Cammi, C. Pomelli, J. W. Ochterski, 
 R. L. Martin, K. Morokuma, V. G. Zakrzewski, G. A. Voth, 
 P. Salvador, J. J. Dannenberg, S. Dapprich, A. D. Daniels, 
 O. Farkas, J. B. Foresman, J. V. Ortiz, J. Cioslowski, 
 and D. J. Fox, Gaussian, Inc., Wallingford CT, 2010.
 
 ******************************************
 Gaussian 09:  EM64L-G09RevC.01 23-Sep-2011
                 3-Feb-2021 
 ******************************************
 %nproc=1
 Will use up to    1 processors via shared memory.
 %mem=1gb
 %chk=cr2.chk
 --------------------------------------------------------
 #p uhf chkbasis guess(read) geom=allcheck scf=(conver=2)
 --------------------------------------------------------
 1/29=7,38=1/1;
 2/12=2,40=1/2;
 3/5=7,6=2,11=2,14=-4,16=1,25=1,30=1,67=1,116=2/1,2,3;
 4/5=1/1;
 5/5=2,6=2,38=6/2;
 6/7=2,8=2,9=2,10=2,28=1/1;
 99/5=1,9=1/99;
 Leave Link    1 at Wed Feb  3 10:26:37 2021, MaxMem=  134217728 cpu:       0.0
 (Enter /share/apps/gaussian/G09C01Z/srwang-mod-2020/g09/l101.exe)
 Structure from the checkpoint file:  cr2.chk
 -----
 title
 -----
 Charge =  0 Multiplicity = 1
 Z-Matrix found in file.
 Cr,0,0.,0.,0.
 Cr,0,0.,0.,2.
 Recover connectivity data from disk.
 NAtoms=      2 NQM=        0 NQMF=       0 NMMI=      2 NMMIF=      0
                NMic=       0 NMicF=      0.
                    Isotopes and Nuclear Properties:
 (Nuclear quadrupole moments (NQMom) in fm**2, nuclear magnetic moments (NMagM)
  in nuclear magnetons)

  Atom         1           2
 IAtWgt=          52          52
 AtmWgt=  51.9405097  51.9405097
 NucSpn=           0           0
 AtZEff= -24.7200000 -24.7200000
 NQMom=    0.0000000   0.0000000
 NMagM=    0.0000000   0.0000000
 Leave Link  101 at Wed Feb  3 10:26:37 2021, MaxMem=  134217728 cpu:       0.1
 (Enter /share/apps/gaussian/G09C01Z/srwang-mod-2020/g09/l202.exe)
                          Input orientation:                          
 ---------------------------------------------------------------------
 Center     Atomic      Atomic             Coordinates (Angstroms)
 Number     Number       Type             X           Y           Z
 ---------------------------------------------------------------------
      1         24           0        0.000000    0.000000    1.000000
      2         24           0        0.000000    0.000000   -1.000000
 ---------------------------------------------------------------------
 Stoichiometry    Cr2
 Framework group  D*H[C*(Cr.Cr)]
 Deg. of freedom     1
 Full point group                 D*H     NOp   8
 RotChk:  IX=1 Diff= 0.00D+00
 Largest Abelian subgroup         D2H     NOp   8
 Largest concise Abelian subgroup C2      NOp   2
                         Standard orientation:                         
 ---------------------------------------------------------------------
 Center     Atomic      Atomic             Coordinates (Angstroms)
 Number     Number       Type             X           Y           Z
 ---------------------------------------------------------------------
      1         24           0        0.000000    0.000000   -1.000000
      2         24           0        0.000000    0.000000    1.000000
 ---------------------------------------------------------------------
 Rotational constants (GHZ):      0.0000000      4.8649793      4.8649793
 Leave Link  202 at Wed Feb  3 10:26:37 2021, MaxMem=  134217728 cpu:       0.0
 (Enter /share/apps/gaussian/G09C01Z/srwang-mod-2020/g09/l301.exe)
 Basis read from chk: cr2.chk (5D, 7F)
 Pseudo-potential data read from chk file.
 There are    14 symmetry adapted basis functions of AG  symmetry.
 There are     3 symmetry adapted basis functions of B1G symmetry.
 There are     7 symmetry adapted basis functions of B2G symmetry.
 There are     7 symmetry adapted basis functions of B3G symmetry.
 There are     3 symmetry adapted basis functions of AU  symmetry.
 There are    14 symmetry adapted basis functions of B1U symmetry.
 There are     7 symmetry adapted basis functions of B2U symmetry.
 There are     7 symmetry adapted basis functions of B3U symmetry.
 Integral buffers will be    131072 words long.
 Raffenetti 2 integral format.
 Two-electron integral symmetry is turned on.
    62 basis functions,   162 primitive gaussians,    72 cartesian basis functions
    24 alpha electrons       24 beta electrons
       nuclear repulsion energy       152.4030360739 Hartrees.
 IExCor=    0 DFT=F Ex=HF Corr=None ExCW=0 ScaHFX=  1.000000
 ScaDFX=  1.000000  1.000000  1.000000  1.000000 ScalE2=  1.000000  1.000000
 IRadAn=      0 IRanWt=     -1 IRanGd=            0 ICorTp=0
 NAtoms=    2 NActive=    2 NUniq=    1 SFac= 4.00D+00 NAtFMM=   60 NAOKFM=F Big=F
 No density basis found on file 20724.
 Leave Link  301 at Wed Feb  3 10:26:37 2021, MaxMem=  134217728 cpu:       0.0
 (Enter /share/apps/gaussian/G09C01Z/srwang-mod-2020/g09/l302.exe)
 NPDir=0 NMtPBC=     1 NCelOv=     1 NCel=       1 NClECP=     1 NCelD=      1
         NCelK=      1 NCelE2=     1 NClLst=     1 CellRange=     0.0.
 One-electron integrals computed using PRISM.
 One-electron integral symmetry used in STVInt
   8 Symmetry operations used in ECPInt.
 ECPInt:  NShTT=     253 NPrTT=    1791 LenC2=     249 LenP2D=    1523.
 LDataN:  DoStor=T MaxTD1= 6 Len=  172
 Bad symmetry data in SVDSVc:  NBasis=   62 NT=   62 NBlks=8 MaxCmp=8 NBF=   14    3    7    7    3   14    7    7
 NBasis=    62 RedAO= T  NBF=    14     3     7     7     3    14     7     7
 NBsUse=    62 1.00D-06 NBFU=    14     3     7     7     3    14     7     7
 Leave Link  302 at Wed Feb  3 10:26:37 2021, MaxMem=  134217728 cpu:       0.1
 (Enter /share/apps/gaussian/G09C01Z/srwang-mod-2020/g09/l303.exe)
 DipDrv:  MaxL=1.
 Leave Link  303 at Wed Feb  3 10:26:37 2021, MaxMem=  134217728 cpu:       0.0
 (Enter /share/apps/gaussian/G09C01Z/srwang-mod-2020/g09/l401.exe)
 Initial guess read from the checkpoint file:  cr2.chk
 B after Tr=     0.000000    0.000000   -0.000000
         Rot=    0.000000   -0.000000    1.000000    0.000000 Ang= 180.00 deg.
 Guess basis will be translated and rotated to current coordinates.
 Initial guess orbital symmetries:
 Alpha Orbitals:
       Occupied  (?A) (?B) (?C) (?C) (?C) (?B) (?B) (?B) (?B) (?A)
                 (?B) (?C) (?C) (?C) (?B) (?B) (?B) (?B) (?B) (?B)
                 (?B) (?B) (?B) (?B)
       Virtual   (?B) (?B) (?B) (?B) (?B) (?B) (?B) (?B) (?B) (?B)
                 (?B) (?B) (?B) (?B) (?B) (?B) (?B) (?B) (?B) (?B)
                 (?B) (?B) (?B) (?B) (PHIU) (PHIU) (PHIG) (PHIG)
                 (?B) (?B) (?B) (?B) (?B) (?B) (?B) (?B) (?B) (?B)
 Beta  Orbitals:
       Occupied  (?A) (?B) (?C) (?C) (?C) (?B) (?B) (?B) (?B) (?A)
                 (?B) (?C) (?C) (?C) (?B) (?B) (?B) (?B) (?B) (?B)
                 (?B) (?B) (?B) (?B)
       Virtual   (?B) (?B) (?B) (?B) (?B) (?B) (?B) (?B) (?B) (?B)
                 (?B) (?B) (?B) (?B) (?B) (?B) (?B) (?B) (?B) (?B)
                 (?B) (?B) (?B) (?B) (PHIU) (PHIU) (PHIG) (PHIG)
                 (?B) (?B) (?B) (?B) (?B) (?B) (?B) (?B) (?B) (?B)
 Initial guess <Sx>= 0.0000 <Sy>= 0.0000 <Sz>= 0.0000 <S**2>= 5.5142 S= 1.9009
 Leave Link  401 at Wed Feb  3 10:26:37 2021, MaxMem=  134217728 cpu:       0.1
 (Enter /share/apps/gaussian/G09C01Z/srwang-mod-2020/g09/l502.exe)
 UHF open shell SCF:
 Requested convergence on RMS density matrix=1.00D-02 within 128 cycles.
 Requested convergence on MAX density matrix=1.00D+00.
 Requested convergence on             energy=1.00D+00.
 No special actions if energy rises.
 Using DIIS extrapolation, IDIIS=  1040.
 Integral symmetry usage will be decided dynamically.
 Keep R1 and R2 ints in memory in canonical form, NReq=8883899.
 IEnd=       34866 IEndB=       34866 NGot=   134217728 MDV=   127295719
 LenX=   127295719 LenY=   127290094
 Symmetry not used in FoFDir.
 MinBra= 0 MaxBra= 3 Meth= 1.
 IRaf=       0 NMat=   1 IRICut=       1 DoRegI=T DoRafI=F ISym2E= 0 JSym2E=0.
 An orbital has undefined symmetry, so N**3 symmetry is turned off.

 Cycle   1  Pass 1  IDiag  1:
 Density matrix breaks symmetry, PCut= 1.00D-04
 Density matrix has no symmetry -- integrals replicated.
 E= -2086.18139699577    
 DIIS: error= 3.72D-02 at cycle   1 NSaved=   1.
 NSaved= 1 IEnMin= 1 EnMin= -2086.18139699577     IErMin= 1 ErrMin= 3.72D-02
 ErrMax= 3.72D-02 EMaxC= 1.00D-01 BMatC= 5.98D-01 BMatP= 5.98D-01
 IDIUse=3 WtCom= 6.28D-01 WtEn= 3.72D-01
 Coeff-Com:  0.100D+01
 Coeff-En:   0.100D+01
 Coeff:      0.100D+01
 Gap=     0.589 Goal=   None    Shift=    0.000
 Gap=     0.599 Goal=   None    Shift=    0.000
 GapD=    0.589 DampG=2.000 DampE=0.250 DampFc=0.5000 IDamp=-1.
 RMSDP=8.08D-03 MaxDP=1.17D-01              OVMax= 1.11D-01

 Cycle   2  Pass 1  IDiag  1:
 Density matrix breaks symmetry, PCut= 1.00D-07
 Density matrix has no symmetry -- integrals replicated.
 E= -2086.29564760987     Delta-E=       -0.114250614098 Rises=F Damp=T
 DIIS: error= 1.91D-02 at cycle   2 NSaved=   2.
 NSaved= 2 IEnMin= 2 EnMin= -2086.29564760987     IErMin= 2 ErrMin= 1.91D-02
 ErrMax= 1.91D-02 EMaxC= 1.00D-01 BMatC= 7.25D-02 BMatP= 5.98D-01
 IDIUse=3 WtCom= 8.09D-01 WtEn= 1.91D-01
 Coeff-Com:  0.226D+00 0.774D+00
 Coeff-En:   0.000D+00 0.100D+01
 Coeff:      0.183D+00 0.817D+00
 Gap=     0.253 Goal=   None    Shift=    0.000
 Gap=     0.253 Goal=   None    Shift=    0.000
 RMSDP=4.01D-03 MaxDP=1.10D-01 DE=-1.14D-01 OVMax= 6.50D-02

 Density matrix breaks symmetry, PCut= 1.00D-07
 Density matrix has no symmetry -- integrals replicated.
 SCF Done:  E(UHF) =  -2086.29564761     A.U. after    2 cycles
             Convg  =    0.4007D-02             -V/T =  2.0001
 <Sx>= 0.0000 <Sy>= 0.0000 <Sz>= 0.0000 <S**2>= 5.3538 S= 1.8672
 <L.S>= 0.000000000000E+00
 KE= 2.086154694689D+03 PE=-5.273384803563D+03 EE= 9.485314251903D+02
 Annihilation of the first spin contaminant:
 S**2 before annihilation     5.3538,   after    16.9683
 Leave Link  502 at Wed Feb  3 10:26:38 2021, MaxMem=  134217728 cpu:       0.5
 (Enter /share/apps/gaussian/G09C01Z/srwang-mod-2020/g09/l601.exe)
 Copying SCF densities to generalized density rwf, IOpCl= 1 IROHF=0.

 **********************************************************************

            Population analysis using the SCF density.

 **********************************************************************

 Orbital symmetries:
 Alpha Orbitals:
       Occupied  (?A) (?A) (?A) (?A) (?A) (?B) (?B) (?A) (?B) (?B)
                 (?C) (?C) (?C) (?B) (?B) (?C) (?B) (?B) (?C) (?D)
                 (?D) (?E) (?E) (?C)
       Virtual   (?C) (?C) (?D) (?D) (?C) (?C) (?D) (?D) (?C) (?E)
                 (?E) (?D) (?D) (?C) (?E) (?E) (?D) (?D) (?C) (?E)
                 (?E) (?D) (?D) (?C) (?C) (?D) (?D) (?F) (?F) (?G)
                 (?G) (?F) (?F) (?G) (?G) (?D) (?D) (?C)
 Beta  Orbitals:
       Occupied  (?A) (?A) (?A) (?A) (?A) (?B) (?B) (?A) (?B) (?B)
                 (?C) (?C) (?C) (?B) (?B) (?C) (?B) (?B) (?C) (?D)
                 (?D) (?E) (?E) (?C)
       Virtual   (?C) (?C) (?D) (?D) (?C) (?C) (?D) (?D) (?C) (?E)
                 (?E) (?D) (?D) (?C) (?E) (?E) (?D) (?D) (?C) (?E)
                 (?E) (?D) (?D) (?C) (?C) (?D) (?D) (?F) (?F) (?G)
                 (?G) (?F) (?F) (?G) (?G) (?D) (?D) (?C)
 Unable to determine electronic state:  an orbital has unidentified symmetry.
 Alpha  occ. eigenvalues -- -220.33196-220.32984 -26.22250 -26.12126 -22.15680
 Alpha  occ. eigenvalues --  -22.15639 -22.15639 -22.05908 -22.05784 -22.05784
 Alpha  occ. eigenvalues --   -3.44714  -3.10375  -2.26165  -2.24756  -2.24756
 Alpha  occ. eigenvalues --   -1.84161  -1.82868  -1.82868  -0.37476  -0.37141
 Alpha  occ. eigenvalues --   -0.37141  -0.36112  -0.36112  -0.21815
 Alpha virt. eigenvalues --    0.03306   0.11335   0.13981   0.13981   0.19343
 Alpha virt. eigenvalues --    0.28167   0.30602   0.30602   0.37347   0.38961
 Alpha virt. eigenvalues --    0.38961   0.45008   0.45008   0.52970   0.78183
 Alpha virt. eigenvalues --    0.78183   0.91570   0.91570   0.94909   1.04209
 Alpha virt. eigenvalues --    1.04209   1.15067   1.15067   1.16055   3.22789
 Alpha virt. eigenvalues --    3.28280   3.28280   3.33551   3.33551   3.34174
 Alpha virt. eigenvalues --    3.34174   3.57716   3.57716   3.57752   3.57752
 Alpha virt. eigenvalues --    3.70092   3.70092   3.70821
  Beta  occ. eigenvalues -- -220.33196-220.32984 -26.22250 -26.12126 -22.15680
  Beta  occ. eigenvalues --  -22.15639 -22.15639 -22.05908 -22.05784 -22.05784
  Beta  occ. eigenvalues --   -3.44714  -3.10375  -2.26165  -2.24756  -2.24756
  Beta  occ. eigenvalues --   -1.84161  -1.82868  -1.82868  -0.37476  -0.37141
  Beta  occ. eigenvalues --   -0.37141  -0.36112  -0.36112  -0.21815
  Beta virt. eigenvalues --    0.03306   0.11335   0.13981   0.13981   0.19343
  Beta virt. eigenvalues --    0.28167   0.30602   0.30602   0.37347   0.38961
  Beta virt. eigenvalues --    0.38961   0.45008   0.45008   0.52970   0.78183
  Beta virt. eigenvalues --    0.78183   0.91570   0.91570   0.94909   1.04209
  Beta virt. eigenvalues --    1.04209   1.15067   1.15067   1.16055   3.22789
  Beta virt. eigenvalues --    3.28280   3.28280   3.33551   3.33551   3.34174
  Beta virt. eigenvalues --    3.34174   3.57716   3.57716   3.57752   3.57752
  Beta virt. eigenvalues --    3.70092   3.70092   3.70821
          Condensed to atoms (all electrons):
              1          2
     1  Cr  23.921506   0.078494
     2  Cr   0.078494  23.921506
 Mulliken atomic charges:
              1
     1  Cr   0.000000
     2  Cr  -0.000000
 Sum of Mulliken atomic charges =  -0.00000
 Mulliken charges with hydrogens summed into heavy atoms:
              1
     1  Cr   0.000000
     2  Cr  -0.000000
 Sum of Mulliken charges with hydrogens summed into heavy atoms =  -0.00000
          Condensed to fragments (all electrons):
     1       0.000000
     2      -0.000000
          Atomic-Atomic Spin Densities.
              1          2
     1  Cr   5.778721   0.000000
     2  Cr   0.000000  -5.778721
 Mulliken atomic spin densities:
              1
     1  Cr   5.778721
     2  Cr  -5.778721
 Sum of Mulliken atomic spin densities =   0.00000
 Electronic spatial extent (au):  <R**2>=            244.4704
 Charge=              0.0000 electrons
 Dipole moment (field-independent basis, Debye):
    X=             -0.0000    Y=              0.0000    Z=              0.0000  Tot=              0.0000
 Quadrupole moment (field-independent basis, Debye-Ang):
   XX=            -33.0150   YY=            -33.0150   ZZ=            -32.2372
   XY=              0.0000   XZ=             -0.0000   YZ=             -0.0000
 Traceless Quadrupole moment (field-independent basis, Debye-Ang):
   XX=             -0.2593   YY=             -0.2593   ZZ=              0.5186
   XY=              0.0000   XZ=             -0.0000   YZ=             -0.0000
 Octapole moment (field-independent basis, Debye-Ang**2):
  XXX=             -0.0000  YYY=              0.0000  ZZZ=              0.0000  XYY=             -0.0000
  XXY=             -0.0000  XXZ=              0.0000  XZZ=             -0.0000  YZZ=             -0.0000
  YYZ=              0.0000  XYZ=             -0.0000
 Hexadecapole moment (field-independent basis, Debye-Ang**3):
 XXXX=            -71.5653 YYYY=            -71.5653 ZZZZ=           -266.1014 XXXY=             -0.0000
 XXXZ=             -0.0000 YYYX=              0.0000 YYYZ=              0.0000 ZZZX=             -0.0000
 ZZZY=             -0.0000 XXYY=            -23.8551 XXZZ=            -55.9609 YYZZ=            -55.9609
 XXYZ=             -0.0000 YYXZ=             -0.0000 ZZXY=             -0.0000
 N-N= 1.524030360739D+02 E-N=-7.902062648047D+03  KE= 3.129232042033D+03
 Symmetry AG   KE= 1.200046045257D+03
 Symmetry B1G  KE= 7.555008790687D+00
 Symmetry B2G  KE= 1.783876866465D+02
 Symmetry B3G  KE= 1.783876866465D+02
 Symmetry AU   KE= 7.087896772999D+00
 Symmetry B1U  KE= 1.197616904549D+03
 Symmetry B2U  KE= 1.800754066847D+02
 Symmetry B3U  KE= 1.800754066847D+02
                          Isotropic Fermi Contact Couplings
        Atom                 a.u.       MegaHertz       Gauss      10(-4) cm-1
     1  Cr(53)             2.08527    -263.95609     -94.18609     -88.04628
     2  Cr(53)            -2.08527     263.95609      94.18609      88.04628
 --------------------------------------------------------
       Center         ----  Spin Dipole Couplings  ----
                      3XX-RR        3YY-RR        3ZZ-RR
 --------------------------------------------------------
     1   Atom        0.218065      0.218065     -0.436130
     2   Atom       -0.218065     -0.218065      0.436130
 --------------------------------------------------------
                        XY            XZ            YZ
 --------------------------------------------------------
     1   Atom        0.000000      0.000000     -0.000000
     2   Atom        0.000000     -0.000000      0.000000
 --------------------------------------------------------


 ---------------------------------------------------------------------------------
              Anisotropic Spin Dipole Couplings in Principal Axis System
 ---------------------------------------------------------------------------------

       Atom             a.u.   MegaHertz   Gauss  10(-4) cm-1        Axes

              Baa    -0.4361    13.179     4.703     4.396 -0.0000  0.0000  1.0000
     1 Cr(53) Bbb     0.2181    -6.590    -2.351    -2.198 -0.5040  0.8637 -0.0000
              Bcc     0.2181    -6.590    -2.351    -2.198  0.8637  0.5040 -0.0000
 
              Baa    -0.2181     6.590     2.351     2.198  1.0000 -0.0076  0.0000
     2 Cr(53) Bbb    -0.2181     6.590     2.351     2.198  0.0076  1.0000 -0.0000
              Bcc     0.4361   -13.179    -4.703    -4.396 -0.0000  0.0000  1.0000
 

 ---------------------------------------------------------------------------------

 No NMR shielding tensors so no spin-rotation constants.
 Leave Link  601 at Wed Feb  3 10:26:38 2021, MaxMem=  134217728 cpu:       0.2
 (Enter /share/apps/gaussian/G09C01Z/srwang-mod-2020/g09/l9999.exe)
 1\1\GINC-XN01\SP\UHF\Gen\Cr2\SRWANG\03-Feb-2021\0\\#p uhf chkbasis gue
 ss(read) geom=allcheck scf=(conver=2)\\title\\0,1\Cr,0,0.,0.,0.\Cr,0,0
 .,0.,2.\\Version=EM64L-G09RevC.01\HF=-2086.2956476\S2=5.353845\S2-1=0.
 \S2A=16.968318\RMSD=4.007e-03\Dipole=0.,0.,0.\Quadrupole=-0.1927666,-0
 .1927666,0.3855332,0.,0.,0.\PG=D*H [C*(Cr1.Cr1)]\\@


 THE BEST WAY TO CONVINCE A FOOL THAT HE IS WRONG 
 IS TO LET HIM HAVE HIS OWN WAY.

                                         JOSH BILLINGS
 Job cpu time:  0 days  0 hours  0 minutes  1.2 seconds.
 File lengths (MBytes):  RWF=      9 Int=      0 D2E=      0 Chk=      3 Scr=      1
 Normal termination of Gaussian 09 at Wed Feb  3 10:26:38 2021.
