 Entering Gaussian System, Link 0=g09
 Input=cr2_suhf.gjf
 Output=cr2_suhf.log
 Initial command:
 /share/apps/gaussian/G09C01Z/srwang-mod-2020/g09/l1.exe /scratch/scr/srwang/gau/Gau-18334.inp -scrdir=/scratch/scr/srwang/gau/
 Entering Link 1 = /share/apps/gaussian/G09C01Z/srwang-mod-2020/g09/l1.exe PID=     18335.
  
 Copyright (c) 1988,1990,1992,1993,1995,1998,2003,2009,2011,
            Gaussian, Inc.  All Rights Reserved.
  
 This is part of the Gaussian(R) 09 program.  It is based on
 the Gaussian(R) 03 system (copyright 2003, Gaussian, Inc.),
 the Gaussian(R) 98 system (copyright 1998, Gaussian, Inc.),
 the Gaussian(R) 94 system (copyright 1995, Gaussian, Inc.),
 the Gaussian 92(TM) system (copyright 1992, Gaussian, Inc.),
 the Gaussian 90(TM) system (copyright 1990, Gaussian, Inc.),
 the Gaussian 88(TM) system (copyright 1988, Gaussian, Inc.),
 the Gaussian 86(TM) system (copyright 1986, Carnegie Mellon
 University), and the Gaussian 82(TM) system (copyright 1983,
 Carnegie Mellon University). Gaussian is a federally registered
 trademark of Gaussian, Inc.
  
 This software contains proprietary and confidential information,
 including trade secrets, belonging to Gaussian, Inc.
  
 This software is provided under written license and may be
 used, copied, transmitted, or stored only in accord with that
 written license.
  
 The following legend is applicable only to US Government
 contracts under FAR:
  
                    RESTRICTED RIGHTS LEGEND
  
 Use, reproduction and disclosure by the US Government is
 subject to restrictions as set forth in subparagraphs (a)
 and (c) of the Commercial Computer Software - Restricted
 Rights clause in FAR 52.227-19.
  
 Gaussian, Inc.
 340 Quinnipiac St., Bldg. 40, Wallingford CT 06492
  
  
 ---------------------------------------------------------------
 Warning -- This program may not be used in any manner that
 competes with the business of Gaussian, Inc. or will provide
 assistance to any competitor of Gaussian, Inc.  The licensee
 of this program is prohibited from giving any competitor of
 Gaussian, Inc. access to this program.  By using this program,
 the user acknowledges that Gaussian, Inc. is engaged in the
 business of creating and licensing software in the field of
 computational chemistry and represents and warrants to the
 licensee that it is not a competitor of Gaussian, Inc. and that
 it will not use this program in any manner prohibited above.
 ---------------------------------------------------------------
  

 Cite this work as:
 Gaussian 09, Revision C.01,
 M. J. Frisch, G. W. Trucks, H. B. Schlegel, G. E. Scuseria, 
 M. A. Robb, J. R. Cheeseman, G. Scalmani, V. Barone, B. Mennucci, 
 G. A. Petersson, H. Nakatsuji, M. Caricato, X. Li, H. P. Hratchian, 
 A. F. Izmaylov, J. Bloino, G. Zheng, J. L. Sonnenberg, M. Hada, 
 M. Ehara, K. Toyota, R. Fukuda, J. Hasegawa, M. Ishida, T. Nakajima, 
 Y. Honda, O. Kitao, H. Nakai, T. Vreven, J. A. Montgomery, Jr., 
 J. E. Peralta, F. Ogliaro, M. Bearpark, J. J. Heyd, E. Brothers, 
 K. N. Kudin, V. N. Staroverov, T. Keith, R. Kobayashi, J. Normand, 
 K. Raghavachari, A. Rendell, J. C. Burant, S. S. Iyengar, J. Tomasi, 
 M. Cossi, N. Rega, J. M. Millam, M. Klene, J. E. Knox, J. B. Cross, 
 V. Bakken, C. Adamo, J. Jaramillo, R. Gomperts, R. E. Stratmann, 
 O. Yazyev, A. J. Austin, R. Cammi, C. Pomelli, J. W. Ochterski, 
 R. L. Martin, K. Morokuma, V. G. Zakrzewski, G. A. Voth, 
 P. Salvador, J. J. Dannenberg, S. Dapprich, A. D. Daniels, 
 O. Farkas, J. B. Foresman, J. V. Ortiz, J. Cioslowski, 
 and D. J. Fox, Gaussian, Inc., Wallingford CT, 2010.
 
 ******************************************
 Gaussian 09:  EM64L-G09RevC.01 23-Sep-2011
                 3-Feb-2021 
 ******************************************
 %subst l530 /share/home/srwang/ExSCF/phf
 %nproc=1
 Will use up to    1 processors via shared memory.
 %mem=1gb
 %oldchk=cr2.chk
 %chk=cr2_suhf.chk
 Copying data from "cr2.chk" to current chk file "cr2_suhf.chk".
 ----------------------------------------------------------------------
 #p uhf/def2svp guess=read geom=allcheck scf=conver=2 # extralink=l530 
 iop(5/206=4, 5/207=4, 5/216=1, 5/218=5, 5/215=-300) pop=none
 ----------------------------------------------------------------------
 1/29=7,38=1/1;
 2/12=2,40=1/2;
 3/5=43,7=101,11=2,14=-4,16=1,25=1,30=1,116=2/1,2,3;
 4/5=1/1;
 5/5=2,6=2,38=6,206=4,207=4,215=-300,216=1,218=5/2,30;
 99/5=1,9=1/99;
 Leave Link    1 at Wed Feb  3 10:26:53 2021, MaxMem=  134217728 cpu:       0.0
 (Enter /share/apps/gaussian/G09C01Z/srwang-mod-2020/g09/l101.exe)
 Structure from the checkpoint file:  cr2_suhf.chk
 -----
 title
 -----
 Charge =  0 Multiplicity = 1
 Z-Matrix found in file.
 Cr,0,0.,0.,0.
 Cr,0,0.,0.,2.
 Recover connectivity data from disk.
 NAtoms=      2 NQM=        0 NQMF=       0 NMMI=      2 NMMIF=      0
                NMic=       0 NMicF=      0.
                    Isotopes and Nuclear Properties:
 (Nuclear quadrupole moments (NQMom) in fm**2, nuclear magnetic moments (NMagM)
  in nuclear magnetons)

  Atom         1           2
 IAtWgt=          52          52
 AtmWgt=  51.9405097  51.9405097
 NucSpn=           0           0
 AtZEff= -24.7200000 -24.7200000
 NQMom=    0.0000000   0.0000000
 NMagM=    0.0000000   0.0000000
 Leave Link  101 at Wed Feb  3 10:26:53 2021, MaxMem=  134217728 cpu:       0.1
 (Enter /share/apps/gaussian/G09C01Z/srwang-mod-2020/g09/l202.exe)
                          Input orientation:                          
 ---------------------------------------------------------------------
 Center     Atomic      Atomic             Coordinates (Angstroms)
 Number     Number       Type             X           Y           Z
 ---------------------------------------------------------------------
      1         24           0        0.000000    0.000000    1.000000
      2         24           0        0.000000    0.000000   -1.000000
 ---------------------------------------------------------------------
 Stoichiometry    Cr2
 Framework group  D*H[C*(Cr.Cr)]
 Deg. of freedom     1
 Full point group                 D*H     NOp   8
 RotChk:  IX=1 Diff= 0.00D+00
 Largest Abelian subgroup         D2H     NOp   8
 Largest concise Abelian subgroup C2      NOp   2
                         Standard orientation:                         
 ---------------------------------------------------------------------
 Center     Atomic      Atomic             Coordinates (Angstroms)
 Number     Number       Type             X           Y           Z
 ---------------------------------------------------------------------
      1         24           0        0.000000    0.000000   -1.000000
      2         24           0        0.000000    0.000000    1.000000
 ---------------------------------------------------------------------
 Rotational constants (GHZ):      0.0000000      4.8649793      4.8649793
 Leave Link  202 at Wed Feb  3 10:26:53 2021, MaxMem=  134217728 cpu:       0.0
 (Enter /share/apps/gaussian/G09C01Z/srwang-mod-2020/g09/l301.exe)
 Standard basis: def2SVP (5D, 7F)
 Ernie: Thresh=  0.10000D-02 Tol=  0.10000D-05 Strict=F.
 There are    14 symmetry adapted basis functions of AG  symmetry.
 There are     3 symmetry adapted basis functions of B1G symmetry.
 There are     7 symmetry adapted basis functions of B2G symmetry.
 There are     7 symmetry adapted basis functions of B3G symmetry.
 There are     3 symmetry adapted basis functions of AU  symmetry.
 There are    14 symmetry adapted basis functions of B1U symmetry.
 There are     7 symmetry adapted basis functions of B2U symmetry.
 There are     7 symmetry adapted basis functions of B3U symmetry.
 Integral buffers will be    131072 words long.
 Raffenetti 2 integral format.
 Two-electron integral symmetry is turned on.
    62 basis functions,   162 primitive gaussians,    72 cartesian basis functions
    24 alpha electrons       24 beta electrons
       nuclear repulsion energy       152.4030360739 Hartrees.
 IExCor=    0 DFT=F Ex=HF Corr=None ExCW=0 ScaHFX=  1.000000
 ScaDFX=  1.000000  1.000000  1.000000  1.000000 ScalE2=  1.000000  1.000000
 IRadAn=      0 IRanWt=     -1 IRanGd=            0 ICorTp=0
 NAtoms=    2 NActive=    2 NUniq=    1 SFac= 4.00D+00 NAtFMM=   60 NAOKFM=F Big=F
 Leave Link  301 at Wed Feb  3 10:26:53 2021, MaxMem=  134217728 cpu:       0.0
 (Enter /share/apps/gaussian/G09C01Z/srwang-mod-2020/g09/l302.exe)
 NPDir=0 NMtPBC=     1 NCelOv=     1 NCel=       1 NClECP=     1 NCelD=      1
         NCelK=      1 NCelE2=     1 NClLst=     1 CellRange=     0.0.
 One-electron integrals computed using PRISM.
 One-electron integral symmetry used in STVInt
   8 Symmetry operations used in ECPInt.
 ECPInt:  NShTT=     253 NPrTT=    1791 LenC2=     249 LenP2D=    1523.
 LDataN:  DoStor=T MaxTD1= 6 Len=  172
 Bad symmetry data in SVDSVc:  NBasis=   62 NT=   62 NBlks=8 MaxCmp=8 NBF=   14    3    7    7    3   14    7    7
 NBasis=    62 RedAO= T  NBF=    14     3     7     7     3    14     7     7
 NBsUse=    62 1.00D-06 NBFU=    14     3     7     7     3    14     7     7
 Leave Link  302 at Wed Feb  3 10:26:53 2021, MaxMem=  134217728 cpu:       0.1
 (Enter /share/apps/gaussian/G09C01Z/srwang-mod-2020/g09/l303.exe)
 DipDrv:  MaxL=1.
 Leave Link  303 at Wed Feb  3 10:26:54 2021, MaxMem=  134217728 cpu:       0.0
 (Enter /share/apps/gaussian/G09C01Z/srwang-mod-2020/g09/l401.exe)
 Initial guess read from the checkpoint file:  cr2_suhf.chk
 B after Tr=     0.000000    0.000000    0.000000
         Rot=    1.000000    0.000000    0.000000    0.000000 Ang=   0.00 deg.
 Guess basis will be translated and rotated to current coordinates.
 Initial guess orbital symmetries:
 Alpha Orbitals:
       Occupied  (?A) (?A) (?A) (?A) (?A) (?B) (?B) (?A) (?B) (?B)
                 (?C) (?C) (?C) (?B) (?B) (?C) (?B) (?B) (?C) (?D)
                 (?D) (?E) (?E) (?C)
       Virtual   (?C) (?C) (?D) (?D) (?C) (?C) (?D) (?D) (?C) (?E)
                 (?E) (?D) (?D) (?C) (?E) (?E) (?D) (?D) (?C) (?E)
                 (?E) (?D) (?D) (?C) (?C) (?D) (?D) (?F) (?F) (?G)
                 (?G) (?F) (?F) (?G) (?G) (?D) (?D) (?C)
 Beta  Orbitals:
       Occupied  (?A) (?A) (?A) (?A) (?A) (?B) (?B) (?A) (?B) (?B)
                 (?C) (?C) (?C) (?B) (?B) (?C) (?B) (?B) (?C) (?D)
                 (?D) (?E) (?E) (?C)
       Virtual   (?C) (?C) (?D) (?D) (?C) (?C) (?D) (?D) (?C) (?E)
                 (?E) (?D) (?D) (?C) (?E) (?E) (?D) (?D) (?C) (?E)
                 (?E) (?D) (?D) (?C) (?C) (?D) (?D) (?F) (?F) (?G)
                 (?G) (?F) (?F) (?G) (?G) (?D) (?D) (?C)
 Initial guess <Sx>= 0.0000 <Sy>= 0.0000 <Sz>= 0.0000 <S**2>= 5.3538 S= 1.8672
 Leave Link  401 at Wed Feb  3 10:26:54 2021, MaxMem=  134217728 cpu:       0.1
 (Enter /share/apps/gaussian/G09C01Z/srwang-mod-2020/g09/l502.exe)
 UHF open shell SCF:
 Requested convergence on RMS density matrix=1.00D-02 within 128 cycles.
 Requested convergence on MAX density matrix=1.00D+00.
 Requested convergence on             energy=1.00D+00.
 No special actions if energy rises.
 Using DIIS extrapolation, IDIIS=  1040.
 Integral symmetry usage will be decided dynamically.
 Keep R1 and R2 ints in memory in canonical form, NReq=8883899.
 IEnd=       34866 IEndB=       34866 NGot=   134217728 MDV=   127295719
 LenX=   127295719 LenY=   127290094
 Symmetry not used in FoFDir.
 MinBra= 0 MaxBra= 3 Meth= 1.
 IRaf=       0 NMat=   1 IRICut=       1 DoRegI=T DoRafI=F ISym2E= 0 JSym2E=0.
 An orbital has undefined symmetry, so N**3 symmetry is turned off.

 Cycle   1  Pass 1  IDiag  1:
 Density matrix breaks symmetry, PCut= 1.00D-04
 Density matrix has no symmetry -- integrals replicated.
 E= -2086.31540388324    
 DIIS: error= 2.66D-03 at cycle   1 NSaved=   1.
 NSaved= 1 IEnMin= 1 EnMin= -2086.31540388324     IErMin= 1 ErrMin= 2.66D-03
 ErrMax= 2.66D-03 EMaxC= 1.00D-01 BMatC= 3.54D-03 BMatP= 3.54D-03
 IDIUse=3 WtCom= 9.73D-01 WtEn= 2.66D-02
 Coeff-Com:  0.100D+01
 Coeff-En:   0.100D+01
 Coeff:      0.100D+01
 Gap=     0.256 Goal=   None    Shift=    0.000
 Gap=     0.256 Goal=   None    Shift=    0.000
 GapD=    0.256 DampG=1.000 DampE=1.000 DampFc=1.0000 IDamp=-1.
 RMSDP=9.78D-04 MaxDP=3.45D-02              OVMax= 1.21D-02

 Density matrix breaks symmetry, PCut= 1.00D-07
 Density matrix has no symmetry -- integrals replicated.
 SCF Done:  E(UHF) =  -2086.31540388     A.U. after    1 cycles
             Convg  =    0.9777D-03             -V/T =  1.9999
 <Sx>= 0.0000 <Sy>= 0.0000 <Sz>= 0.0000 <S**2>= 5.3243 S= 1.8610
 <L.S>= 0.000000000000E+00
 KE= 2.086594803937D+03 PE=-5.268481874614D+03 EE= 9.431686307191D+02
 Annihilation of the first spin contaminant:
 S**2 before annihilation     5.3243,   after    16.9056
 Leave Link  502 at Wed Feb  3 10:26:54 2021, MaxMem=  134217728 cpu:       0.5
  
  +-------------------------------------------+
  |                                           |
  |  LINK 530 - Projected Hartree-Fock (PHF)  |
  |     Self-Consistent Field (SCF) Code      |
  |                                           |
  |                                           |
  |         the Scuseria group, v0.2, 07.2011 |
  +-------------------------------------------+
  
 (Enter /share/home/srwang/ExSCF/phf/l530.exe)

 PHF SCF was invoked with the following options:

   method selection:
 iprint =  4
 iphf   =  4, [ UHF + spin projection ]

   general options:
 maxcyc =    512, S      =      0
 ngrda  =      1, ngrdb  =      8, ngrdg  =      1

   accuracy requested:
 conv criterion (RMSDP, RMSDK) =     1.0000E-08
 requested integral accuracy   =     1.0000E-10

   use of symmetry:
 two-electron integral symmetry not used

   strategy options:
 dynamic level shifting to a gap of   0.300 hartree
 use of DIIS extrapolation is turned on
 mxscfc =     20, idisgo =      5
 istrat =      1, continue as usual if energy rises
 modified PHF effective Fock matrix used

   initial guess options:
 igues1 =  1, read GDV guess


 PHF SCF - preparing initial guess


 PHF SCF - starting SCF procedure

beta in GauLeg
grd=    0.0624    0.3194    0.7453    1.2827    1.8589    2.3963    2.8222    3.0792
wgt=    0.0099    0.1097    0.3342    0.5462    0.5462    0.3342    0.1097    0.0099
WigArr: s=    0, sz=    0, isint=    T, ncis=                       1, dind=    0.0000
dmt=    1.0000    1.0000    1.0000    1.0000    1.0000    1.0000    1.0000    1.0000
*********  Start Cycle  1  *************
 
Start hffock

 Symmetry not used in FoFDir.
 MinBra= 0 MaxBra= 3 Meth= 1.
 IRaf=       1 NMat=   2 IRICut=       1 DoRegI=T DoRafI=F ISym2E= 0 JSym2E=0.
 PrsmSu:  NPrtUS=   1 ThrOK=F IAlg=1 NPAlg=1 LenDen=           0.
 Prism:   IPart=     0 DynPar=F LinDyn=F Incr=         298.
 PRISM was handed   133964384 working-precision words and   244 shell-pairs
 IPart=  0 NShTot=       29868 NBatch=        1596 AvBLen=        18.7
 PrSmSu:  NxtVal=            299.
 
Start hfdmdg: find NO basis
 
Start formng/pg
 
Start formgg

 Symmetry not used in FoFDir.
 MinBra= 0 MaxBra= 3 Meth= 1.
 IRaf=       1 NMat=  64 IRICut=       1 DoRegI=T DoRafI=F ISym2E= 0 JSym2E=0.
 PrsmSu:  NPrtUS=   1 ThrOK=F IAlg=1 NPAlg=1 LenDen=           0.
 Prism:   IPart=     0 DynPar=F LinDyn=F Incr=         298.
 PRISM was handed   133212770 working-precision words and   244 shell-pairs
 IPart=  0 NShTot=       29870 NBatch=        1540 AvBLen=        19.4
 PrSmSu:  NxtVal=            299.
 
Start evalsmt/hmt
 Smt (real):
                 1 
      1   0.320309D+00
 Smt (imaginary):
                 1 
      1   0.000000D+00
 Hmt (real):
                 1 
      1  -0.717085D+03
 Hmt (imaginary):
                 1 
      1   0.000000D+00
 
Form Fock eff
ifsel =     2, useproj    T
 DIIS: error= 1.59D-03 at cycle   1 NSaved=   1.
 NSaved= 1 IEnMin= 1 EnMin= -2086.32803351805     IErMin= 1 ErrMin= 1.59D-03
 ErrMax= 1.59D-03 EMaxC= 1.00D+00 BMatC= 1.23D-03 BMatP= 1.23D-03
 IDIUse=1 WtCom= 1.00D+00 WtEn= 0.00D+00
 Coeff-Com:  0.100D+01
 Coeff:      0.100D+01
 
Diag Fock

 Fock eigenvalues (alpha):
      orbital --                 1                2                3                4
       energy --    -2.2068366D+02   -2.2068152D+02   -2.6568121D+01   -2.6467764D+01
      orbital --                 5                6                7                8
       energy --    -2.2503499D+01   -2.2502837D+01   -2.2502837D+01   -2.2406705D+01
      orbital --                 9               10               11               12
       energy --    -2.2404800D+01   -2.2404800D+01   -3.7769106D+00   -3.4358581D+00
      orbital --                13               14               15               16
       energy --    -2.5897561D+00   -2.5769561D+00   -2.5769561D+00   -2.1737679D+00
      orbital --                17               18               19               20
       energy --    -2.1600013D+00   -2.1600013D+00   -7.0306044D-01   -6.9340623D-01
      orbital --                21               22               23               24
       energy --    -6.9340623D-01   -6.8829572D-01   -6.8829572D-01   -5.2452619D-01
      orbital --                25               26               27               28
       energy --     2.8513986D-02    1.1145992D-01    1.3010310D-01    1.3010310D-01
      orbital --                29               30               31               32
       energy --     1.8617302D-01    2.7261078D-01    2.9434817D-01    2.9434817D-01
      orbital --                33               34               35               36
       energy --     3.5624226D-01    3.6869033D-01    3.6869033D-01    4.2764905D-01
      orbital --                37               38               39               40
       energy --     4.2764905D-01    5.1538200D-01    7.6545577D-01    7.6545577D-01
      orbital --                41               42               43               44
       energy --     8.9908491D-01    8.9908491D-01    9.3267859D-01    1.0193931D+00
      orbital --                45               46               47               48
       energy --     1.0193931D+00    1.1307809D+00    1.1307809D+00    1.1373473D+00
      orbital --                49               50               51               52
       energy --     3.2032065D+00    3.2584280D+00    3.2584280D+00    3.3122255D+00
      orbital --                53               54               55               56
       energy --     3.3122255D+00    3.3176381D+00    3.3176381D+00    3.5513341D+00
      orbital --                57               58               59               60
       energy --     3.5513341D+00    3.5527197D+00    3.5527197D+00    3.6756900D+00
      orbital --                61               62
       energy --     3.6756900D+00    3.6828554D+00

 Fock eigenvalues (beta):
      orbital --                 1                2                3                4
       energy --    -2.2068366D+02   -2.2068152D+02   -2.6568121D+01   -2.6467764D+01
      orbital --                 5                6                7                8
       energy --    -2.2503499D+01   -2.2502837D+01   -2.2502837D+01   -2.2406705D+01
      orbital --                 9               10               11               12
       energy --    -2.2404800D+01   -2.2404800D+01   -3.7769106D+00   -3.4358581D+00
      orbital --                13               14               15               16
       energy --    -2.5897561D+00   -2.5769561D+00   -2.5769561D+00   -2.1737679D+00
      orbital --                17               18               19               20
       energy --    -2.1600013D+00   -2.1600013D+00   -7.0306044D-01   -6.9340623D-01
      orbital --                21               22               23               24
       energy --    -6.9340623D-01   -6.8829572D-01   -6.8829572D-01   -5.2452619D-01
      orbital --                25               26               27               28
       energy --     2.8513986D-02    1.1145992D-01    1.3010310D-01    1.3010310D-01
      orbital --                29               30               31               32
       energy --     1.8617302D-01    2.7261078D-01    2.9434817D-01    2.9434817D-01
      orbital --                33               34               35               36
       energy --     3.5624226D-01    3.6869033D-01    3.6869033D-01    4.2764905D-01
      orbital --                37               38               39               40
       energy --     4.2764905D-01    5.1538200D-01    7.6545577D-01    7.6545577D-01
      orbital --                41               42               43               44
       energy --     8.9908491D-01    8.9908491D-01    9.3267859D-01    1.0193931D+00
      orbital --                45               46               47               48
       energy --     1.0193931D+00    1.1307809D+00    1.1307809D+00    1.1373473D+00
      orbital --                49               50               51               52
       energy --     3.2032065D+00    3.2584280D+00    3.2584280D+00    3.3122255D+00
      orbital --                53               54               55               56
       energy --     3.3122255D+00    3.3176381D+00    3.3176381D+00    3.5513341D+00
      orbital --                57               58               59               60
       energy --     3.5513341D+00    3.5527197D+00    3.5527197D+00    3.6756900D+00
      orbital --                61               62
       energy --     3.6756900D+00    3.6828554D+00

 *** cycle =    1 ***

        E =   -2086.328033518054
      Hsp =   -3182.612905009546     Hph =     943.881835417571
   <S**2> =       0.000160671658
    RMSDP =       3.1851D-04        MaxP =       3.9578D-03

   E (HF) =   -2086.317046208100

 ********************

*********  Start Cycle  2  *************
 
Start hffock

 Symmetry not used in FoFDir.
 MinBra= 0 MaxBra= 3 Meth= 1.
 IRaf=       1 NMat=   2 IRICut=       1 DoRegI=T DoRafI=F ISym2E= 0 JSym2E=0.
 PrsmSu:  NPrtUS=   1 ThrOK=F IAlg=1 NPAlg=1 LenDen=           0.
 Prism:   IPart=     0 DynPar=F LinDyn=F Incr=         298.
 PRISM was handed   133964384 working-precision words and   244 shell-pairs
 IPart=  0 NShTot=       29868 NBatch=        1596 AvBLen=        18.7
 PrSmSu:  NxtVal=            299.
 
Start hfdmdg: find NO basis
 
Start formng/pg
 
Start formgg

 Symmetry not used in FoFDir.
 MinBra= 0 MaxBra= 3 Meth= 1.
 IRaf=       1 NMat=  64 IRICut=       1 DoRegI=T DoRafI=F ISym2E= 0 JSym2E=0.
 PrsmSu:  NPrtUS=   1 ThrOK=F IAlg=1 NPAlg=1 LenDen=           0.
 Prism:   IPart=     0 DynPar=F LinDyn=F Incr=         298.
 PRISM was handed   133212770 working-precision words and   244 shell-pairs
 IPart=  0 NShTot=       29870 NBatch=        1540 AvBLen=        19.4
 PrSmSu:  NxtVal=            299.
 
Start evalsmt/hmt
 Smt (real):
                 1 
      1   0.320740D+00
 Smt (imaginary):
                 1 
      1   0.000000D+00
 Hmt (real):
                 1 
      1  -0.718050D+03
 Hmt (imaginary):
                 1 
      1   0.000000D+00
 
Form Fock eff
ifsel =     2, useproj    T
 DIIS: error= 9.12D-04 at cycle   2 NSaved=   2.
 NSaved= 2 IEnMin= 2 EnMin= -2086.32861597853     IErMin= 2 ErrMin= 9.12D-04
 ErrMax= 9.12D-04 EMaxC= 1.00D+00 BMatC= 3.05D-04 BMatP= 1.23D-03
 IDIUse=1 WtCom= 1.00D+00 WtEn= 0.00D+00
 Coeff-Com:  0.000D+00 0.100D+01
 Coeff:      0.000D+00 0.100D+01
 
Diag Fock

 Fock eigenvalues (alpha):
      orbital --                 1                2                3                4
       energy --    -2.2039020D+02   -2.2038807D+02   -2.6274045D+01   -2.6173779D+01
      orbital --                 5                6                7                8
       energy --    -2.2209556D+01   -2.2208803D+01   -2.2208803D+01   -2.2112901D+01
      orbital --                 9               10               11               12
       energy --    -2.2110868D+01   -2.2110868D+01   -3.4810247D+00   -3.1401339D+00
      orbital --                13               14               15               16
       energy --    -2.2936329D+00   -2.2809317D+00   -2.2809317D+00   -1.8780697D+00
      orbital --                17               18               19               20
       energy --    -1.8640745D+00   -1.8640745D+00   -4.0702826D-01   -3.9611127D-01
      orbital --                21               22               23               24
       energy --    -3.9611127D-01   -3.9193254D-01   -3.9193254D-01   -2.2547132D-01
      orbital --                25               26               27               28
       energy --     2.8101495D-02    1.1101818D-01    1.2881470D-01    1.2881470D-01
      orbital --                29               30               31               32
       energy --     1.8546361D-01    2.7162337D-01    2.9305385D-01    2.9305385D-01
      orbital --                33               34               35               36
       energy --     3.5413065D-01    3.6610579D-01    3.6610579D-01    4.2478826D-01
      orbital --                37               38               39               40
       energy --     4.2478826D-01    5.1366790D-01    7.6314350D-01    7.6314350D-01
      orbital --                41               42               43               44
       energy --     8.9693076D-01    8.9693076D-01    9.3040555D-01    1.0165815D+00
      orbital --                45               46               47               48
       energy --     1.0165815D+00    1.1283282D+00    1.1283282D+00    1.1340642D+00
      orbital --                49               50               51               52
       energy --     3.1998488D+00    3.2551405D+00    3.2551405D+00    3.3091172D+00
      orbital --                53               54               55               56
       energy --     3.3091172D+00    3.3144550D+00    3.3144550D+00    3.5479163D+00
      orbital --                57               58               59               60
       energy --     3.5479163D+00    3.5495349D+00    3.5495349D+00    3.6722631D+00
      orbital --                61               62
       energy --     3.6722631D+00    3.6793520D+00

 Fock eigenvalues (beta):
      orbital --                 1                2                3                4
       energy --    -2.2039020D+02   -2.2038807D+02   -2.6274045D+01   -2.6173779D+01
      orbital --                 5                6                7                8
       energy --    -2.2209556D+01   -2.2208803D+01   -2.2208803D+01   -2.2112901D+01
      orbital --                 9               10               11               12
       energy --    -2.2110868D+01   -2.2110868D+01   -3.4810247D+00   -3.1401339D+00
      orbital --                13               14               15               16
       energy --    -2.2936329D+00   -2.2809317D+00   -2.2809317D+00   -1.8780697D+00
      orbital --                17               18               19               20
       energy --    -1.8640745D+00   -1.8640745D+00   -4.0702826D-01   -3.9611127D-01
      orbital --                21               22               23               24
       energy --    -3.9611127D-01   -3.9193254D-01   -3.9193254D-01   -2.2547132D-01
      orbital --                25               26               27               28
       energy --     2.8101495D-02    1.1101818D-01    1.2881470D-01    1.2881470D-01
      orbital --                29               30               31               32
       energy --     1.8546361D-01    2.7162337D-01    2.9305385D-01    2.9305385D-01
      orbital --                33               34               35               36
       energy --     3.5413065D-01    3.6610579D-01    3.6610579D-01    4.2478826D-01
      orbital --                37               38               39               40
       energy --     4.2478826D-01    5.1366790D-01    7.6314350D-01    7.6314350D-01
      orbital --                41               42               43               44
       energy --     8.9693076D-01    8.9693076D-01    9.3040555D-01    1.0165815D+00
      orbital --                45               46               47               48
       energy --     1.0165815D+00    1.1283282D+00    1.1283282D+00    1.1340642D+00
      orbital --                49               50               51               52
       energy --     3.1998488D+00    3.2551405D+00    3.2551405D+00    3.3091172D+00
      orbital --                53               54               55               56
       energy --     3.3091172D+00    3.3144550D+00    3.3144550D+00    3.5479163D+00
      orbital --                57               58               59               60
       energy --     3.5479163D+00    3.5495349D+00    3.5495349D+00    3.6722631D+00
      orbital --                61               62
       energy --     3.6722631D+00    3.6793520D+00

 *** cycle =    2 ***

        E =   -2086.328615978528      DE =      -0.000582460474
      Hsp =   -3182.368002792383     Hph =     943.636350739935
   <S**2> =       0.000159077569
    RMSDP =       3.1634D-04        MaxP =       4.3574D-03

   E (HF) =   -2086.317309408556

 ********************

*********  Start Cycle  3  *************
 
Start hffock

 Symmetry not used in FoFDir.
 MinBra= 0 MaxBra= 3 Meth= 1.
 IRaf=       1 NMat=   2 IRICut=       1 DoRegI=T DoRafI=F ISym2E= 0 JSym2E=0.
 PrsmSu:  NPrtUS=   1 ThrOK=F IAlg=1 NPAlg=1 LenDen=           0.
 Prism:   IPart=     0 DynPar=F LinDyn=F Incr=         298.
 PRISM was handed   133964384 working-precision words and   244 shell-pairs
 IPart=  0 NShTot=       29868 NBatch=        1596 AvBLen=        18.7
 PrSmSu:  NxtVal=            299.
 
Start hfdmdg: find NO basis
 
Start formng/pg
 
Start formgg

 Symmetry not used in FoFDir.
 MinBra= 0 MaxBra= 3 Meth= 1.
 IRaf=       1 NMat=  64 IRICut=       1 DoRegI=T DoRafI=F ISym2E= 0 JSym2E=0.
 PrsmSu:  NPrtUS=   1 ThrOK=F IAlg=1 NPAlg=1 LenDen=           0.
 Prism:   IPart=     0 DynPar=F LinDyn=F Incr=         298.
 PRISM was handed   133212770 working-precision words and   244 shell-pairs
 IPart=  0 NShTot=       29870 NBatch=        1540 AvBLen=        19.4
 PrSmSu:  NxtVal=            299.
 
Start evalsmt/hmt
 Smt (real):
                 1 
      1   0.321152D+00
 Smt (imaginary):
                 1 
      1   0.000000D+00
 Hmt (real):
                 1 
      1  -0.718973D+03
 Hmt (imaginary):
                 1 
      1   0.000000D+00
 
Form Fock eff
ifsel =     2, useproj    T
 DIIS: error= 5.24D-04 at cycle   3 NSaved=   3.
 NSaved= 3 IEnMin= 3 EnMin= -2086.32893176793     IErMin= 3 ErrMin= 5.24D-04
 ErrMax= 5.24D-04 EMaxC= 1.00D+00 BMatC= 8.17D-05 BMatP= 3.05D-04
 IDIUse=1 WtCom= 1.00D+00 WtEn= 0.00D+00
 Coeff-Com:  0.000D+00 0.000D+00 0.100D+01
 Coeff:      0.000D+00 0.000D+00 0.100D+01
 
Diag Fock

 Fock eigenvalues (alpha):
      orbital --                 1                2                3                4
       energy --    -2.2043667D+02   -2.2043453D+02   -2.6320527D+01   -2.6220201D+01
      orbital --                 5                6                7                8
       energy --    -2.2256078D+01   -2.2255289D+01   -2.2255289D+01   -2.2159407D+01
      orbital --                 9               10               11               12
       energy --    -2.2157274D+01   -2.2157274D+01   -3.5279385D+00   -3.1869387D+00
      orbital --                13               14               15               16
       energy --    -2.3404628D+00   -2.3280201D+00   -2.3280201D+00   -1.9251062D+00
      orbital --                17               18               19               20
       energy --    -1.9109230D+00   -1.9109230D+00   -4.5444391D-01   -4.4256431D-01
      orbital --                21               22               23               24
       energy --    -4.4256431D-01   -4.3939488D-01   -4.3939488D-01   -2.7200783D-01
      orbital --                25               26               27               28
       energy --     2.7681997D-02    1.1108115D-01    1.2856403D-01    1.2856403D-01
      orbital --                29               30               31               32
       energy --     1.8524042D-01    2.7088033D-01    2.9221960D-01    2.9221960D-01
      orbital --                33               34               35               36
       energy --     3.5330675D-01    3.6543396D-01    3.6543396D-01    4.2406511D-01
      orbital --                37               38               39               40
       energy --     4.2406511D-01    5.1315210D-01    7.6233281D-01    7.6233281D-01
      orbital --                41               42               43               44
       energy --     8.9649239D-01    8.9649239D-01    9.2972330D-01    1.0161236D+00
      orbital --                45               46               47               48
       energy --     1.0161236D+00    1.1276683D+00    1.1276683D+00    1.1335984D+00
      orbital --                49               50               51               52
       energy --     3.1991289D+00    3.2544103D+00    3.2544103D+00    3.3084828D+00
      orbital --                53               54               55               56
       energy --     3.3084828D+00    3.3136296D+00    3.3136296D+00    3.5470825D+00
      orbital --                57               58               59               60
       energy --     3.5470825D+00    3.5488069D+00    3.5488069D+00    3.6715180D+00
      orbital --                61               62
       energy --     3.6715180D+00    3.6786076D+00

 Fock eigenvalues (beta):
      orbital --                 1                2                3                4
       energy --    -2.2043667D+02   -2.2043453D+02   -2.6320527D+01   -2.6220201D+01
      orbital --                 5                6                7                8
       energy --    -2.2256078D+01   -2.2255289D+01   -2.2255289D+01   -2.2159407D+01
      orbital --                 9               10               11               12
       energy --    -2.2157274D+01   -2.2157274D+01   -3.5279385D+00   -3.1869387D+00
      orbital --                13               14               15               16
       energy --    -2.3404628D+00   -2.3280201D+00   -2.3280201D+00   -1.9251062D+00
      orbital --                17               18               19               20
       energy --    -1.9109230D+00   -1.9109230D+00   -4.5444391D-01   -4.4256431D-01
      orbital --                21               22               23               24
       energy --    -4.4256431D-01   -4.3939488D-01   -4.3939488D-01   -2.7200783D-01
      orbital --                25               26               27               28
       energy --     2.7681997D-02    1.1108115D-01    1.2856403D-01    1.2856403D-01
      orbital --                29               30               31               32
       energy --     1.8524042D-01    2.7088033D-01    2.9221960D-01    2.9221960D-01
      orbital --                33               34               35               36
       energy --     3.5330675D-01    3.6543396D-01    3.6543396D-01    4.2406511D-01
      orbital --                37               38               39               40
       energy --     4.2406511D-01    5.1315210D-01    7.6233281D-01    7.6233281D-01
      orbital --                41               42               43               44
       energy --     8.9649239D-01    8.9649239D-01    9.2972330D-01    1.0161236D+00
      orbital --                45               46               47               48
       energy --     1.0161236D+00    1.1276683D+00    1.1276683D+00    1.1335984D+00
      orbital --                49               50               51               52
       energy --     3.1991289D+00    3.2544103D+00    3.2544103D+00    3.3084828D+00
      orbital --                53               54               55               56
       energy --     3.3084828D+00    3.3136296D+00    3.3136296D+00    3.5470825D+00
      orbital --                57               58               59               60
       energy --     3.5470825D+00    3.5488069D+00    3.5488069D+00    3.6715180D+00
      orbital --                61               62
       energy --     3.6715180D+00    3.6786076D+00

 *** cycle =    3 ***

        E =   -2086.328931767934      DE =      -0.000315789406
      Hsp =   -3182.335132759069     Hph =     943.603164917215
   <S**2> =       0.000157442156
    RMSDP =       1.5751D-04        MaxP =       2.3252D-03

   E (HF) =   -2086.317396525638

 ********************

*********  Start Cycle  4  *************
 
Start hffock

 Symmetry not used in FoFDir.
 MinBra= 0 MaxBra= 3 Meth= 1.
 IRaf=       1 NMat=   2 IRICut=       1 DoRegI=T DoRafI=F ISym2E= 0 JSym2E=0.
 PrsmSu:  NPrtUS=   1 ThrOK=F IAlg=1 NPAlg=1 LenDen=           0.
 Prism:   IPart=     0 DynPar=F LinDyn=F Incr=         298.
 PRISM was handed   133964384 working-precision words and   244 shell-pairs
 IPart=  0 NShTot=       29868 NBatch=        1596 AvBLen=        18.7
 PrSmSu:  NxtVal=            299.
 
Start hfdmdg: find NO basis
 
Start formng/pg
 
Start formgg

 Symmetry not used in FoFDir.
 MinBra= 0 MaxBra= 3 Meth= 1.
 IRaf=       1 NMat=  64 IRICut=       1 DoRegI=T DoRafI=F ISym2E= 0 JSym2E=0.
 PrsmSu:  NPrtUS=   1 ThrOK=F IAlg=1 NPAlg=1 LenDen=           0.
 Prism:   IPart=     0 DynPar=F LinDyn=F Incr=         298.
 PRISM was handed   133212770 working-precision words and   244 shell-pairs
 IPart=  0 NShTot=       29870 NBatch=        1540 AvBLen=        19.4
 PrSmSu:  NxtVal=            299.
 
Start evalsmt/hmt
 Smt (real):
                 1 
      1   0.321259D+00
 Smt (imaginary):
                 1 
      1   0.000000D+00
 Hmt (real):
                 1 
      1  -0.719213D+03
 Hmt (imaginary):
                 1 
      1   0.000000D+00
 
Form Fock eff
ifsel =     2, useproj    T
 DIIS: error= 3.51D-04 at cycle   4 NSaved=   4.
 NSaved= 4 IEnMin= 4 EnMin= -2086.32902365601     IErMin= 4 ErrMin= 3.51D-04
 ErrMax= 3.51D-04 EMaxC= 1.00D+00 BMatC= 3.29D-05 BMatP= 8.17D-05
 IDIUse=1 WtCom= 1.00D+00 WtEn= 0.00D+00
 Coeff-Com:  0.000D+00 0.000D+00 0.000D+00 0.100D+01
 Coeff:      0.000D+00 0.000D+00 0.000D+00 0.100D+01
 
Diag Fock

 Fock eigenvalues (alpha):
      orbital --                 1                2                3                4
       energy --    -2.2039099D+02   -2.2038884D+02   -2.6274819D+01   -2.6174473D+01
      orbital --                 5                6                7                8
       energy --    -2.2210390D+01   -2.2209588D+01   -2.2209588D+01   -2.2113727D+01
      orbital --                 9               10               11               12
       energy --    -2.2111539D+01   -2.2111539D+01   -3.4822634D+00   -3.1412382D+00
      orbital --                13               14               15               16
       energy --    -2.2947219D+00   -2.2824032D+00   -2.2824032D+00   -1.8795155D+00
      orbital --                17               18               19               20
       energy --    -1.8652063D+00   -1.8652063D+00   -4.0898198D-01   -3.9654260D-01
      orbital --                21               22               23               24
       energy --    -3.9654260D-01   -3.9391543D-01   -3.9391543D-01   -2.2600402D-01
      orbital --                25               26               27               28
       energy --     2.7527125D-02    1.1107387D-01    1.2845269D-01    1.2845269D-01
      orbital --                29               30               31               32
       energy --     1.8511097D-01    2.7056401D-01    2.9183802D-01    2.9183802D-01
      orbital --                33               34               35               36
       energy --     3.5291626D-01    3.6505056D-01    3.6505056D-01    4.2362854D-01
      orbital --                37               38               39               40
       energy --     4.2362854D-01    5.1287346D-01    7.6189938D-01    7.6189938D-01
      orbital --                41               42               43               44
       energy --     8.9623524D-01    8.9623524D-01    9.2933736D-01    1.0157999D+00
      orbital --                45               46               47               48
       energy --     1.0157999D+00    1.1272801D+00    1.1272801D+00    1.1332143D+00
      orbital --                49               50               51               52
       energy --     3.1986622D+00    3.2539465D+00    3.2539465D+00    3.3080800D+00
      orbital --                53               54               55               56
       energy --     3.3080800D+00    3.3131361D+00    3.3131361D+00    3.5465627D+00
      orbital --                57               58               59               60
       energy --     3.5465627D+00    3.5483657D+00    3.5483657D+00    3.6710297D+00
      orbital --                61               62
       energy --     3.6710297D+00    3.6781045D+00

 Fock eigenvalues (beta):
      orbital --                 1                2                3                4
       energy --    -2.2039099D+02   -2.2038884D+02   -2.6274819D+01   -2.6174473D+01
      orbital --                 5                6                7                8
       energy --    -2.2210390D+01   -2.2209588D+01   -2.2209588D+01   -2.2113727D+01
      orbital --                 9               10               11               12
       energy --    -2.2111539D+01   -2.2111539D+01   -3.4822634D+00   -3.1412382D+00
      orbital --                13               14               15               16
       energy --    -2.2947219D+00   -2.2824032D+00   -2.2824032D+00   -1.8795155D+00
      orbital --                17               18               19               20
       energy --    -1.8652063D+00   -1.8652063D+00   -4.0898198D-01   -3.9654260D-01
      orbital --                21               22               23               24
       energy --    -3.9654260D-01   -3.9391543D-01   -3.9391543D-01   -2.2600402D-01
      orbital --                25               26               27               28
       energy --     2.7527125D-02    1.1107387D-01    1.2845269D-01    1.2845269D-01
      orbital --                29               30               31               32
       energy --     1.8511097D-01    2.7056401D-01    2.9183802D-01    2.9183802D-01
      orbital --                33               34               35               36
       energy --     3.5291626D-01    3.6505056D-01    3.6505056D-01    4.2362854D-01
      orbital --                37               38               39               40
       energy --     4.2362854D-01    5.1287346D-01    7.6189938D-01    7.6189938D-01
      orbital --                41               42               43               44
       energy --     8.9623524D-01    8.9623524D-01    9.2933736D-01    1.0157999D+00
      orbital --                45               46               47               48
       energy --     1.0157999D+00    1.1272801D+00    1.1272801D+00    1.1332143D+00
      orbital --                49               50               51               52
       energy --     3.1986622D+00    3.2539465D+00    3.2539465D+00    3.3080800D+00
      orbital --                53               54               55               56
       energy --     3.3080800D+00    3.3131361D+00    3.3131361D+00    3.5465627D+00
      orbital --                57               58               59               60
       energy --     3.5465627D+00    3.5483657D+00    3.5483657D+00    3.6710297D+00
      orbital --                61               62
       energy --     3.6710297D+00    3.6781045D+00

 *** cycle =    4 ***

        E =   -2086.329023656005      DE =      -0.000091888071
      Hsp =   -3182.308405194050     Hph =     943.576345464125
   <S**2> =       0.000157475713
    RMSDP =       1.0850D-04        MaxP =       1.6798D-03

   E (HF) =   -2086.317392837251

 ********************

*********  Start Cycle  5  *************
 
Start hffock

 Symmetry not used in FoFDir.
 MinBra= 0 MaxBra= 3 Meth= 1.
 IRaf=       1 NMat=   2 IRICut=       1 DoRegI=T DoRafI=F ISym2E= 0 JSym2E=0.
 PrsmSu:  NPrtUS=   1 ThrOK=F IAlg=1 NPAlg=1 LenDen=           0.
 Prism:   IPart=     0 DynPar=F LinDyn=F Incr=         298.
 PRISM was handed   133964384 working-precision words and   244 shell-pairs
 IPart=  0 NShTot=       29868 NBatch=        1596 AvBLen=        18.7
 PrSmSu:  NxtVal=            299.
 
Start hfdmdg: find NO basis
 
Start formng/pg
 
Start formgg

 Symmetry not used in FoFDir.
 MinBra= 0 MaxBra= 3 Meth= 1.
 IRaf=       1 NMat=  64 IRICut=       1 DoRegI=T DoRafI=F ISym2E= 0 JSym2E=0.
 PrsmSu:  NPrtUS=   1 ThrOK=F IAlg=1 NPAlg=1 LenDen=           0.
 Prism:   IPart=     0 DynPar=F LinDyn=F Incr=         298.
 PRISM was handed   133212770 working-precision words and   244 shell-pairs
 IPart=  0 NShTot=       29870 NBatch=        1540 AvBLen=        19.4
 PrSmSu:  NxtVal=            299.
 
Start evalsmt/hmt
 Smt (real):
                 1 
      1   0.321292D+00
 Smt (imaginary):
                 1 
      1   0.000000D+00
 Hmt (real):
                 1 
      1  -0.719286D+03
 Hmt (imaginary):
                 1 
      1   0.000000D+00
 
Form Fock eff
ifsel =     2, useproj    T
 DIIS: error= 2.20D-04 at cycle   5 NSaved=   5.
 NSaved= 5 IEnMin= 5 EnMin= -2086.32906364928     IErMin= 5 ErrMin= 2.20D-04
 ErrMax= 2.20D-04 EMaxC= 1.00D+00 BMatC= 1.32D-05 BMatP= 3.29D-05
 IDIUse=1 WtCom= 1.00D+00 WtEn= 0.00D+00
 Coeff-Com: -0.148D-01 0.195D+00 0.152D+00-0.296D+01 0.363D+01
 Coeff:     -0.148D-01 0.195D+00 0.152D+00-0.296D+01 0.363D+01
 
Diag Fock

 Fock eigenvalues (alpha):
      orbital --                 1                2                3                4
       energy --    -2.2056154D+02   -2.2055937D+02   -2.6445345D+01   -2.6344980D+01
      orbital --                 5                6                7                8
       energy --    -2.2380929D+01   -2.2380128D+01   -2.2380128D+01   -2.2284310D+01
      orbital --                 9               10               11               12
       energy --    -2.2282028D+01   -2.2282028D+01   -3.6527346D+00   -3.3117218D+00
      orbital --                13               14               15               16
       energy --    -2.4650462D+00   -2.4529529D+00   -2.4529529D+00   -2.0501866D+00
      orbital --                17               18               19               20
       energy --    -2.0356370D+00   -2.0356370D+00   -5.7973765D-01   -5.6631637D-01
      orbital --                21               22               23               24
       energy --    -5.6631637D-01   -5.6467795D-01   -5.6467795D-01   -3.9602770D-01
      orbital --                25               26               27               28
       energy --     2.7351420D-02    1.1108428D-01    1.2845511D-01    1.2845511D-01
      orbital --                29               30               31               32
       energy --     1.8493326D-01    2.7010006D-01    2.9128924D-01    2.9128924D-01
      orbital --                33               34               35               36
       energy --     3.5241774D-01    3.6457286D-01    3.6457286D-01    4.2303777D-01
      orbital --                37               38               39               40
       energy --     4.2303777D-01    5.1251327D-01    7.6132691D-01    7.6132691D-01
      orbital --                41               42               43               44
       energy --     8.9595527D-01    8.9595527D-01    9.2884713D-01    1.0153614D+00
      orbital --                45               46               47               48
       energy --     1.0153614D+00    1.1267225D+00    1.1267225D+00    1.1327068D+00
      orbital --                49               50               51               52
       energy --     3.1980529D+00    3.2533402D+00    3.2533402D+00    3.3075860D+00
      orbital --                53               54               55               56
       energy --     3.3075860D+00    3.3124681D+00    3.3124681D+00    3.5458393D+00
      orbital --                57               58               59               60
       energy --     3.5458393D+00    3.5477861D+00    3.5477861D+00    3.6703667D+00
      orbital --                61               62
       energy --     3.6703667D+00    3.6774086D+00

 Fock eigenvalues (beta):
      orbital --                 1                2                3                4
       energy --    -2.2056154D+02   -2.2055937D+02   -2.6445345D+01   -2.6344980D+01
      orbital --                 5                6                7                8
       energy --    -2.2380929D+01   -2.2380128D+01   -2.2380128D+01   -2.2284310D+01
      orbital --                 9               10               11               12
       energy --    -2.2282028D+01   -2.2282028D+01   -3.6527346D+00   -3.3117218D+00
      orbital --                13               14               15               16
       energy --    -2.4650462D+00   -2.4529529D+00   -2.4529529D+00   -2.0501866D+00
      orbital --                17               18               19               20
       energy --    -2.0356370D+00   -2.0356370D+00   -5.7973765D-01   -5.6631637D-01
      orbital --                21               22               23               24
       energy --    -5.6631637D-01   -5.6467795D-01   -5.6467795D-01   -3.9602770D-01
      orbital --                25               26               27               28
       energy --     2.7351420D-02    1.1108428D-01    1.2845511D-01    1.2845511D-01
      orbital --                29               30               31               32
       energy --     1.8493326D-01    2.7010006D-01    2.9128924D-01    2.9128924D-01
      orbital --                33               34               35               36
       energy --     3.5241774D-01    3.6457286D-01    3.6457286D-01    4.2303777D-01
      orbital --                37               38               39               40
       energy --     4.2303777D-01    5.1251327D-01    7.6132691D-01    7.6132691D-01
      orbital --                41               42               43               44
       energy --     8.9595527D-01    8.9595527D-01    9.2884713D-01    1.0153614D+00
      orbital --                45               46               47               48
       energy --     1.0153614D+00    1.1267225D+00    1.1267225D+00    1.1327068D+00
      orbital --                49               50               51               52
       energy --     3.1980529D+00    3.2533402D+00    3.2533402D+00    3.3075860D+00
      orbital --                53               54               55               56
       energy --     3.3075860D+00    3.3124681D+00    3.3124681D+00    3.5458393D+00
      orbital --                57               58               59               60
       energy --     3.5458393D+00    3.5477861D+00    3.5477861D+00    3.6703667D+00
      orbital --                61               62
       energy --     3.6703667D+00    3.6774086D+00

 *** cycle =    5 ***

        E =   -2086.329063649278      DE =      -0.000039993273
      Hsp =   -3182.294610648140     Hph =     943.562510924942
   <S**2> =       0.000157861153
    RMSDP =       1.4379D-04        MaxP =       2.2764D-03

   E (HF) =   -2086.317381500037

 ********************

*********  Start Cycle  6  *************
 
Start hffock

 Symmetry not used in FoFDir.
 MinBra= 0 MaxBra= 3 Meth= 1.
 IRaf=       1 NMat=   2 IRICut=       1 DoRegI=T DoRafI=F ISym2E= 0 JSym2E=0.
 PrsmSu:  NPrtUS=   1 ThrOK=F IAlg=1 NPAlg=1 LenDen=           0.
 Prism:   IPart=     0 DynPar=F LinDyn=F Incr=         298.
 PRISM was handed   133964384 working-precision words and   244 shell-pairs
 IPart=  0 NShTot=       29868 NBatch=        1596 AvBLen=        18.7
 PrSmSu:  NxtVal=            299.
 
Start hfdmdg: find NO basis
 
Start formng/pg
 
Start formgg

 Symmetry not used in FoFDir.
 MinBra= 0 MaxBra= 3 Meth= 1.
 IRaf=       1 NMat=  64 IRICut=       1 DoRegI=T DoRafI=F ISym2E= 0 JSym2E=0.
 PrsmSu:  NPrtUS=   1 ThrOK=F IAlg=1 NPAlg=1 LenDen=           0.
 Prism:   IPart=     0 DynPar=F LinDyn=F Incr=         298.
 PRISM was handed   133212770 working-precision words and   244 shell-pairs
 IPart=  0 NShTot=       29870 NBatch=        1540 AvBLen=        19.4
 PrSmSu:  NxtVal=            299.
 
Start evalsmt/hmt
 Smt (real):
                 1 
      1   0.321297D+00
 Smt (imaginary):
                 1 
      1   0.000000D+00
 Hmt (real):
                 1 
      1  -0.719297D+03
 Hmt (imaginary):
                 1 
      1   0.000000D+00
 
Form Fock eff
ifsel =     2, useproj    T
 DIIS: error= 5.54D-05 at cycle   6 NSaved=   6.
 NSaved= 6 IEnMin= 6 EnMin= -2086.32908923859     IErMin= 6 ErrMin= 5.54D-05
 ErrMax= 5.54D-05 EMaxC= 1.00D+00 BMatC= 7.09D-07 BMatP= 1.32D-05
 IDIUse=1 WtCom= 1.00D+00 WtEn= 0.00D+00
 Coeff-Com: -0.234D-01 0.105D+00 0.303D+00-0.187D+01 0.182D+01 0.665D+00
 Coeff:     -0.234D-01 0.105D+00 0.303D+00-0.187D+01 0.182D+01 0.665D+00
 
Diag Fock

 Fock eigenvalues (alpha):
      orbital --                 1                2                3                4
       energy --    -2.2048223D+02   -2.2048006D+02   -2.6366045D+01   -2.6265678D+01
      orbital --                 5                6                7                8
       energy --    -2.2301624D+01   -2.2300825D+01   -2.2300825D+01   -2.2205005D+01
      orbital --                 9               10               11               12
       energy --    -2.2202724D+01   -2.2202724D+01   -3.5734742D+00   -3.2324582D+00
      orbital --                13               14               15               16
       energy --    -2.3857857D+00   -2.3736947D+00   -2.3736947D+00   -1.9709251D+00
      orbital --                17               18               19               20
       energy --    -1.9563724D+00   -1.9563724D+00   -5.0047726D-01   -4.8707943D-01
      orbital --                21               22               23               24
       energy --    -4.8707943D-01   -4.8543688D-01   -4.8543688D-01   -3.1685694D-01
      orbital --                25               26               27               28
       energy --     2.7371996D-02    1.1109421D-01    1.2849411D-01    1.2849411D-01
      orbital --                29               30               31               32
       energy --     1.8496316D-01    2.7015014D-01    2.9133708D-01    2.9133708D-01
      orbital --                33               34               35               36
       energy --     3.5248620D-01    3.6465067D-01    3.6465067D-01    4.2312132D-01
      orbital --                37               38               39               40
       energy --     4.2312132D-01    5.1256503D-01    7.6138956D-01    7.6138956D-01
      orbital --                41               42               43               44
       energy --     8.9602319D-01    8.9602319D-01    9.2891334D-01    1.0154447D+00
      orbital --                45               46               47               48
       energy --     1.0154447D+00    1.1267991D+00    1.1267991D+00    1.1327897D+00
      orbital --                49               50               51               52
       energy --     3.1981485D+00    3.2534344D+00    3.2534344D+00    3.3076770D+00
      orbital --                53               54               55               56
       energy --     3.3076770D+00    3.3125580D+00    3.3125580D+00    3.5459354D+00
      orbital --                57               58               59               60
       energy --     3.5459354D+00    3.5478813D+00    3.5478813D+00    3.6704622D+00
      orbital --                61               62
       energy --     3.6704622D+00    3.6775048D+00

 Fock eigenvalues (beta):
      orbital --                 1                2                3                4
       energy --    -2.2048223D+02   -2.2048006D+02   -2.6366045D+01   -2.6265678D+01
      orbital --                 5                6                7                8
       energy --    -2.2301624D+01   -2.2300825D+01   -2.2300825D+01   -2.2205005D+01
      orbital --                 9               10               11               12
       energy --    -2.2202724D+01   -2.2202724D+01   -3.5734742D+00   -3.2324582D+00
      orbital --                13               14               15               16
       energy --    -2.3857857D+00   -2.3736947D+00   -2.3736947D+00   -1.9709251D+00
      orbital --                17               18               19               20
       energy --    -1.9563724D+00   -1.9563724D+00   -5.0047726D-01   -4.8707943D-01
      orbital --                21               22               23               24
       energy --    -4.8707943D-01   -4.8543688D-01   -4.8543688D-01   -3.1685694D-01
      orbital --                25               26               27               28
       energy --     2.7371996D-02    1.1109421D-01    1.2849411D-01    1.2849411D-01
      orbital --                29               30               31               32
       energy --     1.8496316D-01    2.7015014D-01    2.9133708D-01    2.9133708D-01
      orbital --                33               34               35               36
       energy --     3.5248620D-01    3.6465067D-01    3.6465067D-01    4.2312132D-01
      orbital --                37               38               39               40
       energy --     4.2312132D-01    5.1256503D-01    7.6138956D-01    7.6138956D-01
      orbital --                41               42               43               44
       energy --     8.9602319D-01    8.9602319D-01    9.2891334D-01    1.0154447D+00
      orbital --                45               46               47               48
       energy --     1.0154447D+00    1.1267991D+00    1.1267991D+00    1.1327897D+00
      orbital --                49               50               51               52
       energy --     3.1981485D+00    3.2534344D+00    3.2534344D+00    3.3076770D+00
      orbital --                53               54               55               56
       energy --     3.3076770D+00    3.3125580D+00    3.3125580D+00    3.5459354D+00
      orbital --                57               58               59               60
       energy --     3.5459354D+00    3.5478813D+00    3.5478813D+00    3.6704622D+00
      orbital --                61               62
       energy --     3.6704622D+00    3.6775048D+00

 *** cycle =    6 ***

        E =   -2086.329089238592      DE =      -0.000025589314
      Hsp =   -3182.285807592531     Hph =     943.553682280020
   <S**2> =       0.000158655580
    RMSDP =       1.6115D-05        MaxP =       2.5049D-04

   E (HF) =   -2086.317349310380

 ********************

*********  Start Cycle  7  *************
 
Start hffock

 Symmetry not used in FoFDir.
 MinBra= 0 MaxBra= 3 Meth= 1.
 IRaf=       1 NMat=   2 IRICut=       1 DoRegI=T DoRafI=F ISym2E= 0 JSym2E=0.
 PrsmSu:  NPrtUS=   1 ThrOK=F IAlg=1 NPAlg=1 LenDen=           0.
 Prism:   IPart=     0 DynPar=F LinDyn=F Incr=         298.
 PRISM was handed   133964384 working-precision words and   244 shell-pairs
 IPart=  0 NShTot=       29868 NBatch=        1596 AvBLen=        18.7
 PrSmSu:  NxtVal=            299.
 
Start hfdmdg: find NO basis
 
Start formng/pg
 
Start formgg

 Symmetry not used in FoFDir.
 MinBra= 0 MaxBra= 3 Meth= 1.
 IRaf=       1 NMat=  64 IRICut=       1 DoRegI=T DoRafI=F ISym2E= 0 JSym2E=0.
 PrsmSu:  NPrtUS=   1 ThrOK=F IAlg=1 NPAlg=1 LenDen=           0.
 Prism:   IPart=     0 DynPar=F LinDyn=F Incr=         298.
 PRISM was handed   133212770 working-precision words and   244 shell-pairs
 IPart=  0 NShTot=       29870 NBatch=        1540 AvBLen=        19.4
 PrSmSu:  NxtVal=            299.
 
Start evalsmt/hmt
 Smt (real):
                 1 
      1   0.321292D+00
 Smt (imaginary):
                 1 
      1   0.000000D+00
 Hmt (real):
                 1 
      1  -0.719288D+03
 Hmt (imaginary):
                 1 
      1   0.000000D+00
 
Form Fock eff
ifsel =     2, useproj    T
 DIIS: error= 3.44D-05 at cycle   7 NSaved=   7.
 NSaved= 7 IEnMin= 7 EnMin= -2086.32909015722     IErMin= 7 ErrMin= 3.44D-05
 ErrMax= 3.44D-05 EMaxC= 1.00D+00 BMatC= 3.13D-07 BMatP= 7.09D-07
 IDIUse=1 WtCom= 1.00D+00 WtEn= 0.00D+00
 Coeff-Com:  0.723D-02 0.256D-01 0.124D-02-0.445D+00 0.553D+00-0.114D+01
 Coeff-Com:  0.200D+01
 Coeff:      0.723D-02 0.256D-01 0.124D-02-0.445D+00 0.553D+00-0.114D+01
 Coeff:      0.200D+01
 
Diag Fock

 Fock eigenvalues (alpha):
      orbital --                 1                2                3                4
       energy --    -2.2041909D+02   -2.2041692D+02   -2.6302902D+01   -2.6202539D+01
      orbital --                 5                6                7                8
       energy --    -2.2238480D+01   -2.2237683D+01   -2.2237683D+01   -2.2141867D+01
      orbital --                 9               10               11               12
       energy --    -2.2139585D+01   -2.2139585D+01   -3.5103049D+00   -3.1693011D+00
      orbital --                13               14               15               16
       energy --    -2.3226134D+00   -2.3105205D+00   -2.3105205D+00   -1.9077652D+00
      orbital --                17               18               19               20
       energy --    -1.8932131D+00   -1.8932131D+00   -4.3727455D-01   -4.2389785D-01
      orbital --                21               22               23               24
       energy --    -4.2389785D-01   -4.2225567D-01   -4.2225567D-01   -2.5364713D-01
      orbital --                25               26               27               28
       energy --     2.7370581D-02    1.1108497D-01    1.2847442D-01    1.2847442D-01
      orbital --                29               30               31               32
       energy --     1.8494999D-01    2.7014395D-01    2.9132318D-01    2.9132318D-01
      orbital --                33               34               35               36
       energy --     3.5246230D-01    3.6461751D-01    3.6461751D-01    4.2308238D-01
      orbital --                37               38               39               40
       energy --     4.2308238D-01    5.1254213D-01    7.6136161D-01    7.6136161D-01
      orbital --                41               42               43               44
       energy --     8.9598994D-01    8.9598994D-01    9.2889288D-01    1.0154032D+00
      orbital --                45               46               47               48
       energy --     1.0154032D+00    1.1267682D+00    1.1267682D+00    1.1327485D+00
      orbital --                49               50               51               52
       energy --     3.1981059D+00    3.2533918D+00    3.2533918D+00    3.3076342D+00
      orbital --                53               54               55               56
       energy --     3.3076342D+00    3.3125161D+00    3.3125161D+00    3.5458899D+00
      orbital --                57               58               59               60
       energy --     3.5458899D+00    3.5478370D+00    3.5478370D+00    3.6704164D+00
      orbital --                61               62
       energy --     3.6704164D+00    3.6774587D+00

 Fock eigenvalues (beta):
      orbital --                 1                2                3                4
       energy --    -2.2041909D+02   -2.2041692D+02   -2.6302902D+01   -2.6202539D+01
      orbital --                 5                6                7                8
       energy --    -2.2238480D+01   -2.2237683D+01   -2.2237683D+01   -2.2141867D+01
      orbital --                 9               10               11               12
       energy --    -2.2139585D+01   -2.2139585D+01   -3.5103049D+00   -3.1693011D+00
      orbital --                13               14               15               16
       energy --    -2.3226134D+00   -2.3105205D+00   -2.3105205D+00   -1.9077652D+00
      orbital --                17               18               19               20
       energy --    -1.8932131D+00   -1.8932131D+00   -4.3727455D-01   -4.2389785D-01
      orbital --                21               22               23               24
       energy --    -4.2389785D-01   -4.2225567D-01   -4.2225567D-01   -2.5364713D-01
      orbital --                25               26               27               28
       energy --     2.7370581D-02    1.1108497D-01    1.2847442D-01    1.2847442D-01
      orbital --                29               30               31               32
       energy --     1.8494999D-01    2.7014395D-01    2.9132318D-01    2.9132318D-01
      orbital --                33               34               35               36
       energy --     3.5246230D-01    3.6461751D-01    3.6461751D-01    4.2308238D-01
      orbital --                37               38               39               40
       energy --     4.2308238D-01    5.1254213D-01    7.6136161D-01    7.6136161D-01
      orbital --                41               42               43               44
       energy --     8.9598994D-01    8.9598994D-01    9.2889288D-01    1.0154032D+00
      orbital --                45               46               47               48
       energy --     1.0154032D+00    1.1267682D+00    1.1267682D+00    1.1327485D+00
      orbital --                49               50               51               52
       energy --     3.1981059D+00    3.2533918D+00    3.2533918D+00    3.3076342D+00
      orbital --                53               54               55               56
       energy --     3.3076342D+00    3.3125161D+00    3.3125161D+00    3.5458899D+00
      orbital --                57               58               59               60
       energy --     3.5458899D+00    3.5478370D+00    3.5478370D+00    3.6704164D+00
      orbital --                61               62
       energy --     3.6704164D+00    3.6774587D+00

 *** cycle =    7 ***

        E =   -2086.329090157222      DE =      -0.000000918630
      Hsp =   -3182.279365004489     Hph =     943.547238773347
   <S**2> =       0.000158808475
    RMSDP =       1.6962D-05        MaxP =       2.1352D-04

   E (HF) =   -2086.317345143920

 ********************

*********  Start Cycle  8  *************
 
Start hffock

 Symmetry not used in FoFDir.
 MinBra= 0 MaxBra= 3 Meth= 1.
 IRaf=       1 NMat=   2 IRICut=       1 DoRegI=T DoRafI=F ISym2E= 0 JSym2E=0.
 PrsmSu:  NPrtUS=   1 ThrOK=F IAlg=1 NPAlg=1 LenDen=           0.
 Prism:   IPart=     0 DynPar=F LinDyn=F Incr=         298.
 PRISM was handed   133964384 working-precision words and   244 shell-pairs
 IPart=  0 NShTot=       29868 NBatch=        1596 AvBLen=        18.7
 PrSmSu:  NxtVal=            299.
 
Start hfdmdg: find NO basis
 
Start formng/pg
 
Start formgg

 Symmetry not used in FoFDir.
 MinBra= 0 MaxBra= 3 Meth= 1.
 IRaf=       1 NMat=  64 IRICut=       1 DoRegI=T DoRafI=F ISym2E= 0 JSym2E=0.
 PrsmSu:  NPrtUS=   1 ThrOK=F IAlg=1 NPAlg=1 LenDen=           0.
 Prism:   IPart=     0 DynPar=F LinDyn=F Incr=         298.
 PRISM was handed   133212770 working-precision words and   244 shell-pairs
 IPart=  0 NShTot=       29870 NBatch=        1540 AvBLen=        19.4
 PrSmSu:  NxtVal=            299.
 
Start evalsmt/hmt
 Smt (real):
                 1 
      1   0.321262D+00
 Smt (imaginary):
                 1 
      1   0.000000D+00
 Hmt (real):
                 1 
      1  -0.719218D+03
 Hmt (imaginary):
                 1 
      1   0.000000D+00
 
Form Fock eff
ifsel =     2, useproj    T
 DIIS: error= 2.00D-05 at cycle   8 NSaved=   8.
 NSaved= 8 IEnMin= 8 EnMin= -2086.32909072966     IErMin= 8 ErrMin= 2.00D-05
 ErrMax= 2.00D-05 EMaxC= 1.00D+00 BMatC= 1.24D-07 BMatP= 3.13D-07
 IDIUse=1 WtCom= 1.00D+00 WtEn= 0.00D+00
 Coeff-Com: -0.253D-02 0.434D-02 0.151D-01-0.191D+00 0.290D+00-0.716D+00
 Coeff-Com:  0.892D-01 0.151D+01
 Coeff:     -0.253D-02 0.434D-02 0.151D-01-0.191D+00 0.290D+00-0.716D+00
 Coeff:      0.892D-01 0.151D+01
 
Diag Fock

 Fock eigenvalues (alpha):
      orbital --                 1                2                3                4
       energy --    -2.2043327D+02   -2.2043110D+02   -2.6317094D+01   -2.6216729D+01
      orbital --                 5                6                7                8
       energy --    -2.2252670D+01   -2.2251873D+01   -2.2251873D+01   -2.2156057D+01
      orbital --                 9               10               11               12
       energy --    -2.2153774D+01   -2.2153774D+01   -3.5245173D+00   -3.1835111D+00
      orbital --                13               14               15               16
       energy --    -2.3368265D+00   -2.3247311D+00   -2.3247311D+00   -1.9219744D+00
      orbital --                17               18               19               20
       energy --    -1.9074259D+00   -1.9074259D+00   -4.5147922D-01   -4.3812233D-01
      orbital --                21               22               23               24
       energy --    -4.3812233D-01   -4.3647600D-01   -4.3647600D-01   -2.6791664D-01
      orbital --                25               26               27               28
       energy --     2.7393457D-02    1.1108711D-01    1.2849411D-01    1.2849411D-01
      orbital --                29               30               31               32
       energy --     1.8496641D-01    2.7017007D-01    2.9135092D-01    2.9135092D-01
      orbital --                33               34               35               36
       energy --     3.5249698D-01    3.6465290D-01    3.6465290D-01    4.2311344D-01
      orbital --                37               38               39               40
       energy --     4.2311344D-01    5.1256308D-01    7.6138452D-01    7.6138452D-01
      orbital --                41               42               43               44
       energy --     8.9601649D-01    8.9601649D-01    9.2892290D-01    1.0154395D+00
      orbital --                45               46               47               48
       energy --     1.0154395D+00    1.1268040D+00    1.1268040D+00    1.1327847D+00
      orbital --                49               50               51               52
       energy --     3.1981460D+00    3.2534311D+00    3.2534311D+00    3.3076726D+00
      orbital --                53               54               55               56
       energy --     3.3076726D+00    3.3125549D+00    3.3125549D+00    3.5459294D+00
      orbital --                57               58               59               60
       energy --     3.5459294D+00    3.5478774D+00    3.5478774D+00    3.6704548D+00
      orbital --                61               62
       energy --     3.6704548D+00    3.6774965D+00

 Fock eigenvalues (beta):
      orbital --                 1                2                3                4
       energy --    -2.2043327D+02   -2.2043110D+02   -2.6317094D+01   -2.6216729D+01
      orbital --                 5                6                7                8
       energy --    -2.2252670D+01   -2.2251873D+01   -2.2251873D+01   -2.2156057D+01
      orbital --                 9               10               11               12
       energy --    -2.2153774D+01   -2.2153774D+01   -3.5245173D+00   -3.1835111D+00
      orbital --                13               14               15               16
       energy --    -2.3368265D+00   -2.3247311D+00   -2.3247311D+00   -1.9219744D+00
      orbital --                17               18               19               20
       energy --    -1.9074259D+00   -1.9074259D+00   -4.5147922D-01   -4.3812233D-01
      orbital --                21               22               23               24
       energy --    -4.3812233D-01   -4.3647600D-01   -4.3647600D-01   -2.6791664D-01
      orbital --                25               26               27               28
       energy --     2.7393457D-02    1.1108711D-01    1.2849411D-01    1.2849411D-01
      orbital --                29               30               31               32
       energy --     1.8496641D-01    2.7017007D-01    2.9135092D-01    2.9135092D-01
      orbital --                33               34               35               36
       energy --     3.5249698D-01    3.6465290D-01    3.6465290D-01    4.2311344D-01
      orbital --                37               38               39               40
       energy --     4.2311344D-01    5.1256308D-01    7.6138452D-01    7.6138452D-01
      orbital --                41               42               43               44
       energy --     8.9601649D-01    8.9601649D-01    9.2892290D-01    1.0154395D+00
      orbital --                45               46               47               48
       energy --     1.0154395D+00    1.1268040D+00    1.1268040D+00    1.1327847D+00
      orbital --                49               50               51               52
       energy --     3.1981460D+00    3.2534311D+00    3.2534311D+00    3.3076726D+00
      orbital --                53               54               55               56
       energy --     3.3076726D+00    3.3125549D+00    3.3125549D+00    3.5459294D+00
      orbital --                57               58               59               60
       energy --     3.5459294D+00    3.5478774D+00    3.5478774D+00    3.6704548D+00
      orbital --                61               62
       energy --     3.6704548D+00    3.6774965D+00

 *** cycle =    8 ***

        E =   -2086.329090729656      DE =      -0.000000572435
      Hsp =   -3182.280007997129     Hph =     943.547881193553
   <S**2> =       0.000159198955
    RMSDP =       1.3355D-05        MaxP =       1.7510D-04

   E (HF) =   -2086.317345235650

 ********************

*********  Start Cycle  9  *************
 
Start hffock

 Symmetry not used in FoFDir.
 MinBra= 0 MaxBra= 3 Meth= 1.
 IRaf=       1 NMat=   2 IRICut=       1 DoRegI=T DoRafI=F ISym2E= 0 JSym2E=0.
 PrsmSu:  NPrtUS=   1 ThrOK=F IAlg=1 NPAlg=1 LenDen=           0.
 Prism:   IPart=     0 DynPar=F LinDyn=F Incr=         298.
 PRISM was handed   133964384 working-precision words and   244 shell-pairs
 IPart=  0 NShTot=       29868 NBatch=        1596 AvBLen=        18.7
 PrSmSu:  NxtVal=            299.
 
Start hfdmdg: find NO basis
 
Start formng/pg
 
Start formgg

 Symmetry not used in FoFDir.
 MinBra= 0 MaxBra= 3 Meth= 1.
 IRaf=       1 NMat=  64 IRICut=       1 DoRegI=T DoRafI=F ISym2E= 0 JSym2E=0.
 PrsmSu:  NPrtUS=   1 ThrOK=F IAlg=1 NPAlg=1 LenDen=           0.
 Prism:   IPart=     0 DynPar=F LinDyn=F Incr=         298.
 PRISM was handed   133212770 working-precision words and   244 shell-pairs
 IPart=  0 NShTot=       29870 NBatch=        1540 AvBLen=        19.4
 PrSmSu:  NxtVal=            299.
 
Start evalsmt/hmt
 Smt (real):
                 1 
      1   0.321243D+00
 Smt (imaginary):
                 1 
      1   0.000000D+00
 Hmt (real):
                 1 
      1  -0.719178D+03
 Hmt (imaginary):
                 1 
      1   0.000000D+00
 
Form Fock eff
ifsel =     2, useproj    T
 DIIS: error= 6.81D-06 at cycle   9 NSaved=   9.
 NSaved= 9 IEnMin= 9 EnMin= -2086.32909097443     IErMin= 9 ErrMin= 6.81D-06
 ErrMax= 6.81D-06 EMaxC= 1.00D+00 BMatC= 1.50D-08 BMatP= 1.24D-07
 IDIUse=1 WtCom= 1.00D+00 WtEn= 0.00D+00
 Coeff-Com:  0.147D-02 0.168D-04-0.741D-02 0.868D-02-0.102D-01 0.307D+00
 Coeff-Com: -0.416D+00-0.542D+00 0.166D+01
 Coeff:      0.147D-02 0.168D-04-0.741D-02 0.868D-02-0.102D-01 0.307D+00
 Coeff:     -0.416D+00-0.542D+00 0.166D+01
 
Diag Fock

 Fock eigenvalues (alpha):
      orbital --                 1                2                3                4
       energy --    -2.2038840D+02   -2.2038623D+02   -2.6272219D+01   -2.6171854D+01
      orbital --                 5                6                7                8
       energy --    -2.2207795D+01   -2.2206999D+01   -2.2206999D+01   -2.2111182D+01
      orbital --                 9               10               11               12
       energy --    -2.2108900D+01   -2.2108900D+01   -3.4796378D+00   -3.1386316D+00
      orbital --                13               14               15               16
       energy --    -2.2919470D+00   -2.2798495D+00   -2.2798495D+00   -1.8770934D+00
      orbital --                17               18               19               20
       energy --    -1.8625476D+00   -1.8625476D+00   -4.0658802D-01   -3.9324233D-01
      orbital --                21               22               23               24
       energy --    -3.9324233D-01   -3.9159070D-01   -3.9159070D-01   -2.2302445D-01
      orbital --                25               26               27               28
       energy --     2.7397387D-02    1.1108093D-01    1.2847694D-01    1.2847694D-01
      orbital --                29               30               31               32
       energy --     1.8495928D-01    2.7016693D-01    2.9134638D-01    2.9134638D-01
      orbital --                33               34               35               36
       energy --     3.5248573D-01    3.6463227D-01    3.6463227D-01    4.2308971D-01
      orbital --                37               38               39               40
       energy --     4.2308971D-01    5.1254896D-01    7.6136398D-01    7.6136398D-01
      orbital --                41               42               43               44
       energy --     8.9599467D-01    8.9599467D-01    9.2890793D-01    1.0154172D+00
      orbital --                45               46               47               48
       energy --     1.0154172D+00    1.1267888D+00    1.1267888D+00    1.1327625D+00
      orbital --                49               50               51               52
       energy --     3.1981206D+00    3.2534055D+00    3.2534055D+00    3.3076455D+00
      orbital --                53               54               55               56
       energy --     3.3076455D+00    3.3125290D+00    3.3125290D+00    3.5459034D+00
      orbital --                57               58               59               60
       energy --     3.5459034D+00    3.5478504D+00    3.5478504D+00    3.6704282D+00
      orbital --                61               62
       energy --     3.6704282D+00    3.6774699D+00

 Fock eigenvalues (beta):
      orbital --                 1                2                3                4
       energy --    -2.2038840D+02   -2.2038623D+02   -2.6272219D+01   -2.6171854D+01
      orbital --                 5                6                7                8
       energy --    -2.2207795D+01   -2.2206999D+01   -2.2206999D+01   -2.2111182D+01
      orbital --                 9               10               11               12
       energy --    -2.2108900D+01   -2.2108900D+01   -3.4796378D+00   -3.1386316D+00
      orbital --                13               14               15               16
       energy --    -2.2919470D+00   -2.2798495D+00   -2.2798495D+00   -1.8770934D+00
      orbital --                17               18               19               20
       energy --    -1.8625476D+00   -1.8625476D+00   -4.0658802D-01   -3.9324233D-01
      orbital --                21               22               23               24
       energy --    -3.9324233D-01   -3.9159070D-01   -3.9159070D-01   -2.2302445D-01
      orbital --                25               26               27               28
       energy --     2.7397387D-02    1.1108093D-01    1.2847694D-01    1.2847694D-01
      orbital --                29               30               31               32
       energy --     1.8495928D-01    2.7016693D-01    2.9134638D-01    2.9134638D-01
      orbital --                33               34               35               36
       energy --     3.5248573D-01    3.6463227D-01    3.6463227D-01    4.2308971D-01
      orbital --                37               38               39               40
       energy --     4.2308971D-01    5.1254896D-01    7.6136398D-01    7.6136398D-01
      orbital --                41               42               43               44
       energy --     8.9599467D-01    8.9599467D-01    9.2890793D-01    1.0154172D+00
[...]
      orbital --                57               58               59               60
       energy --     3.5458924D+00    3.5478387D+00    3.5478387D+00    3.6704175D+00
      orbital --                61               62
       energy --     3.6704175D+00    3.6774597D+00

 Fock eigenvalues (beta):
      orbital --                 1                2                3                4
       energy --    -2.2053152D+02   -2.2052935D+02   -2.6415339D+01   -2.6314972D+01
      orbital --                 5                6                7                8
       energy --    -2.2350914D+01   -2.2350118D+01   -2.2350118D+01   -2.2254301D+01
      orbital --                 9               10               11               12
       energy --    -2.2252019D+01   -2.2252019D+01   -3.6227585D+00   -3.2817492D+00
      orbital --                13               14               15               16
       energy --    -2.4350670D+00   -2.4229700D+00   -2.4229700D+00   -2.0202111D+00
      orbital --                17               18               19               20
       energy --    -2.0056665D+00   -2.0056665D+00   -5.4970966D-01   -5.3636350D-01
      orbital --                21               22               23               24
       energy --    -5.3636350D-01   -5.3471090D-01   -5.3471090D-01   -3.6614773D-01
      orbital --                25               26               27               28
       energy --     2.7404400D-02    1.1107730D-01    1.2846572D-01    1.2846572D-01
      orbital --                29               30               31               32
       energy --     1.8495685D-01    2.7016719D-01    2.9134773D-01    2.9134773D-01
      orbital --                33               34               35               36
       energy --     3.5248459D-01    3.6462302D-01    3.6462302D-01    4.2307868D-01
      orbital --                37               38               39               40
       energy --     4.2307868D-01    5.1254251D-01    7.6135146D-01    7.6135146D-01
      orbital --                41               42               43               44
       energy --     8.9598436D-01    8.9598436D-01    9.2889992D-01    1.0154086D+00
      orbital --                45               46               47               48
       energy --     1.0154086D+00    1.1267840D+00    1.1267840D+00    1.1327550D+00
      orbital --                49               50               51               52
       energy --     3.1981097D+00    3.2533946D+00    3.2533946D+00    3.3076338D+00
      orbital --                53               54               55               56
       energy --     3.3076338D+00    3.3125167D+00    3.3125167D+00    3.5458924D+00
      orbital --                57               58               59               60
       energy --     3.5458924D+00    3.5478387D+00    3.5478387D+00    3.6704175D+00
      orbital --                61               62
       energy --     3.6704175D+00    3.6774597D+00

 *** cycle =   14 ***

        E =   -2086.329091025904      DE =      -0.000000000037
      Hsp =   -3182.273108257853     Hph =     943.540981158029
   <S**2> =       0.000159932002
    RMSDP =       4.3280D-08        MaxP =       6.6643D-07

   E (HF) =   -2086.317340728260

 ********************

*********  Start Cycle 15  *************
 
Start hffock

 Symmetry not used in FoFDir.
 MinBra= 0 MaxBra= 3 Meth= 1.
 IRaf=       1 NMat=   2 IRICut=       1 DoRegI=T DoRafI=F ISym2E= 0 JSym2E=0.
 PrsmSu:  NPrtUS=   1 ThrOK=F IAlg=1 NPAlg=1 LenDen=           0.
 Prism:   IPart=     0 DynPar=F LinDyn=F Incr=         298.
 PRISM was handed   133964384 working-precision words and   244 shell-pairs
 IPart=  0 NShTot=       29868 NBatch=        1596 AvBLen=        18.7
 PrSmSu:  NxtVal=            299.
 
Start hfdmdg: find NO basis
 
Start formng/pg
 
Start formgg

 Symmetry not used in FoFDir.
 MinBra= 0 MaxBra= 3 Meth= 1.
 IRaf=       1 NMat=  64 IRICut=       1 DoRegI=T DoRafI=F ISym2E= 0 JSym2E=0.
 PrsmSu:  NPrtUS=   1 ThrOK=F IAlg=1 NPAlg=1 LenDen=           0.
 Prism:   IPart=     0 DynPar=F LinDyn=F Incr=         298.
 PRISM was handed   133212770 working-precision words and   244 shell-pairs
 IPart=  0 NShTot=       29870 NBatch=        1540 AvBLen=        19.4
 PrSmSu:  NxtVal=            299.
 
Start evalsmt/hmt
 Smt (real):
                 1 
      1   0.321205D+00
 Smt (imaginary):
                 1 
      1   0.000000D+00
 Hmt (real):
                 1 
      1  -0.719092D+03
 Hmt (imaginary):
                 1 
      1   0.000000D+00
 
Form Fock eff
ifsel =     2, useproj    T
 DIIS: error= 2.91D-08 at cycle  15 NSaved=  15.
 NSaved=15 IEnMin=15 EnMin= -2086.32909102591     IErMin=15 ErrMin= 2.91D-08
 ErrMax= 2.91D-08 EMaxC= 1.00D+00 BMatC= 1.89D-13 BMatP= 2.20D-12
 IDIUse=1 WtCom= 1.00D+00 WtEn= 0.00D+00
 Coeff-Com: -0.163D-05 0.804D-05 0.266D-04-0.151D-03 0.113D-03 0.822D-03
 Coeff-Com: -0.169D-02 0.139D-02 0.170D-02-0.673D-02-0.478D-02 0.275D-01
 Coeff-Com: -0.929D-01-0.439D+00 0.151D+01
 Coeff:     -0.163D-05 0.804D-05 0.266D-04-0.151D-03 0.113D-03 0.822D-03
 Coeff:     -0.169D-02 0.139D-02 0.170D-02-0.673D-02-0.478D-02 0.275D-01
 Coeff:     -0.929D-01-0.439D+00 0.151D+01
 
Diag Fock

 Fock eigenvalues (alpha):
      orbital --                 1                2                3                4
       energy --    -2.2035677D+02   -2.2035460D+02   -2.6240593D+01   -2.6140226D+01
      orbital --                 5                6                7                8
       energy --    -2.2176168D+01   -2.2175372D+01   -2.2175372D+01   -2.2079554D+01
      orbital --                 9               10               11               12
       energy --    -2.2077273D+01   -2.2077273D+01   -3.4480122D+00   -3.1070029D+00
      orbital --                13               14               15               16
       energy --    -2.2603207D+00   -2.2482237D+00   -2.2482237D+00   -1.8454648D+00
      orbital --                17               18               19               20
       energy --    -1.8309202D+00   -1.8309202D+00   -3.7496336D-01   -3.6161719D-01
      orbital --                21               22               23               24
       energy --    -3.6161719D-01   -3.5996457D-01   -3.5996457D-01   -1.9140141D-01
      orbital --                25               26               27               28
       energy --     2.7404396D-02    1.1107730D-01    1.2846573D-01    1.2846573D-01
      orbital --                29               30               31               32
       energy --     1.8495686D-01    2.7016718D-01    2.9134772D-01    2.9134772D-01
      orbital --                33               34               35               36
       energy --     3.5248458D-01    3.6462302D-01    3.6462302D-01    4.2307868D-01
      orbital --                37               38               39               40
       energy --     4.2307868D-01    5.1254251D-01    7.6135147D-01    7.6135147D-01
      orbital --                41               42               43               44
       energy --     8.9598437D-01    8.9598437D-01    9.2889992D-01    1.0154086D+00
      orbital --                45               46               47               48
       energy --     1.0154086D+00    1.1267840D+00    1.1267840D+00    1.1327550D+00
      orbital --                49               50               51               52
       energy --     3.1981097D+00    3.2533946D+00    3.2533946D+00    3.3076338D+00
      orbital --                53               54               55               56
       energy --     3.3076338D+00    3.3125167D+00    3.3125167D+00    3.5458924D+00
      orbital --                57               58               59               60
       energy --     3.5458924D+00    3.5478387D+00    3.5478387D+00    3.6704175D+00
      orbital --                61               62
       energy --     3.6704175D+00    3.6774597D+00

 Fock eigenvalues (beta):
      orbital --                 1                2                3                4
       energy --    -2.2035677D+02   -2.2035460D+02   -2.6240593D+01   -2.6140226D+01
      orbital --                 5                6                7                8
       energy --    -2.2176168D+01   -2.2175372D+01   -2.2175372D+01   -2.2079554D+01
      orbital --                 9               10               11               12
       energy --    -2.2077273D+01   -2.2077273D+01   -3.4480122D+00   -3.1070029D+00
      orbital --                13               14               15               16
       energy --    -2.2603207D+00   -2.2482237D+00   -2.2482237D+00   -1.8454648D+00
      orbital --                17               18               19               20
       energy --    -1.8309202D+00   -1.8309202D+00   -3.7496336D-01   -3.6161719D-01
      orbital --                21               22               23               24
       energy --    -3.6161719D-01   -3.5996457D-01   -3.5996457D-01   -1.9140141D-01
      orbital --                25               26               27               28
       energy --     2.7404396D-02    1.1107730D-01    1.2846573D-01    1.2846573D-01
      orbital --                29               30               31               32
       energy --     1.8495686D-01    2.7016718D-01    2.9134772D-01    2.9134772D-01
      orbital --                33               34               35               36
       energy --     3.5248458D-01    3.6462302D-01    3.6462302D-01    4.2307868D-01
      orbital --                37               38               39               40
       energy --     4.2307868D-01    5.1254251D-01    7.6135147D-01    7.6135147D-01
      orbital --                41               42               43               44
       energy --     8.9598437D-01    8.9598437D-01    9.2889992D-01    1.0154086D+00
      orbital --                45               46               47               48
       energy --     1.0154086D+00    1.1267840D+00    1.1267840D+00    1.1327550D+00
      orbital --                49               50               51               52
       energy --     3.1981097D+00    3.2533946D+00    3.2533946D+00    3.3076338D+00
      orbital --                53               54               55               56
       energy --     3.3076338D+00    3.3125167D+00    3.3125167D+00    3.5458924D+00
      orbital --                57               58               59               60
       energy --     3.5458924D+00    3.5478387D+00    3.5478387D+00    3.6704175D+00
      orbital --                61               62
       energy --     3.6704175D+00    3.6774597D+00

 *** cycle =   15 ***

        E =   -2086.329091025912      DE =      -0.000000000007
      Hsp =   -3182.273087915820     Hph =     943.540960815989
   <S**2> =       0.000159932040
    RMSDP =       2.4523D-08        MaxP =       3.8054D-07

   E (HF) =   -2086.317340712429

 ********************

*********  Start Cycle 16  *************
 
Start hffock

 Symmetry not used in FoFDir.
 MinBra= 0 MaxBra= 3 Meth= 1.
 IRaf=       1 NMat=   2 IRICut=       1 DoRegI=T DoRafI=F ISym2E= 0 JSym2E=0.
 PrsmSu:  NPrtUS=   1 ThrOK=F IAlg=1 NPAlg=1 LenDen=           0.
 Prism:   IPart=     0 DynPar=F LinDyn=F Incr=         298.
 PRISM was handed   133964384 working-precision words and   244 shell-pairs
 IPart=  0 NShTot=       29868 NBatch=        1596 AvBLen=        18.7
 PrSmSu:  NxtVal=            299.
 
Start hfdmdg: find NO basis
 
Start formng/pg
 
Start formgg

 Symmetry not used in FoFDir.
 MinBra= 0 MaxBra= 3 Meth= 1.
 IRaf=       1 NMat=  64 IRICut=       1 DoRegI=T DoRafI=F ISym2E= 0 JSym2E=0.
 PrsmSu:  NPrtUS=   1 ThrOK=F IAlg=1 NPAlg=1 LenDen=           0.
 Prism:   IPart=     0 DynPar=F LinDyn=F Incr=         298.
 PRISM was handed   133212770 working-precision words and   244 shell-pairs
 IPart=  0 NShTot=       29870 NBatch=        1540 AvBLen=        19.4
 PrSmSu:  NxtVal=            299.
 
Start evalsmt/hmt
 Smt (real):
                 1 
      1   0.321205D+00
 Smt (imaginary):
                 1 
      1   0.000000D+00
 Hmt (real):
                 1 
      1  -0.719092D+03
 Hmt (imaginary):
                 1 
      1   0.000000D+00
 
Form Fock eff
ifsel =     2, useproj    T
 DIIS: error= 7.78D-09 at cycle  16 NSaved=  16.
 NSaved=16 IEnMin=15 EnMin= -2086.32909102591     IErMin=16 ErrMin= 7.78D-09
 ErrMax= 7.78D-09 EMaxC= 1.00D+00 BMatC= 2.20D-14 BMatP= 1.89D-13
 IDIUse=1 WtCom= 1.00D+00 WtEn= 0.00D+00
 Large coefficients: NSaved= 16 BigCof=    0.00 CofMax=   10.00 Det=-4.04D-15
 Inversion failed.  Reducing to 15 matrices.
 Coeff-Com: -0.407D-05-0.340D-04 0.150D-03-0.136D-03-0.385D-04-0.121D-03
 Coeff-Com: -0.151D-03 0.359D-03-0.543D-03 0.899D-02-0.244D-01 0.461D-01
 Coeff-Com:  0.918D-01-0.436D+00 0.131D+01
 Coeff:     -0.407D-05-0.340D-04 0.150D-03-0.136D-03-0.385D-04-0.121D-03
 Coeff:     -0.151D-03 0.359D-03-0.543D-03 0.899D-02-0.244D-01 0.461D-01
 Coeff:      0.918D-01-0.436D+00 0.131D+01
 
Diag Fock

 Fock eigenvalues (alpha):
      orbital --                 1                2                3                4
       energy --    -2.2050358D+02   -2.2050141D+02   -2.6387404D+01   -2.6287037D+01
      orbital --                 5                6                7                8
       energy --    -2.2322979D+01   -2.2322183D+01   -2.2322183D+01   -2.2226365D+01
      orbital --                 9               10               11               12
       energy --    -2.2224084D+01   -2.2224084D+01   -3.5948231D+00   -3.2538138D+00
      orbital --                13               14               15               16
       energy --    -2.4071316D+00   -2.3950346D+00   -2.3950346D+00   -1.9922757D+00
      orbital --                17               18               19               20
       energy --    -1.9777311D+00   -1.9777311D+00   -5.2177428D-01   -5.0842810D-01
      orbital --                21               22               23               24
       energy --    -5.0842810D-01   -5.0677548D-01   -5.0677548D-01   -3.3821232D-01
      orbital --                25               26               27               28
       energy --     2.7404390D-02    1.1107730D-01    1.2846574D-01    1.2846574D-01
      orbital --                29               30               31               32
       energy --     1.8495685D-01    2.7016717D-01    2.9134772D-01    2.9134772D-01
      orbital --                33               34               35               36
       energy --     3.5248457D-01    3.6462302D-01    3.6462302D-01    4.2307868D-01
      orbital --                37               38               39               40
       energy --     4.2307868D-01    5.1254251D-01    7.6135147D-01    7.6135147D-01
      orbital --                41               42               43               44
       energy --     8.9598437D-01    8.9598437D-01    9.2889991D-01    1.0154086D+00
      orbital --                45               46               47               48
       energy --     1.0154086D+00    1.1267840D+00    1.1267840D+00    1.1327550D+00
      orbital --                49               50               51               52
       energy --     3.1981097D+00    3.2533945D+00    3.2533945D+00    3.3076338D+00
      orbital --                53               54               55               56
       energy --     3.3076338D+00    3.3125167D+00    3.3125167D+00    3.5458924D+00
      orbital --                57               58               59               60
       energy --     3.5458924D+00    3.5478387D+00    3.5478387D+00    3.6704175D+00
      orbital --                61               62
       energy --     3.6704175D+00    3.6774597D+00

 Fock eigenvalues (beta):
      orbital --                 1                2                3                4
       energy --    -2.2050358D+02   -2.2050141D+02   -2.6387404D+01   -2.6287037D+01
      orbital --                 5                6                7                8
       energy --    -2.2322979D+01   -2.2322183D+01   -2.2322183D+01   -2.2226365D+01
      orbital --                 9               10               11               12
       energy --    -2.2224084D+01   -2.2224084D+01   -3.5948231D+00   -3.2538138D+00
      orbital --                13               14               15               16
       energy --    -2.4071316D+00   -2.3950346D+00   -2.3950346D+00   -1.9922757D+00
      orbital --                17               18               19               20
       energy --    -1.9777311D+00   -1.9777311D+00   -5.2177428D-01   -5.0842810D-01
      orbital --                21               22               23               24
       energy --    -5.0842810D-01   -5.0677548D-01   -5.0677548D-01   -3.3821232D-01
      orbital --                25               26               27               28
       energy --     2.7404390D-02    1.1107730D-01    1.2846574D-01    1.2846574D-01
      orbital --                29               30               31               32
       energy --     1.8495685D-01    2.7016717D-01    2.9134772D-01    2.9134772D-01
      orbital --                33               34               35               36
       energy --     3.5248457D-01    3.6462302D-01    3.6462302D-01    4.2307868D-01
      orbital --                37               38               39               40
       energy --     4.2307868D-01    5.1254251D-01    7.6135147D-01    7.6135147D-01
      orbital --                41               42               43               44
       energy --     8.9598437D-01    8.9598437D-01    9.2889991D-01    1.0154086D+00
      orbital --                45               46               47               48
       energy --     1.0154086D+00    1.1267840D+00    1.1267840D+00    1.1327550D+00
      orbital --                49               50               51               52
       energy --     3.1981097D+00    3.2533945D+00    3.2533945D+00    3.3076338D+00
      orbital --                53               54               55               56
       energy --     3.3076338D+00    3.3125167D+00    3.3125167D+00    3.5458924D+00
      orbital --                57               58               59               60
       energy --     3.5458924D+00    3.5478387D+00    3.5478387D+00    3.6704175D+00
      orbital --                61               62
       energy --     3.6704175D+00    3.6774597D+00

 *** cycle =   16 ***

        E =   -2086.329091025906      DE =       0.000000000005
      Hsp =   -3182.273082061177     Hph =     943.540954961351
   <S**2> =       0.000159931832
    RMSDP =       5.2964D-09        MaxP =       9.8380D-08

   E (HF) =   -2086.317340702664

     WARNING: Energy rises - continue as usual

 ********************


 *** SCF Done after   16 cycles ***

        E =   -2086.329091025906    conv =           5.2964E-09
      Hsp =   -3182.273082061177     Hph =     943.540954961351
   <S**2> =       0.000159931832

 **********************************


 PHF SCF - quitting the program

 Leave Link  530 at Wed Feb  3 10:27:14 2021, MaxMem=  134217728 cpu:      19.3
 (Enter /share/apps/gaussian/G09C01Z/srwang-mod-2020/g09/l9999.exe)

 Test job not archived.
 1\1\GINC-XN01\SP\CUHF\def2SVP\Cr2\SRWANG\03-Feb-2021\0\\#p uhf/def2svp
  guess=read geom=allcheck scf=conver=2 # extralink=l530 iop(5/206=4, 5
 /207=4, 5/216=1, 5/218=5, 5/215=-300) pop=none\\title\\0,1\Cr,0,0.,0.,
 0.\Cr,0,0.,0.,2.\\Version=EM64L-G09RevC.01\HF=-2086.329091\S2=0.00016\
 S2-1=0.\S2A=0.00016\RMSD=5.296e-09\PG=D*H [C*(Cr1.Cr1)]\\@


 SOME THINGS ARE EASY, THEY ARE ONLY HARD TO DO.
            -- A. EINSTEIN TO J. O. HIRSCHFELDER
 THE ONLY TROUBLE WITH A SURE THING IS THE UNCERTAINTY.
     -- FROM A TEABAG (BELONGING TO W.H.?)
 Job cpu time:  0 days  0 hours  0 minutes 20.4 seconds.
 File lengths (MBytes):  RWF=     18 Int=      0 D2E=      0 Chk=      8 Scr=      1
 Normal termination of Gaussian 09 at Wed Feb  3 10:27:14 2021.
