title                                                                   
SP        UHF                                                         Gen                 
Number of atoms                            I                2
Info1-9                                    I   N=           9
           5           5           0           0           0         110
           1           1           2
Full Title                                 C   N=           1
title       
Route                                      C   N=           5
#p uhf chkbasis guess(read) geom=allcheck scf=(conver=2)    
Charge                                     I                0
Multiplicity                               I                1
Number of electrons                        I               14
Number of alpha electrons                  I                7
Number of beta electrons                   I                7
Number of basis functions                  I               28
Number of independent functions            I               28
Number of point charges in /Mol/           I                0
Number of translation vectors              I                0
Atomic numbers                             I   N=           2
           7           7
Nuclear charges                            R   N=           2
  7.00000000E+00  7.00000000E+00
Current cartesian coordinates              R   N=           6
  0.00000000E+00  0.00000000E+00 -8.50376756E-01  1.04141117E-16  0.00000000E+00
  8.50376756E-01
Number of symbols in /Mol/                 I                0
Force Field                                I                0
Atom Types                                 C   N=           2
                        
Int Atom Types                             I   N=           2
           0           0
MM charges                                 R   N=           2
  0.00000000E+00  0.00000000E+00
Integer atomic weights                     I   N=           2
          14          14
Real atomic weights                        R   N=           2
  1.40030740E+01  1.40030740E+01
Atom fragment info                         I   N=           2
           1           2
Atom residue num                           I   N=           2
           0           0
Nuclear spins                              I   N=           2
           2           2
Nuclear ZEff                               R   N=           2
 -4.55000000E+00 -4.55000000E+00
Nuclear ZNuc                               R   N=           2
  7.00000000E+00  7.00000000E+00
Nuclear QMom                               R   N=           2
  2.04400000E+00  2.04400000E+00
Nuclear GFac                               R   N=           2
  4.03761000E-01  4.03761000E-01
MicOpt                                     I   N=           2
          -1          -1
Number of residues                         I                0
Number of secondary structures             I                0
SymInf integers                            I   N=          26
           2           8           1           1           1          -1
           1          -1          -1          -1           1           1
          -1          -1          -1           1           1           1
          -1           1           1           1          -1          -1
          -1          -1
RotTr to input orientation                 R   N=          12
  1.00000000E+00  0.00000000E+00  0.00000000E+00 -0.00000000E+00  1.00000000E+00
 -0.00000000E+00 -0.00000000E+00 -0.00000000E+00  1.00000000E+00  5.20705586E-17
  0.00000000E+00  8.50376756E-01
Number of contracted shells                I               12
Number of primitive shells                 I               40
Pure/Cartesian d shells                    I                0
Pure/Cartesian f shells                    I                0
Highest angular momentum                   I                2
Largest degree of contraction              I                7
Shell types                                I   N=          12
           0           0           0           1           1          -2
           0           0           0           1           1          -2
Number of primitives per shell             I   N=          12
           7           7           1           3           1           1
           7           7           1           3           1           1
Shell to atom map                          I   N=          12
           1           1           1           1           1           1
           2           2           2           2           2           2
Primitive exponents                        R   N=          40
  9.04600000E+03  1.35700000E+03  3.09300000E+02  8.77300000E+01  2.85600000E+01
  1.02100000E+01  3.83800000E+00  9.04600000E+03  3.09300000E+02  8.77300000E+01
  2.85600000E+01  1.02100000E+01  3.83800000E+00  7.46600000E-01  2.24800000E-01
  1.35500000E+01  2.91700000E+00  7.97300000E-01  2.18500000E-01  8.17000000E-01
  9.04600000E+03  1.35700000E+03  3.09300000E+02  8.77300000E+01  2.85600000E+01
  1.02100000E+01  3.83800000E+00  9.04600000E+03  3.09300000E+02  8.77300000E+01
  2.85600000E+01  1.02100000E+01  3.83800000E+00  7.46600000E-01  2.24800000E-01
  1.35500000E+01  2.91700000E+00  7.97300000E-01  2.18500000E-01  8.17000000E-01
Contraction coefficients                   R   N=          40
  7.01708743E-04  5.40299880E-03  2.74729510E-02  1.03514580E-01  2.79586579E-01
  4.51317241E-01  2.80626875E-01  7.77446797E-06  3.00742072E-04 -2.80016549E-03
 -9.89708505E-03 -1.14331114E-01 -1.18162383E-01  1.09786885E+00  1.00000000E+00
  5.89056768E-02  3.20461107E-01  7.53042062E-01  1.00000000E+00  1.00000000E+00
  7.01708743E-04  5.40299880E-03  2.74729510E-02  1.03514580E-01  2.79586579E-01
  4.51317241E-01  2.80626875E-01  7.77446797E-06  3.00742072E-04 -2.80016549E-03
 -9.89708505E-03 -1.14331114E-01 -1.18162383E-01  1.09786885E+00  1.00000000E+00
  5.89056768E-02  3.20461107E-01  7.53042062E-01  1.00000000E+00  1.00000000E+00
Coordinates of each shell                  R   N=          36
  0.00000000E+00  0.00000000E+00 -8.50376756E-01  0.00000000E+00  0.00000000E+00
 -8.50376756E-01  0.00000000E+00  0.00000000E+00 -8.50376756E-01  0.00000000E+00
  0.00000000E+00 -8.50376756E-01  0.00000000E+00  0.00000000E+00 -8.50376756E-01
  0.00000000E+00  0.00000000E+00 -8.50376756E-01  1.04141117E-16  0.00000000E+00
  8.50376756E-01  1.04141117E-16  0.00000000E+00  8.50376756E-01  1.04141117E-16
  0.00000000E+00  8.50376756E-01  1.04141117E-16  0.00000000E+00  8.50376756E-01
  1.04141117E-16  0.00000000E+00  8.50376756E-01  1.04141117E-16  0.00000000E+00
  8.50376756E-01
Num ILSW                                   I              100
ILSW                                       I   N=         100
           1           0           0           0           2           0
           0           0           0           0           0          -1
           5           0           0           0           0           0
           0           0           0           0           0           0
           1           0           0           0           0           0
           0           0      100000           0          -1           0
           0           0           0           0           0           0
           0           0           0           1           0           0
           0 -2000000000           1           0           0           0
           0           1           4          52           0           0
           0           0           0           0           0           0
           0           0           0           2           0           1
           0           0           0           0           0           0
           0           0           0           0           0           0
           0           0           0           0           0           0
           0           0           0           0           0           0
           0           0           0           0
Num RLSW                                   I               52
RLSW                                       R   N=          52
  1.00000000E+00  1.00000000E+00  1.00000000E+00  1.00000000E+00  1.00000000E+00
  0.00000000E+00  0.00000000E+00  1.00000000E+00  0.00000000E+00  0.00000000E+00
  0.00000000E+00  0.00000000E+00  1.00000000E+00  0.00000000E+00  0.00000000E+00
  0.00000000E+00  0.00000000E+00  1.00000000E+00  0.00000000E+00  0.00000000E+00
  0.00000000E+00  0.00000000E+00  1.00000000E+00  0.00000000E+00  0.00000000E+00
  0.00000000E+00  0.00000000E+00  1.00000000E+00  0.00000000E+00  0.00000000E+00
  0.00000000E+00  0.00000000E+00  1.00000000E+00  0.00000000E+00  0.00000000E+00
  0.00000000E+00  0.00000000E+00  0.00000000E+00  1.00000000E+00  1.00000000E+00
  0.00000000E+00  1.00000000E+00  0.00000000E+00  0.00000000E+00  0.00000000E+00
  0.00000000E+00  0.00000000E+00  0.00000000E+00  0.00000000E+00  0.00000000E+00
  0.00000000E+00  0.00000000E+00
ECP-MxAtEC                                 I           250000
ECP-MaxLECP                                I               10
ECP-MaxAtL                                 I          2250000
ECP-MxTECP                                 I         11250000
ECP-LenNCZ                                 I                0
ECP-KFirst                                 I   N=          20
           0           0           0           0           0           0
           0           0           0           0           0           0
           0           0           0           0           0           0
           0           0
ECP-KLast                                  I   N=          20
           0           0           0           0           0           0
           0           0           0           0           0           0
           0           0           0           0           0           0
           0           0
ECP-LMax                                   I   N=           2
           0           0
ECP-LPSkip                                 I   N=           2
           1           1
ECP-RNFroz                                 R   N=           2
  0.00000000E+00  0.00000000E+00
ECP-NLP                                    I                0
ECP-CLP1                                   R      0.000000000000000E+00
ECP-CLP2                                   R      0.000000000000000E+00
ECP-ZLP                                    R      0.000000000000000E+00
MxBond                                     I                1
NBond                                      I   N=           2
           1           1
IBond                                      I   N=           2
           2           1
RBond                                      R   N=           2
  3.00000000E+00  3.00000000E+00
Virial Ratio                               R      1.981586546310087E+00
SCF Energy                                 R     -1.087404169039192E+02
Total Energy                               R     -1.087404169039192E+02
S**2                                       R      1.059540094757638E-01
S**2 after annihilation                    R      1.258048733649728E-02
RMS Density                                R      5.831891485761033E-03
Job Status                                 I                1
Nuclear derivative order                   I                0
External E-field                           R   N=          35
  0.00000000E+00  0.00000000E+00  0.00000000E+00  0.00000000E+00  0.00000000E+00
  0.00000000E+00  0.00000000E+00  0.00000000E+00  0.00000000E+00  0.00000000E+00
  0.00000000E+00  0.00000000E+00  0.00000000E+00  0.00000000E+00  0.00000000E+00
  0.00000000E+00  0.00000000E+00  0.00000000E+00  0.00000000E+00  0.00000000E+00
  0.00000000E+00  0.00000000E+00  0.00000000E+00  0.00000000E+00  0.00000000E+00
  0.00000000E+00  0.00000000E+00  0.00000000E+00  0.00000000E+00  0.00000000E+00
  0.00000000E+00  0.00000000E+00  0.00000000E+00  0.00000000E+00  0.00000000E+00
IOpCl                                      I                1
IROHF                                      I                0
Alpha Orbital Energies                     R   N=          28
 -1.56411781E+01 -1.56113006E+01 -1.62095620E+00 -7.20432958E-01 -7.20432958E-01
 -7.12141524E-01 -6.31622549E-01  2.94152391E-01  2.94152391E-01  6.27858769E-01
  7.54459119E-01  7.97537636E-01  7.97537636E-01  1.02401944E+00  1.11471482E+00
  1.11471482E+00  1.43732145E+00  1.69960738E+00  1.69960738E+00  1.94562158E+00
  2.12775733E+00  2.12775733E+00  2.45072297E+00  2.45072297E+00  2.97237208E+00
  3.23836550E+00  3.23836550E+00  4.19981231E+00
Beta Orbital Energies                      R   N=          28
 -1.56411781E+01 -1.56113006E+01 -1.62095620E+00 -7.20432958E-01 -7.20432958E-01
 -7.12141524E-01 -6.31622549E-01  2.94152391E-01  2.94152391E-01  6.27858769E-01
  7.54459119E-01  7.97537636E-01  7.97537636E-01  1.02401944E+00  1.11471482E+00
  1.11471482E+00  1.43732145E+00  1.69960738E+00  1.69960738E+00  1.94562158E+00
  2.12775733E+00  2.12775733E+00  2.45072297E+00  2.45072297E+00  2.97237208E+00
  3.23836550E+00  3.23836550E+00  4.19981231E+00
Alpha MO coefficients                      R   N=         784
  9.65166713E-01  1.77456093E-02 -6.46333439E-03 -4.76338553E-17  2.29331708E-16
  4.50936934E-03 -2.89649812E-18  1.82506717E-16 -2.08900994E-03  2.12950015E-03
  3.99334473E-17  3.61308537E-16  7.37918471E-16 -1.62876244E-16  2.45321279E-01
  1.15786244E-03  4.05569120E-03 -3.31602328E-17 -1.73503027E-16 -6.15372142E-05
  2.56903058E-17 -1.79158191E-16 -1.18221811E-03  8.09834867E-04 -7.86653871E-17
  4.12646018E-16 -6.08265146E-16  1.79705437E-16 -2.48539795E-01 -7.39616417E-03
  5.82471262E-03  4.29026673E-17  1.78244537E-17 -2.08708370E-03  2.96293293E-17
  7.70198211E-17  1.66074912E-03 -2.97436516E-04  1.24568544E-16  1.79127849E-16
 -2.09332243E-16 -7.11285858E-17  9.66377988E-01  1.68134884E-02 -6.94124341E-03
 -7.87725480E-17 -9.54583259E-17 -4.76694525E-03 -2.32226781E-17 -7.69868107E-17
  2.03384226E-03  2.46719189E-03  9.21816720E-17  1.10334700E-16  2.81217606E-16
  1.02936513E-16 -1.92361374E-01  3.45701577E-01  1.85126308E-01 -2.04293451E-16
 -5.16127128E-17  2.64539589E-01 -2.41307074E-16  3.21719087E-17  3.07668179E-02
  3.16494212E-02 -2.47515646E-16 -2.63986853E-17  1.11228464E-16 -8.94409143E-18
 -1.77482368E-01  2.97949549E-01  1.17636828E-01  9.57411021E-17 -4.70148293E-17
 -2.65703213E-01  2.23971230E-16 -3.19646831E-18 -1.62166717E-02  4.14184520E-02
 -2.64945347E-16 -7.63765688E-17  3.02795792E-16  2.74834490E-17 -1.49371535E-15
  2.92852893E-15  1.85376636E-14  4.93801199E-01 -1.62994905E-01 -3.59351897E-15
  2.39815927E-01 -7.91589292E-02  4.23688906E-15  1.76291135E-16  4.90096816E-02
 -1.61772154E-02 -1.56573110E-16 -1.53472561E-16  1.31661793E-15 -2.45676369E-15
 -1.63611364E-14  3.51623207E-01 -1.16064504E-01 -2.66781272E-16  1.44324110E-01
 -4.76387958E-02  5.06966031E-15 -4.41279849E-16 -4.79092894E-02  1.58139957E-02
  2.06286170E-16 -3.48171517E-16  1.12389909E-14 -2.57001010E-14 -4.38549088E-14
  1.62994905E-01  4.93801199E-01  3.13885665E-14  7.91589292E-02  2.39815927E-01
  1.21631221E-14  2.47074834E-15  1.61772154E-02  4.90096816E-02 -4.35295353E-16
  1.68074944E-16 -1.02486109E-14  2.11952835E-14  2.90150311E-14  1.16064504E-01
  3.51623207E-01  6.58994165E-15  4.76387958E-02  1.44324110E-01  4.83093184E-15
  2.24338673E-16 -1.58139957E-02 -4.79092894E-02 -2.40174842E-16 -7.70601828E-17
 -1.37606233E-01  3.07203886E-01  5.12631204E-01  8.69217461E-15  4.07680234E-14
 -3.98837357E-01  5.41484284E-15  1.84057819E-14 -1.82100911E-01 -2.94202152E-02
  8.92762766E-16  3.75692351E-15  9.96571325E-16 -8.21548193E-17  1.23067995E-01
 -2.45437480E-01 -3.08380910E-01  5.15643438E-15  3.04924183E-14 -7.17119111E-02
  8.11561210E-16  1.42836180E-14 -7.24756902E-02 -4.85888160E-03 -6.49138357E-16
 -4.13735060E-15 -8.33037890E-16 -1.45758086E-16  6.55463340E-04 -7.36259992E-04
  2.67904238E-01 -4.23310359E-16 -1.00611863E-15 -3.45072177E-01 -7.22050510E-16
  2.36294611E-16 -1.04399141E-01 -2.66140186E-02 -6.85398069E-17 -1.15367327E-16
 -6.94373780E-16  2.51056313E-19 -8.55352451E-02  1.84529626E-01  4.23576620E-01
 -4.76421562E-18 -1.00997831E-15  4.99271906E-01  3.55711663E-16 -1.12711568E-15
  2.66817201E-01 -2.69411414E-02  2.57929800E-17  5.39680412E-17  5.25516020E-16
 -4.03024796E-17 -2.26607363E-16  4.28013941E-15 -4.70184768E-15  1.90153608E-01
 -3.16031260E-01  1.54109082E-15  4.44042198E-01 -7.37988708E-01  2.45369005E-15
 -2.15886524E-15 -7.12272450E-03  1.18378169E-02  9.55294873E-17 -1.71508619E-15
  2.41764539E-16 -3.83705500E-15  4.03938899E-15 -2.09217519E-01  3.47715076E-01
  1.84895147E-15 -4.96503577E-01  8.25178406E-01  1.17830215E-15  1.71755899E-15
 -4.28063768E-04  7.11432896E-04  3.99092434E-17  1.53516560E-16  2.70659584E-17
  3.06560587E-16 -8.82137174E-15 -3.16031260E-01 -1.90153608E-01 -3.26596036E-16
 -7.37988708E-01 -4.44042198E-01 -3.66040513E-15 -1.09955080E-16  1.18378169E-02
  7.12272450E-03 -3.62676114E-16  3.86871735E-16 -5.59239690E-17 -6.73892948E-17
  8.34476831E-15  3.47715076E-01  2.09217519E-01  1.45665041E-16  8.25178406E-01
  4.96503577E-01 -4.59835677E-15  1.63007311E-16  7.11432896E-04  4.28063768E-04
  3.05518448E-16 -1.84466375E-16  8.68984298E-02 -1.63475346E-01 -7.14667278E+00
  2.60780591E-15 -3.02405564E-15  6.34360481E-02 -8.01218591E-17 -1.66028669E-17
 -3.63452258E+00 -6.59891943E-02 -8.60466067E-16  8.74001102E-16  3.35133300E-16
 -1.05024674E-16 -9.03226288E-02  1.48532138E-01  7.19383837E+00 -2.89145027E-16
  3.00375157E-16  4.37158721E-02 -1.95763453E-15  1.69383759E-15 -3.57505083E+00
  7.19759566E-02 -1.15863529E-15  1.30201921E-15 -5.12024696E-16 -4.00870981E-17
  2.22703319E-02  3.24337221E-01  2.21912616E-01  4.56974063E-16 -5.02692102E-16
  3.77949474E-01 -1.26911404E-16 -1.39294948E-15 -1.04359759E+00  1.40441574E-02
  1.01081983E-16  5.93936220E-18 -5.86871209E-16  1.82508966E-16  2.87880007E-02
  3.06728165E-01 -1.57792573E-01  3.30663903E-16 -1.02580220E-15 -3.86071830E-01
 -5.06706815E-16  2.40807895E-15  1.22636669E+00  4.01238964E-03  5.08507805E-16
 -2.90372096E-16 -3.43839130E-16 -7.48678758E-17 -1.49622849E-16  2.79423207E-16
  8.38871822E-15 -3.60557523E-02 -6.17125423E-01 -3.79038049E-16  4.45634100E-02
  7.62741351E-01  5.51704172E-15  1.08488351E-16 -5.09582301E-03 -8.72194235E-02
  5.66712236E-17  2.43668401E-17  9.70651777E-17 -1.05835553E-15 -8.25644765E-15
 -3.02772723E-02 -5.18221734E-01  7.62103666E-17  2.68240167E-02  4.59116274E-01
  3.67130527E-15 -3.89144463E-17  6.01335609E-03  1.02923797E-01  2.17393301E-16
 -9.34517721E-17  1.71129089E-16 -3.73805265E-16 -1.09042234E-14 -6.17125423E-01
  3.60557523E-02  2.09509872E-16  7.62741351E-01 -4.45634100E-02 -6.39150978E-15
 -1.79004088E-16 -8.72194235E-02  5.09582301E-03  1.94000277E-16  2.98702546E-16
 -1.54363793E-16  1.07066753E-15  1.07954252E-14 -5.18221734E-01  3.02772723E-02
 -4.70960385E-17  4.59116274E-01 -2.68240167E-02 -5.06430815E-15  8.83261241E-17
  1.02923797E-01 -6.01335609E-03  9.79102404E-17 -2.07885346E-16  3.32196278E-02
 -1.05962090E+00  1.23184088E+00  6.62916196E-16  2.51739180E-16  3.23797848E-01
 -1.60482936E-15 -1.03010523E-15 -1.85990072E-03 -4.54412634E-02 -2.44104247E-16
 -9.96392491E-17  4.75068631E-15 -1.85949429E-16  3.95898271E-02 -1.01186193E+00
  5.76251047E-01 -9.65021202E-16  1.78921157E-16 -3.10777675E-01  1.99629164E-15
  9.73322343E-16  2.65647899E-01 -4.92856974E-02 -1.59163221E-16  4.26840704E-17
  4.12654207E-15  1.34064228E-16  9.03434310E-17 -1.49872085E-15 -2.23537647E-15
 -3.48860892E-01  5.71084365E-01  5.92402618E-16  6.52978019E-01 -1.06892330E+00
 -1.08198384E-15  1.53652571E-16  9.99833707E-02 -1.63672515E-01  4.70265191E-17
 -3.21429978E-16 -1.77398997E-16  7.44828791E-17  2.97163723E-15  4.14365893E-01
 -6.78315878E-01  1.13546437E-15 -6.98911685E-01  1.14411659E+00 -3.28351767E-15
 -6.98249723E-17  8.13614197E-02 -1.33188430E-01  5.38805782E-16 -2.01967540E-16
 -5.25138248E-17  1.72247608E-15 -5.36856674E-15  5.71084365E-01  3.48860892E-01
 -9.19397820E-16 -1.06892330E+00 -6.52978019E-01 -6.53324123E-16  2.69933362E-17
 -1.63672515E-01 -9.99833707E-02 -2.55441941E-16  6.88866792E-16 -1.01471333E-16
  7.14589094E-16  2.95333704E-15 -6.78315878E-01 -4.14365893E-01  2.96679799E-16
  1.14411659E+00  6.98911685E-01 -2.15263887E-15  1.42020256E-16 -1.33188430E-01
 -8.13614197E-02  1.21053324E-16  1.17863963E-16  6.11207070E-02  7.74123289E-01
 -5.84512560E+00 -5.09574797E-16  3.58650279E-16 -6.13042235E-01  1.29138346E-15
 -7.48066792E-16 -1.94728650E+00  2.13906259E-01 -4.27225925E-17  9.04752312E-16
  1.07512231E-15 -5.37228702E-16 -6.31555992E-02 -8.18641453E-01  5.88536822E+00
  4.13106643E-16 -2.98161443E-16 -6.25832414E-01 -1.14158512E-15  4.42551310E-16
 -1.95321557E+00 -2.09107848E-01 -3.85197542E-16  6.49747435E-16 -3.08430248E-16
 -5.95664462E-16  1.91932392E-16  9.40212403E-16 -1.28729473E-14  1.46964656E-15
 -5.53347634E-16 -2.10076061E-16  1.84776650E-15 -8.96515671E-16 -4.75734720E-15
 -3.10062356E-16 -1.39013952E-15  1.11010344E-15 -1.92808572E-02  6.54099704E-01
 -8.65380556E-17 -1.62264097E-15  1.33615149E-14  9.15807598E-16 -5.14083301E-16
 -6.08902487E-16 -3.19724749E-15  1.40995930E-15 -4.88645726E-15 -1.84336401E-16
  1.79351810E-15 -1.24534339E-16 -1.71364529E-02  5.81351165E-01 -1.89127209E-15
  1.68278957E-14 -8.89711470E-14  1.58449338E-15 -1.28138789E-15 -2.05228222E-15
 -1.14813222E-15  1.49578964E-15 -2.79942648E-14  2.08102352E-15 -1.71239774E-15
  1.40901552E-15  6.54099704E-01  1.92808572E-02 -1.07662628E-15 -3.24580173E-15
  7.30004671E-14  1.02998173E-15 -6.19387546E-16  6.34598007E-15  1.52776326E-16
 -9.47716259E-16 -3.70055988E-14  1.20830419E-14  1.53793255E-15 -3.86863624E-16
  5.81351165E-01  1.71364529E-02 -4.49480797E-02  1.09425539E+00 -8.27897158E+00
 -1.92386083E-15  2.63577131E-15  1.78627822E-01 -2.22360737E-15  3.63297412E-15
 -3.29657466E+00 -5.15295697E-01 -2.18251097E-15  3.55375511E-16  1.52183066E-14
 -9.81569582E-18  5.43706766E-02 -1.10103731E+00  8.28217392E+00  2.05480741E-15
 -1.32677429E-15  1.66619523E-01  2.81487632E-15 -4.31348170E-15 -3.26921727E+00
  4.87739889E-01 -2.45959900E-15  1.73910558E-15 -2.84559305E-14 -1.23678896E-15
 -1.93468054E-16 -1.07643691E-16 -7.89777341E-15  1.63737426E-02 -3.55711996E-01
 -3.16987810E-16 -4.92287329E-03  1.06947149E-01 -2.07587120E-15 -2.95992692E-16
 -2.88749764E-02  6.27295526E-01  2.69041426E-16 -2.75285611E-15 -1.53880463E-16
 -1.44113142E-15  8.16912622E-15  1.79692902E-02 -3.90374531E-01  2.32185924E-16
 -5.21360659E-03  1.13263195E-01 -4.73884624E-15  1.21191625E-15  2.81197830E-02
 -6.10889298E-01 -2.06737129E-15  1.18946933E-15  1.77555360E-17 -2.60337522E-16
  4.69899788E-15 -3.55711996E-01 -1.63737426E-02  5.27789982E-16  1.06947149E-01
  4.92287329E-03  1.05820349E-15  1.33519680E-16  6.27295526E-01  2.88749764E-02
 -6.56485096E-16  1.28881248E-15  7.61953198E-18  4.48498194E-16 -4.27411375E-15
 -3.90374531E-01 -1.79692902E-02  1.14062241E-16  1.13263195E-01  5.21360659E-03
  2.42730708E-15 -1.53657791E-16 -6.10889298E-01 -2.81197830E-02  4.60625596E-15
  2.95736706E-15 -1.52941322E-15  2.96253529E-14 -2.36182226E-13  7.17592930E-16
 -9.86074610E-16  4.77745345E-15 -1.57619670E-16  1.15275956E-15 -9.35205326E-14
 -1.07552169E-14 -2.58818397E-15  4.18394241E-16 -8.21771851E-01 -1.91668068E-02
  9.57460921E-16 -3.43615570E-14  2.38537589E-13  1.60549034E-15  6.48012244E-16
  4.99415680E-15 -5.01534991E-16 -1.42681406E-15 -9.59814857E-14  1.42736681E-14
  1.64857873E-15 -1.21757471E-15  8.74765914E-01  2.04028274E-02  1.40581002E-16
  1.45089405E-15 -3.32384189E-15  4.20654372E-17  2.99996639E-16 -1.10492178E-16
 -1.14786793E-15 -7.51037177E-16 -1.99769466E-15 -8.17443363E-16 -1.08816763E-15
 -3.93150565E-15  1.91668068E-02 -8.21771851E-01  1.45485278E-16  9.16365253E-16
  2.22443916E-15  9.45060979E-16  1.61852592E-15 -3.00701832E-16  1.42633916E-15
  2.52398379E-16 -2.50202784E-16 -7.74451987E-16  2.97508791E-16 -7.81057650E-16
 -2.04028274E-02  8.74765914E-01 -1.78460689E-01 -9.13430675E-01  3.68899787E-01
  2.82412473E-15  3.71667991E-15 -2.01432933E-01  2.85439219E-15  3.11202399E-15
  7.48581650E-01  1.02704099E+00  5.96964050E-15  6.95117712E-15 -5.45336476E-15
 -6.08543583E-16 -1.75311944E-01 -9.47240286E-01  4.75913585E-01 -3.02555585E-15
 -3.15736575E-15  2.12624369E-01 -2.74694813E-15 -3.32959081E-15 -7.91311482E-01
  1.03632554E+00  6.04013561E-15  7.67095510E-15 -8.41696595E-15  7.14811147E-16
  1.10629277E-15  5.10846872E-15  8.69950052E-15  1.96431000E-01  6.31070712E-01
  9.79316231E-16  1.79499113E-01  5.76673914E-01 -7.47283308E-17 -6.95464124E-15
  3.99413109E-01  1.28318807E+00 -4.70936419E-16 -2.01394679E-15  1.32139781E-15
  7.84631609E-15 -1.48733296E-14 -1.98096826E-01 -6.36422487E-01 -1.55134368E-15
 -1.78858429E-01 -5.74615597E-01  9.97607210E-15 -7.01331116E-15  4.02727137E-01
  1.29383499E+00  1.81838309E-16  1.56208028E-15  5.48851884E-16  7.14955036E-15
 -2.26182357E-14  6.31070712E-01 -1.96431000E-01  3.14077158E-15  5.76673914E-01
 -1.79499113E-01 -1.06922643E-14 -2.09625139E-15  1.28318807E+00 -3.99413109E-01
 -2.74818092E-16  2.34608076E-16  3.22120370E-16 -2.63392637E-15  2.07836411E-14
 -6.36422487E-01  1.98096826E-01  2.45464922E-15 -5.74615597E-01  1.78858429E-01
 -7.21305183E-15 -3.19113818E-15  1.29383499E+00 -4.02727137E-01  4.59427818E-16
 -5.71598565E-16  1.29041074E-01  1.68469785E+00  2.73296368E+00 -8.77384112E-16
  2.28192433E-16  1.72157691E+00 -9.68313852E-16  5.49195271E-16  1.20646329E+00
  1.12604232E+00 -1.86746694E-15  7.44311756E-16  7.76748334E-16 -1.30470053E-17
 -1.28062668E-01 -1.68377999E+00 -2.73265624E+00  6.69164453E-16 -2.27810664E-16
  1.72475483E+00  1.05466535E-15 -4.72225013E-16  1.20742419E+00 -1.13030201E+00
 -1.78021667E-15  4.90927679E-16 -7.88001074E-16  1.08930620E-18
Beta MO coefficients                       R   N=         784
  2.45321279E-01  1.15786244E-03  4.05569120E-03  1.43962691E-16  2.71847468E-16
  6.15372142E-05  1.55234629E-16  1.89977322E-16  1.18221811E-03  8.09834867E-04
  2.23097389E-16  3.41654263E-16  1.53715197E-16  4.34090284E-16  9.65166713E-01
  1.77456093E-02 -6.46333439E-03 -5.14080319E-16 -1.49437863E-16 -4.50936934E-03
 -5.38875022E-17 -2.20726058E-16  2.08900994E-03  2.12950015E-03  3.44555700E-17
  5.22387572E-16 -5.06487904E-17 -4.09360813E-16  9.66377988E-01  1.68134884E-02
 -6.94124341E-03 -4.69785259E-16 -2.52106466E-16  4.76694525E-03 -2.01295110E-16
 -3.15288774E-16 -2.03384226E-03  2.46719189E-03 -5.52813642E-16 -7.45779413E-16
 -1.56145416E-16 -1.41351076E-16 -2.48539795E-01 -7.39616417E-03  5.82471262E-03
  5.21099334E-16  3.51968385E-16  2.08708370E-03  2.15563221E-16  2.86332244E-16
 -1.66074912E-03 -2.97436516E-04 -6.20464045E-16 -5.48845841E-16  2.30973626E-16
  1.29450350E-16 -1.77482368E-01  2.97949549E-01  1.17636828E-01 -1.24464306E-16
  1.62152842E-16  2.65703213E-01 -1.92458668E-16  4.51530449E-16  1.62166717E-02
  4.14184520E-02 -1.33729708E-16  5.47853741E-16  9.41540555E-17 -7.65178438E-17
 -1.92361374E-01  3.45701577E-01  1.85126308E-01  8.34174937E-17 -3.27524042E-16
 -2.64539589E-01  1.98411169E-16 -3.97870489E-16 -3.07668179E-02  3.16494212E-02
 -1.48316712E-16  5.50385766E-16  1.63452556E-16  7.08500061E-17 -4.34247375E-15
  8.70282236E-15  9.61118255E-15  2.29138757E-01  2.90869865E-01 -2.93815005E-15
  9.40502402E-02  1.19387838E-01 -2.99970411E-15  7.78173194E-17  3.12205645E-02
  3.96315382E-02 -1.23079168E-16 -1.21144663E-16  4.78219254E-15 -1.06752633E-14
 -1.64693685E-14  3.21790458E-01  4.08482391E-01 -1.37992044E-14  1.56278432E-01
  1.98380610E-01 -6.98279946E-15  1.03712607E-15 -3.19376461E-02 -4.05418050E-02
 -4.13131218E-17  1.69170903E-16  1.03035192E-15 -2.38138232E-15  7.86363813E-15
  2.90869865E-01 -2.29138757E-01  1.54858701E-15  1.19387838E-01 -9.40502402E-02
  5.32011027E-15  4.59081949E-16  3.96315382E-02 -3.12205645E-02  1.22040186E-16
  8.62250008E-17 -1.07898767E-15  2.64412214E-15 -6.62101658E-15  4.08482391E-01
 -3.21790458E-01  3.51124521E-15  1.98380610E-01 -1.56278432E-01  6.17395585E-15
 -5.55808532E-16 -4.05418050E-02  3.19376461E-02  6.35695091E-18 -1.57775060E-16
  1.23067995E-01 -2.45437480E-01 -3.08380910E-01  6.11157711E-15  1.09213186E-14
  7.17119111E-02  3.01234935E-15  2.46329510E-15  7.24756902E-02 -4.85888160E-03
  5.02936572E-16  1.50853228E-15 -8.65915322E-16  2.97714201E-17 -1.37606233E-01
  3.07203886E-01  5.12631204E-01  7.60817303E-15  1.78298951E-14  3.98837357E-01
  3.12136155E-15  1.03564994E-14  1.82100911E-01 -2.94202152E-02 -6.74458741E-16
 -1.59932262E-15  1.23266891E-15 -3.67491297E-16  8.55352451E-02 -1.84529626E-01
 -4.23576620E-01 -1.70998613E-16 -4.02742740E-16  4.99271906E-01  2.11131542E-16
 -9.04415611E-16  2.66817201E-01  2.69411414E-02 -2.35760839E-16 -1.95349822E-18
 -3.65769826E-16  3.13795344E-17 -6.55463340E-04  7.36259992E-04 -2.67904238E-01
 -1.73883799E-16  9.81008610E-16 -3.45072177E-01 -2.18203852E-16  1.34806982E-15
 -1.04399141E-01  2.66140186E-02 -2.68571428E-16 -1.67890635E-16  5.14957862E-16
 -4.77190645E-17 -2.21567559E-16 -2.25963653E-16  2.07345100E-14  3.86409180E-01
  1.23958420E-01  1.39007925E-16  9.17005139E-01  2.94171344E-01  9.81527577E-15
  2.89274996E-16 -7.90601907E-04 -2.53621726E-04  7.81629443E-16  3.14077474E-16
  1.92170314E-16  2.04858296E-16 -2.06692715E-14 -3.51199556E-01 -1.12663322E-01
  1.55917218E-16 -8.20112877E-01 -2.63088719E-01  9.63634544E-15 -2.94639258E-16
 -1.31551418E-02 -4.22011348E-03 -7.06480588E-16 -4.17090359E-16  6.79415019E-16
  8.45047577E-16 -4.39975519E-14 -1.23958420E-01  3.86409180E-01  2.76208383E-16
 -2.94171344E-01  9.17005139E-01 -1.81405438E-14 -9.28217657E-16  2.53621726E-04
 -7.90601907E-04 -1.04872830E-16 -8.62717417E-17 -6.59686905E-16 -7.19063231E-16
  4.32849240E-14  1.12663322E-01 -3.51199556E-01  8.63948852E-16  2.63088719E-01
 -8.20112877E-01 -1.91547920E-14  1.12893216E-15  4.22011348E-03 -1.31551418E-02