 Entering Gaussian System, Link 0=g16
 Input=n2.gjf
 Output=n2.log
 Initial command:
 /home/wsr/g16/l1.exe "/home/wsr/g16/scratch/Gau-112424.inp" -scrdir="/home/wsr/g16/scratch/"
 Entering Link 1 = /home/wsr/g16/l1.exe PID=    112425.
  
 Copyright (c) 1988,1990,1992,1993,1995,1998,2003,2009,2016,
            Gaussian, Inc.  All Rights Reserved.
  
 This is part of the Gaussian(R) 16 program.  It is based on
 the Gaussian(R) 09 system (copyright 2009, Gaussian, Inc.),
 the Gaussian(R) 03 system (copyright 2003, Gaussian, Inc.),
 the Gaussian(R) 98 system (copyright 1998, Gaussian, Inc.),
 the Gaussian(R) 94 system (copyright 1995, Gaussian, Inc.),
 the Gaussian 92(TM) system (copyright 1992, Gaussian, Inc.),
 the Gaussian 90(TM) system (copyright 1990, Gaussian, Inc.),
 the Gaussian 88(TM) system (copyright 1988, Gaussian, Inc.),
 the Gaussian 86(TM) system (copyright 1986, Carnegie Mellon
 University), and the Gaussian 82(TM) system (copyright 1983,
 Carnegie Mellon University). Gaussian is a federally registered
 trademark of Gaussian, Inc.
  
 This software contains proprietary and confidential information,
 including trade secrets, belonging to Gaussian, Inc.
  
 This software is provided under written license and may be
 used, copied, transmitted, or stored only in accord with that
 written license.
  
 The following legend is applicable only to US Government
 contracts under FAR:
  
                    RESTRICTED RIGHTS LEGEND
  
 Use, reproduction and disclosure by the US Government is
 subject to restrictions as set forth in subparagraphs (a)
 and (c) of the Commercial Computer Software - Restricted
 Rights clause in FAR 52.227-19.
  
 Gaussian, Inc.
 340 Quinnipiac St., Bldg. 40, Wallingford CT 06492
  
  
 ---------------------------------------------------------------
 Warning -- This program may not be used in any manner that
 competes with the business of Gaussian, Inc. or will provide
 assistance to any competitor of Gaussian, Inc.  The licensee
 of this program is prohibited from giving any competitor of
 Gaussian, Inc. access to this program.  By using this program,
 the user acknowledges that Gaussian, Inc. is engaged in the
 business of creating and licensing software in the field of
 computational chemistry and represents and warrants to the
 licensee that it is not a competitor of Gaussian, Inc. and that
 it will not use this program in any manner prohibited above.
 ---------------------------------------------------------------
  

 Cite this work as:
 Gaussian 16, Revision A.03,
 M. J. Frisch, G. W. Trucks, H. B. Schlegel, G. E. Scuseria, 
 M. A. Robb, J. R. Cheeseman, G. Scalmani, V. Barone, 
 G. A. Petersson, H. Nakatsuji, X. Li, M. Caricato, A. V. Marenich, 
 J. Bloino, B. G. Janesko, R. Gomperts, B. Mennucci, H. P. Hratchian, 
 J. V. Ortiz, A. F. Izmaylov, J. L. Sonnenberg, D. Williams-Young, 
 F. Ding, F. Lipparini, F. Egidi, J. Goings, B. Peng, A. Petrone, 
 T. Henderson, D. Ranasinghe, V. G. Zakrzewski, J. Gao, N. Rega, 
 G. Zheng, W. Liang, M. Hada, M. Ehara, K. Toyota, R. Fukuda, 
 J. Hasegawa, M. Ishida, T. Nakajima, Y. Honda, O. Kitao, H. Nakai, 
 T. Vreven, K. Throssell, J. A. Montgomery, Jr., J. E. Peralta, 
 F. Ogliaro, M. J. Bearpark, J. J. Heyd, E. N. Brothers, K. N. Kudin, 
 V. N. Staroverov, T. A. Keith, R. Kobayashi, J. Normand, 
 K. Raghavachari, A. P. Rendell, J. C. Burant, S. S. Iyengar, 
 J. Tomasi, M. Cossi, J. M. Millam, M. Klene, C. Adamo, R. Cammi, 
 J. W. Ochterski, R. L. Martin, K. Morokuma, O. Farkas, 
 J. B. Foresman, and D. J. Fox, Gaussian, Inc., Wallingford CT, 2016.
 
 ******************************************
 Gaussian 16:  ES64L-G16RevA.03 25-Dec-2016
                26-Jan-2021 
 ******************************************
 %nproc=1
 Will use up to    1 processors via shared memory.
 %mem=1gb
 %chk=n2.chk
 --------------------------------------
 #p uhf/cc-pvdz guess(fragment=2, only)
 --------------------------------------
 1/38=1,62=2,160=20,172=1/1;
 2/12=2,17=6,18=5,40=1/2;
 1/38=1,53=2,62=2,63=1,160=20/22;
 3/5=16,11=2,25=1,30=1,89=1,116=2/1,2;
 4//1;
 6/7=3,28=1/1;
 1/53=2,62=2,63=1,160=20/22;
 3/5=7,6=11,11=2,25=1,30=1,82=7,89=1,116=2/1,2;
 4//1;
 6/7=3,28=1/1;
 1/53=2,62=2,63=1,160=20/22(-3);
 99/5=5/99;
 Leave Link    1 at Tue Jan 26 19:46:39 2021, MaxMem=   134217728 cpu:               0.0 elap:               0.0
 (Enter /home/wsr/g16/l101.exe)
 -----
 title
 -----
 Symbolic Z-matrix:
 Charge =  0 Multiplicity = 1 in supermolecule
 Charge =  0 Multiplicity = 4 in fragment      1.
 Charge =  0 Multiplicity =-4 in fragment      2.
 N(fragment=1)         0.        0.        0. 
 N(fragment=2)         0.        0.        0.9 
 
 ITRead=  0  0
 MicOpt= -1 -1
 NAtoms=      2 NQM=        2 NQMF=       0 NMMI=      0 NMMIF=      0
                NMic=       0 NMicF=      0.
                    Isotopes and Nuclear Properties:
 (Nuclear quadrupole moments (NQMom) in fm**2, nuclear magnetic moments (NMagM)
  in nuclear magnetons)

  Atom         1           2
 IAtWgt=          14          14
 AtmWgt=  14.0030740  14.0030740
 NucSpn=           2           2
 AtZEff=  -0.0000000  -0.0000000
 NQMom=    2.0440000   2.0440000
 NMagM=    0.4037610   0.4037610
 AtZNuc=   7.0000000   7.0000000
 Leave Link  101 at Tue Jan 26 19:46:39 2021, MaxMem=   134217728 cpu:               0.1 elap:               0.1
 (Enter /home/wsr/g16/l202.exe)
                          Input orientation:                          
 ---------------------------------------------------------------------
 Center     Atomic      Atomic             Coordinates (Angstroms)
 Number     Number       Type             X           Y           Z
 ---------------------------------------------------------------------
      1          7           0        0.000000    0.000000    0.000000
      2          7           0        0.000000    0.000000    0.900000
 ---------------------------------------------------------------------
 Stoichiometry    N2
 Framework group  D*H[C*(N.N)]
 Deg. of freedom     1
 Full point group                 D*H     NOp   8
 Largest Abelian subgroup         D2H     NOp   8
 Largest concise Abelian subgroup C2      NOp   2
                         Standard orientation:                         
 ---------------------------------------------------------------------
 Center     Atomic      Atomic             Coordinates (Angstroms)
 Number     Number       Type             X           Y           Z
 ---------------------------------------------------------------------
      1          7           0        0.000000    0.000000    0.450000
      2          7           0        0.000000    0.000000   -0.450000
 ---------------------------------------------------------------------
 Rotational constants (GHZ):           0.0000000          89.1125338          89.1125338
 Mismatch for IA=      1 IOp=  2 Frag=      1 JA=      2 Frag=      2
 Mismatch for IA=      2 IOp=  2 Frag=      2 JA=      1 Frag=      1
 Symmetry turned off in CkCPSy: fragments do not conform to real system point group.
 Returning to input orientation because symmetry turned off.
 Leave Link  202 at Tue Jan 26 19:46:39 2021, MaxMem=   134217728 cpu:               0.0 elap:               0.0
 (Enter /home/wsr/g16/l122.exe)
 Fragment guess: doing full-system calculation.
 Leave Link  122 at Tue Jan 26 19:46:39 2021, MaxMem=   134217728 cpu:               0.0 elap:               0.0
 (Enter /home/wsr/g16/l301.exe)
 Standard basis: CC-pVDZ (5D, 7F)
 Ernie: Thresh=  0.10000D-02 Tol=  0.10000D-05 Strict=F.
 Ernie:  4 primitive shells out of 44 were deleted.
    28 basis functions,    66 primitive gaussians,    30 cartesian basis functions
     7 alpha electrons        7 beta electrons
       nuclear repulsion energy        28.8107592612 Hartrees.
 IExCor=    0 DFT=F Ex=HF Corr=None ExCW=0 ScaHFX=  1.000000
 ScaDFX=  1.000000  1.000000  1.000000  1.000000 ScalE2=  1.000000  1.000000
 IRadAn=      5 IRanWt=     -1 IRanGd=            0 ICorTp=0 IEmpDi=  4
 NAtoms=    2 NActive=    2 NUniq=    2 SFac= 1.00D+00 NAtFMM=   60 NAOKFM=F Big=F
 Integral buffers will be    131072 words long.
 Raffenetti 2 integral format.
 Two-electron integral symmetry is turned off.
 Leave Link  301 at Tue Jan 26 19:46:39 2021, MaxMem=   134217728 cpu:               0.0 elap:               0.1
 (Enter /home/wsr/g16/l302.exe)
 NPDir=0 NMtPBC=     1 NCelOv=     1 NCel=       1 NClECP=     1 NCelD=      1
         NCelK=      1 NCelE2=     1 NClLst=     1 CellRange=     0.0.
 One-electron integrals computed using PRISM.
 NBasis=    28 RedAO= T EigKep=  2.61D-03  NBF=    28
 NBsUse=    28 1.00D-06 EigRej= -1.00D+00 NBFU=    28
 Leave Link  302 at Tue Jan 26 19:46:39 2021, MaxMem=   134217728 cpu:               0.1 elap:               0.1
 (Enter /home/wsr/g16/l401.exe)
 ExpMin= 2.19D-01 ExpMax= 9.05D+03 ExpMxC= 3.09D+02 IAcc=3 IRadAn=         5 AccDes= 0.00D+00
 Harris functional with IExCor=  205 and IRadAn=       5 diagonalized for initial guess.
 HarFok:  IExCor=  205 AccDes= 0.00D+00 IRadAn=         5 IDoV= 1 UseB2=F ITyADJ=14
 ICtDFT=  3500011 ScaDFX=  1.000000  1.000000  1.000000  1.000000
 FoFCou: FMM=F IPFlag=           0 FMFlag=      100000 FMFlg1=           0
         NFxFlg=           0 DoJE=T BraDBF=F KetDBF=T FulRan=T
         wScrn=  0.000000 ICntrl=       500 IOpCl=  0 I1Cent=   200000004 NGrid=           0
         NMat0=    1 NMatS0=      1 NMatT0=    0 NMatD0=    1 NMtDS0=    0 NMtDT0=    0
 Symmetry not used in FoFCou.
 Harris En= -108.752284980490    
 JPrj=0 DoOrth=F DoCkMO=F.
 Initial guess <Sx>= 0.0000 <Sy>= 0.0000 <Sz>= 0.0000 <S**2>= 0.0000 S= 0.0000
 Leave Link  401 at Tue Jan 26 19:46:39 2021, MaxMem=   134217728 cpu:               0.2 elap:               0.2
 (Enter /home/wsr/g16/l601.exe)
 Copying SCF densities to generalized density rwf, IOpCl= 1 IROHF=0.

 **********************************************************************

            Population analysis using the SCF density.

 **********************************************************************

 Alpha  occ. eigenvalues --  -14.15017 -14.13894  -1.32437  -0.61466  -0.61466
 Alpha  occ. eigenvalues --   -0.51582  -0.48524
 Alpha virt. eigenvalues --   -0.04786  -0.04786   0.37260   0.44691   0.44691
 Alpha virt. eigenvalues --    0.45110   0.66132   0.68221   0.68221   0.97770
 Alpha virt. eigenvalues --    1.27704   1.27704   1.48930   1.63261   1.63261
 Alpha virt. eigenvalues --    1.97241   1.97241   2.47733   2.68677   2.68677
 Alpha virt. eigenvalues --    3.40776
  Beta  occ. eigenvalues --  -14.15017 -14.13894  -1.32437  -0.61466  -0.61466
  Beta  occ. eigenvalues --   -0.51582  -0.48524
  Beta virt. eigenvalues --   -0.04786  -0.04786   0.37260   0.44691   0.44691
  Beta virt. eigenvalues --    0.45110   0.66132   0.68221   0.68221   0.97770
  Beta virt. eigenvalues --    1.27704   1.27704   1.48930   1.63261   1.63261
  Beta virt. eigenvalues --    1.97241   1.97241   2.47733   2.68677   2.68677
  Beta virt. eigenvalues --    3.40776
     Alpha Molecular Orbital Coefficients:
                           1         2         3         4         5
                           O         O         O         O         O
     Eigenvalues --   -14.15017 -14.13894  -1.32437  -0.61466  -0.61466
   1 1   N  1S          0.70210   0.70530  -0.18636   0.00000  -0.00000
   2        2S          0.01766   0.03094   0.31676   0.00000  -0.00000
   3        3S         -0.00433  -0.02829   0.12738  -0.00000   0.00000
   4        4PX         0.00000  -0.00000   0.00000  -0.01030   0.48901
   5        4PY        -0.00000   0.00000   0.00000   0.48901   0.01030
   6        4PZ         0.00262   0.01036   0.30527   0.00000   0.00000
   7        5PX        -0.00000   0.00000  -0.00000  -0.00341   0.16212
   8        5PY         0.00000  -0.00000  -0.00000   0.16212   0.00341
   9        5PZ        -0.00043  -0.00867   0.01529   0.00000   0.00000
  10        6D 0        0.00311   0.00308   0.04466   0.00000   0.00000
  11        6D+1       -0.00000   0.00000  -0.00000  -0.00102   0.04823
  12        6D-1       -0.00000  -0.00000  -0.00000   0.04823   0.00102
  13        6D+2        0.00000  -0.00000   0.00000   0.00000  -0.00000
  14        6D-2        0.00000   0.00000  -0.00000  -0.00000  -0.00000
  15 2   N  1S          0.70210  -0.70530  -0.18636   0.00000   0.00000
  16        2S          0.01766  -0.03094   0.31676   0.00000   0.00000
  17        3S         -0.00433   0.02829   0.12738  -0.00000  -0.00000
  18        4PX        -0.00000   0.00000   0.00000  -0.01030   0.48901
  19        4PY         0.00000  -0.00000   0.00000   0.48901   0.01030
  20        4PZ        -0.00262   0.01036  -0.30527  -0.00000   0.00000
  21        5PX         0.00000  -0.00000   0.00000  -0.00341   0.16212
  22        5PY        -0.00000   0.00000   0.00000   0.16212   0.00341
  23        5PZ         0.00043  -0.00867  -0.01529  -0.00000   0.00000
  24        6D 0        0.00311  -0.00308   0.04466   0.00000  -0.00000
  25        6D+1       -0.00000   0.00000  -0.00000   0.00102  -0.04823
  26        6D-1       -0.00000   0.00000  -0.00000  -0.04823  -0.00102
  27        6D+2        0.00000  -0.00000   0.00000  -0.00000   0.00000
  28        6D-2       -0.00000  -0.00000   0.00000   0.00000  -0.00000
                           6         7         8         9        10
                           O         O         V         V         V
     Eigenvalues --    -0.51582  -0.48524  -0.04786  -0.04786   0.37260
   1 1   N  1S         -0.14357   0.05788  -0.00000   0.00000  -0.09090
   2        2S          0.30583  -0.12919  -0.00000  -0.00000   0.22210
   3        3S          0.35036  -0.35209  -0.00000   0.00000   6.50886
   4        4PX        -0.00000  -0.00000  -0.37382   0.39781  -0.00000
   5        4PY         0.00000  -0.00000   0.39781   0.37382   0.00000
   6        4PZ        -0.26282   0.45047  -0.00000   0.00000  -0.06527
   7        5PX        -0.00000  -0.00000  -0.44819   0.47695   0.00000
   8        5PY         0.00000  -0.00000   0.47695   0.44819   0.00000
   9        5PZ        -0.15626   0.14771  -0.00000  -0.00000   3.35486
  10        6D 0       -0.02368   0.03178   0.00000  -0.00000   0.03691
  11        6D+1       -0.00000  -0.00000   0.00543  -0.00578   0.00000
  12        6D-1        0.00000  -0.00000  -0.00578  -0.00543  -0.00000
  13        6D+2        0.00000   0.00000  -0.00000   0.00000   0.00000
  14        6D-2       -0.00000   0.00000  -0.00000   0.00000   0.00000
  15 2   N  1S          0.14357   0.05788  -0.00000   0.00000   0.09090
  16        2S         -0.30583  -0.12919  -0.00000  -0.00000  -0.22210
  17        3S         -0.35036  -0.35209   0.00000   0.00000  -6.50886
  18        4PX        -0.00000   0.00000   0.37382  -0.39781  -0.00000
  19        4PY        -0.00000  -0.00000  -0.39781  -0.37382  -0.00000
  20        4PZ        -0.26282  -0.45047   0.00000  -0.00000  -0.06527
  21        5PX        -0.00000   0.00000   0.44819  -0.47695   0.00000
  22        5PY        -0.00000   0.00000  -0.47695  -0.44819   0.00000
  23        5PZ        -0.15626  -0.14771  -0.00000   0.00000   3.35486
  24        6D 0        0.02368   0.03178   0.00000  -0.00000  -0.03691
  25        6D+1        0.00000  -0.00000   0.00543  -0.00578  -0.00000
  26        6D-1       -0.00000   0.00000  -0.00578  -0.00543   0.00000
  27        6D+2       -0.00000   0.00000  -0.00000   0.00000  -0.00000
  28        6D-2        0.00000   0.00000  -0.00000   0.00000  -0.00000
                          11        12        13        14        15
                           V         V         V         V         V
     Eigenvalues --     0.44691   0.44691   0.45110   0.66132   0.68221
   1 1   N  1S         -0.00000   0.00000  -0.02389  -0.03978  -0.00000
   2        2S         -0.00000  -0.00000  -0.23892   1.03560   0.00000
   3        3S         -0.00000  -0.00000  -0.09785  -0.90230  -0.00000
   4        4PX        -0.46634  -0.28673   0.00000  -0.00000   0.23392
   5        4PY         0.28673  -0.46634  -0.00000   0.00000  -0.63484
   6        4PZ        -0.00000  -0.00000  -0.36662  -0.29580  -0.00000
   7        5PX         0.53577   0.32942  -0.00000   0.00000  -0.49316
   8        5PY        -0.32942   0.53577   0.00000  -0.00000   1.33841
   9        5PZ         0.00000   0.00000   1.12701   0.09255   0.00000
  10        6D 0       -0.00000  -0.00000  -0.03206   0.06085   0.00000
  11        6D+1       -0.06892  -0.04238   0.00000   0.00000  -0.03370
  12        6D-1        0.04238  -0.06892  -0.00000  -0.00000   0.09145
  13        6D+2        0.00000   0.00000   0.00000  -0.00000   0.00000
  14        6D-2       -0.00000  -0.00000   0.00000   0.00000   0.00000
  15 2   N  1S         -0.00000  -0.00000  -0.02389  -0.03978  -0.00000
  16        2S         -0.00000  -0.00000  -0.23892   1.03560   0.00000
  17        3S         -0.00000   0.00000  -0.09785  -0.90230  -0.00000
  18        4PX        -0.46634  -0.28673   0.00000   0.00000  -0.23392
  19        4PY         0.28673  -0.46634  -0.00000  -0.00000   0.63484
  20        4PZ         0.00000   0.00000   0.36662   0.29580   0.00000
  21        5PX         0.53577   0.32942  -0.00000  -0.00000   0.49316
  22        5PY        -0.32942   0.53577   0.00000   0.00000  -1.33841
  23        5PZ        -0.00000  -0.00000  -1.12701  -0.09255  -0.00000
  24        6D 0       -0.00000  -0.00000  -0.03206   0.06085   0.00000
  25        6D+1        0.06892   0.04238  -0.00000   0.00000  -0.03370
  26        6D-1       -0.04238   0.06892   0.00000  -0.00000   0.09145
  27        6D+2       -0.00000  -0.00000   0.00000   0.00000   0.00000
  28        6D-2       -0.00000  -0.00000  -0.00000   0.00000  -0.00000
                          16        17        18        19        20
                           V         V         V         V         V
     Eigenvalues --     0.68221   0.97770   1.27704   1.27704   1.48930
   1 1   N  1S         -0.00000  -0.06451   0.00000   0.00000   0.02887
   2        2S          0.00000  -0.48238  -0.00000  -0.00000  -1.28162
   3        3S          0.00000   4.58466   0.00000   0.00000   9.48732
   4        4PX        -0.63484   0.00000  -0.00000   0.00000   0.00000
   5        4PY        -0.23392  -0.00000   0.00000  -0.00000   0.00000
   6        4PZ        -0.00000   0.74326  -0.00000   0.00000  -0.14608
   7        5PX         1.33841  -0.00000   0.00000   0.00000  -0.00000
   8        5PY         0.49316   0.00000  -0.00000   0.00000  -0.00000
   9        5PZ         0.00000   1.46516   0.00000  -0.00000   3.73205
  10        6D 0        0.00000  -0.22496   0.00000  -0.00000   0.40691
  11        6D+1        0.09145  -0.00000   0.00000  -0.00000   0.00000
  12        6D-1        0.03370   0.00000  -0.00000   0.00000  -0.00000
  13        6D+2        0.00000   0.00000   0.61856  -0.00000   0.00000
  14        6D-2       -0.00000   0.00000   0.00000   0.61856   0.00000
  15 2   N  1S         -0.00000   0.06451  -0.00000   0.00000  -0.02887
  16        2S          0.00000   0.48238  -0.00000  -0.00000   1.28162
  17        3S         -0.00000  -4.58466  -0.00000   0.00000  -9.48732
  18        4PX         0.63484   0.00000   0.00000   0.00000   0.00000
  19        4PY         0.23392  -0.00000  -0.00000  -0.00000  -0.00000
  20        4PZ         0.00000   0.74326  -0.00000  -0.00000  -0.14608
  21        5PX        -1.33841  -0.00000  -0.00000  -0.00000  -0.00000
  22        5PY        -0.49316   0.00000   0.00000   0.00000   0.00000
  23        5PZ         0.00000   1.46516   0.00000   0.00000   3.73205
  24        6D 0        0.00000   0.22496  -0.00000  -0.00000  -0.40691
  25        6D+1        0.09145   0.00000   0.00000   0.00000  -0.00000
  26        6D-1        0.03370  -0.00000  -0.00000  -0.00000  -0.00000
  27        6D+2        0.00000   0.00000   0.61856  -0.00000  -0.00000
  28        6D-2       -0.00000  -0.00000   0.00000   0.61856  -0.00000
                          21        22        23        24        25
                           V         V         V         V         V
     Eigenvalues --     1.63261   1.63261   1.97241   1.97241   2.47733
   1 1   N  1S         -0.00000  -0.00000   0.00000  -0.00000  -0.17696
   2        2S          0.00000  -0.00000   0.00000  -0.00000  -0.95111
   3        3S          0.00000   0.00000  -0.00000   0.00000   0.43207
   4        4PX         0.21653  -0.28187   0.00000  -0.00000  -0.00000
   5        4PY        -0.28187  -0.21653  -0.00000  -0.00000  -0.00000
   6        4PZ        -0.00000  -0.00000   0.00000   0.00000  -0.21655
   7        5PX        -0.06162   0.08022  -0.00000   0.00000  -0.00000
   8        5PY         0.08022   0.06162   0.00000  -0.00000  -0.00000
   9        5PZ         0.00000   0.00000  -0.00000  -0.00000   0.79825
  10        6D 0        0.00000   0.00000  -0.00000   0.00000   1.03030
  11        6D+1       -0.37910   0.49352   0.00000  -0.00000  -0.00000
  12        6D-1        0.49352   0.37910   0.00000  -0.00000  -0.00000
  13        6D+2        0.00000  -0.00000   0.84928   0.00000  -0.00000
  14        6D-2       -0.00000   0.00000  -0.00000   0.84928  -0.00000
  15 2   N  1S          0.00000  -0.00000  -0.00000  -0.00000  -0.17696
  16        2S         -0.00000  -0.00000  -0.00000  -0.00000  -0.95111
  17        3S         -0.00000   0.00000   0.00000   0.00000   0.43207
  18        4PX         0.21653  -0.28187  -0.00000   0.00000   0.00000
  19        4PY        -0.28187  -0.21653  -0.00000   0.00000   0.00000
  20        4PZ        -0.00000  -0.00000   0.00000  -0.00000   0.21655
  21        5PX        -0.06162   0.08022  -0.00000  -0.00000   0.00000
  22        5PY         0.08022   0.06162  -0.00000   0.00000   0.00000
  23        5PZ         0.00000   0.00000  -0.00000   0.00000  -0.79825
  24        6D 0       -0.00000  -0.00000   0.00000   0.00000   1.03030
  25        6D+1        0.37910  -0.49352   0.00000  -0.00000  -0.00000
  26        6D-1       -0.49352  -0.37910   0.00000  -0.00000  -0.00000
  27        6D+2        0.00000  -0.00000  -0.84928  -0.00000   0.00000
  28        6D-2       -0.00000   0.00000   0.00000  -0.84928   0.00000
                          26        27        28
                           V         V         V
     Eigenvalues --     2.68677   2.68677   3.40776
   1 1   N  1S         -0.00000  -0.00000   0.12984
   2        2S         -0.00000  -0.00000   1.66362
   3        3S          0.00000   0.00000   2.94190
   4        4PX        -0.10468   0.60672   0.00000
   5        4PY         0.60672   0.10468   0.00000
   6        4PZ        -0.00000  -0.00000   1.67328
   7        5PX        -0.11272   0.65334   0.00000
   8        5PY         0.65334   0.11272   0.00000
   9        5PZ         0.00000   0.00000   1.31402
  10        6D 0       -0.00000   0.00000   1.16443
  11        6D+1       -0.23075   1.33744   0.00000
  12        6D-1        1.33744   0.23075   0.00000
  13        6D+2        0.00000  -0.00000  -0.00000
  14        6D-2        0.00000   0.00000  -0.00000
  15 2   N  1S          0.00000  -0.00000  -0.12984
  16        2S          0.00000  -0.00000  -1.66362
  17        3S         -0.00000   0.00000  -2.94190
  18        4PX         0.10468  -0.60672  -0.00000
  19        4PY        -0.60672  -0.10468  -0.00000
  20        4PZ        -0.00000  -0.00000   1.67328
  21        5PX         0.11272  -0.65334  -0.00000
  22        5PY        -0.65334  -0.11272  -0.00000
  23        5PZ         0.00000  -0.00000   1.31402
  24        6D 0        0.00000   0.00000  -1.16443
  25        6D+1       -0.23075   1.33744   0.00000
  26        6D-1        1.33744   0.23075   0.00000
  27        6D+2        0.00000  -0.00000   0.00000
  28        6D-2       -0.00000  -0.00000   0.00000
     Beta Molecular Orbital Coefficients:
                           1         2         3         4         5
                           O         O         O         O         O
     Eigenvalues --   -14.15017 -14.13894  -1.32437  -0.61466  -0.61466
   1 1   N  1S          0.70210   0.70530  -0.18636   0.00000  -0.00000
   2        2S          0.01766   0.03094   0.31676   0.00000  -0.00000
   3        3S         -0.00433  -0.02829   0.12738  -0.00000   0.00000
   4        4PX         0.00000  -0.00000   0.00000  -0.01030   0.48901
   5        4PY        -0.00000   0.00000   0.00000   0.48901   0.01030
   6        4PZ         0.00262   0.01036   0.30527   0.00000   0.00000
   7        5PX        -0.00000   0.00000  -0.00000  -0.00341   0.16212
   8        5PY         0.00000  -0.00000  -0.00000   0.16212   0.00341
   9        5PZ        -0.00043  -0.00867   0.01529   0.00000   0.00000
  10        6D 0        0.00311   0.00308   0.04466   0.00000   0.00000
  11        6D+1       -0.00000   0.00000  -0.00000  -0.00102   0.04823
  12        6D-1       -0.00000  -0.00000  -0.00000   0.04823   0.00102
  13        6D+2        0.00000  -0.00000   0.00000   0.00000  -0.00000
  14        6D-2        0.00000   0.00000  -0.00000  -0.00000  -0.00000
  15 2   N  1S          0.70210  -0.70530  -0.18636   0.00000   0.00000
  16        2S          0.01766  -0.03094   0.31676   0.00000   0.00000
  17        3S         -0.00433   0.02829   0.12738  -0.00000  -0.00000
  18        4PX        -0.00000   0.00000   0.00000  -0.01030   0.48901
  19        4PY         0.00000  -0.00000   0.00000   0.48901   0.01030
  20        4PZ        -0.00262   0.01036  -0.30527  -0.00000   0.00000
  21        5PX         0.00000  -0.00000   0.00000  -0.00341   0.16212
  22        5PY        -0.00000   0.00000   0.00000   0.16212   0.00341
  23        5PZ         0.00043  -0.00867  -0.01529  -0.00000   0.00000
  24        6D 0        0.00311  -0.00308   0.04466   0.00000  -0.00000
  25        6D+1       -0.00000   0.00000  -0.00000   0.00102  -0.04823
  26        6D-1       -0.00000   0.00000  -0.00000  -0.04823  -0.00102
  27        6D+2        0.00000  -0.00000   0.00000  -0.00000   0.00000
  28        6D-2       -0.00000  -0.00000   0.00000   0.00000  -0.00000
                           6         7         8         9        10
                           O         O         V         V         V
     Eigenvalues --    -0.51582  -0.48524  -0.04786  -0.04786   0.37260
   1 1   N  1S         -0.14357   0.05788  -0.00000   0.00000  -0.09090
   2        2S          0.30583  -0.12919  -0.00000  -0.00000   0.22210
   3        3S          0.35036  -0.35209  -0.00000   0.00000   6.50886
   4        4PX        -0.00000  -0.00000  -0.37382   0.39781  -0.00000
   5        4PY         0.00000  -0.00000   0.39781   0.37382   0.00000
   6        4PZ        -0.26282   0.45047  -0.00000   0.00000  -0.06527
   7        5PX        -0.00000  -0.00000  -0.44819   0.47695   0.00000
   8        5PY         0.00000  -0.00000   0.47695   0.44819   0.00000
   9        5PZ        -0.15626   0.14771  -0.00000  -0.00000   3.35486
  10        6D 0       -0.02368   0.03178   0.00000  -0.00000   0.03691
  11        6D+1       -0.00000  -0.00000   0.00543  -0.00578   0.00000
  12        6D-1        0.00000  -0.00000  -0.00578  -0.00543  -0.00000
  13        6D+2        0.00000   0.00000  -0.00000   0.00000   0.00000
  14        6D-2       -0.00000   0.00000  -0.00000   0.00000   0.00000
  15 2   N  1S          0.14357   0.05788  -0.00000   0.00000   0.09090
  16        2S         -0.30583  -0.12919  -0.00000  -0.00000  -0.22210
  17        3S         -0.35036  -0.35209   0.00000   0.00000  -6.50886
  18        4PX        -0.00000   0.00000   0.37382  -0.39781  -0.00000
  19        4PY        -0.00000  -0.00000  -0.39781  -0.37382  -0.00000
  20        4PZ        -0.26282  -0.45047   0.00000  -0.00000  -0.06527
  21        5PX        -0.00000   0.00000   0.44819  -0.47695   0.00000
  22        5PY        -0.00000   0.00000  -0.47695  -0.44819   0.00000
  23        5PZ        -0.15626  -0.14771  -0.00000   0.00000   3.35486
  24        6D 0        0.02368   0.03178   0.00000  -0.00000  -0.03691
  25        6D+1        0.00000  -0.00000   0.00543  -0.00578  -0.00000
  26        6D-1       -0.00000   0.00000  -0.00578  -0.00543   0.00000
  27        6D+2       -0.00000   0.00000  -0.00000   0.00000  -0.00000
  28        6D-2        0.00000   0.00000  -0.00000   0.00000  -0.00000
                          11        12        13        14        15
                           V         V         V         V         V
     Eigenvalues --     0.44691   0.44691   0.45110   0.66132   0.68221
   1 1   N  1S         -0.00000   0.00000  -0.02389  -0.03978  -0.00000
   2        2S         -0.00000  -0.00000  -0.23892   1.03560   0.00000
   3        3S         -0.00000  -0.00000  -0.09785  -0.90230  -0.00000
   4        4PX        -0.46634  -0.28673   0.00000  -0.00000   0.23392
   5        4PY         0.28673  -0.46634  -0.00000   0.00000  -0.63484
   6        4PZ        -0.00000  -0.00000  -0.36662  -0.29580  -0.00000
   7        5PX         0.53577   0.32942  -0.00000   0.00000  -0.49316
   8        5PY        -0.32942   0.53577   0.00000  -0.00000   1.33841
   9        5PZ         0.00000   0.00000   1.12701   0.09255   0.00000
  10        6D 0       -0.00000  -0.00000  -0.03206   0.06085   0.00000
  11        6D+1       -0.06892  -0.04238   0.00000   0.00000  -0.03370
  12        6D-1        0.04238  -0.06892  -0.00000  -0.00000   0.09145
  13        6D+2        0.00000   0.00000   0.00000  -0.00000   0.00000
  14        6D-2       -0.00000  -0.00000   0.00000   0.00000   0.00000
  15 2   N  1S         -0.00000  -0.00000  -0.02389  -0.03978  -0.00000
  16        2S         -0.00000  -0.00000  -0.23892   1.03560   0.00000
  17        3S         -0.00000   0.00000  -0.09785  -0.90230  -0.00000
  18        4PX        -0.46634  -0.28673   0.00000   0.00000  -0.23392
  19        4PY         0.28673  -0.46634  -0.00000  -0.00000   0.63484
  20        4PZ         0.00000   0.00000   0.36662   0.29580   0.00000
  21        5PX         0.53577   0.32942  -0.00000  -0.00000   0.49316
  22        5PY        -0.32942   0.53577   0.00000   0.00000  -1.33841
  23        5PZ        -0.00000  -0.00000  -1.12701  -0.09255  -0.00000
  24        6D 0       -0.00000  -0.00000  -0.03206   0.06085   0.00000
  25        6D+1        0.06892   0.04238  -0.00000   0.00000  -0.03370
  26        6D-1       -0.04238   0.06892   0.00000  -0.00000   0.09145
  27        6D+2       -0.00000  -0.00000   0.00000   0.00000   0.00000
  28        6D-2       -0.00000  -0.00000  -0.00000   0.00000  -0.00000
                          16        17        18        19        20
                           V         V         V         V         V
     Eigenvalues --     0.68221   0.97770   1.27704   1.27704   1.48930
   1 1   N  1S         -0.00000  -0.06451   0.00000   0.00000   0.02887
   2        2S          0.00000  -0.48238  -0.00000  -0.00000  -1.28162
   3        3S          0.00000   4.58466   0.00000   0.00000   9.48732
   4        4PX        -0.63484   0.00000  -0.00000   0.00000   0.00000
   5        4PY        -0.23392  -0.00000   0.00000  -0.00000   0.00000
   6        4PZ        -0.00000   0.74326  -0.00000   0.00000  -0.14608
   7        5PX         1.33841  -0.00000   0.00000   0.00000  -0.00000
   8        5PY         0.49316   0.00000  -0.00000   0.00000  -0.00000
   9        5PZ         0.00000   1.46516   0.00000  -0.00000   3.73205
  10        6D 0        0.00000  -0.22496   0.00000  -0.00000   0.40691
  11        6D+1        0.09145  -0.00000   0.00000  -0.00000   0.00000
  12        6D-1        0.03370   0.00000  -0.00000   0.00000  -0.00000
  13        6D+2        0.00000   0.00000   0.61856  -0.00000   0.00000
  14        6D-2       -0.00000   0.00000   0.00000   0.61856   0.00000
  15 2   N  1S         -0.00000   0.06451  -0.00000   0.00000  -0.02887
  16        2S          0.00000   0.48238  -0.00000  -0.00000   1.28162
  17        3S         -0.00000  -4.58466  -0.00000   0.00000  -9.48732
  18        4PX         0.63484   0.00000   0.00000   0.00000   0.00000
  19        4PY         0.23392  -0.00000  -0.00000  -0.00000  -0.00000
  20        4PZ         0.00000   0.74326  -0.00000  -0.00000  -0.14608
  21        5PX        -1.33841  -0.00000  -0.00000  -0.00000  -0.00000
  22        5PY        -0.49316   0.00000   0.00000   0.00000   0.00000
  23        5PZ         0.00000   1.46516   0.00000   0.00000   3.73205
  24        6D 0        0.00000   0.22496  -0.00000  -0.00000  -0.40691
  25        6D+1        0.09145   0.00000   0.00000   0.00000  -0.00000
  26        6D-1        0.03370  -0.00000  -0.00000  -0.00000  -0.00000
  27        6D+2        0.00000   0.00000   0.61856  -0.00000  -0.00000
  28        6D-2       -0.00000  -0.00000   0.00000   0.61856  -0.00000
                          21        22        23        24        25
                           V         V         V         V         V
     Eigenvalues --     1.63261   1.63261   1.97241   1.97241   2.47733
   1 1   N  1S         -0.00000  -0.00000   0.00000  -0.00000  -0.17696
   2        2S          0.00000  -0.00000   0.00000  -0.00000  -0.95111
   3        3S          0.00000   0.00000  -0.00000   0.00000   0.43207
   4        4PX         0.21653  -0.28187   0.00000  -0.00000  -0.00000
   5        4PY        -0.28187  -0.21653  -0.00000  -0.00000  -0.00000
   6        4PZ        -0.00000  -0.00000   0.00000   0.00000  -0.21655
   7        5PX        -0.06162   0.08022  -0.00000   0.00000  -0.00000
   8        5PY         0.08022   0.06162   0.00000  -0.00000  -0.00000
   9        5PZ         0.00000   0.00000  -0.00000  -0.00000   0.79825
  10        6D 0        0.00000   0.00000  -0.00000   0.00000   1.03030
  11        6D+1       -0.37910   0.49352   0.00000  -0.00000  -0.00000
  12        6D-1        0.49352   0.37910   0.00000  -0.00000  -0.00000
  13        6D+2        0.00000  -0.00000   0.84928   0.00000  -0.00000
  14        6D-2       -0.00000   0.00000  -0.00000   0.84928  -0.00000
  15 2   N  1S          0.00000  -0.00000  -0.00000  -0.00000  -0.17696
  16        2S         -0.00000  -0.00000  -0.00000  -0.00000  -0.95111
  17        3S         -0.00000   0.00000   0.00000   0.00000   0.43207
  18        4PX         0.21653  -0.28187  -0.00000   0.00000   0.00000
  19        4PY        -0.28187  -0.21653  -0.00000   0.00000   0.00000
  20        4PZ        -0.00000  -0.00000   0.00000  -0.00000   0.21655
  21        5PX        -0.06162   0.08022  -0.00000  -0.00000   0.00000
  22        5PY         0.08022   0.06162  -0.00000   0.00000   0.00000
  23        5PZ         0.00000   0.00000  -0.00000   0.00000  -0.79825
  24        6D 0       -0.00000  -0.00000   0.00000   0.00000   1.03030
  25        6D+1        0.37910  -0.49352   0.00000  -0.00000  -0.00000
  26        6D-1       -0.49352  -0.37910   0.00000  -0.00000  -0.00000
  27        6D+2        0.00000  -0.00000  -0.84928  -0.00000   0.00000
  28        6D-2       -0.00000   0.00000   0.00000  -0.84928   0.00000
                          26        27        28
                           V         V         V
     Eigenvalues --     2.68677   2.68677   3.40776
   1 1   N  1S         -0.00000  -0.00000   0.12984
   2        2S         -0.00000  -0.00000   1.66362
   3        3S          0.00000   0.00000   2.94190
   4        4PX        -0.10468   0.60672   0.00000
   5        4PY         0.60672   0.10468   0.00000
   6        4PZ        -0.00000  -0.00000   1.67328
   7        5PX        -0.11272   0.65334   0.00000
   8        5PY         0.65334   0.11272   0.00000
   9        5PZ         0.00000   0.00000   1.31402
  10        6D 0       -0.00000   0.00000   1.16443
  11        6D+1       -0.23075   1.33744   0.00000
  12        6D-1        1.33744   0.23075   0.00000
  13        6D+2        0.00000  -0.00000  -0.00000
  14        6D-2        0.00000   0.00000  -0.00000
  15 2   N  1S          0.00000  -0.00000  -0.12984
  16        2S          0.00000  -0.00000  -1.66362
  17        3S         -0.00000   0.00000  -2.94190
  18        4PX         0.10468  -0.60672  -0.00000
  19        4PY        -0.60672  -0.10468  -0.00000
  20        4PZ        -0.00000  -0.00000   1.67328
  21        5PX         0.11272  -0.65334  -0.00000
  22        5PY        -0.65334  -0.11272  -0.00000
  23        5PZ         0.00000  -0.00000   1.31402
  24        6D 0        0.00000   0.00000  -1.16443
  25        6D+1       -0.23075   1.33744   0.00000
  26        6D-1        1.33744   0.23075   0.00000
  27        6D+2        0.00000  -0.00000   0.00000
  28        6D-2       -0.00000  -0.00000   0.00000
     Alpha Density Matrix:
                           1         2         3         4         5
   1 1   N  1S          1.04908
   2        2S         -0.07619   0.21183
   3        3S         -0.11741   0.19204   0.26376
   4        4PX        -0.00000  -0.00000   0.00000   0.23924
   5        4PY        -0.00000   0.00000   0.00000  -0.00000   0.23924
   6        4PZ         0.01606  -0.04151  -0.21211   0.00000  -0.00000
   7        5PX        -0.00000  -0.00000   0.00000   0.07931   0.00000
   8        5PY         0.00000   0.00000   0.00000   0.00000   0.07931
   9        5PZ         0.02172  -0.06231  -0.10456   0.00000   0.00000
  10        6D 0        0.00127   0.00295  -0.01390   0.00000   0.00000
  11        6D+1        0.00000  -0.00000   0.00000   0.02359   0.00000
  12        6D-1       -0.00000   0.00000   0.00000   0.00000   0.02359
  13        6D+2       -0.00000   0.00000   0.00000  -0.00000   0.00000
  14        6D-2        0.00000  -0.00000  -0.00000  -0.00000  -0.00000
  15 2   N  1S          0.01296  -0.03202   0.02310   0.00000  -0.00000
  16        2S         -0.03202   0.02285  -0.02052   0.00000   0.00000
  17        3S          0.02310  -0.02052   0.01665  -0.00000  -0.00000
  18        4PX        -0.00000  -0.00000   0.00000   0.23924  -0.00000
  19        4PY         0.00000   0.00000   0.00000  -0.00000   0.23924
  20        4PZ         0.07401  -0.11861   0.02736   0.00000   0.00000
  21        5PX        -0.00000  -0.00000   0.00000   0.07931  -0.00000
  22        5PY        -0.00000   0.00000  -0.00000  -0.00000   0.07931
  23        5PZ         0.01092  -0.03381  -0.00445   0.00000   0.00000
  24        6D 0       -0.00988   0.01724   0.00287  -0.00000   0.00000
  25        6D+1        0.00000   0.00000  -0.00000  -0.02359  -0.00000
  26        6D-1       -0.00000  -0.00000  -0.00000   0.00000  -0.02359
  27        6D+2        0.00000  -0.00000  -0.00000   0.00000  -0.00000
  28        6D-2        0.00000  -0.00000  -0.00000  -0.00000   0.00000
                           6         7         8         9        10
   6        4PZ         0.36530
   7        5PX         0.00000   0.02629
   8        5PY        -0.00000   0.00000   0.02629
   9        5PZ         0.11219   0.00000   0.00000   0.04655
  10        6D 0        0.03421   0.00000  -0.00000   0.00905   0.00358
  11        6D+1       -0.00000   0.00782   0.00000   0.00000   0.00000
  12        6D-1       -0.00000   0.00000   0.00782   0.00000   0.00000
  13        6D+2       -0.00000  -0.00000   0.00000  -0.00000   0.00000
  14        6D-2        0.00000  -0.00000  -0.00000   0.00000   0.00000
  15 2   N  1S         -0.07401  -0.00000   0.00000  -0.01092  -0.00988
  16        2S          0.11861   0.00000   0.00000   0.03381   0.01724
  17        3S         -0.02736  -0.00000  -0.00000   0.00445   0.00287
  18        4PX         0.00000   0.07931   0.00000   0.00000   0.00000
  19        4PY        -0.00000   0.00000   0.07931   0.00000   0.00000
  20        4PZ        -0.22694   0.00000   0.00000  -0.03023  -0.02170
  21        5PX         0.00000   0.02629  -0.00000   0.00000   0.00000
  22        5PY         0.00000   0.00000   0.02629   0.00000   0.00000
  23        5PZ        -0.03023   0.00000   0.00000   0.00244  -0.00170
  24        6D 0        0.02170  -0.00000  -0.00000   0.00170   0.00244
  25        6D+1       -0.00000  -0.00782  -0.00000  -0.00000  -0.00000
  26        6D-1        0.00000  -0.00000  -0.00782  -0.00000  -0.00000
  27        6D+2        0.00000   0.00000  -0.00000   0.00000   0.00000
  28        6D-2        0.00000  -0.00000   0.00000   0.00000   0.00000
                          11        12        13        14        15
  11        6D+1        0.00233
  12        6D-1        0.00000   0.00233
  13        6D+2       -0.00000   0.00000   0.00000
  14        6D-2       -0.00000  -0.00000   0.00000   0.00000
  15 2   N  1S         -0.00000  -0.00000   0.00000   0.00000   1.04908
  16        2S          0.00000   0.00000  -0.00000  -0.00000  -0.07619
  17        3S         -0.00000  -0.00000  -0.00000  -0.00000  -0.11741
  18        4PX         0.02359   0.00000  -0.00000  -0.00000   0.00000
  19        4PY         0.00000   0.02359   0.00000  -0.00000   0.00000
  20        4PZ         0.00000   0.00000  -0.00000  -0.00000  -0.01606
  21        5PX         0.00782   0.00000  -0.00000  -0.00000   0.00000
  22        5PY         0.00000   0.00782   0.00000  -0.00000  -0.00000
  23        5PZ         0.00000   0.00000  -0.00000  -0.00000  -0.02172
  24        6D 0       -0.00000   0.00000   0.00000   0.00000   0.00127
  25        6D+1       -0.00233  -0.00000   0.00000   0.00000  -0.00000
  26        6D-1       -0.00000  -0.00233  -0.00000   0.00000  -0.00000
  27        6D+2        0.00000  -0.00000  -0.00000   0.00000   0.00000
  28        6D-2       -0.00000   0.00000   0.00000  -0.00000   0.00000
                          16        17        18        19        20
  16        2S          0.21183
  17        3S          0.19204   0.26376
  18        4PX         0.00000  -0.00000   0.23924
  19        4PY         0.00000  -0.00000  -0.00000   0.23924
  20        4PZ         0.04151   0.21211   0.00000   0.00000   0.36530
  21        5PX         0.00000  -0.00000   0.07931  -0.00000   0.00000
  22        5PY         0.00000  -0.00000  -0.00000   0.07931  -0.00000
  23        5PZ         0.06231   0.10456   0.00000   0.00000   0.11219
  24        6D 0        0.00295  -0.01390  -0.00000   0.00000  -0.03421
  25        6D+1       -0.00000   0.00000  -0.02359  -0.00000   0.00000
  26        6D-1       -0.00000   0.00000   0.00000  -0.02359  -0.00000
  27        6D+2        0.00000  -0.00000   0.00000  -0.00000  -0.00000
  28        6D-2       -0.00000  -0.00000  -0.00000   0.00000  -0.00000
                          21        22        23        24        25
  21        5PX         0.02629
  22        5PY        -0.00000   0.02629
  23        5PZ         0.00000  -0.00000   0.04655
  24        6D 0       -0.00000   0.00000  -0.00905   0.00358
  25        6D+1       -0.00782  -0.00000  -0.00000   0.00000   0.00233
  26        6D-1        0.00000  -0.00782  -0.00000  -0.00000   0.00000
  27        6D+2        0.00000  -0.00000  -0.00000   0.00000  -0.00000
  28        6D-2       -0.00000   0.00000  -0.00000   0.00000   0.00000
                          26        27        28
  26        6D-1        0.00233
  27        6D+2        0.00000   0.00000
  28        6D-2       -0.00000  -0.00000   0.00000
     Beta Density Matrix:
                           1         2         3         4         5
   1 1   N  1S          1.04908
   2        2S         -0.07619   0.21183
   3        3S         -0.11741   0.19204   0.26376
   4        4PX        -0.00000  -0.00000   0.00000   0.23924
   5        4PY        -0.00000   0.00000   0.00000  -0.00000   0.23924
   6        4PZ         0.01606  -0.04151  -0.21211   0.00000  -0.00000
   7        5PX        -0.00000  -0.00000   0.00000   0.07931   0.00000
   8        5PY         0.00000   0.00000   0.00000   0.00000   0.07931
   9        5PZ         0.02172  -0.06231  -0.10456   0.00000   0.00000
  10        6D 0        0.00127   0.00295  -0.01390   0.00000   0.00000
  11        6D+1        0.00000  -0.00000   0.00000   0.02359   0.00000
  12        6D-1       -0.00000   0.00000   0.00000   0.00000   0.02359
  13        6D+2       -0.00000   0.00000   0.00000  -0.00000   0.00000
  14        6D-2        0.00000  -0.00000  -0.00000  -0.00000  -0.00000
  15 2   N  1S          0.01296  -0.03202   0.02310   0.00000  -0.00000
  16        2S         -0.03202   0.02285  -0.02052   0.00000   0.00000
  17        3S          0.02310  -0.02052   0.01665  -0.00000  -0.00000
  18        4PX        -0.00000  -0.00000   0.00000   0.23924  -0.00000
  19        4PY         0.00000   0.00000   0.00000  -0.00000   0.23924
  20        4PZ         0.07401  -0.11861   0.02736   0.00000   0.00000
  21        5PX        -0.00000  -0.00000   0.00000   0.07931  -0.00000
  22        5PY        -0.00000   0.00000  -0.00000  -0.00000   0.07931
  23        5PZ         0.01092  -0.03381  -0.00445   0.00000   0.00000
  24        6D 0       -0.00988   0.01724   0.00287  -0.00000   0.00000
  25        6D+1        0.00000   0.00000  -0.00000  -0.02359  -0.00000
  26        6D-1       -0.00000  -0.00000  -0.00000   0.00000  -0.02359
  27        6D+2        0.00000  -0.00000  -0.00000   0.00000  -0.00000
  28        6D-2        0.00000  -0.00000  -0.00000  -0.00000   0.00000
                           6         7         8         9        10
   6        4PZ         0.36530
   7        5PX         0.00000   0.02629
   8        5PY        -0.00000   0.00000   0.02629
   9        5PZ         0.11219   0.00000   0.00000   0.04655
  10        6D 0        0.03421   0.00000  -0.00000   0.00905   0.00358
  11        6D+1       -0.00000   0.00782   0.00000   0.00000   0.00000
  12        6D-1       -0.00000   0.00000   0.00782   0.00000   0.00000
  13        6D+2       -0.00000  -0.00000   0.00000  -0.00000   0.00000
  14        6D-2        0.00000  -0.00000  -0.00000   0.00000   0.00000
  15 2   N  1S         -0.07401  -0.00000   0.00000  -0.01092  -0.00988
  16        2S          0.11861   0.00000   0.00000   0.03381   0.01724
  17        3S         -0.02736  -0.00000  -0.00000   0.00445   0.00287
  18        4PX         0.00000   0.07931   0.00000   0.00000   0.00000
  19        4PY        -0.00000   0.00000   0.07931   0.00000   0.00000
  20        4PZ        -0.22694   0.00000   0.00000  -0.03023  -0.02170
  21        5PX         0.00000   0.02629  -0.00000   0.00000   0.00000
  22        5PY         0.00000   0.00000   0.02629   0.00000   0.00000
  23        5PZ        -0.03023   0.00000   0.00000   0.00244  -0.00170
  24        6D 0        0.02170  -0.00000  -0.00000   0.00170   0.00244
  25        6D+1       -0.00000  -0.00782  -0.00000  -0.00000  -0.00000
  26        6D-1        0.00000  -0.00000  -0.00782  -0.00000  -0.00000
  27        6D+2        0.00000   0.00000  -0.00000   0.00000   0.00000
  28        6D-2        0.00000  -0.00000   0.00000   0.00000   0.00000
                          11        12        13        14        15
  11        6D+1        0.00233
  12        6D-1        0.00000   0.00233
  13        6D+2       -0.00000   0.00000   0.00000
  14        6D-2       -0.00000  -0.00000   0.00000   0.00000
  15 2   N  1S         -0.00000  -0.00000   0.00000   0.00000   1.04908
  16        2S          0.00000   0.00000  -0.00000  -0.00000  -0.07619
  17        3S         -0.00000  -0.00000  -0.00000  -0.00000  -0.11741
  18        4PX         0.02359   0.00000  -0.00000  -0.00000   0.00000
  19        4PY         0.00000   0.02359   0.00000  -0.00000   0.00000
  20        4PZ         0.00000   0.00000  -0.00000  -0.00000  -0.01606
  21        5PX         0.00782   0.00000  -0.00000  -0.00000   0.00000
  22        5PY         0.00000   0.00782   0.00000  -0.00000  -0.00000
  23        5PZ         0.00000   0.00000  -0.00000  -0.00000  -0.02172
  24        6D 0       -0.00000   0.00000   0.00000   0.00000   0.00127
  25        6D+1       -0.00233  -0.00000   0.00000   0.00000  -0.00000
  26        6D-1       -0.00000  -0.00233  -0.00000   0.00000  -0.00000
  27        6D+2        0.00000  -0.00000  -0.00000   0.00000   0.00000
  28        6D-2       -0.00000   0.00000   0.00000  -0.00000   0.00000
                          16        17        18        19        20
  16        2S          0.21183
  17        3S          0.19204   0.26376
  18        4PX         0.00000  -0.00000   0.23924
  19        4PY         0.00000  -0.00000  -0.00000   0.23924
  20        4PZ         0.04151   0.21211   0.00000   0.00000   0.36530
  21        5PX         0.00000  -0.00000   0.07931  -0.00000   0.00000
  22        5PY         0.00000  -0.00000  -0.00000   0.07931  -0.00000
  23        5PZ         0.06231   0.10456   0.00000   0.00000   0.11219
  24        6D 0        0.00295  -0.01390  -0.00000   0.00000  -0.03421
  25        6D+1       -0.00000   0.00000  -0.02359  -0.00000   0.00000
  26        6D-1       -0.00000   0.00000   0.00000  -0.02359  -0.00000
  27        6D+2        0.00000  -0.00000   0.00000  -0.00000  -0.00000
  28        6D-2       -0.00000  -0.00000  -0.00000   0.00000  -0.00000
                          21        22        23        24        25
  21        5PX         0.02629
  22        5PY        -0.00000   0.02629
  23        5PZ         0.00000  -0.00000   0.04655
  24        6D 0       -0.00000   0.00000  -0.00905   0.00358
  25        6D+1       -0.00782  -0.00000  -0.00000   0.00000   0.00233
  26        6D-1        0.00000  -0.00782  -0.00000  -0.00000   0.00000
  27        6D+2        0.00000  -0.00000  -0.00000   0.00000  -0.00000
  28        6D-2       -0.00000   0.00000  -0.00000   0.00000   0.00000
                          26        27        28
  26        6D-1        0.00233
  27        6D+2        0.00000   0.00000
  28        6D-2       -0.00000  -0.00000   0.00000
    Full Mulliken population analysis:
                           1         2         3         4         5
   1 1   N  1S          2.09816
   2        2S         -0.03298   0.42366
   3        3S         -0.04267   0.30543   0.52752
   4        4PX         0.00000   0.00000   0.00000   0.47848
   5        4PY         0.00000   0.00000   0.00000   0.00000   0.47848
   6        4PZ         0.00000   0.00000   0.00000   0.00000   0.00000
   7        5PX         0.00000   0.00000   0.00000   0.08283   0.00000
   8        5PY         0.00000   0.00000   0.00000   0.00000   0.08283
   9        5PZ         0.00000   0.00000   0.00000   0.00000   0.00000
  10        6D 0        0.00000   0.00000   0.00000   0.00000   0.00000
  11        6D+1        0.00000   0.00000   0.00000   0.00000   0.00000
  12        6D-1        0.00000   0.00000   0.00000   0.00000   0.00000
  13        6D+2        0.00000   0.00000   0.00000   0.00000   0.00000
  14        6D-2        0.00000   0.00000   0.00000   0.00000   0.00000
  15 2   N  1S          0.00001  -0.00406   0.00448   0.00000   0.00000
  16        2S         -0.00406   0.01690  -0.01996   0.00000   0.00000
  17        3S          0.00448  -0.01996   0.02406  -0.00000   0.00000
  18        4PX         0.00000   0.00000  -0.00000   0.11013   0.00000
  19        4PY         0.00000   0.00000   0.00000   0.00000   0.11013
  20        4PZ        -0.01648   0.09945  -0.01401  -0.00000   0.00000
  21        5PX         0.00000   0.00000  -0.00000   0.04991   0.00000
  22        5PY         0.00000   0.00000   0.00000   0.00000   0.04991
  23        5PZ        -0.00324   0.03984   0.00520  -0.00000   0.00000
  24        6D 0       -0.00436   0.01297   0.00065  -0.00000   0.00000
  25        6D+1        0.00000   0.00000  -0.00000   0.02048   0.00000
  26        6D-1        0.00000   0.00000   0.00000   0.00000   0.02048
  27        6D+2        0.00000   0.00000   0.00000  -0.00000   0.00000
  28        6D-2        0.00000   0.00000   0.00000   0.00000  -0.00000
                           6         7         8         9        10
   6        4PZ         0.73060
   7        5PX         0.00000   0.05259
   8        5PY         0.00000   0.00000   0.05259
   9        5PZ         0.11716   0.00000   0.00000   0.09309
  10        6D 0        0.00000   0.00000   0.00000   0.00000   0.00717
  11        6D+1        0.00000   0.00000   0.00000   0.00000   0.00000
  12        6D-1        0.00000   0.00000   0.00000   0.00000   0.00000
  13        6D+2        0.00000   0.00000   0.00000   0.00000   0.00000
  14        6D-2        0.00000   0.00000   0.00000   0.00000   0.00000
  15 2   N  1S         -0.01648  -0.00000   0.00000  -0.00324  -0.00436
  16        2S          0.09945   0.00000   0.00000   0.03984   0.01297
  17        3S         -0.01401  -0.00000   0.00000   0.00520   0.00065
  18        4PX        -0.00000   0.04991   0.00000  -0.00000  -0.00000
  19        4PY         0.00000   0.00000   0.04991   0.00000   0.00000
  20        4PZ         0.17089  -0.00000   0.00000   0.00023   0.00635
  21        5PX        -0.00000   0.03834   0.00000  -0.00000  -0.00000
  22        5PY         0.00000   0.00000   0.03834   0.00000   0.00000
  23        5PZ         0.00023  -0.00000   0.00000   0.00131  -0.00047
  24        6D 0        0.00635  -0.00000   0.00000  -0.00047  -0.00043
  25        6D+1       -0.00000   0.00371   0.00000   0.00000  -0.00000
  26        6D-1        0.00000   0.00000   0.00371   0.00000   0.00000
  27        6D+2        0.00000  -0.00000   0.00000   0.00000  -0.00000
  28        6D-2        0.00000   0.00000  -0.00000   0.00000   0.00000
                          11        12        13        14        15
  11        6D+1        0.00465
  12        6D-1        0.00000   0.00465
  13        6D+2        0.00000   0.00000   0.00000
  14        6D-2        0.00000   0.00000   0.00000   0.00000
  15 2   N  1S         -0.00000   0.00000   0.00000   0.00000   2.09816
  16        2S          0.00000   0.00000   0.00000   0.00000  -0.03298
  17        3S         -0.00000   0.00000   0.00000   0.00000  -0.04267
  18        4PX         0.02048   0.00000  -0.00000   0.00000   0.00000
  19        4PY         0.00000   0.02048   0.00000  -0.00000   0.00000
  20        4PZ        -0.00000   0.00000   0.00000   0.00000   0.00000
  21        5PX         0.00371   0.00000  -0.00000   0.00000   0.00000
  22        5PY         0.00000   0.00371   0.00000  -0.00000   0.00000
  23        5PZ         0.00000   0.00000   0.00000   0.00000   0.00000
  24        6D 0       -0.00000   0.00000   0.00000   0.00000   0.00000
  25        6D+1        0.00195   0.00000  -0.00000   0.00000   0.00000
  26        6D-1        0.00000   0.00195   0.00000  -0.00000   0.00000
  27        6D+2       -0.00000   0.00000  -0.00000   0.00000   0.00000
  28        6D-2        0.00000  -0.00000   0.00000  -0.00000   0.00000
                          16        17        18        19        20
  16        2S          0.42366
  17        3S          0.30543   0.52752
  18        4PX         0.00000   0.00000   0.47848
  19        4PY         0.00000   0.00000   0.00000   0.47848
  20        4PZ         0.00000   0.00000   0.00000   0.00000   0.73060
  21        5PX         0.00000   0.00000   0.08283   0.00000   0.00000
  22        5PY         0.00000   0.00000   0.00000   0.08283   0.00000
  23        5PZ         0.00000   0.00000   0.00000   0.00000   0.11716
  24        6D 0        0.00000   0.00000   0.00000   0.00000   0.00000
  25        6D+1        0.00000   0.00000   0.00000   0.00000   0.00000
  26        6D-1        0.00000   0.00000   0.00000   0.00000   0.00000
  27        6D+2        0.00000   0.00000   0.00000   0.00000   0.00000
  28        6D-2        0.00000   0.00000   0.00000   0.00000   0.00000
                          21        22        23        24        25
  21        5PX         0.05259
  22        5PY         0.00000   0.05259
  23        5PZ         0.00000   0.00000   0.09309
  24        6D 0        0.00000   0.00000   0.00000   0.00717
  25        6D+1        0.00000   0.00000   0.00000   0.00000   0.00465
  26        6D-1        0.00000   0.00000   0.00000   0.00000   0.00000
  27        6D+2        0.00000   0.00000   0.00000   0.00000   0.00000
  28        6D-2        0.00000   0.00000   0.00000   0.00000   0.00000
                          26        27        28
  26        6D-1        0.00465
  27        6D+2        0.00000   0.00000
  28        6D-2        0.00000   0.00000   0.00000
     Gross orbital populations:
                         Total     Alpha     Beta      Spin
   1 1   N  1S          1.99886   0.99943   0.99943   0.00000
   2        2S          0.84125   0.42063   0.42063   0.00000
   3        3S          0.79071   0.39535   0.39535   0.00000
   4        4PX         0.74183   0.37092   0.37092   0.00000
   5        4PY         0.74183   0.37092   0.37092   0.00000
   6        4PZ         1.09417   0.54709   0.54709   0.00000
   7        5PX         0.22738   0.11369   0.11369   0.00000
   8        5PY         0.22738   0.11369   0.11369   0.00000
   9        5PZ         0.25312   0.12656   0.12656   0.00000
  10        6D 0        0.02188   0.01094   0.01094   0.00000
  11        6D+1        0.03079   0.01540   0.01540   0.00000
  12        6D-1        0.03079   0.01540   0.01540   0.00000
  13        6D+2        0.00000   0.00000   0.00000   0.00000
  14        6D-2        0.00000   0.00000   0.00000   0.00000
  15 2   N  1S          1.99886   0.99943   0.99943   0.00000
  16        2S          0.84125   0.42063   0.42063   0.00000
  17        3S          0.79071   0.39535   0.39535   0.00000
  18        4PX         0.74183   0.37092   0.37092   0.00000
  19        4PY         0.74183   0.37092   0.37092   0.00000
  20        4PZ         1.09417   0.54709   0.54709   0.00000
  21        5PX         0.22738   0.11369   0.11369   0.00000
  22        5PY         0.22738   0.11369   0.11369   0.00000
  23        5PZ         0.25312   0.12656   0.12656   0.00000
  24        6D 0        0.02188   0.01094   0.01094   0.00000
  25        6D+1        0.03079   0.01540   0.01540   0.00000
  26        6D-1        0.03079   0.01540   0.01540   0.00000
  27        6D+2        0.00000   0.00000   0.00000   0.00000
  28        6D-2        0.00000   0.00000   0.00000   0.00000
          Condensed to atoms (all electrons):
               1          2
     1  N    5.976828   1.023172
     2  N    1.023172   5.976828
          Atomic-Atomic Spin Densities.
               1          2
     1  N    0.000000   0.000000
     2  N    0.000000   0.000000
 Mulliken charges and spin densities:
               1          2
     1  N    0.000000   0.000000
     2  N   -0.000000   0.000000
 Sum of Mulliken charges =   0.00000   0.00000
 Mulliken charges and spin densities with hydrogens summed into heavy atoms:
               1          2
     1  N    0.000000   0.000000
     2  N   -0.000000   0.000000
         Mulliken charges and spin densities condensed to fragments:
      1      0.000000      0.000000
      2     -0.000000      0.000000
 N-N= 2.881075926120D+01 E-N=-3.172077723555D+02  KE= 1.117691140287D+02
 Orbital energies and kinetic energies (alpha):
                                 1                 2
   1         O               -14.150170         21.894710
   2         O               -14.138942         22.027619
   3         O                -1.324375          3.517331
   4         O                -0.614662          2.006735
   5         O                -0.614662          2.006735
   6         O                -0.515823          2.371327
   7         O                -0.485240          2.060101
   8         V                -0.047859          2.301288
   9         V                -0.047859          2.301288
  10         V                 0.372605          1.423099
  11         V                 0.446910          1.981425
  12         V                 0.446910          1.981425
  13         V                 0.451096          1.402452
  14         V                 0.661322          2.889857
  15         V                 0.682210          2.720004
  16         V                 0.682210          2.720004
  17         V                 0.977704          3.665038
  18         V                 1.277035          2.632866
  19         V                 1.277035          2.632866
  20         V                 1.489300          4.050968
  21         V                 1.632610          3.396841
  22         V                 1.632610          3.396841
  23         V                 1.972407          3.286729
  24         V                 1.972407          3.286729
  25         V                 2.477334          4.178034
  26         V                 2.686773          4.577822
  27         V                 2.686773          4.577822
  28         V                 3.407756          8.595938
 Orbital energies and kinetic energies (beta):
                                 1                 2
   1         O               -14.150170         21.894710
   2         O               -14.138942         22.027619
   3         O                -1.324375          3.517331
   4         O                -0.614662          2.006735
   5         O                -0.614662          2.006735
   6         O                -0.515823          2.371327
   7         O                -0.485240          2.060101
   8         V                -0.047859          2.301288
   9         V                -0.047859          2.301288
  10         V                 0.372605          1.423099
  11         V                 0.446910          1.981425
  12         V                 0.446910          1.981425
  13         V                 0.451096          1.402452
  14         V                 0.661322          2.889857
  15         V                 0.682210          2.720004
  16         V                 0.682210          2.720004
  17         V                 0.977704          3.665038
  18         V                 1.277035          2.632866
  19         V                 1.277035          2.632866
  20         V                 1.489300          4.050968
  21         V                 1.632610          3.396841
  22         V                 1.632610          3.396841
  23         V                 1.972407          3.286729
  24         V                 1.972407          3.286729
  25         V                 2.477334          4.178034
  26         V                 2.686773          4.577822
  27         V                 2.686773          4.577822
  28         V                 3.407756          8.595938
 Total kinetic energy from orbitals= 1.117691140287D+02
 --------------------------------------------------------
       Center         ----  Spin Dipole Couplings  ----
                      3XX-RR        3YY-RR        3ZZ-RR
 --------------------------------------------------------
     1   Atom        0.000000      0.000000      0.000000
     2   Atom        0.000000      0.000000      0.000000
 --------------------------------------------------------
                        XY            XZ            YZ
 --------------------------------------------------------
     1   Atom        0.000000      0.000000      0.000000
     2   Atom        0.000000      0.000000      0.000000
 --------------------------------------------------------


 ---------------------------------------------------------------------------------
              Anisotropic Spin Dipole Couplings in Principal Axis System
 ---------------------------------------------------------------------------------

       Atom             a.u.   MegaHertz   Gauss  10(-4) cm-1        Axes

              Baa     0.0000     0.000     0.000     0.000  1.0000  0.0000  0.0000
     1 N(14)  Bbb     0.0000     0.000     0.000     0.000 -0.0000  1.0000  0.0000
              Bcc     0.0000     0.000     0.000     0.000  0.0000  0.0000  1.0000
 
              Baa     0.0000     0.000     0.000     0.000  1.0000  0.0000  0.0000
     2 N(14)  Bbb     0.0000     0.000     0.000     0.000 -0.0000  1.0000  0.0000
              Bcc     0.0000     0.000     0.000     0.000  0.0000  0.0000  1.0000
 

 ---------------------------------------------------------------------------------

 No NMR shielding tensors so no spin-rotation constants.
 Leave Link  601 at Tue Jan 26 19:46:39 2021, MaxMem=   134217728 cpu:               0.1 elap:               0.1
 (Enter /home/wsr/g16/l122.exe)
 CPIOFr:  IOpCl= 1 IRwI=-1 IRwCP=  731 ICalc= -1 LCPTot=        1659 Len1MO=        2748 IndFrg=        1659
 CPIOFr:  IOpCl= 1 IRwI=-1 IRwCP=  731 ICalc=  0 LCPTot=        1659 Len1MO=        2748 IndFrg=        4407
 Fragment guess: doing calculation for fragment   1 using the basis set of the fragment.
 Leave Link  122 at Tue Jan 26 19:46:39 2021, MaxMem=   134217728 cpu:               0.0 elap:               0.0
 (Enter /home/wsr/g16/l301.exe)
 Basis read from rwf:  (5D, 7F)
 No pseudopotential information found on rwf file.
    14 basis functions,    33 primitive gaussians,    15 cartesian basis functions
     5 alpha electrons        2 beta electrons
       nuclear repulsion energy         0.0000000000 Hartrees.
 IExCor=    0 DFT=F Ex=HF Corr=None ExCW=0 ScaHFX=  1.000000
 ScaDFX=  1.000000  1.000000  1.000000  1.000000 ScalE2=  1.000000  1.000000
 IRadAn=      5 IRanWt=     -1 IRanGd=            0 ICorTp=0 IEmpDi=  4
 NAtoms=    2 NActive=    1 NUniq=    1 SFac= 1.00D+00 NAtFMM=   60 NAOKFM=F Big=F
 Integral buffers will be    131072 words long.
 Raffenetti 2 integral format.
 Two-electron integral symmetry is turned off.
 No density basis found on file   718.
 Leave Link  301 at Tue Jan 26 19:46:40 2021, MaxMem=   134217728 cpu:               0.0 elap:               0.0
 (Enter /home/wsr/g16/l302.exe)
 NPDir=0 NMtPBC=     1 NCelOv=     1 NCel=       1 NClECP=     1 NCelD=      1
         NCelK=      1 NCelE2=     1 NClLst=     1 CellRange=     0.0.
 One-electron integrals computed using PRISM.
 NBasis=    14 RedAO= T EigKep=  2.04D-01  NBF=    14
 NBsUse=    14 1.00D-06 EigRej= -1.00D+00 NBFU=    14
 Leave Link  302 at Tue Jan 26 19:46:40 2021, MaxMem=   134217728 cpu:               0.1 elap:               0.1
 (Enter /home/wsr/g16/l401.exe)
 ExpMin= 2.19D-01 ExpMax= 9.05D+03 ExpMxC= 3.09D+02 IAcc=3 IRadAn=         5 AccDes= 0.00D+00
 Harris functional with IExCor=  205 and IRadAn=       5 diagonalized for initial guess.
 HarFok:  IExCor=  205 AccDes= 0.00D+00 IRadAn=         5 IDoV= 1 UseB2=F ITyADJ=14
 ICtDFT=  3500011 ScaDFX=  1.000000  1.000000  1.000000  1.000000
 FoFCou: FMM=F IPFlag=           0 FMFlag=      100000 FMFlg1=           0
         NFxFlg=           0 DoJE=T BraDBF=F KetDBF=T FulRan=T
         wScrn=  0.000000 ICntrl=       500 IOpCl=  0 I1Cent=   200000004 NGrid=           0
         NMat0=    1 NMatS0=      1 NMatT0=    0 NMatD0=    1 NMtDS0=    0 NMtDT0=    0
 Symmetry not used in FoFCou.
 Harris En= -54.1284627801868    
 JPrj=0 DoOrth=F DoCkMO=F.
 Initial guess <Sx>= 0.0000 <Sy>= 0.0000 <Sz>= 1.5000 <S**2>= 3.7500 S= 1.5000
 Leave Link  401 at Tue Jan 26 19:46:40 2021, MaxMem=   134217728 cpu:               0.1 elap:               0.1
 (Enter /home/wsr/g16/l601.exe)
 Copying SCF densities to generalized density rwf, IOpCl= 1 IROHF=0.

 **********************************************************************

            Population analysis using the SCF density.

 **********************************************************************

 Alpha  occ. eigenvalues --  -13.94987  -0.64665  -0.23907  -0.23907  -0.23907
 Alpha virt. eigenvalues --    0.62139   0.62139   0.62139   0.74695   1.66629
 Alpha virt. eigenvalues --    1.66629   1.66629   1.66629   1.66629
  Beta  occ. eigenvalues --  -13.94987  -0.64665
  Beta virt. eigenvalues --   -0.23907  -0.23907  -0.23907   0.62139   0.62139
  Beta virt. eigenvalues --    0.62139   0.74695   1.66629   1.66629   1.66629
  Beta virt. eigenvalues --    1.66629   1.66629
     Alpha Molecular Orbital Coefficients:
                           1         2         3         4         5
                           O         O         O         O         O
     Eigenvalues --   -13.94987  -0.64665  -0.23907  -0.23907  -0.23907
   1 1   N  1S          0.99535  -0.22940   0.00000   0.00000   0.00000
   2        2S          0.02827   0.47731   0.00000  -0.00000   0.00000
   3        3S         -0.00933   0.60079   0.00000  -0.00000   0.00000
   4        4PX        -0.00000   0.00000   0.64144   0.00011  -0.00151
   5        4PY        -0.00000   0.00000   0.00047   0.59381   0.24257
   6        4PZ         0.00000  -0.00000   0.00144  -0.24257   0.59380
   7        5PX        -0.00000  -0.00000   0.50216   0.00009  -0.00118
   8        5PY        -0.00000  -0.00000   0.00037   0.46487   0.18990
   9        5PZ        -0.00000   0.00000   0.00113  -0.18990   0.46487
  10        6D 0        0.00000  -0.00000   0.00000  -0.00000  -0.00000
  11        6D+1        0.00000   0.00000  -0.00000  -0.00000  -0.00000
  12        6D-1        0.00000   0.00000   0.00000  -0.00000  -0.00000
  13        6D+2       -0.00000   0.00000  -0.00000   0.00000   0.00000
  14        6D-2        0.00000   0.00000  -0.00000   0.00000  -0.00000
                           6         7         8         9        10
                           V         V         V         V         V
     Eigenvalues --     0.62139   0.62139   0.62139   0.74695   1.66629
   1 1   N  1S         -0.00000   0.00000  -0.00000  -0.07787   0.00000
   2        2S         -0.00000  -0.00000  -0.00000   1.59118   0.00000
   3        3S          0.00000  -0.00000   0.00000  -1.53623   0.00000
   4        4PX        -0.98143   0.00716   0.01247  -0.00000  -0.00000
   5        4PY        -0.01008   0.26426  -0.94523  -0.00000   0.00000
   6        4PZ        -0.01026  -0.94526  -0.26416   0.00000   0.00000
   7        5PX         1.05945  -0.00773  -0.01347   0.00000   0.00000
   8        5PY         0.01089  -0.28527   1.02038   0.00000  -0.00000
   9        5PZ         0.01107   1.02041   0.28516  -0.00000  -0.00000
  10        6D 0       -0.00000  -0.00000   0.00000   0.00000   0.00000
  11        6D+1        0.00000  -0.00000   0.00000   0.00000   0.01799
  12        6D-1       -0.00000   0.00000  -0.00000  -0.00000   0.00001
  13        6D+2        0.00000   0.00000  -0.00000  -0.00000   0.00000
  14        6D-2       -0.00000  -0.00000  -0.00000   0.00000   0.99984
                          11        12        13        14
                           V         V         V         V
     Eigenvalues --     1.66629   1.66629   1.66629   1.66629
   1 1   N  1S          0.00000   0.00000   0.00000   0.00000
   2        2S          0.00000   0.00000   0.00000  -0.00000
   3        3S         -0.00000   0.00000   0.00000   0.00000
   4        4PX        -0.00000   0.00000  -0.00000  -0.00000
   5        4PY         0.00000  -0.00000  -0.00000   0.00000
   6        4PZ         0.00000  -0.00000  -0.00000  -0.00000
   7        5PX         0.00000  -0.00000   0.00000   0.00000
   8        5PY         0.00000  -0.00000   0.00000  -0.00000
   9        5PZ         0.00000  -0.00000   0.00000   0.00000
  10        6D 0        0.00000   0.00000   0.70000   0.71414
  11        6D+1       -0.00041   0.99984  -0.00000  -0.00000
  12        6D-1        1.00000   0.00041  -0.00000   0.00000
  13        6D+2        0.00000   0.00000   0.71414  -0.70000
  14        6D-2       -0.00001  -0.01799  -0.00000  -0.00000
     Beta Molecular Orbital Coefficients:
                           1         2         3         4         5
                           O         O         V         V         V
     Eigenvalues --   -13.94987  -0.64665  -0.23907  -0.23907  -0.23907
   1 1   N  1S          0.99535  -0.22940   0.00000   0.00000   0.00000
   2        2S          0.02827   0.47731   0.00000  -0.00000   0.00000
   3        3S         -0.00933   0.60079   0.00000  -0.00000   0.00000
   4        4PX        -0.00000   0.00000   0.64144   0.00011  -0.00151
   5        4PY        -0.00000   0.00000   0.00047   0.59381   0.24257
   6        4PZ         0.00000  -0.00000   0.00144  -0.24257   0.59380
   7        5PX        -0.00000  -0.00000   0.50216   0.00009  -0.00118
   8        5PY        -0.00000  -0.00000   0.00037   0.46487   0.18990
   9        5PZ        -0.00000   0.00000   0.00113  -0.18990   0.46487
  10        6D 0        0.00000  -0.00000   0.00000  -0.00000  -0.00000
  11        6D+1        0.00000   0.00000  -0.00000  -0.00000  -0.00000
  12        6D-1        0.00000   0.00000   0.00000  -0.00000  -0.00000
  13        6D+2       -0.00000   0.00000  -0.00000   0.00000   0.00000
  14        6D-2        0.00000   0.00000  -0.00000   0.00000  -0.00000
                           6         7         8         9        10
                           V         V         V         V         V
     Eigenvalues --     0.62139   0.62139   0.62139   0.74695   1.66629
   1 1   N  1S         -0.00000   0.00000  -0.00000  -0.07787   0.00000
   2        2S         -0.00000  -0.00000  -0.00000   1.59118   0.00000
   3        3S          0.00000  -0.00000   0.00000  -1.53623   0.00000
   4        4PX        -0.98143   0.00716   0.01247  -0.00000  -0.00000
   5        4PY        -0.01008   0.26426  -0.94523  -0.00000   0.00000
   6        4PZ        -0.01026  -0.94526  -0.26416   0.00000   0.00000
   7        5PX         1.05945  -0.00773  -0.01347   0.00000   0.00000
   8        5PY         0.01089  -0.28527   1.02038   0.00000  -0.00000
   9        5PZ         0.01107   1.02041   0.28516  -0.00000  -0.00000
  10        6D 0       -0.00000  -0.00000   0.00000   0.00000   0.00000
  11        6D+1        0.00000  -0.00000   0.00000   0.00000   0.01799
  12        6D-1       -0.00000   0.00000  -0.00000  -0.00000   0.00001
  13        6D+2        0.00000   0.00000  -0.00000  -0.00000   0.00000
  14        6D-2       -0.00000  -0.00000  -0.00000   0.00000   0.99984
                          11        12        13        14
                           V         V         V         V
     Eigenvalues --     1.66629   1.66629   1.66629   1.66629
   1 1   N  1S          0.00000   0.00000   0.00000   0.00000
   2        2S          0.00000   0.00000   0.00000  -0.00000
   3        3S         -0.00000   0.00000   0.00000   0.00000
   4        4PX        -0.00000   0.00000  -0.00000  -0.00000
   5        4PY         0.00000  -0.00000  -0.00000   0.00000
   6        4PZ         0.00000  -0.00000  -0.00000  -0.00000
   7        5PX         0.00000  -0.00000   0.00000   0.00000
   8        5PY         0.00000  -0.00000   0.00000  -0.00000
   9        5PZ         0.00000  -0.00000   0.00000   0.00000
  10        6D 0        0.00000   0.00000   0.70000   0.71414
  11        6D+1       -0.00041   0.99984  -0.00000  -0.00000
  12        6D-1        1.00000   0.00041  -0.00000   0.00000
  13        6D+2        0.00000   0.00000   0.71414  -0.70000
  14        6D-2       -0.00001  -0.01799  -0.00000  -0.00000
     Alpha Density Matrix:
                           1         2         3         4         5
   1 1   N  1S          1.04335
   2        2S         -0.08135   0.22862
   3        3S         -0.14711   0.28650   0.36104
   4        4PX         0.00000  -0.00000  -0.00000   0.41145
   5        4PY        -0.00000   0.00000   0.00000   0.00000   0.41145
   6        4PZ         0.00000  -0.00000  -0.00000   0.00000   0.00000
   7        5PX         0.00000  -0.00000  -0.00000   0.32211  -0.00000
   8        5PY         0.00000  -0.00000  -0.00000   0.00000   0.32211
   9        5PZ        -0.00000   0.00000   0.00000   0.00000  -0.00000
  10        6D 0        0.00000  -0.00000  -0.00000   0.00000  -0.00000
  11        6D+1       -0.00000   0.00000   0.00000  -0.00000  -0.00000
  12        6D-1       -0.00000   0.00000   0.00000   0.00000  -0.00000
  13        6D+2       -0.00000   0.00000   0.00000  -0.00000   0.00000
  14        6D-2       -0.00000  -0.00000  -0.00000  -0.00000  -0.00000
                           6         7         8         9        10
   6        4PZ         0.41145
   7        5PX        -0.00000   0.25217
   8        5PY         0.00000  -0.00000   0.25217
   9        5PZ         0.32211  -0.00000   0.00000   0.25217
  10        6D 0        0.00000   0.00000  -0.00000   0.00000   0.00000
  11        6D+1       -0.00000  -0.00000  -0.00000  -0.00000  -0.00000
  12        6D-1       -0.00000   0.00000  -0.00000  -0.00000   0.00000
  13        6D+2       -0.00000  -0.00000   0.00000  -0.00000  -0.00000
  14        6D-2       -0.00000  -0.00000  -0.00000  -0.00000  -0.00000
                          11        12        13        14
  11        6D+1        0.00000
  12        6D-1        0.00000   0.00000
  13        6D+2        0.00000  -0.00000   0.00000
  14        6D-2        0.00000   0.00000   0.00000   0.00000
     Beta Density Matrix:
                           1         2         3         4         5
   1 1   N  1S          1.04335
   2        2S         -0.08135   0.22862
   3        3S         -0.14711   0.28650   0.36104
   4        4PX        -0.00000   0.00000   0.00000   0.00000
   5        4PY        -0.00000   0.00000   0.00000   0.00000   0.00000
   6        4PZ         0.00000  -0.00000  -0.00000  -0.00000  -0.00000
   7        5PX         0.00000  -0.00000  -0.00000  -0.00000  -0.00000
   8        5PY         0.00000  -0.00000  -0.00000  -0.00000  -0.00000
   9        5PZ        -0.00000   0.00000   0.00000   0.00000   0.00000
  10        6D 0        0.00000  -0.00000  -0.00000  -0.00000  -0.00000
  11        6D+1        0.00000   0.00000   0.00000   0.00000   0.00000
  12        6D-1        0.00000   0.00000   0.00000   0.00000   0.00000
  13        6D+2       -0.00000   0.00000   0.00000   0.00000   0.00000
  14        6D-2        0.00000   0.00000   0.00000   0.00000   0.00000
                           6         7         8         9        10
   6        4PZ         0.00000
   7        5PX         0.00000   0.00000
   8        5PY         0.00000   0.00000   0.00000
   9        5PZ        -0.00000  -0.00000  -0.00000   0.00000
  10        6D 0        0.00000   0.00000   0.00000  -0.00000   0.00000
  11        6D+1        0.00000   0.00000   0.00000   0.00000   0.00000
  12        6D-1        0.00000   0.00000   0.00000   0.00000   0.00000
  13        6D+2       -0.00000  -0.00000  -0.00000   0.00000  -0.00000
  14        6D-2        0.00000   0.00000   0.00000   0.00000   0.00000
                          11        12        13        14
  11        6D+1        0.00000
  12        6D-1        0.00000   0.00000
  13        6D+2        0.00000   0.00000   0.00000
  14        6D-2        0.00000   0.00000   0.00000   0.00000
    Full Mulliken population analysis:
                           1         2         3         4         5
   1 1   N  1S          2.08670
   2        2S         -0.03521   0.45724
   3        3S         -0.05347   0.45567   0.72208
   4        4PX         0.00000   0.00000   0.00000   0.41145
   5        4PY         0.00000   0.00000   0.00000   0.00000   0.41145
   6        4PZ         0.00000   0.00000   0.00000   0.00000   0.00000
   7        5PX         0.00000   0.00000   0.00000   0.16819   0.00000
   8        5PY         0.00000   0.00000   0.00000   0.00000   0.16819
   9        5PZ         0.00000   0.00000   0.00000   0.00000   0.00000
  10        6D 0        0.00000   0.00000   0.00000   0.00000   0.00000
  11        6D+1        0.00000   0.00000   0.00000   0.00000   0.00000
  12        6D-1        0.00000   0.00000   0.00000   0.00000   0.00000
  13        6D+2        0.00000   0.00000   0.00000   0.00000   0.00000
  14        6D-2        0.00000   0.00000   0.00000   0.00000   0.00000
                           6         7         8         9        10
   6        4PZ         0.41145
   7        5PX         0.00000   0.25217
   8        5PY         0.00000   0.00000   0.25217
   9        5PZ         0.16819   0.00000   0.00000   0.25217
  10        6D 0        0.00000   0.00000   0.00000   0.00000   0.00000
  11        6D+1        0.00000   0.00000   0.00000   0.00000   0.00000
  12        6D-1        0.00000   0.00000   0.00000   0.00000   0.00000
  13        6D+2        0.00000   0.00000   0.00000   0.00000   0.00000
[...]
 J. V. Ortiz, A. F. Izmaylov, J. L. Sonnenberg, D. Williams-Young, 
 F. Ding, F. Lipparini, F. Egidi, J. Goings, B. Peng, A. Petrone, 
 T. Henderson, D. Ranasinghe, V. G. Zakrzewski, J. Gao, N. Rega, 
 G. Zheng, W. Liang, M. Hada, M. Ehara, K. Toyota, R. Fukuda, 
 J. Hasegawa, M. Ishida, T. Nakajima, Y. Honda, O. Kitao, H. Nakai, 
 T. Vreven, K. Throssell, J. A. Montgomery, Jr., J. E. Peralta, 
 F. Ogliaro, M. J. Bearpark, J. J. Heyd, E. N. Brothers, K. N. Kudin, 
 V. N. Staroverov, T. A. Keith, R. Kobayashi, J. Normand, 
 K. Raghavachari, A. P. Rendell, J. C. Burant, S. S. Iyengar, 
 J. Tomasi, M. Cossi, J. M. Millam, M. Klene, C. Adamo, R. Cammi, 
 J. W. Ochterski, R. L. Martin, K. Morokuma, O. Farkas, 
 J. B. Foresman, and D. J. Fox, Gaussian, Inc., Wallingford CT, 2016.
 
 ******************************************
 Gaussian 16:  ES64L-G16RevA.03 25-Dec-2016
                26-Jan-2021 
 ******************************************
 %nproc=1
 Will use up to    1 processors via shared memory.
 %mem=1gb
 %chk=n2.chk
 --------------------------------------------------------
 #p uhf chkbasis guess(read) geom=allcheck scf=(conver=2)
 --------------------------------------------------------
 1/29=7,38=1,172=1/1;
 2/12=2,40=1/2;
 3/5=7,6=2,11=2,14=-4,25=1,30=1,67=1,116=2/1,2,3;
 4/5=1/1;
 5/5=2,6=2,38=6/2;
 6/7=2,8=2,9=2,10=2,28=1/1;
 99/5=1,9=1/99;
 Leave Link    1 at Tue Jan 26 19:46:41 2021, MaxMem=   134217728 cpu:               0.0 elap:               0.0
 (Enter /home/wsr/g16/l101.exe)
 Structure from the checkpoint file:  "n2.chk"
 -----
 title
 -----
 Charge =  0 Multiplicity = 1
 Z-Matrix found in chk file.
 N,0,0.,0.,0.
 N,0,0.,0.,0.9
 Recover connectivity data from disk.
 ITRead=  0  0
 MicOpt= -1 -1
 NAtoms=      2 NQM=        2 NQMF=       0 NMMI=      0 NMMIF=      0
                NMic=       0 NMicF=      0.
                    Isotopes and Nuclear Properties:
 (Nuclear quadrupole moments (NQMom) in fm**2, nuclear magnetic moments (NMagM)
  in nuclear magnetons)

  Atom         1           2
 IAtWgt=          14          14
 AtmWgt=  14.0030740  14.0030740
 NucSpn=           2           2
 AtZEff=   4.5500000   4.5500000
 NQMom=    2.0440000   2.0440000
 NMagM=    0.4037610   0.4037610
 AtZNuc=   7.0000000   7.0000000
 Leave Link  101 at Tue Jan 26 19:46:41 2021, MaxMem=   134217728 cpu:               0.1 elap:               0.1
 (Enter /home/wsr/g16/l202.exe)
                          Input orientation:                          
 ---------------------------------------------------------------------
 Center     Atomic      Atomic             Coordinates (Angstroms)
 Number     Number       Type             X           Y           Z
 ---------------------------------------------------------------------
      1          7           0        0.000000    0.000000    0.000000
      2          7           0        0.000000    0.000000    0.900000
 ---------------------------------------------------------------------
 Stoichiometry    N2
 Framework group  D*H[C*(N.N)]
 Deg. of freedom     1
 Full point group                 D*H     NOp   8
 RotChk:  IX=1 Diff= 0.00D+00
 Largest Abelian subgroup         D2H     NOp   8
 Largest concise Abelian subgroup C2      NOp   2
                         Standard orientation:                         
 ---------------------------------------------------------------------
 Center     Atomic      Atomic             Coordinates (Angstroms)
 Number     Number       Type             X           Y           Z
 ---------------------------------------------------------------------
      1          7           0        0.000000    0.000000   -0.450000
      2          7           0        0.000000    0.000000    0.450000
 ---------------------------------------------------------------------
 Rotational constants (GHZ):           0.0000000          89.1125338          89.1125338
 Leave Link  202 at Tue Jan 26 19:46:41 2021, MaxMem=   134217728 cpu:               0.0 elap:               0.0
 (Enter /home/wsr/g16/l301.exe)
 Basis read from chk: "n2.chk" (5D, 7F)
 Pseudo-potential data read from chk file.
 There are     8 symmetry adapted cartesian basis functions of AG  symmetry.
 There are     1 symmetry adapted cartesian basis functions of B1G symmetry.
 There are     3 symmetry adapted cartesian basis functions of B2G symmetry.
 There are     3 symmetry adapted cartesian basis functions of B3G symmetry.
 There are     1 symmetry adapted cartesian basis functions of AU  symmetry.
 There are     8 symmetry adapted cartesian basis functions of B1U symmetry.
 There are     3 symmetry adapted cartesian basis functions of B2U symmetry.
 There are     3 symmetry adapted cartesian basis functions of B3U symmetry.
 There are     7 symmetry adapted basis functions of AG  symmetry.
 There are     1 symmetry adapted basis functions of B1G symmetry.
 There are     3 symmetry adapted basis functions of B2G symmetry.
 There are     3 symmetry adapted basis functions of B3G symmetry.
 There are     1 symmetry adapted basis functions of AU  symmetry.
 There are     7 symmetry adapted basis functions of B1U symmetry.
 There are     3 symmetry adapted basis functions of B2U symmetry.
 There are     3 symmetry adapted basis functions of B3U symmetry.
    28 basis functions,    66 primitive gaussians,    30 cartesian basis functions
     7 alpha electrons        7 beta electrons
       nuclear repulsion energy        28.8107592612 Hartrees.
 IExCor=    0 DFT=F Ex=HF Corr=None ExCW=0 ScaHFX=  1.000000
 ScaDFX=  1.000000  1.000000  1.000000  1.000000 ScalE2=  1.000000  1.000000
 IRadAn=      5 IRanWt=     -1 IRanGd=            0 ICorTp=0 IEmpDi=  4
 NAtoms=    2 NActive=    2 NUniq=    1 SFac= 4.00D+00 NAtFMM=   60 NAOKFM=F Big=F
 Integral buffers will be    131072 words long.
 Raffenetti 2 integral format.
 Two-electron integral symmetry is turned on.
 No density basis found on file 20724.
 Leave Link  301 at Tue Jan 26 19:46:41 2021, MaxMem=   134217728 cpu:               0.0 elap:               0.0
 (Enter /home/wsr/g16/l302.exe)
 NPDir=0 NMtPBC=     1 NCelOv=     1 NCel=       1 NClECP=     1 NCelD=      1
         NCelK=      1 NCelE2=     1 NClLst=     1 CellRange=     0.0.
 One-electron integrals computed using PRISM.
 One-electron integral symmetry used in STVInt
   8 Symmetry operations used in ECPInt.
 ECPInt:  NShTT=      78 NPrTT=     910 LenC2=      79 LenP2D=     833.
 LDataN:  DoStor=T MaxTD1= 4 Len=   56
 NBasis=    28 RedAO= T EigKep=  2.61D-03  NBF=     7     1     3     3     1     7     3     3
 NBsUse=    28 1.00D-06 EigRej= -1.00D+00 NBFU=     7     1     3     3     1     7     3     3
 Leave Link  302 at Tue Jan 26 19:46:41 2021, MaxMem=   134217728 cpu:               0.1 elap:               0.1
 (Enter /home/wsr/g16/l303.exe)
 DipDrv:  MaxL=1.
 Leave Link  303 at Tue Jan 26 19:46:41 2021, MaxMem=   134217728 cpu:               0.0 elap:               0.0
 (Enter /home/wsr/g16/l401.exe)
 Initial guess from the checkpoint file:  "n2.chk"
 B after Tr=     0.000000    0.000000   -0.850377
         Rot=    1.000000    0.000000    0.000000    0.000000 Ang=   0.00 deg.
 Guess basis will be translated and rotated to current coordinates.
 JPrj=2 DoOrth=T DoCkMO=T.
 Initial guess orbital symmetries:
 Alpha Orbitals:
       Occupied  (?A) (?A) (?A) (?A) (?A) (?A) (?A)
       Virtual   (?A) (?A) (?A) (?A) (?A) (DLTG) (DLTG) (?A) (?A)
                 (?A) (?A) (?A) (?A) (DLTU) (DLTU) (?A) (?A) (?A)
                 (?A) (PIG) (PIG)
 Beta  Orbitals:
       Occupied  (?A) (?A) (?A) (?A) (?A) (?A) (?A)
       Virtual   (?A) (?A) (?A) (?A) (?A) (DLTG) (DLTG) (?A) (?A)
                 (?A) (?A) (?A) (?A) (DLTU) (DLTU) (?A) (?A) (?A)
                 (?A) (PIG) (PIG)
 Initial guess <Sx>= 0.0000 <Sy>= 0.0000 <Sz>= 0.0000 <S**2>= 2.1398 S= 1.0459
 Leave Link  401 at Tue Jan 26 19:46:41 2021, MaxMem=   134217728 cpu:               0.1 elap:               0.1
 (Enter /home/wsr/g16/l502.exe)
 Keep R1 and R2 ints in memory in symmetry-blocked form, NReq=921912.
 FoFCou: FMM=F IPFlag=           0 FMFlag=           0 FMFlg1=           0
         NFxFlg=           0 DoJE=F BraDBF=F KetDBF=F FulRan=T
         wScrn=  0.000000 ICntrl=       600 IOpCl=  0 I1Cent=           0 NGrid=           0
         NMat0=    1 NMatS0=    406 NMatT0=    0 NMatD0=    1 NMtDS0=    0 NMtDT0=    0
 Petite list used in FoFCou.
 UHF open shell SCF:
 Using DIIS extrapolation, IDIIS=  1040.
 NGot=   134217728 LenX=   134189418 LenY=   134188077
 Requested convergence on RMS density matrix=1.00D-02 within 128 cycles.
 Requested convergence on MAX density matrix=1.00D+00.
 Requested convergence on             energy=1.00D+00.
 No special actions if energy rises.
 An orbital has undefined symmetry, so N**3 symmetry is turned off.

 Cycle   1  Pass 1  IDiag  1:
 Density matrix breaks symmetry, PCut= 1.00D-07
 Density matrix has no symmetry -- integrals replicated.
 E= -107.178823590389    
 DIIS: error= 2.60D-01 at cycle   1 NSaved=   1.
 NSaved= 1 IEnMin= 1 EnMin= -107.178823590389     IErMin= 1 ErrMin= 2.60D-01
 ErrMax= 2.60D-01  0.00D+00 EMaxC= 1.00D-01 BMatC= 4.76D+00 BMatP= 4.76D+00
 IDIUse=3 WtCom= 0.00D+00 WtEn= 1.00D+00
 Coeff-Com:  0.100D+01
 Coeff-En:   0.100D+01
 Coeff:      0.100D+01
 Gap=     2.196 Goal=   None    Shift=    0.000
 Gap=     2.024 Goal=   None    Shift=    0.000
 GapD=    2.024 DampG=2.000 DampE=0.250 DampFc=0.5000 IDamp=-1.
 Damping current iteration by 5.00D-01
 RMSDP=7.92D-02 MaxDP=4.77D-01              OVMax= 3.11D-01

 Cycle   2  Pass 1  IDiag  1:
 Density matrix breaks symmetry, PCut= 1.00D-07
 Density matrix has no symmetry -- integrals replicated.
 E= -107.798915405324     Delta-E=       -0.620091814935 Rises=F Damp=T
 DIIS: error= 1.70D-01 at cycle   2 NSaved=   2.
 NSaved= 2 IEnMin= 2 EnMin= -107.798915405324     IErMin= 2 ErrMin= 1.70D-01
 ErrMax= 1.70D-01  0.00D+00 EMaxC= 1.00D-01 BMatC= 1.80D+00 BMatP= 4.76D+00
 IDIUse=3 WtCom= 0.00D+00 WtEn= 1.00D+00
 Coeff-Com: -0.128D+01 0.228D+01
 Coeff-En:   0.000D+00 0.100D+01
 Coeff:      0.000D+00 0.100D+01
 Gap=     0.823 Goal=   None    Shift=    0.000
 Gap=     0.823 Goal=   None    Shift=    0.000
 RMSDP=4.92D-02 MaxDP=2.89D-01 DE=-6.20D-01 OVMax= 5.84D-02

 Cycle   3  Pass 1  IDiag  1:
 Density matrix breaks symmetry, PCut= 1.00D-07
 Density matrix has no symmetry -- integrals replicated.
 E= -108.643908192227     Delta-E=       -0.844992786903 Rises=F Damp=F
 DIIS: error= 4.53D-02 at cycle   3 NSaved=   3.
 NSaved= 3 IEnMin= 3 EnMin= -108.643908192227     IErMin= 3 ErrMin= 4.53D-02
 ErrMax= 4.53D-02  0.00D+00 EMaxC= 1.00D-01 BMatC= 2.11D-01 BMatP= 1.80D+00
 IDIUse=3 WtCom= 5.47D-01 WtEn= 4.53D-01
 Coeff-Com:  0.933D+00-0.202D+01 0.209D+01
 Coeff-En:   0.000D+00 0.000D+00 0.100D+01
 Coeff:      0.511D+00-0.111D+01 0.160D+01
 Gap=     0.896 Goal=   None    Shift=    0.000
 Gap=     0.896 Goal=   None    Shift=    0.000
 RMSDP=1.68D-02 MaxDP=1.81D-01 DE=-8.45D-01 OVMax= 1.04D-01

 Cycle   4  Pass 1  IDiag  1:
 Density matrix breaks symmetry, PCut= 1.00D-07
 Density matrix has no symmetry -- integrals replicated.
 E= -108.740416903919     Delta-E=       -0.096508711692 Rises=F Damp=F
 DIIS: error= 2.39D-02 at cycle   4 NSaved=   4.
 NSaved= 4 IEnMin= 4 EnMin= -108.740416903919     IErMin= 4 ErrMin= 2.39D-02
 ErrMax= 2.39D-02  0.00D+00 EMaxC= 1.00D-01 BMatC= 3.33D-02 BMatP= 2.11D-01
 IDIUse=3 WtCom= 7.61D-01 WtEn= 2.39D-01
 Coeff-Com: -0.343D+00 0.687D+00-0.973D+00 0.163D+01
 Coeff-En:   0.000D+00 0.000D+00 0.000D+00 0.100D+01
 Coeff:     -0.261D+00 0.523D+00-0.741D+00 0.148D+01
 Gap=     0.922 Goal=   None    Shift=    0.000
 Gap=     0.922 Goal=   None    Shift=    0.000
 RMSDP=5.83D-03 MaxDP=5.22D-02 DE=-9.65D-02 OVMax= 7.38D-02

 Density matrix breaks symmetry, PCut= 1.00D-07
 Density matrix has no symmetry -- integrals replicated.
 SCF Done:  E(UHF) =  -108.740416904     A.U. after    4 cycles
            NFock=  4  Conv=0.58D-02     -V/T= 1.9816
 <Sx>= 0.0000 <Sy>= 0.0000 <Sz>= 0.0000 <S**2>= 0.1060 S= 0.0966
 <L.S>= 0.000000000000E+00
 KE= 1.107802641679D+02 PE=-3.146402500140D+02 EE= 6.630880968097D+01
 Annihilation of the first spin contaminant:
 S**2 before annihilation     0.1060,   after     0.0126
 Leave Link  502 at Tue Jan 26 19:46:41 2021, MaxMem=   134217728 cpu:               0.1 elap:               0.1
 (Enter /home/wsr/g16/l601.exe)
 Copying SCF densities to generalized density rwf, IOpCl= 1 IROHF=0.
 SCF density gives NOpUse=  1 NOpAll=  8.
 Marking SCF density as not fully symmetric.

 **********************************************************************

            Population analysis using the SCF density.

 **********************************************************************

 Orbital symmetries:
 Alpha Orbitals:
       Occupied  (?A) (?A) (?B) (?C) (?C) (?B) (?B)
       Virtual   (?C) (?C) (?B) (?B) (?C) (?C) (?B) (?C) (?C) (?B)
                 (?D) (?D) (?B) (?C) (?C) (?D) (?D) (?B) (?C) (?C)
                 (SGU)
 Beta  Orbitals:
       Occupied  (?A) (?A) (?B) (?C) (?C) (?B) (?B)
       Virtual   (?C) (?C) (?B) (?B) (?C) (?C) (?B) (?C) (?C) (?B)
                 (?D) (?D) (?B) (?C) (?C) (?D) (?D) (?B) (?C) (?C)
                 (SGU)
 Unable to determine electronic state:  an orbital has unidentified symmetry.
 Alpha  occ. eigenvalues --  -15.64118 -15.61130  -1.62096  -0.72043  -0.72043
 Alpha  occ. eigenvalues --   -0.71214  -0.63162
 Alpha virt. eigenvalues --    0.29415   0.29415   0.62786   0.75446   0.79754
 Alpha virt. eigenvalues --    0.79754   1.02402   1.11471   1.11471   1.43732
 Alpha virt. eigenvalues --    1.69961   1.69961   1.94562   2.12776   2.12776
 Alpha virt. eigenvalues --    2.45072   2.45072   2.97237   3.23837   3.23837
 Alpha virt. eigenvalues --    4.19981
  Beta  occ. eigenvalues --  -15.64118 -15.61130  -1.62096  -0.72043  -0.72043
  Beta  occ. eigenvalues --   -0.71214  -0.63162
  Beta virt. eigenvalues --    0.29415   0.29415   0.62786   0.75446   0.79754
  Beta virt. eigenvalues --    0.79754   1.02402   1.11471   1.11471   1.43732
  Beta virt. eigenvalues --    1.69961   1.69961   1.94562   2.12776   2.12776
  Beta virt. eigenvalues --    2.45072   2.45072   2.97237   3.23837   3.23837
  Beta virt. eigenvalues --    4.19981
          Condensed to atoms (all electrons):
               1          2
     1  N    6.113717   0.886283
     2  N    0.886283   6.113717
          Atomic-Atomic Spin Densities.
               1          2
     1  N    0.625517   0.000000
     2  N    0.000000  -0.625517
 Mulliken charges and spin densities:
               1          2
     1  N    0.000000   0.625517
     2  N   -0.000000  -0.625517
 Sum of Mulliken charges =  -0.00000  -0.00000
 Mulliken charges and spin densities with hydrogens summed into heavy atoms:
               1          2
     1  N    0.000000   0.625517
     2  N   -0.000000  -0.625517
         Mulliken charges and spin densities condensed to fragments:
      1      0.000000      0.625517
      2     -0.000000     -0.625517
 Electronic spatial extent (au):  <R**2>=             32.4754
 Charge=             -0.0000 electrons
 Dipole moment (field-independent basis, Debye):
    X=             -0.0000    Y=             -0.0000    Z=              0.0000  Tot=              0.0000
 Quadrupole moment (field-independent basis, Debye-Ang):
   XX=             -9.3256   YY=             -9.3256   ZZ=            -11.4121
   XY=             -0.0000   XZ=             -0.0000   YZ=              0.0000
 Traceless Quadrupole moment (field-independent basis, Debye-Ang):
   XX=              0.6955   YY=              0.6955   ZZ=             -1.3910
   XY=             -0.0000   XZ=             -0.0000   YZ=              0.0000
 Octapole moment (field-independent basis, Debye-Ang**2):
  XXX=             -0.0000  YYY=             -0.0000  ZZZ=              0.0000  XYY=             -0.0000
  XXY=             -0.0000  XXZ=              0.0000  XZZ=             -0.0000  YZZ=             -0.0000
  YYZ=              0.0000  XYZ=              0.0000
 Hexadecapole moment (field-independent basis, Debye-Ang**3):
 XXXX=             -6.8195 YYYY=             -6.8195 ZZZZ=            -23.5041 XXXY=             -0.0000
 XXXZ=             -0.0000 YYYX=             -0.0000 YYYZ=              0.0000 ZZZX=             -0.0000
 ZZZY=              0.0000 XXYY=             -2.2732 XXZZ=             -4.6927 YYZZ=             -4.6927
 XXYZ=              0.0000 YYXZ=             -0.0000 ZZXY=             -0.0000
 N-N= 2.881075926120D+01 E-N=-3.147066884631D+02  KE= 1.107802641679D+02
 Symmetry AG   KE= 5.471731537154D+01
 Symmetry B1G  KE= 7.396698496908D-31
 Symmetry B2G  KE= 7.545504055549D-02
 Symmetry B3G  KE= 7.545504055549D-02
 Symmetry AU   KE= 1.572845564850D-30
 Symmetry B1U  KE= 4.878264046897D+01
 Symmetry B2U  KE= 3.564699123156D+00
 Symmetry B3U  KE= 3.564699123156D+00
 Symmetry AG   SP=-3.153252940875D-15
 Symmetry B1G  SP= 1.225956332883D-31
 Symmetry B2G  SP=-2.162983334109D-16
 Symmetry B3G  SP=-2.754415619199D-16
 Symmetry AU   SP=-3.019492763078D-31
 Symmetry B1U  SP= 2.831264933270D-15
 Symmetry B2U  SP=-3.133933813414D-15
 Symmetry B3U  SP=-9.383498752319D-16
                          Isotropic Fermi Contact Couplings
        Atom                 a.u.       MegaHertz       Gauss      10(-4) cm-1
     1  N(14)              0.15160      24.49110       8.73903       8.16935
     2  N(14)             -0.15160     -24.49110      -8.73903      -8.16935
 --------------------------------------------------------
       Center         ----  Spin Dipole Couplings  ----
                      3XX-RR        3YY-RR        3ZZ-RR
 --------------------------------------------------------
     1   Atom        0.341045      0.341045     -0.682089
     2   Atom       -0.341045     -0.341045      0.682089
 --------------------------------------------------------
                        XY            XZ            YZ
 --------------------------------------------------------
     1   Atom       -0.000000     -0.000000      0.000000
     2   Atom       -0.000000     -0.000000     -0.000000
 --------------------------------------------------------


 ---------------------------------------------------------------------------------
              Anisotropic Spin Dipole Couplings in Principal Axis System
 ---------------------------------------------------------------------------------

       Atom             a.u.   MegaHertz   Gauss  10(-4) cm-1        Axes

              Baa    -0.6821   -26.307    -9.387    -8.775  0.0000 -0.0000  1.0000
     1 N(14)  Bbb     0.3410    13.153     4.693     4.387  0.9994  0.0339 -0.0000
              Bcc     0.3410    13.153     4.693     4.387 -0.0339  0.9994  0.0000
 
              Baa    -0.3410   -13.153    -4.693    -4.387  0.0061  1.0000  0.0000
     2 N(14)  Bbb    -0.3410   -13.153    -4.693    -4.387  1.0000 -0.0061  0.0000
              Bcc     0.6821    26.307     9.387     8.775 -0.0000 -0.0000  1.0000
 

 ---------------------------------------------------------------------------------

 No NMR shielding tensors so no spin-rotation constants.
 Leave Link  601 at Tue Jan 26 19:46:41 2021, MaxMem=   134217728 cpu:               0.2 elap:               0.2
 (Enter /home/wsr/g16/l9999.exe)
 1\1\GINC-ARCHLAB\SP\UHF\Gen\N2\WSR\26-Jan-2021\0\\#p uhf chkbasis gues
 s(read) geom=allcheck scf=(conver=2)\\title\\0,1\N,0,0.,0.,0.\N,0,0.,0
 .,0.9\\Version=ES64L-G16RevA.03\HF=-108.7404169\S2=0.105954\S2-1=0.\S2
 A=0.01258\RMSD=5.832e-03\Dipole=0.,0.,0.\Quadrupole=0.5170746,0.517074
 6,-1.0341491,0.,0.,0.\PG=D*H [C*(N1.N1)]\\@


 FAULTILY FAULTLESS, ICILY REGULAR, SPLENDIDLY NULL...
           MAUDE BY TENNYSON
 Job cpu time:       0 days  0 hours  0 minutes  0.8 seconds.
 Elapsed time:       0 days  0 hours  0 minutes  0.7 seconds.
 File lengths (MBytes):  RWF=      6 Int=      0 D2E=      0 Chk=      1 Scr=      1
 Normal termination of Gaussian 16 at Tue Jan 26 19:46:41 2021.
