#INFO: **** input file is /home/wsr/ExSCF/test/fragmo/suhf_n2.py ****
#import phf
from pyscf import gto, scf, lib
#import scipy
#import numpy as np
import sys

from pyphf import util

lib.num_threads(1)

xyz = 'N 0.0 0.0 0.0; N  0.0 0.0 0.9' #sys.argv[1]
fch = 'n2.fchk' #sys.argv[2]
bas = 'cc-pvdz'


mf = util.guess_from_fchk(xyz, bas, fch)

mf2 = util.SUHF(mf)
mf2.cut_no = False
mf2.verbose = 4
mf2.diis_on = True
mf2.diis_start_cyc = 10
mf2.max_cycle = 100
mf2.kernel()
#INFO: ******************** input file end ********************


System: uname_result(system='Linux', node='archlab', release='5.10.10-arch1-1', version='#1 SMP PREEMPT Sat, 23 Jan 2021 23:59:48 +0000', machine='x86_64')  Threads 1
Python 3.9.1 (default, Dec 13 2020, 11:55:53) 
[GCC 10.2.0]
numpy 1.19.5  scipy 1.6.0
Date: Tue Jan 26 19:53:33 2021
PySCF version 1.7.5
PySCF path  /home/wsr/pyscf/pyscf
GIT ORIG_HEAD 946b284218031505a1c0bb911d7660b2f3f706e4
GIT HEAD      ref: refs/heads/master
GIT master branch  2f3747dd3668f5e6dc0ffe9d7fc6dd73e7d1b213

[CONFIG] conf_file None
[INPUT] verbose = 4
[INPUT] num. atoms = 2
[INPUT] num. electrons = 14
[INPUT] charge = 0
[INPUT] spin (= nelec alpha-beta = 2S) = 0
[INPUT] symmetry False subgroup None
[INPUT] Mole.unit = angstrom
[INPUT]  1 N      0.000000000000   0.000000000000   0.000000000000 AA    0.000000000000   0.000000000000   0.000000000000 Bohr
[INPUT]  2 N      0.000000000000   0.000000000000   0.900000000000 AA    0.000000000000   0.000000000000   1.700753512109 Bohr

nuclear repulsion = 28.8107592612
number of shells = 10
number of NR pGTOs = 52
number of NR cGTOs = 28
basis = cc-pvdz
ecp = {}
CPU time:         0.69


******** <class 'pyscf.scf.uhf.UHF'> ********
method = UHF
initial guess = minao
damping factor = 0
level_shift factor = 0
DIIS = <class 'pyscf.scf.diis.CDIIS'>
diis_start_cycle = 1
diis_space = 8
SCF conv_tol = 1e-09
SCF conv_tol_grad = None
SCF max_cycles = 1
direct_scf = True
direct_scf_tol = 1e-13
chkfile to save SCF result = /home/wsr/ExSCF/test/fragmo/tmpn9ohiyfv
max_memory 4000 MB (current use 119 MB)
number electrons alpha = 7  beta = 7
Set gradient conv threshold to 3.16228e-05
init E= -110.201877883746
  alpha nocc = 7  HOMO = -0.33063745528035  LUMO = 0.253152851398486
  beta  nocc = 7  HOMO = -0.328876097852948  LUMO = 0.248984386745163
cycle= 1 E= -108.761546475489  delta_E= 1.44  |g|= 0.219  |ddm|= 1.37
SCF not converged.
SCF energy = -108.761546475489 after 1 cycles  <S^2> = 0.0001911779  2S+1 = 1.0003823


******** <class 'pyscf.scf.uhf.UHF'> ********
method = UHF
initial guess = minao
damping factor = 0
level_shift factor = 0
DIIS = <class 'pyscf.scf.diis.CDIIS'>
diis_start_cycle = 1
diis_space = 8
SCF conv_tol = 1e-09
SCF conv_tol_grad = None
SCF max_cycles = 1
direct_scf = True
direct_scf_tol = 1e-13
chkfile to save SCF result = /home/wsr/ExSCF/test/fragmo/tmpn9ohiyfv
max_memory 4000 MB (current use 130 MB)
number electrons alpha = 7  beta = 7
Set gradient conv threshold to 3.16228e-05
init E= -110.335544459589
  alpha nocc = 7  HOMO = -0.549885407817417  LUMO = 0.355046878800341
  beta  nocc = 7  HOMO = -0.549885407614917  LUMO = 0.355046879114818
cycle= 1 E= -108.765610647275  delta_E= 1.57  |g|= 0.152  |ddm|= 0.41
SCF not converged.
SCF energy = -108.765610647275 after 1 cycles  <S^2> = 0.059509398  2S+1 = 1.1126714

******** <class 'pyphf.util.SUHF'> ********
max_cycle = 100
verbose: 4, normal
DIIS: <class 'pyscf.scf.diis.CDIIS'>
diis_start_cyc = 10
grids:  [0.06237655 0.31939555 0.74529195 1.28265786 1.85893479 2.39630071
 2.8221971  3.07921611] 
weights:  [0.15900941 0.34931531 0.49276925 0.56970235 0.56970235 0.49276925
 0.34931531 0.15900941]
S = 0.0, Sz = 0.0
Wigner small d:  1
value : [1. 1. 1. 1. 1. 1. 1. 1.]
time for Preparation before cyc: 0.007
**** Start Cycle 1 ****
time for NO, Ng: 0.008
(16, 28, 28)
time for Gg: 0.083
detC -0.9999999999999987
detNg [1.000058 1.001506 1.007934 1.021637 1.03931  1.053646 1.060573 1.062152]
xg [0.999942 0.998496 0.992128 0.978821 0.962177 0.949085 0.942887 0.941485]
ciS 1.9411163076171667
ciH -267.07873705923294
S2 = 0.000000
Hsp + Hph =  -137.59028040266566
e_a, e_b
 [-15.724041 -15.703626  -1.672294  -0.750747  -0.750747  -0.737077  -0.668436   0.26514    0.26514    0.618063   0.739029   0.778584   0.778584   1.000161
   1.083979   1.083979   1.409004   1.668644   1.668644   1.911149   2.092815   2.092815   2.421233   2.421233   2.942457   3.205187   3.205187   4.143742] 
 [-15.724041 -15.703626  -1.672294  -0.750747  -0.750747  -0.737077  -0.668436   0.26514    0.26514    0.618063   0.739029   0.778584   0.778584   1.000161
   1.083979   1.083979   1.409004   1.668644   1.668644   1.911149   2.092815   2.092815   2.421233   2.421233   2.942457   3.205187   3.205187   4.143742]
time for xg, H, S2, Yg, Feff: 0.014
**** Start Cycle 2 ****
time for NO, Ng: 0.008
(16, 28, 28)
time for Gg: 0.083
detC -1.0000000000000022
detNg [1.000077 1.002013 1.010618 1.029053 1.05301  1.072596 1.082106 1.084279]
xg [0.999923 0.997991 0.989494 0.971767 0.949659 0.932318 0.924124 0.922271]
ciS 1.9216380772879147
ciH -264.41883518375715
S2 = 0.000000
Hsp + Hph =  -137.6007471484652
e_a, e_b
 [-15.61439  -15.591724  -1.603237  -0.704191  -0.704191  -0.701402  -0.627688   0.299205   0.299205   0.628892   0.759332   0.805575   0.805575   1.029746
   1.121747   1.121747   1.444643   1.71118    1.71118    1.955411   2.138682   2.138682   2.460072   2.460072   2.981095   3.247746   3.247746   4.216024] 
 [-15.61439  -15.591724  -1.603237  -0.704191  -0.704191  -0.701402  -0.627688   0.299205   0.299205   0.628892   0.759332   0.805575   0.805575   1.029746
   1.121747   1.121747   1.444643   1.71118    1.71118    1.955411   2.138682   2.138682   2.460072   2.460072   2.981095   3.247746   3.247746   4.216024]
time for xg, H, S2, Yg, Feff: 0.014
 E(SUHF) =   -108.78998789, delta E = -0.0104667, MaxD(dm) =   0.013072, RMSD(dm) =  0.0499496
**** Start Cycle 3 ****
time for NO, Ng: 0.008
(16, 28, 28)
time for Gg: 0.083
detC -1.0000000000000009
detNg [1.000102 1.002668 1.014102 1.038755 1.071112 1.097833 1.110896 1.113888]
xg [0.999898 0.997339 0.986094 0.96269  0.933609 0.910885 0.900175 0.897756]
ciS 1.8966733449074726
ciH -260.98912873651864
S2 = 0.000000
Hsp + Hph =  -137.6036255464173
e_a, e_b
 [-15.638055 -15.613337  -1.618683  -0.714971  -0.714971  -0.709456  -0.634544   0.292675   0.292675   0.627232   0.755195   0.799581   0.799581   1.023996
   1.114259   1.114259   1.437656   1.70168    1.70168    1.946086   2.129189   2.129189   2.452049   2.452049   2.973407   3.239386   3.239386   4.200721] 
 [-15.638055 -15.613337  -1.618683  -0.714971  -0.714971  -0.709456  -0.634544   0.292675   0.292675   0.627232   0.755195   0.799581   0.799581   1.023996
   1.114259   1.114259   1.437656   1.70168    1.70168    1.946086   2.129189   2.129189   2.452049   2.452049   2.973407   3.239386   3.239386   4.200721]
time for xg, H, S2, Yg, Feff: 0.014
 E(SUHF) =   -108.79286629, delta E = -0.0028784, MaxD(dm) =  0.0144724, RMSD(dm) =  0.0496054
**** Start Cycle 4 ****
time for NO, Ng: 0.008
(16, 28, 28)
time for Gg: 0.083
detC -1.0
detNg [1.000135 1.003511 1.018606 1.05142  1.095045 1.131549 1.149552 1.153691]
xg [0.999865 0.996501 0.981734 0.951094 0.913205 0.883744 0.869904 0.866783]
ciS 1.8649471172827008
ciH -256.62933460939144
S2 = 0.000000
Hsp + Hph =  -137.6067622675061
e_a, e_b
 [-15.632867 -15.605593  -1.615261  -0.713187  -0.713187  -0.708594  -0.63079    0.294774   0.294774   0.627908   0.756255   0.800728   0.800728   1.025683
   1.116708   1.116708   1.439671   1.703668   1.703668   1.948375   2.131482   2.131482   2.454119   2.454119   2.975466   3.241685   3.241685   4.204642] 
 [-15.632867 -15.605593  -1.615261  -0.713187  -0.713187  -0.708594  -0.63079    0.294774   0.294774   0.627908   0.756255   0.800728   0.800728   1.025683
   1.116708   1.116708   1.439671   1.703668   1.703668   1.948375   2.131482   2.131482   2.454119   2.454119   2.975466   3.241685   3.241685   4.204642]
time for xg, H, S2, Yg, Feff: 0.014
 E(SUHF) =   -108.79600301, delta E = -0.00313672, MaxD(dm) =  0.0157516, RMSD(dm) =  0.0541789
**** Start Cycle 5 ****
time for NO, Ng: 0.008
(16, 28, 28)
time for Gg: 0.083
detC 1.0000000000000056
detNg [1.000175 1.004563 1.024263 1.067527 1.125984 1.175726 1.200536 1.206266]
xg [0.999825 0.995457 0.976312 0.936744 0.888112 0.850538 0.832961 0.829004]
ciS 1.825952256400844
ciH -251.27025383534686
S2 = 0.000000
Hsp + Hph =  -137.61052785171316
e_a, e_b
 [-15.634153 -15.603982  -1.616225  -0.714421  -0.714421  -0.709971  -0.628868   0.294996   0.294996   0.628124   0.756154   0.800153   0.800153   1.025754
   1.117024   1.117024   1.439744   1.702958   1.702958   1.948002   2.131098   2.131098   2.453912   2.453912   2.975354   3.241631   3.241631   4.204301] 
 [-15.634153 -15.603982  -1.616225  -0.714421  -0.714421  -0.709971  -0.628868   0.294996   0.294996   0.628124   0.756154   0.800153   0.800153   1.025754
   1.117024   1.117024   1.439744   1.702958   1.702958   1.948002   2.131098   2.131098   2.453912   2.453912   2.975354   3.241631   3.241631   4.204301]
time for xg, H, S2, Yg, Feff: 0.014
 E(SUHF) =   -108.79976859, delta E = -0.00376558, MaxD(dm) =  0.0166813, RMSD(dm) =  0.0583197
**** Start Cycle 6 ****
time for NO, Ng: 0.008
(16, 28, 28)
time for Gg: 0.084
detC -0.9999999999999976
detNg [1.000224 1.005837 1.031158 1.087466 1.165072 1.232492 1.266595 1.274516]
xg [0.999776 0.994197 0.969784 0.919569 0.858316 0.811365 0.789519 0.784612]
ciS 1.7796797383574674
ciH -244.9103914772056
S2 = 0.000000
Hsp + Hph =  -137.61486755096877
e_a, e_b
 [-15.633673 -15.600268  -1.616135  -0.715025  -0.715025  -0.710921  -0.625952   0.295774   0.295774   0.628533   0.756361   0.799925   0.799925   1.026329
   1.118019   1.118019   1.440419   1.702852   1.702852   1.948298   2.131401   2.131401   2.454316   2.454316   2.975839   3.242251   3.242251   4.205141] 
 [-15.633673 -15.600268  -1.616135  -0.715025  -0.715025  -0.710921  -0.625952   0.295774   0.295774   0.628533   0.756361   0.799925   0.799925   1.026329
   1.118019   1.118019   1.440419   1.702852   1.702852   1.948298   2.131401   2.131401   2.454316   2.454316   2.975839   3.242251   3.242251   4.205141]
time for xg, H, S2, Yg, Feff: 0.014
 E(SUHF) =   -108.80410829, delta E = -0.0043397, MaxD(dm) =  0.0170696, RMSD(dm) =  0.0608742
**** Start Cycle 7 ****
time for NO, Ng: 0.008
(16, 28, 28)
time for Gg: 0.082
detC 1.0000000000000053
detNg [1.00028  1.007315 1.039224 1.111225 1.212806 1.303261 1.349798 1.360683]
xg [0.99972  0.992738 0.962256 0.899908 0.824534 0.767306 0.740851 0.734925]
ciS 1.7272574957855995
ciH -237.7044381655856
S2 = 0.000000
Hsp + Hph =  -137.61957249892941
e_a, e_b
 [-15.633243 -15.596366  -1.616198  -0.715771  -0.715771  -0.711989  -0.622732   0.296528   0.296528   0.62898    0.756534   0.799586   0.799586   1.026929
   1.119029   1.119029   1.441117   1.702607   1.702607   1.948503   2.13163    2.13163    2.454675   2.454675   2.976286   3.242853   3.242853   4.205924] 
 [-15.633243 -15.596366  -1.616198  -0.715771  -0.715771  -0.711989  -0.622732   0.296528   0.296528   0.62898    0.756534   0.799586   0.799586   1.026929
   1.119029   1.119029   1.441117   1.702607   1.702607   1.948503   2.13163    2.13163    2.454675   2.454675   2.976286   3.242853   3.242853   4.205924]
time for xg, H, S2, Yg, Feff: 0.014
 E(SUHF) =   -108.80881324, delta E = -0.00470495, MaxD(dm) =  0.0167168, RMSD(dm) =  0.0611221
**** Start Cycle 8 ****
time for NO, Ng: 0.008
(16, 28, 28)
time for Gg: 0.083
detC 1.0000000000000009
detNg [1.000342 1.008942 1.048189 1.138181 1.268512 1.387865 1.450475 1.465238]
xg [0.999658 0.991137 0.954027 0.878595 0.788325 0.720531 0.689429 0.682483]
ciS 1.6711206263836358
ciH -229.98679942041286
S2 = 0.000000
Hsp + Hph =  -137.62429581047806
e_a, e_b
 [-15.632376 -15.591915  -1.616069  -0.716389  -0.716389  -0.712937  -0.619168   0.297362   0.297362   0.629483   0.756748   0.799271   0.799271   1.027661
   1.120169   1.120169   1.441964   1.70243    1.70243    1.948797   2.131978   2.131978   2.455149   2.455149   2.976834   3.243592   3.243592   4.206946] 
 [-15.632376 -15.591915  -1.616069  -0.716389  -0.716389  -0.712937  -0.619168   0.297362   0.297362   0.629483   0.756748   0.799271   0.799271   1.027661
   1.120169   1.120169   1.441964   1.70243    1.70243    1.948797   2.131978   2.131978   2.455149   2.455149   2.976834   3.243592   3.243592   4.206946]
time for xg, H, S2, Yg, Feff: 0.014
 E(SUHF) =   -108.81353655, delta E = -0.00472331, MaxD(dm) =  0.0155125, RMSD(dm) =  0.0584886
**** Start Cycle 9 ****
time for NO, Ng: 0.008
(16, 28, 28)
time for Gg: 0.083
detC -0.9999999999999971
detNg [1.000405 1.010622 1.057542 1.166937 1.329781 1.483425 1.565735 1.585313]
xg [0.999595 0.989489 0.945589 0.856944 0.752004 0.674115 0.638678 0.63079 ]
ciS 1.6148630647803621
ciH -222.251376121616
S2 = 0.000000
Hsp + Hph =  -137.62862063592027
e_a, e_b
 [-15.631191 -15.587193  -1.615768  -0.716864  -0.716864  -0.713712  -0.615469   0.298213   0.298213   0.630003   0.756974   0.798983   0.798983   1.02847
   1.121339   1.121339   1.442894   1.702306   1.702306   1.949125   2.132402   2.132402   2.455687   2.455687   2.977419   3.244397   3.244397   4.208111] 
 [-15.631191 -15.587193  -1.615768  -0.716864  -0.716864  -0.713712  -0.615469   0.298213   0.298213   0.630003   0.756974   0.798983   0.798983   1.02847
   1.121339   1.121339   1.442894   1.702306   1.702306   1.949125   2.132402   2.132402   2.455687   2.455687   2.977419   3.244397   3.244397   4.208111]
time for xg, H, S2, Yg, Feff: 0.014
 E(SUHF) =   -108.81786137, delta E = -0.00432483, MaxD(dm) =  0.0135089, RMSD(dm) =  0.0529248
**** Start Cycle 10 ****
time for NO, Ng: 0.007
(16, 28, 28)
time for Gg: 0.083
detC 1.0000000000000004
detNg [1.000467 1.012237 1.066616 1.195454 1.392438 1.583855 1.688578 1.713709]
xg [0.999534 0.987911 0.937544 0.836502 0.718165 0.631371 0.592214 0.58353 ]
ciS 1.5625023742127147
ciH -215.05063225486504
S2 = 0.000000
Hsp + Hph =  -137.63219551152417
e_a, e_b
 [-15.629745 -15.582425  -1.61525   -0.717163  -0.717163  -0.71424   -0.611847   0.299065   0.299065   0.6305     0.757202   0.798758   0.798758   1.029314
   1.122474   1.122474   1.443859   1.702269   1.702269   1.949475   2.132896   2.132896   2.456273   2.456273   2.978008   3.245226   3.245226   4.209377] 
 [-15.629745 -15.582425  -1.61525   -0.717163  -0.717163  -0.71424   -0.611847   0.299065   0.299065   0.6305     0.757202   0.798758   0.798758   1.029314
   1.122474   1.122474   1.443859   1.702269   1.702269   1.949475   2.132896   2.132896   2.456273   2.456273   2.978008   3.245226   3.245226   4.209377]
time for xg, H, S2, Yg, Feff: 0.014
 E(SUHF) =   -108.82143625, delta E = -0.00357488, MaxD(dm) =  0.0109576, RMSD(dm) =  0.0451157
**** Start Cycle 11 ****
time for NO, Ng: 0.008
(16, 28, 28)
time for Gg: 0.082
detC 1.0000000000000016
detNg [1.000521 1.013672 1.074754 1.221543 1.451411 1.680841 1.808809 1.839771]
xg [0.999479 0.986512 0.930446 0.818637 0.688985 0.59494  0.55285  0.543546]
ciS 1.517390466425574
ciH -208.84583074174202
S2 = 0.000000
Hsp + Hph =  -137.6348641715851
F(mod,ortho) updated with CDIIS
e_a, e_b
 [-15.628183 -15.577889  -1.614524  -0.71731   -0.71731   -0.714506  -0.608514   0.299899   0.299899   0.630934   0.757412   0.79861    0.79861    1.030132
   1.123503   1.123503   1.444787   1.702323   1.702323   1.949811   2.13343    2.13343    2.456869   2.456869   2.978551   3.246017   3.246017   4.210656] 
 [-15.628183 -15.577889  -1.614524  -0.71731   -0.71731   -0.714506  -0.608514   0.299899   0.299899   0.630934   0.757412   0.79861    0.79861    1.030132
   1.123503   1.123503   1.444787   1.702323   1.702323   1.949811   2.13343    2.13343    2.456869   2.456869   2.978551   3.246017   3.246017   4.210656]
time for xg, H, S2, Yg, Feff: 0.014
 E(SUHF) =   -108.82410491, delta E = -0.00266866, MaxD(dm) = 0.00824602, RMSD(dm) =  0.0363731
**** Start Cycle 12 ****
time for NO, Ng: 0.007
(16, 28, 28)
time for Gg: 0.082
detC 1.0000000000000013
detNg [1.000565 1.014854 1.081505 1.243543 1.502336 1.766443 1.91616  1.952636]
xg [0.999435 0.985363 0.924637 0.804154 0.66563  0.566109 0.521877 0.512128]
ciS 1.4813118573831052
ciH -203.8828657989385
S2 = 0.000000
Hsp + Hph =  -137.6366933017867
F(mod,ortho) updated with CDIIS
e_a, e_b
 [-15.620855 -15.558148  -1.611436  -0.719333  -0.719333  -0.715517  -0.594876   0.304304   0.304304   0.633062   0.758643   0.798175   0.798175   1.033858
   1.128978   1.128978   1.448967   1.702823   1.702823   1.952013   2.136058   2.136058   2.45976    2.45976    2.981132   3.249547   3.249547   4.216665] 
 [-15.620855 -15.558148  -1.611436  -0.719333  -0.719333  -0.715517  -0.594876   0.304304   0.304304   0.633062   0.758643   0.798175   0.798175   1.033858
   1.128978   1.128978   1.448967   1.702823   1.702823   1.952013   2.136058   2.136058   2.45976    2.45976    2.981132   3.249547   3.249547   4.216665]
time for xg, H, S2, Yg, Feff: 0.014
 E(SUHF) =   -108.82593404, delta E = -0.00182913, MaxD(dm) =  0.0270566, RMSD(dm) =   0.135766
**** Start Cycle 13 ****
time for NO, Ng: 0.008
(16, 28, 28)
time for Gg: 0.083
detC -1.0000000000000016
detNg [1.000739 1.019471 1.108277 1.333974 1.723213 2.157271 2.420138 2.486051]
xg [0.999262 0.980901 0.902302 0.74964  0.580311 0.463549 0.4132   0.402244]
ciS 1.3496934980185171
ciH -185.7709824730025
S2 = 0.000000
Hsp + Hph =  -137.6393846052697
F(mod,ortho) updated with CDIIS
e_a, e_b
 [-15.622577 -15.573552  -1.602614  -0.712484  -0.712484  -0.706214  -0.605592   0.302761   0.302761   0.628349   0.75615    0.800132   0.800132   1.030239
   1.120333   1.120333   1.445013   1.704671   1.704671   1.946039   2.135284   2.135284   2.457798   2.457798   2.976839   3.246238   3.246238   4.212501] 
 [-15.622577 -15.573552  -1.602614  -0.712484  -0.712484  -0.706214  -0.605592   0.302761   0.302761   0.628349   0.75615    0.800132   0.800132   1.030239
   1.120333   1.120333   1.445013   1.704671   1.704671   1.946039   2.135284   2.135284   2.457798   2.457798   2.976839   3.246238   3.246238   4.212501]
time for xg, H, S2, Yg, Feff: 0.014
 E(SUHF) =   -108.82862534, delta E = -0.0026913, MaxD(dm) =  0.0547799, RMSD(dm) =   0.222646
**** Start Cycle 14 ****
time for NO, Ng: 0.007
(16, 28, 28)
time for Gg: 0.082
detC 1.0
detNg [1.000449 1.011764 1.063905 1.186559 1.371808 1.549345 1.645499 1.668474]
xg [0.999551 0.988372 0.939934 0.842773 0.728965 0.645434 0.607718 0.59935 ]
ciS 1.5792333818956912
ciH -217.35418956725616
S2 = 0.000000
Hsp + Hph =  -137.6327223442725
F(mod,ortho) updated with CDIIS
e_a, e_b
 [-15.622798 -15.572238  -1.602701  -0.712765  -0.712765  -0.706681  -0.604652   0.30285    0.30285    0.628478   0.756171   0.800032   0.800032   1.030438
   1.120571   1.120571   1.445207   1.704587   1.704587   1.946162   2.135323   2.135323   2.457877   2.457877   2.976853   3.246281   3.246281   4.212719] 
 [-15.622798 -15.572238  -1.602701  -0.712765  -0.712765  -0.706681  -0.604652   0.30285    0.30285    0.628478   0.756171   0.800032   0.800032   1.030438
   1.120571   1.120571   1.445207   1.704587   1.704587   1.946162   2.135323   2.135323   2.457877   2.457877   2.976853   3.246281   3.246281   4.212719]
time for xg, H, S2, Yg, Feff: 0.014
 E(SUHF) =   -108.82196308, delta E = 0.00666226, MaxD(dm) = 0.00337427, RMSD(dm) =  0.0178961
**** Start Cycle 15 ****
time for NO, Ng: 0.008
(16, 28, 28)
time for Gg: 0.082
detC -0.9999999999999984
detNg [1.000464 1.012166 1.066156 1.193579 1.387076 1.573609 1.675052 1.699333]
xg [0.999536 0.98798  0.937949 0.837816 0.720941 0.635482 0.596996 0.588466]
ciS 1.566826410770882
ciH -215.64830646439805
S2 = 0.000000
Hsp + Hph =  -137.63382145077492
F(mod,ortho) updated with CDIIS
e_a, e_b
 [-15.625331 -15.581038  -1.605472  -0.713342  -0.713342  -0.706447  -0.610677   0.30153    0.30153    0.628025   0.755703   0.799816   0.799816   1.029123
   1.118478   1.118478   1.443581   1.703882   1.703882   1.945465   2.133875   2.133875   2.45643    2.45643    2.975888   3.244798   3.244798   4.210115] 
 [-15.625331 -15.581038  -1.605472  -0.713342  -0.713342  -0.706447  -0.610677   0.30153    0.30153    0.628025   0.755703   0.799816   0.799816   1.029123
   1.118478   1.118478   1.443581   1.703882   1.703882   1.945465   2.133875   2.133875   2.45643    2.45643    2.975888   3.244798   3.244798   4.210115]
time for xg, H, S2, Yg, Feff: 0.014
 E(SUHF) =   -108.82306219, delta E = -0.00109911, MaxD(dm) =  0.0128002, RMSD(dm) =  0.0738469
**** Start Cycle 16 ****
time for NO, Ng: 0.007
(16, 28, 28)
time for Gg: 0.083
detC -1.0000000000000009
detNg [1.000391 1.010228 1.055321 1.159923 1.314312 1.458614 1.5354   1.553612]
xg [0.99961  0.989875 0.947579 0.862126 0.760854 0.685582 0.651296 0.643661]
ciS 1.6285791871430235
ciH -224.13901583779125
S2 = 0.000000
Hsp + Hph =  -137.62856458395055
F(mod,ortho) updated with CDIIS
e_a, e_b
 [-15.625343 -15.581133  -1.605491  -0.71333   -0.71333   -0.706427  -0.610759   0.301508   0.301508   0.62802    0.7557     0.799819   0.799819   1.029112
   1.118455   1.118455   1.443566   1.703882   1.703882   1.945465   2.133864   2.133864   2.456417   2.456417   2.975879   3.244784   3.244784   4.210095] 
 [-15.625343 -15.581133  -1.605491  -0.71333   -0.71333   -0.706427  -0.610759   0.301508   0.301508   0.62802    0.7557     0.799819   0.799819   1.029112
   1.118455   1.118455   1.443566   1.703882   1.703882   1.945465   2.133864   2.133864   2.456417   2.456417   2.975879   3.244784   3.244784   4.210095]
time for xg, H, S2, Yg, Feff: 0.014
 E(SUHF) =   -108.81780532, delta E = 0.00525687, MaxD(dm) = 0.000222585, RMSD(dm) = 0.00101754
**** Start Cycle 17 ****
time for NO, Ng: 0.008
(16, 28, 28)
time for Gg: 0.082
detC -0.9999999999999973
detNg [1.00039  1.0102   1.055165 1.159444 1.313289 1.457016 1.533471 1.551602]
xg [0.999611 0.989903 0.947719 0.862483 0.761447 0.686334 0.652116 0.644495]
ciS 1.6294966905502655
ciH -224.26516326039697
S2 = 0.000000
Hsp + Hph =  -137.62848648969322
F(mod,ortho) updated with CDIIS
e_a, e_b
 [-15.62546  -15.580967  -1.605616  -0.71356   -0.71356   -0.706784  -0.610502   0.301615   0.301615   0.628068   0.755729   0.799805   0.799805   1.029133
   1.11855    1.11855    1.443605   1.703864   1.703864   1.945545   2.133859   2.133859   2.456419   2.456419   2.975924   3.244797   3.244797   4.210119] 
 [-15.62546  -15.580967  -1.605616  -0.71356   -0.71356   -0.706784  -0.610502   0.301615   0.301615   0.628068   0.755729   0.799805   0.799805   1.029133
   1.11855    1.11855    1.443605   1.703864   1.703864   1.945545   2.133859   2.133859   2.456419   2.456419   2.975924   3.244797   3.244797   4.210119]
time for xg, H, S2, Yg, Feff: 0.014
 E(SUHF) =   -108.81772723, delta E = 7.80943e-05, MaxD(dm) = 0.000715185, RMSD(dm) = 0.00280302
**** Start Cycle 18 ****
time for NO, Ng: 0.007
(16, 28, 28)
time for Gg: 0.082
detC 0.9999999999999996
detNg [1.000391 1.010252 1.055454 1.160333 1.315186 1.459979 1.537047 1.555328]
xg [0.999609 0.989852 0.94746  0.861822 0.760349 0.684942 0.650598 0.642951]
ciS 1.6277965282451445
ciH -224.03137992982158
S2 = 0.000000
Hsp + Hph =  -137.62861392224488
F(mod,ortho) updated with CDIIS
e_a, e_b
 [-15.62825  -15.578951  -1.604692  -0.713504  -0.713504  -0.711738  -0.604946   0.300486   0.300486   0.627449   0.755198   0.799417   0.799417   1.028606
   1.118004   1.118004   1.443945   1.703202   1.703202   1.943871   2.133352   2.133352   2.455846   2.455846   2.975363   3.244311   3.244311   4.209031] 
 [-15.62825  -15.578951  -1.604692  -0.713504  -0.713504  -0.711738  -0.604946   0.300486   0.300486   0.627449   0.755198   0.799417   0.799417   1.028606
   1.118004   1.118004   1.443945   1.703202   1.703202   1.943871   2.133352   2.133352   2.455846   2.455846   2.975363   3.244311   3.244311   4.209031]
time for xg, H, S2, Yg, Feff: 0.014
 E(SUHF) =   -108.81785466, delta E = -0.000127433, MaxD(dm) =  0.0151284, RMSD(dm) =  0.0503695
**** Start Cycle 19 ****
time for NO, Ng: 0.007
(16, 28, 28)
time for Gg: 0.082
detC 1.000000000000002
detNg [1.000404 1.01059  1.057315 1.165924 1.326746 1.477561 1.557994 1.577088]
xg [0.999596 0.989521 0.945792 0.857689 0.753724 0.676791 0.641851 0.63408 ]
ciS 1.6175554772219796
ciH -222.62361360231708
S2 = 0.000000
Hsp + Hph =  -137.62966200371386
F(mod,ortho) updated with CDIIS
e_a, e_b
 [-15.625438 -15.568784  -1.600939  -0.710623  -0.709071  -0.709071  -0.597727   0.299093   0.299093   0.62766    0.755333   0.799744   0.799744   1.02976
   1.118913   1.118913   1.445136   1.704026   1.704026   1.944072   2.134856   2.134856   2.457207   2.457207   2.975674   3.245612   3.245612   4.211586] 
 [-15.625438 -15.568784  -1.600939  -0.710623  -0.709071  -0.709071  -0.597727   0.299093   0.299093   0.62766    0.755333   0.799744   0.799744   1.02976
   1.118913   1.118913   1.445137   1.704026   1.704026   1.944072   2.134856   2.134856   2.457207   2.457207   2.975674   3.245612   3.245612   4.211586]
time for xg, H, S2, Yg, Feff: 0.014
 E(SUHF) =   -108.81890274, delta E = -0.00104808, MaxD(dm) =  0.0169061, RMSD(dm) =  0.0900044
**** Start Cycle 20 ****
time for NO, Ng: 0.007
(16, 28, 28)
time for Gg: 0.082
detC 1.0000000000000018
detNg [1.000476 1.012491 1.067919 1.198685 1.397042 1.587921 1.691565 1.716354]
xg [0.999524 0.987663 0.936401 0.834248 0.715798 0.629754 0.591168 0.58263 ]
ciS 1.5589047826001834
ciH -214.5599841713352
S2 = 0.000000
Hsp + Hph =  -137.63507981126259
F(mod,ortho) updated with CDIIS
e_a, e_b
 [-15.623508 -15.538233  -1.607017  -0.732847  -0.732589  -0.732589  -0.579316   0.309443   0.309443   0.634028   0.759764   0.797671   0.797671   1.036418
   1.138388   1.138388   1.455869   1.702018   1.702018   1.951751   2.137405   2.137405   2.461023   2.461023   2.982968   3.250576   3.250576   4.21918 ] 
 [-15.623508 -15.538233  -1.607017  -0.732847  -0.732589  -0.732589  -0.579316   0.309443   0.309443   0.634028   0.759764   0.797671   0.797671   1.036418
   1.138388   1.138388   1.455869   1.702018   1.702018   1.951751   2.137405   2.137405   2.461023   2.461023   2.982968   3.250576   3.250576   4.21918 ]
time for xg, H, S2, Yg, Feff: 0.014
 E(SUHF) =   -108.82432055, delta E = -0.00541781, MaxD(dm) =   0.064281, RMSD(dm) =   0.322961
**** Start Cycle 21 ****
time for NO, Ng: 0.007
(16, 28, 28)
time for Gg: 0.082
detC 0.9999999999999957
detNg [1.000926 1.02445  1.137462 1.435042 1.979626 2.628332 3.040479 3.145987]
xg [0.999075 0.976133 0.87915  0.696844 0.505146 0.380469 0.328896 0.317865]
ciS 1.2336899040644211
ciH -169.79512054212532
S2 = -0.000000
Hsp + Hph =  -137.63192839848264
F(mod,ortho) updated with CDIIS
e_a, e_b
 [-15.624022 -15.556746  -1.605265  -0.71808   -0.718017  -0.718017  -0.589223   0.304304   0.304304   0.630993   0.757461   0.799133   0.799133   1.03219
   1.126348   1.126348   1.447655   1.703655   1.703655   1.94887    2.136168   2.136168   2.459097   2.459097   2.9786     3.247986   3.247986   4.21535 ] 
 [-15.624022 -15.556746  -1.605265  -0.71808   -0.718017  -0.718017  -0.589223   0.304304   0.304304   0.630993   0.757461   0.799133   0.799133   1.03219
   1.126348   1.126348   1.447655   1.703655   1.703655   1.94887    2.136168   2.136168   2.459097   2.459097   2.9786     3.247986   3.247986   4.21535 ]
time for xg, H, S2, Yg, Feff: 0.014
 E(SUHF) =   -108.82116914, delta E = 0.00315141, MaxD(dm) =  0.0335336, RMSD(dm) =   0.192469
**** Start Cycle 22 ****
time for NO, Ng: 0.007
(16, 28, 28)
time for Gg: 0.082
detC 1.0000000000000016
detNg [1.000656 1.017243 1.095068 1.287225 1.601941 1.931886 2.122485 2.169289]
xg [0.999345 0.98305  0.913185 0.776865 0.624243 0.517629 0.471146 0.460981]
ciS 1.417445045438435
ciH -195.09784493956332
S2 = 0.000000
Hsp + Hph =  -137.6405001149211
F(mod,ortho) updated with CDIIS
e_a, e_b
 [-15.621167 -15.551974  -1.603565  -0.71825   -0.71825   -0.714783  -0.586999   0.305295   0.305295   0.631314   0.75812    0.799312   0.799312   1.031883
   1.128422   1.128422   1.447786   1.704163   1.704163   1.949933   2.137223   2.137223   2.460219   2.460219   2.980032   3.249153   3.249153   4.216278] 
 [-15.621167 -15.551974  -1.603565  -0.71825   -0.71825   -0.714783  -0.586999   0.305295   0.305295   0.631314   0.75812    0.799312   0.799312   1.031883
   1.128422   1.128422   1.447786   1.704163   1.704163   1.949933   2.137223   2.137223   2.460219   2.460219   2.980032   3.249153   3.249153   4.216278]
time for xg, H, S2, Yg, Feff: 0.014
 E(SUHF) =   -108.82974085, delta E = -0.00857172, MaxD(dm) = 0.00795628, RMSD(dm) =  0.0432342
**** Start Cycle 23 ****
time for NO, Ng: 0.007
(16, 28, 28)
time for Gg: 0.082
detC 1.0000000000000016
detNg [1.000703 1.01851  1.102414 1.311995 1.662099 2.03747  2.257909 2.312426]
xg [0.999297 0.981827 0.9071   0.762198 0.601649 0.490805 0.442888 0.432446]
ciS 1.3825778920351053
ciH -190.29886468769757
S2 = -0.000000
Hsp + Hph =  -137.64061018477912
F(mod,ortho) updated with CDIIS
e_a, e_b
 [-15.621557 -15.563862  -1.599869  -0.711049  -0.711049  -0.706766  -0.595327   0.301986   0.301986   0.628677   0.756292   0.799539   0.799539   1.030031
   1.122011   1.122011   1.445209   1.704256   1.704256   1.94518    2.135987   2.135987   2.458744   2.458744   2.97726    3.247281   3.247281   4.212723] 
 [-15.621557 -15.563862  -1.599869  -0.711049  -0.711049  -0.706766  -0.595327   0.301986   0.301986   0.628677   0.756292   0.799539   0.799539   1.030031
   1.122011   1.122011   1.445209   1.704256   1.704256   1.94518    2.135987   2.135987   2.458744   2.458744   2.97726    3.247281   3.247281   4.212723]
time for xg, H, S2, Yg, Feff: 0.014
 E(SUHF) =   -108.82985092, delta E = -0.00011007, MaxD(dm) =  0.0243199, RMSD(dm) =   0.116642
**** Start Cycle 24 ****
time for NO, Ng: 0.007
(16, 28, 28)
time for Gg: 0.082
detC -1.000000000000007
detNg [1.000568 1.014915 1.08175  1.243637 1.5004   1.760175 1.906444 1.941973]
xg [0.999432 0.985304 0.924428 0.804093 0.666489 0.568125 0.524537 0.51494 ]
ciS 1.4826646374543273
ciH -204.07173797184868
S2 = 0.000000
Hsp + Hph =  -137.63850085629022
F(mod,ortho) updated with CDIIS
e_a, e_b
 [-15.622756 -15.555478  -1.603596  -0.717515  -0.717515  -0.716047  -0.588777   0.304489   0.304489   0.630701   0.757503   0.79917    0.79917    1.031836
   1.126784   1.126784   1.447751   1.703829   1.703829   1.94844    2.136509   2.136509   2.459466   2.459466   2.978983   3.248344   3.248344   4.215315] 
 [-15.622756 -15.555478  -1.603596  -0.717515  -0.717515  -0.716047  -0.588777   0.304489   0.304489   0.630701   0.757503   0.79917    0.79917    1.031836
   1.126784   1.126784   1.447751   1.703829   1.703829   1.94844    2.136509   2.136509   2.459466   2.459466   2.978983   3.248344   3.248344   4.215315]
time for xg, H, S2, Yg, Feff: 0.014
 E(SUHF) =   -108.82774160, delta E = 0.00210933, MaxD(dm) =  0.0208233, RMSD(dm) =  0.0908256
**** Start Cycle 25 ****
time for NO, Ng: 0.008
(16, 28, 28)
time for Gg: 0.082
detC -1.0000000000000018
detNg [1.000668 1.017571 1.096983 1.293745 1.617964 1.960265 2.159034 2.207956]
xg [0.999332 0.982732 0.911591 0.77295  0.618061 0.510135 0.46317  0.452908]
ciS 1.4079027899621026
ciH -193.78462182808875
S2 = 0.000000
Hsp + Hph =  -137.6406263342265
F(mod,ortho) updated with CDIIS
e_a, e_b
 [-15.621898 -15.553664  -1.602621  -0.717681  -0.717681  -0.716211  -0.588212   0.304965   0.304965   0.630905   0.757688   0.799194   0.799194   1.032453
   1.127474   1.127474   1.448503   1.703985   1.703985   1.948469   2.136871   2.136871   2.459845   2.459845   2.979423   3.248736   3.248736   4.215797] 
 [-15.621898 -15.553664  -1.602621  -0.717681  -0.717681  -0.716211  -0.588212   0.304965   0.304965   0.630905   0.757688   0.799194   0.799194   1.032453
   1.127474   1.127474   1.448503   1.703985   1.703985   1.948469   2.136871   2.136871   2.459845   2.459845   2.979423   3.248736   3.248736   4.215797]
time for xg, H, S2, Yg, Feff: 0.014
 E(SUHF) =   -108.82986707, delta E = -0.00212548, MaxD(dm) = 0.00256775, RMSD(dm) =    0.01335
**** Start Cycle 26 ****
time for NO, Ng: 0.007
(16, 28, 28)
time for Gg: 0.082
detC -1.000000000000002
detNg [1.000686 1.018041 1.099709 1.30296  1.640425 1.999815 2.209847 2.261684]
xg [0.999315 0.982279 0.909331 0.767483 0.609598 0.500046 0.45252  0.442148]
ciS 1.3948432119628658
ciH -191.98718345763913
S2 = -0.000000
Hsp + Hph =  -137.64069094724195
F(mod,ortho) updated with CDIIS
e_a, e_b
 [-15.622418 -15.554211  -1.602884  -0.717655  -0.717655  -0.716752  -0.5882     0.304736   0.304736   0.630853   0.757591   0.799144   0.799144   1.032347
   1.127157   1.127157   1.448371   1.703871   1.703871   1.948317   2.136692   2.136692   2.459654   2.459654   2.979216   3.248537   3.248537   4.215566] 
 [-15.622418 -15.554211  -1.602884  -0.717655  -0.717655  -0.716752  -0.5882     0.304736   0.304736   0.630853   0.757591   0.799144   0.799144   1.032347
   1.127157   1.127157   1.448371   1.703871   1.703871   1.948317   2.136692   2.136692   2.459654   2.459654   2.979216   3.248537   3.248537   4.215566]
time for xg, H, S2, Yg, Feff: 0.014
 E(SUHF) =   -108.82993169, delta E = -6.4613e-05, MaxD(dm) = 0.00113867, RMSD(dm) = 0.00581997
**** Start Cycle 27 ****
time for NO, Ng: 0.007
(16, 28, 28)
time for Gg: 0.083
detC -1.0000000000000038
detNg [1.00068  1.017894 1.098854 1.300035 1.63319  1.986913 2.193168 2.244022]
xg [0.99932  0.98242  0.910039 0.76921  0.612299 0.503293 0.455961 0.445628]
ciS 1.3990107752018885
ciH -192.56079622819146
S2 = -0.000000
Hsp + Hph =  -137.6406812881076
F(mod,ortho) updated with CDIIS
e_a, e_b
 [-15.622082 -15.553062  -1.602912  -0.718097  -0.718097  -0.716955  -0.587509   0.305065   0.305065   0.631032   0.757747   0.799139   0.799139   1.032513
   1.127731   1.127731   1.44858    1.703916   1.703916   1.948666   2.136872   2.136872   2.459856   2.459856   2.979481   3.248766   3.248766   4.215926] 
 [-15.622082 -15.553062  -1.602912  -0.718097  -0.718097  -0.716955  -0.587509   0.305065   0.305065   0.631032   0.757747   0.799139   0.799139   1.032513
   1.127731   1.127731   1.44858    1.703916   1.703916   1.948666   2.136872   2.136872   2.459856   2.459856   2.979481   3.248766   3.248766   4.215926]
time for xg, H, S2, Yg, Feff: 0.014
 E(SUHF) =   -108.82992203, delta E = 9.65913e-06, MaxD(dm) = 0.00169697, RMSD(dm) = 0.00968376
**** Start Cycle 28 ****
time for NO, Ng: 0.007
(16, 28, 28)
time for Gg: 0.083
detC 1.0000000000000007
detNg [1.000693 1.018236 1.100837 1.306736 1.649517 2.015666 2.230115 2.283092]
xg [0.999307 0.982091 0.9084   0.765266 0.606238 0.496114 0.448407 0.438003]
ciS 1.3896583115706236
ciH -191.27352793075244
S2 = -0.000000
Hsp + Hph =  -137.64068932496843
F(mod,ortho) updated with CDIIS
e_a, e_b
 [-15.622098 -15.553387  -1.602857  -0.717983  -0.717983  -0.716677  -0.587888   0.305004   0.305004   0.630978   0.75773    0.799142   0.799142   1.032453
   1.127616   1.127616   1.44848    1.703913   1.703913   1.948593   2.136838   2.136838   2.459822   2.459822   2.979465   3.248722   3.248722   4.215823] 
 [-15.622098 -15.553387  -1.602857  -0.717983  -0.717983  -0.716677  -0.587888   0.305004   0.305004   0.630978   0.75773    0.799142   0.799142   1.032453
   1.127616   1.127616   1.44848    1.703913   1.703913   1.948593   2.136838   2.136838   2.459822   2.459822   2.979465   3.248722   3.248722   4.215823]
time for xg, H, S2, Yg, Feff: 0.014
 E(SUHF) =   -108.82993006, delta E = -8.03686e-06, MaxD(dm) = 0.00078654, RMSD(dm) = 0.00313311
**** Start Cycle 29 ****
time for NO, Ng: 0.007
(16, 28, 28)
time for Gg: 0.082
detC 0.9999999999999978
detNg [1.00069  1.018145 1.100311 1.304964 1.645216 2.008114 2.220424 2.272847]
xg [0.999311 0.982178 0.908834 0.766305 0.607823 0.49798  0.450364 0.439977]
ciS 1.3921037808456913
ciH -191.61012840920228
S2 = -0.000000
Hsp + Hph =  -137.6406924868782
F(mod,ortho) updated with CDIIS
e_a, e_b
 [-15.622129 -15.553402  -1.602909  -0.718019  -0.718019  -0.716757  -0.587936   0.305005   0.305005   0.630985   0.757732   0.799139   0.799139   1.032483
   1.127632   1.127632   1.448514   1.703911   1.703911   1.948618   2.136831   2.136831   2.459815   2.459815   2.979466   3.248718   3.248718   4.215835] 
 [-15.622129 -15.553402  -1.602909  -0.718019  -0.718019  -0.716757  -0.587936   0.305005   0.305005   0.630985   0.757732   0.799139   0.799139   1.032483
   1.127632   1.127632   1.448514   1.703911   1.703911   1.948618   2.136831   2.136831   2.459815   2.459815   2.979466   3.248718   3.248718   4.215835]
time for xg, H, S2, Yg, Feff: 0.014
 E(SUHF) =   -108.82993323, delta E = -3.16191e-06, MaxD(dm) = 0.000176754, RMSD(dm) = 0.00065528
**** Start Cycle 30 ****
time for NO, Ng: 0.007
(16, 28, 28)
time for Gg: 0.083
detC -0.9999999999999964
detNg [1.000689 1.018139 1.100272 1.304832 1.644897 2.007555 2.219709 2.272091]
xg [0.999311 0.982185 0.908866 0.766382 0.607941 0.498118 0.45051  0.440123]
ciS 1.3922857350797662
ciH -191.6351728434553
S2 = -0.000000
Hsp + Hph =  -137.6406925784356
F(mod,ortho) updated with CDIIS
e_a, e_b
 [-15.622125 -15.553481  -1.602897  -0.717999  -0.717999  -0.716667  -0.588019   0.304997   0.304997   0.630975   0.757727   0.799139   0.799139   1.032466
   1.12761    1.12761    1.448485   1.703911   1.703911   1.948599   2.136824   2.136824   2.459809   2.459809   2.979456   3.24871    3.24871    4.215811] 
 [-15.622125 -15.553481  -1.602897  -0.717999  -0.717999  -0.716667  -0.588019   0.304997   0.304997   0.630975   0.757727   0.799139   0.799139   1.032466
   1.12761    1.12761    1.448485   1.703911   1.703911   1.948599   2.136824   2.136824   2.459809   2.459809   2.979456   3.24871    3.24871    4.215811]
time for xg, H, S2, Yg, Feff: 0.014
 E(SUHF) =   -108.82993332, delta E = -9.15574e-08, MaxD(dm) = 0.00023288, RMSD(dm) = 0.00082535
**** Start Cycle 31 ****
time for NO, Ng: 0.007
(16, 28, 28)
time for Gg: 0.082
detC -0.9999999999999984
detNg [1.000689 1.018119 1.100161 1.304463 1.644016 2.006028 2.217763 2.270037]
xg [0.999312 0.982203 0.908958 0.766599 0.608267 0.498497 0.450905 0.440521]
ciS 1.3927888698121655
ciH -191.70442490764444
S2 = -0.000000
Hsp + Hph =  -137.64069275876545
F(mod,ortho) updated with CDIIS
e_a, e_b
 [-15.622101 -15.55352   -1.602878  -0.717976  -0.717976  -0.716585  -0.588083   0.304999   0.304999   0.630973   0.757728   0.799142   0.799142   1.03246
   1.1276     1.1276     1.448471   1.703919   1.703919   1.948594   2.136827   2.136827   2.459812   2.459812   2.979456   3.248712   3.248712   4.215809] 
 [-15.622101 -15.55352   -1.602878  -0.717976  -0.717976  -0.716585  -0.588083   0.304999   0.304999   0.630973   0.757728   0.799142   0.799142   1.03246
   1.1276     1.1276     1.448471   1.703919   1.703919   1.948594   2.136827   2.136827   2.459812   2.459812   2.979456   3.248712   3.248712   4.215809]
time for xg, H, S2, Yg, Feff: 0.014
 E(SUHF) =   -108.82993350, delta E = -1.8033e-07, MaxD(dm) = 0.000200232, RMSD(dm) = 0.000664009
**** Start Cycle 32 ****
time for NO, Ng: 0.007
(16, 28, 28)
time for Gg: 0.082
detC -1.000000000000006
detNg [1.000688 1.018105 1.100081 1.304198 1.643386 2.004944 2.216385 2.268584]
xg [0.999312 0.982216 0.909024 0.766754 0.6085   0.498767 0.451185 0.440804]
ciS 1.3931482259049541
ciH -191.7538869378509
S2 = -0.000000
Hsp + Hph =  -137.64069276497293
F(mod,ortho) updated with CDIIS
e_a, e_b
 [-15.622115 -15.553505  -1.602886  -0.717986  -0.717986  -0.716613  -0.588065   0.304999   0.304999   0.630976   0.757727   0.79914    0.79914    1.032464
   1.127603   1.127603   1.448477   1.703915   1.703915   1.948595   2.136825   2.136825   2.459811   2.459811   2.979456   3.248711   3.248711   4.215808] 
 [-15.622115 -15.553505  -1.602886  -0.717986  -0.717986  -0.716613  -0.588065   0.304999   0.304999   0.630976   0.757727   0.79914    0.79914    1.032464
   1.127603   1.127603   1.448477   1.703915   1.703915   1.948595   2.136825   2.136825   2.459811   2.459811   2.979456   3.248711   3.248711   4.215808]
time for xg, H, S2, Yg, Feff: 0.014
 E(SUHF) =   -108.82993350, delta E = -6.20747e-09, MaxD(dm) = 6.41367e-05, RMSD(dm) = 0.000232547
**** Start Cycle 33 ****
time for NO, Ng: 0.007
(16, 28, 28)
time for Gg: 0.082
detC -1.0000000000000027
detNg [1.000688 1.018111 1.100113 1.304306 1.643643 2.005388 2.216951 2.269181]
xg [0.999312 0.982211 0.908997 0.766692 0.608405 0.498657 0.45107  0.440688]
ciS 1.3930019010469983
ciH -191.73374669925138
S2 = -0.000000
Hsp + Hph =  -137.6406927766156
F(mod,ortho) updated with CDIIS
e_a, e_b
 [-15.622108 -15.553493  -1.60288   -0.717983  -0.717983  -0.716611  -0.588062   0.305002   0.305002   0.630977   0.757728   0.799142   0.799142   1.032466
   1.127606   1.127606   1.448481   1.703918   1.703918   1.948598   2.136829   2.136829   2.459814   2.459814   2.979458   3.248714   3.248714   4.215813] 
 [-15.622108 -15.553493  -1.60288   -0.717983  -0.717983  -0.716611  -0.588062   0.305002   0.305002   0.630977   0.757728   0.799142   0.799142   1.032466
   1.127606   1.127606   1.448481   1.703918   1.703918   1.948598   2.136829   2.136829   2.459814   2.459814   2.979458   3.248714   3.248714   4.215813]
time for xg, H, S2, Yg, Feff: 0.014
 E(SUHF) =   -108.82993352, delta E = -1.16427e-08, MaxD(dm) = 8.10331e-06, RMSD(dm) = 4.8659e-05
**** Start Cycle 34 ****
time for NO, Ng: 0.008
(16, 28, 28)
time for Gg: 0.082
detC 1.0000000000000018
detNg [1.000688 1.018112 1.100117 1.304317 1.643669 2.005434 2.217009 2.269243]
xg [0.999312 0.982211 0.908995 0.766685 0.608395 0.498645 0.451058 0.440676]
ciS 1.3929865755222217
ciH -191.73163728415125
S2 = -0.000000
Hsp + Hph =  -137.64069277715208
F(mod,ortho) updated with CDIIS
e_a, e_b
 [-15.622106 -15.55349   -1.602878  -0.717981  -0.717981  -0.71661   -0.588061   0.305003   0.305003   0.630977   0.757729   0.799143   0.799143   1.032467
   1.127606   1.127606   1.448482   1.703919   1.703919   1.948599   2.13683    2.13683    2.459815   2.459815   2.979459   3.248715   3.248715   4.215815] 
 [-15.622106 -15.55349   -1.602878  -0.717981  -0.717981  -0.71661   -0.588061   0.305003   0.305003   0.630977   0.757729   0.799143   0.799143   1.032467
   1.127606   1.127606   1.448482   1.703919   1.703919   1.948599   2.13683    2.13683    2.459815   2.459815   2.979459   3.248715   3.248715   4.215815]
time for xg, H, S2, Yg, Feff: 0.014
 E(SUHF) =   -108.82993352, delta E = -5.36488e-10, MaxD(dm) = 3.17055e-06, RMSD(dm) = 1.79705e-05
**** Start Cycle 35 ****
time for NO, Ng: 0.007
(16, 28, 28)
time for Gg: 0.082
detC 1.0000000000000027
detNg [1.000688 1.018111 1.100115 1.304312 1.643658 2.005413 2.216982 2.269214]
xg [0.999312 0.982211 0.908996 0.766688 0.608399 0.49865  0.451064 0.440681]
ciS 1.3929931443256767
ciH -191.73254141888992
S2 = -0.000000
Hsp + Hph =  -137.64069277720978
F(mod,ortho) updated with CDIIS
e_a, e_b
 [-15.622105 -15.553489  -1.602877  -0.717981  -0.717981  -0.71661   -0.588059   0.305003   0.305003   0.630978   0.757729   0.799143   0.799143   1.032467
   1.127607   1.127607   1.448482   1.70392    1.70392    1.948599   2.13683    2.13683    2.459815   2.459815   2.979459   3.248715   3.248715   4.215816] 
 [-15.622105 -15.553489  -1.602877  -0.717981  -0.717981  -0.71661   -0.588059   0.305003   0.305003   0.630978   0.757729   0.799143   0.799143   1.032467
   1.127607   1.127607   1.448482   1.70392    1.70392    1.948599   2.13683    2.13683    2.459815   2.459815   2.979459   3.248715   3.248715   4.215816]
time for xg, H, S2, Yg, Feff: 0.014
 E(SUHF) =   -108.82993352, delta E = -5.76961e-11, MaxD(dm) = 3.25479e-06, RMSD(dm) = 1.13348e-05
**** Start Cycle 36 ****
time for NO, Ng: 0.008
(16, 28, 28)
time for Gg: 0.082
detC -1.000000000000001
detNg [1.000688 1.018111 1.100115 1.304311 1.643654 2.005406 2.216972 2.269203]
xg [0.999312 0.982211 0.908996 0.766688 0.608401 0.498652 0.451066 0.440683]
ciS 1.3929954812995222
ciH -191.7328630816011
S2 = -0.000000
Hsp + Hph =  -137.64069277721848
F(mod,ortho) updated with CDIIS
e_a, e_b
 [-15.622106 -15.553489  -1.602877  -0.717981  -0.717981  -0.716611  -0.58806    0.305003   0.305003   0.630978   0.757729   0.799142   0.799142   1.032467
   1.127607   1.127607   1.448482   1.703919   1.703919   1.948599   2.13683    2.13683    2.459815   2.459815   2.979458   3.248715   3.248715   4.215815] 
 [-15.622106 -15.553489  -1.602877  -0.717981  -0.717981  -0.716611  -0.58806    0.305003   0.305003   0.630978   0.757729   0.799142   0.799142   1.032467
   1.127607   1.127607   1.448482   1.703919   1.703919   1.948599   2.13683    2.13683    2.459815   2.459815   2.979458   3.248715   3.248715   4.215815]
time for xg, H, S2, Yg, Feff: 0.014
 E(SUHF) =   -108.82993352, delta E = -8.69704e-12, MaxD(dm) = 9.60159e-07, RMSD(dm) = 4.26863e-06
**** Start Cycle 37 ****
time for NO, Ng: 0.007
(16, 28, 28)
time for Gg: 0.083
detC -1.0000000000000027
detNg [1.000688 1.018111 1.100115 1.304311 1.643654 2.005406 2.216973 2.269204]
xg [0.999312 0.982211 0.908996 0.766688 0.6084   0.498652 0.451066 0.440683]
ciS 1.3929952669879562
ciH -191.7328335836176
S2 = -0.000000
Hsp + Hph =  -137.64069277722484
F(mod,ortho) updated with CDIIS
e_a, e_b
 [-15.622105 -15.553489  -1.602877  -0.717981  -0.717981  -0.71661   -0.58806    0.305003   0.305003   0.630978   0.757729   0.799143   0.799143   1.032467
   1.127607   1.127607   1.448482   1.70392    1.70392    1.948599   2.13683    2.13683    2.459815   2.459815   2.979458   3.248715   3.248715   4.215815] 
 [-15.622106 -15.553489  -1.602877  -0.717981  -0.717981  -0.71661   -0.58806    0.305003   0.305003   0.630978   0.757729   0.799143   0.799143   1.032467
   1.127607   1.127607   1.448482   1.70392    1.70392    1.948599   2.13683    2.13683    2.459815   2.459815   2.979458   3.248715   3.248715   4.215815]
time for xg, H, S2, Yg, Feff: 0.014
 E(SUHF) =   -108.82993352, delta E = -6.36646e-12, MaxD(dm) = 2.51991e-06, RMSD(dm) = 7.29586e-06
**** Start Cycle 38 ****
time for NO, Ng: 0.007
(16, 28, 28)
time for Gg: 0.082
detC -1.0000000000000018
detNg [1.000688 1.018111 1.100115 1.304311 1.643654 2.005406 2.216972 2.269204]
xg [0.999312 0.982211 0.908996 0.766689 0.608401 0.498652 0.451066 0.440683]
ciS 1.3929955453327552
ciH -191.73287189520215
S2 = -0.000000
Hsp + Hph =  -137.64069277723462
F(mod,ortho) updated with CDIIS
e_a, e_b
 [-15.622106 -15.553489  -1.602877  -0.717981  -0.717981  -0.71661   -0.588061   0.305003   0.305003   0.630978   0.757729   0.799143   0.799143   1.032468
   1.127607   1.127607   1.448482   1.70392    1.70392    1.948599   2.13683    2.13683    2.459815   2.459815   2.979458   3.248715   3.248715   4.215815] 
 [-15.622105 -15.553489  -1.602877  -0.717981  -0.717981  -0.716609  -0.588061   0.305003   0.305003   0.630978   0.757729   0.799143   0.799143   1.032468
   1.127607   1.127607   1.448482   1.70392    1.70392    1.948599   2.13683    2.13683    2.459815   2.459815   2.979458   3.248715   3.248715   4.215815]
time for xg, H, S2, Yg, Feff: 0.014
 E(SUHF) =   -108.82993352, delta E = -9.77707e-12, MaxD(dm) = 9.24269e-07, RMSD(dm) = 2.81285e-06
**** Start Cycle 39 ****
time for NO, Ng: 0.008
(16, 28, 28)
time for Gg: 0.082
detC -1.0000000000000016
detNg [1.000688 1.018111 1.100115 1.304311 1.643653 2.005406 2.216972 2.269203]
xg [0.999312 0.982211 0.908996 0.766689 0.608401 0.498652 0.451066 0.440683]
ciS 1.3929956918770787
ciH -191.73289206566793
S2 = -0.000000
Hsp + Hph =  -137.64069277723718
F(mod,ortho) updated with CDIIS
e_a, e_b
 [-15.622105 -15.553489  -1.602877  -0.717981  -0.717981  -0.716609  -0.588061   0.305003   0.305003   0.630978   0.757729   0.799143   0.799143   1.032468
   1.127607   1.127607   1.448482   1.70392    1.70392    1.948599   2.13683    2.13683    2.459815   2.459815   2.979458   3.248715   3.248715   4.215815] 
 [-15.622106 -15.553489  -1.602877  -0.717981  -0.717981  -0.716609  -0.588061   0.305003   0.305003   0.630978   0.757729   0.799143   0.799143   1.032468
   1.127607   1.127607   1.448482   1.70392    1.70392    1.948599   2.13683    2.13683    2.459815   2.459815   2.979458   3.248715   3.248715   4.215815]
time for xg, H, S2, Yg, Feff: 0.014
 E(SUHF) =   -108.82993352, delta E = -2.55795e-12, MaxD(dm) = 9.59417e-07, RMSD(dm) = 3.27071e-06
**** Start Cycle 40 ****
time for NO, Ng: 0.007
(16, 28, 28)
time for Gg: 0.082
detC -1.0
detNg [1.000688 1.018111 1.100115 1.30431  1.643653 2.005406 2.216972 2.269204]
xg [0.999312 0.982211 0.908996 0.766689 0.608401 0.498652 0.451066 0.440683]
ciS 1.3929956870094504
ciH -191.7328913956875
S2 = -0.000000
Hsp + Hph =  -137.6406927772395
F(mod,ortho) updated with CDIIS
e_a, e_b
 [-15.622105 -15.553489  -1.602876  -0.717981  -0.717981  -0.716609  -0.588061   0.305003   0.305003   0.630978   0.757729   0.799143   0.799143   1.032468
   1.127607   1.127607   1.448482   1.70392    1.70392    1.948599   2.13683    2.13683    2.459815   2.459815   2.979458   3.248715   3.248715   4.215816] 
 [-15.622105 -15.553489  -1.602876  -0.717981  -0.717981  -0.716609  -0.588061   0.305003   0.305003   0.630978   0.757729   0.799143   0.799143   1.032468
   1.127607   1.127607   1.448482   1.70392    1.70392    1.948599   2.13683    2.13683    2.459815   2.459815   2.979458   3.248715   3.248715   4.215816]
time for xg, H, S2, Yg, Feff: 0.014
 E(SUHF) =   -108.82993352, delta E = -2.33058e-12, MaxD(dm) = 6.0179e-07, RMSD(dm) = 3.09958e-06
**** Start Cycle 41 ****
time for NO, Ng: 0.008
(16, 28, 28)
time for Gg: 0.082
detC 1.0000000000000009
detNg [1.000688 1.018111 1.100115 1.30431  1.643653 2.005404 2.21697  2.269201]
xg [0.999312 0.982211 0.908996 0.766689 0.608401 0.498653 0.451066 0.440684]
ciS 1.3929961569555216
ciH -191.73295607939292
S2 = -0.000000
Hsp + Hph =  -137.64069277724144
F(mod,ortho) updated with CDIIS
e_a, e_b
 [-15.622105 -15.553489  -1.602876  -0.717981  -0.717981  -0.716609  -0.588062   0.305003   0.305003   0.630978   0.757729   0.799143   0.799143   1.032468
   1.127607   1.127607   1.448482   1.70392    1.70392    1.948599   2.13683    2.13683    2.459815   2.459815   2.979458   3.248715   3.248715   4.215815] 
 [-15.622105 -15.553489  -1.602876  -0.717981  -0.717981  -0.716609  -0.588062   0.305003   0.305003   0.630978   0.757729   0.799143   0.799143   1.032468
   1.127607   1.127607   1.448482   1.70392    1.70392    1.948599   2.13683    2.13683    2.459815   2.459815   2.979458   3.248715   3.248715   4.215815]
time for xg, H, S2, Yg, Feff: 0.014
 E(SUHF) =   -108.82993352, delta E = -1.93268e-12, MaxD(dm) = 2.77791e-07, RMSD(dm) = 1.04712e-06
**** Start Cycle 42 ****
time for NO, Ng: 0.007
(16, 28, 28)
time for Gg: 0.082
detC 1.0000000000000002
detNg [1.000688 1.018111 1.100115 1.30431  1.643653 2.005404 2.21697  2.269201]
xg [0.999312 0.982211 0.908996 0.766689 0.608401 0.498653 0.451066 0.440684]
ciS 1.3929961883400348
ciH -191.73296039917946
S2 = -0.000000
Hsp + Hph =  -137.6406927772417
F(mod,ortho) updated with CDIIS
e_a, e_b
 [-15.622105 -15.553489  -1.602876  -0.717981  -0.717981  -0.716609  -0.588062   0.305003   0.305003   0.630978   0.757729   0.799143   0.799143   1.032468
   1.127607   1.127607   1.448482   1.70392    1.70392    1.948599   2.13683    2.13683    2.459815   2.459815   2.979458   3.248715   3.248715   4.215815] 
 [-15.622105 -15.553489  -1.602876  -0.717981  -0.717981  -0.716609  -0.588062   0.305003   0.305003   0.630978   0.757729   0.799143   0.799143   1.032468
   1.127607   1.127607   1.448482   1.70392    1.70392    1.948599   2.13683    2.13683    2.459815   2.459815   2.979458   3.248715   3.248715   4.215815]
time for xg, H, S2, Yg, Feff: 0.014
 E(SUHF) =   -108.82993352, delta E = -2.55795e-13, MaxD(dm) = 3.84962e-08, RMSD(dm) = 1.76883e-07
**** Start Cycle 43 ****
time for NO, Ng: 0.007
(16, 28, 28)
time for Gg: 0.082
detC -0.9999999999999992
detNg [1.000688 1.018111 1.100115 1.30431  1.643653 2.005404 2.21697  2.269201]
xg [0.999312 0.982211 0.908996 0.766689 0.608401 0.498653 0.451066 0.440684]
ciS 1.3929961891462734
ciH -191.73296051015066
S2 = -0.000000
Hsp + Hph =  -137.6406927772417
F(mod,ortho) updated with CDIIS
e_a, e_b
 [-15.622105 -15.553489  -1.602876  -0.717981  -0.717981  -0.716609  -0.588062   0.305003   0.305003   0.630978   0.757729   0.799143   0.799143   1.032468
   1.127607   1.127607   1.448482   1.70392    1.70392    1.948599   2.13683    2.13683    2.459815   2.459815   2.979458   3.248715   3.248715   4.215815] 
 [-15.622105 -15.553489  -1.602876  -0.717981  -0.717981  -0.716609  -0.588062   0.305003   0.305003   0.630978   0.757729   0.799143   0.799143   1.032468
   1.127607   1.127607   1.448482   1.70392    1.70392    1.948599   2.13683    2.13683    2.459815   2.459815   2.979458   3.248715   3.248715   4.215815]
time for xg, H, S2, Yg, Feff: 0.014
 E(SUHF) =   -108.82993352, delta E =          0, MaxD(dm) = 1.37716e-07, RMSD(dm) = 4.49354e-07
**** Start Cycle 44 ****
time for NO, Ng: 0.007
(16, 28, 28)
time for Gg: 0.082
detC -1.0000000000000002
detNg [1.000688 1.018111 1.100115 1.30431  1.643652 2.005404 2.21697  2.269201]
xg [0.999312 0.982211 0.908996 0.766689 0.608401 0.498653 0.451066 0.440684]
ciS 1.3929962487359877
ciH -191.7329687121203
S2 = -0.000000
Hsp + Hph =  -137.64069277724175
F(mod,ortho) updated with CDIIS
e_a, e_b
 [-15.622105 -15.553489  -1.602876  -0.717981  -0.717981  -0.716609  -0.588062   0.305003   0.305003   0.630978   0.757729   0.799143   0.799143   1.032468
   1.127607   1.127607   1.448482   1.70392    1.70392    1.948599   2.13683    2.13683    2.459815   2.459815   2.979458   3.248715   3.248715   4.215815] 
 [-15.622105 -15.553489  -1.602876  -0.717981  -0.717981  -0.716609  -0.588062   0.305003   0.305003   0.630978   0.757729   0.799143   0.799143   1.032468
   1.127607   1.127607   1.448482   1.70392    1.70392    1.948599   2.13683    2.13683    2.459815   2.459815   2.979458   3.248715   3.248715   4.215815]
time for xg, H, S2, Yg, Feff: 0.014

***************
SUHF converged at cycle 43
Final E(SUHF) =   -108.82993352, delta E = -5.68434e-14, MaxD(dm) = 2.31144e-08, RMSD(dm) = 8.96452e-08
time for cyc: 4.575
******* suhf density *****
Clebsch-Gordan coeff: < 0 0 0 0 | 0 0 > = 1
Clebsch-Gordan coeff: < 0 0 1 0 | 0 0 > = 0
xggint 0.9999999999999998
SUHF DM alpha
 [[ 1.005417 -0.010733 -0.016009  0.        0.       -0.004971 -0.        0.       -0.001813 -0.        0.        0.000657  0.       -0.       -0.00432
  -0.014153  0.001514  0.        0.        0.014816 -0.        0.        0.000529 -0.       -0.       -0.00158  -0.       -0.      ]
 [-0.010733  0.200535  0.199723  0.        0.       -0.030082  0.        0.       -0.056457 -0.        0.        0.004528  0.       -0.       -0.014153
   0.027421 -0.032343  0.        0.       -0.112707  0.        0.       -0.033374  0.       -0.        0.01205  -0.        0.      ]
 [-0.016009  0.199723  0.314788 -0.       -0.       -0.220285 -0.       -0.       -0.127193 -0.       -0.       -0.01049  -0.       -0.        0.001514
  -0.032343 -0.006343 -0.       -0.        0.022337 -0.       -0.        0.009916  0.        0.        0.000457  0.        0.      ]
 [ 0.        0.       -0.        0.209541 -0.       -0.        0.091773 -0.       -0.        0.        0.       -0.        0.022725  0.       -0.
  -0.        0.        0.193415 -0.       -0.        0.086612  0.       -0.       -0.        0.        0.       -0.021861 -0.      ]
 [ 0.        0.       -0.       -0.        0.209541 -0.       -0.        0.091773 -0.       -0.        0.022725 -0.       -0.       -0.        0.
   0.        0.        0.        0.193415 -0.        0.        0.086612 -0.       -0.       -0.021861 -0.       -0.        0.      ]
 [-0.004971 -0.030082 -0.220285 -0.       -0.        0.336282 -0.        0.        0.132163  0.        0.        0.026757  0.       -0.       -0.014816
   0.112707 -0.022337 -0.       -0.       -0.212444 -0.        0.       -0.056787 -0.        0.        0.020647  0.       -0.      ]
 [-0.        0.       -0.        0.091773 -0.       -0.        0.040311 -0.       -0.        0.        0.       -0.        0.010007  0.        0.
  -0.        0.        0.086612 -0.       -0.        0.038659 -0.       -0.       -0.        0.        0.       -0.009731 -0.      ]
 [ 0.        0.       -0.       -0.        0.091773  0.       -0.        0.040311 -0.       -0.        0.010007 -0.       -0.       -0.        0.
   0.        0.       -0.        0.086612  0.        0.        0.038659 -0.       -0.       -0.009731 -0.       -0.        0.      ]
 [-0.001813 -0.056457 -0.127193 -0.       -0.        0.132163 -0.       -0.        0.067076  0.       -0.        0.007647 -0.        0.       -0.000529
   0.033374 -0.009916 -0.       -0.       -0.056787 -0.       -0.       -0.013122 -0.        0.        0.005248  0.       -0.      ]
 [-0.       -0.       -0.        0.       -0.        0.        0.       -0.        0.        0.       -0.        0.        0.        0.        0.
   0.        0.        0.       -0.        0.        0.       -0.        0.        0.        0.       -0.       -0.        0.      ]
 [ 0.        0.       -0.        0.        0.022725  0.        0.        0.010007 -0.       -0.        0.00249  -0.        0.       -0.        0.
   0.        0.        0.        0.021861 -0.        0.        0.009731 -0.       -0.       -0.002444 -0.       -0.        0.      ]
 [ 0.000657  0.004528 -0.01049  -0.       -0.        0.026757 -0.       -0.        0.007647  0.       -0.        0.002822 -0.       -0.       -0.00158
   0.01205   0.000457 -0.       -0.       -0.020647 -0.       -0.       -0.005248 -0.        0.        0.002177  0.        0.      ]
 [ 0.       -0.       -0.        0.022725 -0.        0.        0.010007 -0.       -0.        0.       -0.       -0.        0.00249   0.       -0.
  -0.        0.        0.021861 -0.       -0.        0.009731 -0.       -0.       -0.        0.        0.       -0.002444 -0.      ]
 [-0.       -0.        0.        0.       -0.       -0.        0.       -0.        0.        0.       -0.       -0.        0.        0.       -0.
   0.        0.        0.       -0.        0.        0.       -0.        0.        0.        0.       -0.       -0.       -0.      ]
 [-0.00432  -0.014153  0.001514 -0.        0.       -0.014816  0.        0.       -0.000529  0.        0.       -0.00158  -0.       -0.        1.005417
  -0.010733 -0.016009 -0.        0.        0.004971 -0.       -0.        0.001813  0.        0.        0.000657  0.       -0.      ]
 [-0.014153  0.027421 -0.032343 -0.        0.        0.112707 -0.        0.        0.033374  0.        0.        0.01205  -0.        0.       -0.010733
   0.200535  0.199723 -0.        0.        0.030082 -0.        0.        0.056457 -0.       -0.        0.004528 -0.       -0.      ]
 [ 0.001514 -0.032343 -0.006343  0.        0.       -0.022337  0.        0.       -0.009916  0.        0.        0.000457  0.        0.       -0.016009
   0.199723  0.314788  0.        0.        0.220285  0.        0.        0.127193 -0.       -0.       -0.01049  -0.        0.      ]
 [ 0.        0.       -0.        0.193415  0.       -0.        0.086612 -0.       -0.        0.        0.       -0.        0.021861  0.       -0.
  -0.        0.        0.209541  0.       -0.        0.091773  0.       -0.        0.        0.        0.       -0.022725 -0.      ]
 [ 0.        0.       -0.       -0.        0.193415 -0.       -0.        0.086612 -0.       -0.        0.021861 -0.       -0.       -0.        0.
   0.        0.        0.        0.209541  0.        0.        0.091773 -0.       -0.       -0.022725 -0.       -0.        0.      ]
 [ 0.014816 -0.112707  0.022337 -0.       -0.       -0.212444 -0.        0.       -0.056787  0.       -0.       -0.020647 -0.        0.        0.004971
   0.030082  0.220285 -0.       -0.        0.336282 -0.       -0.        0.132163 -0.       -0.       -0.026757 -0.        0.      ]
 [-0.        0.       -0.        0.086612  0.       -0.        0.038659  0.       -0.        0.        0.       -0.        0.009731  0.       -0.
  -0.        0.        0.091773  0.       -0.        0.040311  0.       -0.        0.        0.        0.       -0.010007 -0.      ]
 [ 0.        0.       -0.       -0.        0.086612  0.       -0.        0.038659 -0.       -0.        0.009731 -0.       -0.       -0.       -0.
   0.        0.        0.        0.091773 -0.        0.        0.040311 -0.       -0.       -0.010007 -0.       -0.        0.      ]
 [ 0.000529 -0.033374  0.009916 -0.       -0.       -0.056787 -0.       -0.       -0.013122  0.       -0.       -0.005248 -0.        0.        0.001813
   0.056457  0.127193 -0.       -0.        0.132163 -0.       -0.        0.067076 -0.        0.       -0.007647  0.        0.      ]
 [-0.        0.        0.       -0.       -0.       -0.       -0.       -0.       -0.        0.       -0.       -0.       -0.        0.        0.
  -0.       -0.        0.       -0.       -0.        0.       -0.       -0.        0.        0.        0.       -0.        0.      ]
 [-0.       -0.        0.        0.       -0.021861 -0.        0.       -0.009731  0.        0.       -0.002444  0.        0.        0.        0.
  -0.       -0.        0.       -0.022725  0.       -0.       -0.010007  0.        0.        0.00249   0.        0.       -0.      ]
 [-0.00158   0.01205   0.000457  0.        0.        0.020647  0.       -0.        0.005248 -0.        0.        0.002177  0.       -0.        0.000657
   0.004528 -0.01049   0.       -0.       -0.026757  0.       -0.       -0.007647  0.        0.        0.002822 -0.        0.      ]
 [-0.       -0.        0.       -0.021861 -0.        0.       -0.009731 -0.        0.       -0.       -0.        0.       -0.002444 -0.        0.
   0.       -0.       -0.022725 -0.       -0.       -0.010007 -0.        0.       -0.        0.       -0.        0.00249   0.      ]
 [-0.        0.        0.       -0.        0.       -0.       -0.        0.       -0.       -0.        0.       -0.       -0.       -0.       -0.
  -0.        0.       -0.        0.        0.       -0.        0.        0.       -0.       -0.        0.        0.        0.      ]] 
SUHF DM beta
 [[ 1.005417 -0.010733 -0.016009  0.        0.       -0.004971 -0.        0.       -0.001813 -0.        0.        0.000657  0.       -0.       -0.00432
  -0.014153  0.001514  0.        0.        0.014816 -0.        0.        0.000529 -0.       -0.       -0.00158  -0.       -0.      ]
 [-0.010733  0.200535  0.199723  0.        0.       -0.030082  0.        0.       -0.056457 -0.        0.        0.004528  0.       -0.       -0.014153
   0.027421 -0.032343  0.        0.       -0.112707  0.        0.       -0.033374  0.       -0.        0.01205  -0.        0.      ]
 [-0.016009  0.199723  0.314788 -0.       -0.       -0.220285 -0.       -0.       -0.127193 -0.       -0.       -0.01049  -0.       -0.        0.001514
  -0.032343 -0.006343 -0.       -0.        0.022337 -0.       -0.        0.009916  0.        0.        0.000457  0.        0.      ]
 [ 0.        0.       -0.        0.209541 -0.       -0.        0.091773 -0.       -0.        0.        0.       -0.        0.022725  0.       -0.
  -0.        0.        0.193415 -0.       -0.        0.086612  0.       -0.       -0.        0.        0.       -0.021861 -0.      ]
 [ 0.        0.       -0.       -0.        0.209541 -0.       -0.        0.091773 -0.       -0.        0.022725 -0.       -0.       -0.        0.
   0.        0.        0.        0.193415 -0.        0.        0.086612 -0.       -0.       -0.021861 -0.       -0.        0.      ]
 [-0.004971 -0.030082 -0.220285 -0.       -0.        0.336282 -0.        0.        0.132163  0.        0.        0.026757  0.       -0.       -0.014816
   0.112707 -0.022337 -0.       -0.       -0.212444 -0.        0.       -0.056787 -0.        0.        0.020647  0.       -0.      ]
 [-0.        0.       -0.        0.091773 -0.       -0.        0.040311 -0.       -0.        0.        0.       -0.        0.010007  0.        0.
  -0.        0.        0.086612 -0.       -0.        0.038659 -0.       -0.       -0.        0.        0.       -0.009731 -0.      ]
 [ 0.        0.       -0.       -0.        0.091773  0.       -0.        0.040311 -0.       -0.        0.010007 -0.       -0.       -0.        0.
   0.        0.       -0.        0.086612  0.        0.        0.038659 -0.       -0.       -0.009731 -0.       -0.        0.      ]
 [-0.001813 -0.056457 -0.127193 -0.       -0.        0.132163 -0.       -0.        0.067076  0.       -0.        0.007647 -0.        0.       -0.000529
   0.033374 -0.009916 -0.       -0.       -0.056787 -0.       -0.       -0.013122 -0.        0.        0.005248  0.       -0.      ]
 [-0.       -0.       -0.        0.       -0.        0.        0.       -0.        0.        0.       -0.        0.        0.        0.        0.
   0.        0.        0.       -0.        0.        0.       -0.        0.        0.        0.       -0.       -0.        0.      ]
 [ 0.        0.       -0.        0.        0.022725  0.        0.        0.010007 -0.       -0.        0.00249  -0.        0.       -0.        0.
   0.        0.        0.        0.021861 -0.        0.        0.009731 -0.       -0.       -0.002444 -0.       -0.        0.      ]
 [ 0.000657  0.004528 -0.01049  -0.       -0.        0.026757 -0.       -0.        0.007647  0.       -0.        0.002822 -0.       -0.       -0.00158
   0.01205   0.000457 -0.       -0.       -0.020647 -0.       -0.       -0.005248 -0.        0.        0.002177  0.        0.      ]
 [ 0.       -0.       -0.        0.022725 -0.        0.        0.010007 -0.       -0.        0.       -0.       -0.        0.00249   0.       -0.
  -0.        0.        0.021861 -0.       -0.        0.009731 -0.       -0.       -0.        0.        0.       -0.002444 -0.      ]
 [-0.       -0.        0.        0.       -0.       -0.        0.       -0.        0.        0.       -0.       -0.        0.        0.       -0.
   0.        0.        0.       -0.        0.        0.       -0.        0.        0.        0.       -0.       -0.       -0.      ]
 [-0.00432  -0.014153  0.001514 -0.        0.       -0.014816  0.        0.       -0.000529  0.        0.       -0.00158  -0.       -0.        1.005417
  -0.010733 -0.016009 -0.        0.        0.004971 -0.       -0.        0.001813  0.        0.        0.000657  0.       -0.      ]
 [-0.014153  0.027421 -0.032343 -0.        0.        0.112707 -0.        0.        0.033374  0.        0.        0.01205  -0.        0.       -0.010733
   0.200535  0.199723 -0.        0.        0.030082 -0.        0.        0.056457 -0.       -0.        0.004528 -0.       -0.      ]
 [ 0.001514 -0.032343 -0.006343  0.        0.       -0.022337  0.        0.       -0.009916  0.        0.        0.000457  0.        0.       -0.016009
   0.199723  0.314788  0.        0.        0.220285  0.        0.        0.127193 -0.       -0.       -0.01049  -0.        0.      ]
 [ 0.        0.       -0.        0.193415  0.       -0.        0.086612 -0.       -0.        0.        0.       -0.        0.021861  0.       -0.
  -0.        0.        0.209541  0.       -0.        0.091773  0.       -0.        0.        0.        0.       -0.022725 -0.      ]
 [ 0.        0.       -0.       -0.        0.193415 -0.       -0.        0.086612 -0.       -0.        0.021861 -0.       -0.       -0.        0.
   0.        0.        0.        0.209541  0.        0.        0.091773 -0.       -0.       -0.022725 -0.       -0.        0.      ]
 [ 0.014816 -0.112707  0.022337 -0.       -0.       -0.212444 -0.        0.       -0.056787  0.       -0.       -0.020647 -0.        0.        0.004971
   0.030082  0.220285 -0.       -0.        0.336282 -0.       -0.        0.132163 -0.       -0.       -0.026757 -0.        0.      ]
 [-0.        0.       -0.        0.086612  0.       -0.        0.038659  0.       -0.        0.        0.       -0.        0.009731  0.       -0.
  -0.        0.        0.091773  0.       -0.        0.040311  0.       -0.        0.        0.        0.       -0.010007 -0.      ]
 [ 0.        0.       -0.       -0.        0.086612  0.       -0.        0.038659 -0.       -0.        0.009731 -0.       -0.       -0.       -0.
   0.        0.        0.        0.091773 -0.        0.        0.040311 -0.       -0.       -0.010007 -0.       -0.        0.      ]
 [ 0.000529 -0.033374  0.009916 -0.       -0.       -0.056787 -0.       -0.       -0.013122  0.       -0.       -0.005248 -0.        0.        0.001813
   0.056457  0.127193 -0.       -0.        0.132163 -0.       -0.        0.067076 -0.        0.       -0.007647  0.        0.      ]
 [-0.        0.        0.       -0.       -0.       -0.       -0.       -0.       -0.        0.       -0.       -0.       -0.        0.        0.
  -0.       -0.        0.       -0.       -0.        0.       -0.       -0.        0.        0.        0.       -0.        0.      ]
 [-0.       -0.        0.        0.       -0.021861 -0.        0.       -0.009731  0.        0.       -0.002444  0.        0.        0.        0.
  -0.       -0.        0.       -0.022725  0.       -0.       -0.010007  0.        0.        0.00249   0.        0.       -0.      ]
 [-0.00158   0.01205   0.000457  0.        0.        0.020647  0.       -0.        0.005248 -0.        0.        0.002177  0.       -0.        0.000657
   0.004528 -0.01049   0.       -0.       -0.026757  0.       -0.       -0.007647  0.        0.        0.002822 -0.        0.      ]
 [-0.       -0.        0.       -0.021861 -0.        0.       -0.009731 -0.        0.       -0.       -0.        0.       -0.002444 -0.        0.
   0.       -0.       -0.022725 -0.       -0.       -0.010007 -0.        0.       -0.        0.       -0.        0.00249   0.      ]
 [-0.        0.        0.       -0.        0.       -0.       -0.        0.       -0.       -0.        0.       -0.       -0.       -0.       -0.
  -0.        0.       -0.        0.        0.       -0.        0.        0.       -0.       -0.        0.        0.        0.      ]]
SUHF natural orbitals alpha
 [[-0.707298  0.710385  0.008682 -0.007926 -0.002896  0.        0.       -0.       -0.       -0.190452  0.344348  0.405888 -0.520967  0.84694  -0.007076
  -0.014355  0.026143 -0.23217   0.049819  0.021502  0.085086 -0.068242  0.093846  0.045993 -0.224334 -0.301282 -0.004589 -0.409805]
 [ 0.015122 -0.001445 -0.146307 -0.292377  0.302838 -0.       -0.       -0.       -0.       -0.671083  0.703898  0.825776 -1.123642  1.676087 -0.012799
  -0.025965  0.04729  -0.419963  0.090116  0.038894  0.153909 -0.12344   0.169754  0.083195 -0.40579  -0.544979 -0.008301 -0.514484]
 [ 0.010218 -0.016686  0.161469 -0.395829  0.357093 -0.       -0.        0.       -0.       -1.054727 -0.689407 -1.785864  0.721164 -8.850178 -0.133886
  -0.271619  0.494686 -4.393149  0.942682  0.40686   1.610005 -1.291285  1.775765  0.870286 -4.244885 -5.70091  -0.086832  0.039378]
 [ 0.       -0.        0.       -0.        0.        0.399365  0.211843 -0.681249 -0.325111  0.        0.        0.        0.       -0.        0.129259
   0.040209  0.647711  0.506279  0.087225 -0.109854 -0.248176  0.069797  0.284596 -0.084914  0.065454 -0.391268  0.000903 -0.      ]
 [ 0.        0.       -0.        0.        0.        0.211843 -0.399365 -0.325111  0.681249 -0.        0.       -0.        0.        0.        0.10702
  -0.214654  0.583382 -0.384693 -0.092483  0.005338  0.037092  0.187109 -0.404869 -0.427604 -0.166391  0.239607  0.056685  0.      ]
 [ 0.007855  0.009231 -0.512002  0.246814 -0.109956  0.        0.        0.       -0.       -0.032915 -0.377753  1.345042 -0.047234  0.236435 -0.018526
  -0.037584  0.068449 -0.607876  0.130438  0.056297  0.222775 -0.178674  0.245711  0.120421 -0.58736  -0.788829 -0.012015 -0.381697]
 [ 0.       -0.        0.       -0.        0.        0.176796  0.093781 -0.218054 -0.104062 -0.       -0.       -0.       -0.        0.       -0.126719
   0.042064 -0.390035 -0.315314 -1.500988  0.585413  0.388065  0.114969 -0.233502  0.285358  0.13727  -0.04755   0.224062  0.      ]
 [-0.       -0.       -0.        0.        0.        0.093781 -0.176796 -0.104062  0.218054  0.       -0.        0.       -0.       -0.        0.174981
   0.315443 -0.415563  0.280215 -0.307935 -0.090962 -0.358101 -1.550237  0.435283 -0.171391  0.005642  0.027056 -0.024667 -0.      ]
 [ 0.000659  0.000718 -0.16005   0.156242 -0.117959 -0.        0.       -0.       -0.       -1.000958  0.608711 -1.164522  0.763162 -3.348941 -0.059128
  -0.119954  0.218467 -1.940132  0.416313  0.17968   0.711021 -0.570266  0.784225  0.384342 -1.874655 -2.517675 -0.038347  0.97237 ]
 [-0.       -0.       -0.        0.        0.       -0.        0.       -0.       -0.        0.        0.       -0.       -0.       -0.        0.244938
  -0.398759 -0.154216  0.470104  0.156315  0.470583  0.482305 -0.070243 -0.001212 -0.275166 -0.2539   -0.006133  0.128283  0.      ]
 [ 0.       -0.       -0.        0.        0.        0.02344  -0.044189 -0.017405  0.036472  0.       -0.       -0.       -0.        0.       -0.314525
  -0.410213  0.266283 -0.324391 -0.403769 -0.063248 -0.186598 -0.537316  0.492503 -0.939902 -0.083784  0.373005 -0.193782  0.      ]
 [-0.000256  0.001799 -0.047164  0.011889  0.006077 -0.        0.       -0.       -0.        0.297064 -0.381835  0.168358  0.128446  0.357858 -0.017324
  -0.035146  0.06401  -0.568457  0.121979  0.052646  0.208328 -0.167087  0.229777  0.112612 -0.549272 -0.737676 -0.011236  0.951155]
 [ 0.       -0.        0.       -0.        0.        0.044189  0.02344  -0.036472 -0.017405 -0.       -0.        0.        0.       -0.       -0.01407
   0.230997  0.103594  0.502356 -0.849364  0.134382 -0.161846  0.257317 -0.303785 -0.382997  0.039082 -0.798759 -0.465321  0.      ]
 [ 0.       -0.        0.        0.        0.        0.        0.       -0.       -0.       -0.        0.       -0.       -0.        0.        0.289182
  -0.229801 -0.038938 -0.275876  0.175332  0.643347 -0.482655 -0.011617  0.01802   0.043138  0.387953 -0.118829 -0.212825  0.      ]
 [-0.707298 -0.710385  0.008682  0.007926 -0.002896 -0.       -0.        0.       -0.        0.190452  0.344348 -0.405888 -0.520967 -0.84694   0.007076
   0.014355 -0.026143  0.23217  -0.049819 -0.021502 -0.085086  0.068242 -0.093846 -0.045993  0.224334  0.301282  0.004589 -0.409805]
 [ 0.015122  0.001445 -0.146307  0.292377  0.302838  0.        0.        0.       -0.        0.671083  0.703898 -0.825776 -1.123642 -1.676087  0.012799
   0.025965 -0.04729   0.419963 -0.090116 -0.038894 -0.153909  0.12344  -0.169754 -0.083195  0.40579   0.544979  0.008301 -0.514484]
 [ 0.010218  0.016686  0.161469  0.395829  0.357093  0.        0.       -0.        0.        1.054727 -0.689407  1.785864  0.721164  8.850178  0.133886
   0.271619 -0.494686  4.393149 -0.942682 -0.40686  -1.610005  1.291285 -1.775765 -0.870286  4.244885  5.70091   0.086832  0.039378]
 [ 0.       -0.        0.       -0.        0.        0.399365  0.211843  0.681249  0.325111  0.       -0.       -0.        0.        0.        0.141148
  -0.112317  0.279851 -0.132813  0.035655  0.122059  0.15647  -0.103862  0.381191  0.582478 -0.197356  0.56624  -0.042384 -0.      ]
 [ 0.        0.       -0.        0.        0.        0.211843 -0.399365  0.325111 -0.681249 -0.        0.        0.        0.        0.       -0.029231
  -0.034536  0.107606  0.216558  0.157406  0.022684  0.005934 -0.288727 -0.680558  0.5847    0.019991 -0.199726  0.106567 -0.      ]
 [-0.007855  0.009231  0.512002  0.246814  0.109956 -0.        0.       -0.       -0.       -0.032915  0.377753  1.345042  0.047234  0.236435 -0.018526
  -0.037584  0.068449 -0.607876  0.130438  0.056297  0.222775 -0.178674  0.245711  0.120421 -0.58736  -0.788829 -0.012015  0.381697]
 [ 0.       -0.        0.       -0.        0.        0.176796  0.093781  0.218054  0.104062 -0.        0.       -0.       -0.        0.       -0.140241
  -0.036152 -0.37451  -0.08599   1.408737 -0.586433 -0.282121 -0.116275 -0.247476 -0.698748  0.150302 -0.122825  0.24243   0.      ]
 [ 0.        0.       -0.        0.        0.        0.093781 -0.176796  0.104062 -0.218054  0.       -0.        0.       -0.       -0.        0.126214
   0.188603 -0.216369 -0.158748  0.262592  0.064895  0.324979  1.652745  0.441221  0.030364  0.064209 -0.048446 -0.013891 -0.      ]
 [-0.000659  0.000718  0.16005   0.156242  0.117959 -0.        0.        0.       -0.       -1.000958 -0.608711 -1.164522 -0.763162 -3.348941 -0.059128
  -0.119954  0.218467 -1.940132  0.416313  0.17968   0.711021 -0.570266  0.784225  0.384342 -1.874655 -2.517675 -0.038347 -0.97237 ]
 [ 0.       -0.       -0.       -0.        0.       -0.        0.        0.       -0.       -0.       -0.       -0.       -0.       -0.        0.235108
  -0.414037 -0.218152 -0.078149 -0.256727 -0.504984 -0.593422  0.176868 -0.002126  0.213745 -0.2394   -0.022325  0.125071  0.      ]
 [-0.       -0.        0.       -0.       -0.       -0.02344   0.044189 -0.017405  0.036472 -0.       -0.        0.       -0.       -0.        0.574572
   0.178941  0.424501 -0.438468 -0.356069 -0.057861 -0.162176 -0.538177 -0.027844 -0.897745 -0.267154  0.41743   0.10274   0.      ]
 [-0.000256 -0.001799 -0.047164 -0.011889  0.006077  0.        0.        0.        0.       -0.297064 -0.381835 -0.168358  0.128446 -0.357858  0.017324
   0.035146 -0.06401   0.568457 -0.121979 -0.052646 -0.208328  0.167087 -0.229777 -0.112612  0.549272  0.737676  0.011236  0.951155]
 [-0.        0.       -0.        0.       -0.       -0.044189 -0.02344  -0.036472 -0.017405  0.        0.       -0.        0.       -0.        0.001832
   0.074005  0.511945  0.448039 -0.77413   0.160908 -0.131186  0.173559  0.147973 -0.171606  0.399535 -0.782932  0.528025 -0.      ]
 [ 0.       -0.        0.       -0.        0.        0.       -0.       -0.        0.        0.       -0.       -0.       -0.        0.        0.297176
  -0.219002  0.029932 -0.042076 -0.108912 -0.603775  0.603902 -0.10231   0.0227    0.022905  0.393856 -0.108349 -0.213258  0.      ]] 
SUHF NO occ alpha
 [ 1.        0.999999  0.999439  0.99836   0.998163  0.985849  0.985849  0.014151  0.014151  0.001837  0.00164   0.000561  0.000001  0.        0.
  0.        0.        0.        0.        0.       -0.       -0.       -0.       -0.       -0.       -0.       -0.       -0.      ]
SUHF natural orbitals beta
 [[-0.707298  0.710385  0.008682 -0.007926 -0.002896  0.        0.       -0.       -0.       -0.190452  0.344348  0.405888 -0.520967  0.84694  -0.007076
  -0.014355  0.026143 -0.23217   0.049819  0.021502  0.085086 -0.068242  0.093846  0.045993 -0.224334 -0.301282 -0.004589 -0.409805]
 [ 0.015122 -0.001445 -0.146307 -0.292377  0.302838 -0.       -0.       -0.       -0.       -0.671083  0.703898  0.825776 -1.123642  1.676087 -0.012799
  -0.025965  0.04729  -0.419963  0.090116  0.038894  0.153909 -0.12344   0.169754  0.083195 -0.40579  -0.544979 -0.008301 -0.514484]
 [ 0.010218 -0.016686  0.161469 -0.395829  0.357093 -0.       -0.        0.       -0.       -1.054727 -0.689407 -1.785864  0.721164 -8.850178 -0.133886
  -0.271619  0.494686 -4.393149  0.942682  0.40686   1.610005 -1.291285  1.775765  0.870286 -4.244885 -5.70091  -0.086832  0.039378]
 [ 0.       -0.        0.       -0.        0.        0.399365  0.211843 -0.681249 -0.325111  0.        0.        0.        0.       -0.        0.129259
   0.040209  0.647711  0.506279  0.087225 -0.109854 -0.248176  0.069797  0.284596 -0.084914  0.065454 -0.391268  0.000903 -0.      ]
 [ 0.        0.       -0.        0.        0.        0.211843 -0.399365 -0.325111  0.681249 -0.        0.       -0.        0.        0.        0.10702
  -0.214654  0.583382 -0.384693 -0.092483  0.005338  0.037092  0.187109 -0.404869 -0.427604 -0.166391  0.239607  0.056685  0.      ]
 [ 0.007855  0.009231 -0.512002  0.246814 -0.109956  0.        0.        0.       -0.       -0.032915 -0.377753  1.345042 -0.047234  0.236435 -0.018526
  -0.037584  0.068449 -0.607876  0.130438  0.056297  0.222775 -0.178674  0.245711  0.120421 -0.58736  -0.788829 -0.012015 -0.381697]
 [ 0.       -0.        0.       -0.        0.        0.176796  0.093781 -0.218054 -0.104062 -0.       -0.       -0.       -0.        0.       -0.126719
   0.042064 -0.390035 -0.315314 -1.500988  0.585413  0.388065  0.114969 -0.233502  0.285358  0.13727  -0.04755   0.224062  0.      ]
 [-0.       -0.       -0.        0.        0.        0.093781 -0.176796 -0.104062  0.218054  0.       -0.        0.       -0.       -0.        0.174981
   0.315443 -0.415563  0.280215 -0.307935 -0.090962 -0.358101 -1.550237  0.435283 -0.171391  0.005642  0.027056 -0.024667 -0.      ]
 [ 0.000659  0.000718 -0.16005   0.156242 -0.117959 -0.        0.       -0.       -0.       -1.000958  0.608711 -1.164522  0.763162 -3.348941 -0.059128
  -0.119954  0.218467 -1.940132  0.416313  0.17968   0.711021 -0.570266  0.784225  0.384342 -1.874655 -2.517675 -0.038347  0.97237 ]
 [-0.       -0.       -0.        0.        0.       -0.        0.       -0.       -0.        0.        0.       -0.       -0.       -0.        0.244938
  -0.398759 -0.154216  0.470104  0.156315  0.470583  0.482305 -0.070243 -0.001212 -0.275166 -0.2539   -0.006133  0.128283  0.      ]
 [ 0.       -0.       -0.        0.        0.        0.02344  -0.044189 -0.017405  0.036472  0.       -0.       -0.       -0.        0.       -0.314525
  -0.410213  0.266283 -0.324391 -0.403769 -0.063248 -0.186598 -0.537316  0.492503 -0.939902 -0.083784  0.373005 -0.193782  0.      ]
 [-0.000256  0.001799 -0.047164  0.011889  0.006077 -0.        0.       -0.       -0.        0.297064 -0.381835  0.168358  0.128446  0.357858 -0.017324
  -0.035146  0.06401  -0.568457  0.121979  0.052646  0.208328 -0.167087  0.229777  0.112612 -0.549272 -0.737676 -0.011236  0.951155]
 [ 0.       -0.        0.       -0.        0.        0.044189  0.02344  -0.036472 -0.017405 -0.       -0.        0.        0.       -0.       -0.01407
   0.230997  0.103594  0.502356 -0.849364  0.134382 -0.161846  0.257317 -0.303785 -0.382997  0.039082 -0.798759 -0.465321  0.      ]
 [ 0.       -0.        0.        0.        0.        0.        0.       -0.       -0.       -0.        0.       -0.       -0.        0.        0.289182
  -0.229801 -0.038938 -0.275876  0.175332  0.643347 -0.482655 -0.011617  0.01802   0.043138  0.387953 -0.118829 -0.212825  0.      ]
 [-0.707298 -0.710385  0.008682  0.007926 -0.002896 -0.       -0.        0.       -0.        0.190452  0.344348 -0.405888 -0.520967 -0.84694   0.007076
   0.014355 -0.026143  0.23217  -0.049819 -0.021502 -0.085086  0.068242 -0.093846 -0.045993  0.224334  0.301282  0.004589 -0.409805]
 [ 0.015122  0.001445 -0.146307  0.292377  0.302838  0.        0.        0.       -0.        0.671083  0.703898 -0.825776 -1.123642 -1.676087  0.012799
   0.025965 -0.04729   0.419963 -0.090116 -0.038894 -0.153909  0.12344  -0.169754 -0.083195  0.40579   0.544979  0.008301 -0.514484]
 [ 0.010218  0.016686  0.161469  0.395829  0.357093  0.        0.       -0.        0.        1.054727 -0.689407  1.785864  0.721164  8.850178  0.133886
   0.271619 -0.494686  4.393149 -0.942682 -0.40686  -1.610005  1.291285 -1.775765 -0.870286  4.244885  5.70091   0.086832  0.039378]
 [ 0.       -0.        0.       -0.        0.        0.399365  0.211843  0.681249  0.325111  0.       -0.       -0.        0.        0.        0.141148
  -0.112317  0.279851 -0.132813  0.035655  0.122059  0.15647  -0.103862  0.381191  0.582478 -0.197356  0.56624  -0.042384 -0.      ]
 [ 0.        0.       -0.        0.        0.        0.211843 -0.399365  0.325111 -0.681249 -0.        0.        0.        0.        0.       -0.029231
  -0.034536  0.107606  0.216558  0.157406  0.022684  0.005934 -0.288727 -0.680558  0.5847    0.019991 -0.199726  0.106567 -0.      ]
 [-0.007855  0.009231  0.512002  0.246814  0.109956 -0.        0.       -0.       -0.       -0.032915  0.377753  1.345042  0.047234  0.236435 -0.018526
  -0.037584  0.068449 -0.607876  0.130438  0.056297  0.222775 -0.178674  0.245711  0.120421 -0.58736  -0.788829 -0.012015  0.381697]
 [ 0.       -0.        0.       -0.        0.        0.176796  0.093781  0.218054  0.104062 -0.        0.       -0.       -0.        0.       -0.140241
  -0.036152 -0.37451  -0.08599   1.408737 -0.586433 -0.282121 -0.116275 -0.247476 -0.698748  0.150302 -0.122825  0.24243   0.      ]
 [ 0.        0.       -0.        0.        0.        0.093781 -0.176796  0.104062 -0.218054  0.       -0.        0.       -0.       -0.        0.126214
   0.188603 -0.216369 -0.158748  0.262592  0.064895  0.324979  1.652745  0.441221  0.030364  0.064209 -0.048446 -0.013891 -0.      ]
 [-0.000659  0.000718  0.16005   0.156242  0.117959 -0.        0.        0.       -0.       -1.000958 -0.608711 -1.164522 -0.763162 -3.348941 -0.059128
  -0.119954  0.218467 -1.940132  0.416313  0.17968   0.711021 -0.570266  0.784225  0.384342 -1.874655 -2.517675 -0.038347 -0.97237 ]
 [ 0.       -0.       -0.       -0.        0.       -0.        0.        0.       -0.       -0.       -0.       -0.       -0.       -0.        0.235108
  -0.414037 -0.218152 -0.078149 -0.256727 -0.504984 -0.593422  0.176868 -0.002126  0.213745 -0.2394   -0.022325  0.125071  0.      ]
 [-0.       -0.        0.       -0.       -0.       -0.02344   0.044189 -0.017405  0.036472 -0.       -0.        0.       -0.       -0.        0.574572
   0.178941  0.424501 -0.438468 -0.356069 -0.057861 -0.162176 -0.538177 -0.027844 -0.897745 -0.267154  0.41743   0.10274   0.      ]
 [-0.000256 -0.001799 -0.047164 -0.011889  0.006077  0.        0.        0.        0.       -0.297064 -0.381835 -0.168358  0.128446 -0.357858  0.017324
   0.035146 -0.06401   0.568457 -0.121979 -0.052646 -0.208328  0.167087 -0.229777 -0.112612  0.549272  0.737676  0.011236  0.951155]
 [-0.        0.       -0.        0.       -0.       -0.044189 -0.02344  -0.036472 -0.017405  0.        0.       -0.        0.       -0.        0.001832
   0.074005  0.511945  0.448039 -0.77413   0.160908 -0.131186  0.173559  0.147973 -0.171606  0.399535 -0.782932  0.528025 -0.      ]
 [ 0.       -0.        0.       -0.        0.        0.       -0.       -0.        0.        0.       -0.       -0.       -0.        0.        0.297176
  -0.219002  0.029932 -0.042076 -0.108912 -0.603775  0.603902 -0.10231   0.0227    0.022905  0.393856 -0.108349 -0.213258  0.      ]] 
SUHF NO occ beta
 [ 1.        0.999999  0.999439  0.99836   0.998163  0.985849  0.985849  0.014151  0.014151  0.001837  0.00164   0.000561  0.000001  0.        0.
  0.        0.        0.        0.        0.       -0.       -0.       -0.       -0.       -0.       -0.       -0.       -0.      ]
time for dm: 1.697
time tot: 6.279
