Title Card Required
Stability UHF                                                         CC-pVDZ
Number of atoms                            I                3
Info1-9                                    I   N=           9
          12          12           0           0           0         110
           7           1           2
Full Title                                 C   N=           2
Title Card Required
Route                                      C   N=           6
#p UHF/cc-pVDZ 5D 7F nosymm stable=opt int=acc2e=10 int=noba
sistransform
Charge                                     I                0
Multiplicity                               I                2
Number of electrons                        I               15
Number of alpha electrons                  I                8
Number of beta electrons                   I                7
Number of basis functions                  I               42
Number of independent functions            I               42
Number of point charges in /Mol/           I                0
Number of translation vectors              I                0
Atomic numbers                             I   N=           3
           5           5           5
Nuclear charges                            R   N=           3
  5.00000000E+00  5.00000000E+00  5.00000000E+00
Current cartesian coordinates              R   N=           9
 -3.39472291E-01  4.94876753E+00  0.00000000E+00 -1.79034921E+00  2.43616311E+00
  0.00000000E+00  1.11140463E+00  2.43616311E+00  0.00000000E+00
Number of symbols in /Mol/                 I                0
Force Field                                I                0
Atom Types                                 C   N=           3

Int Atom Types                             I   N=           3
           0           0           0
MM charges                                 R   N=           3
  0.00000000E+00  0.00000000E+00  0.00000000E+00
Integer atomic weights                     I   N=           3
          11          11          11
Real atomic weights                        R   N=           3
  1.10093053E+01  1.10093053E+01  1.10093053E+01
Atom fragment info                         I   N=           3
           0           0           0
Atom residue num                           I   N=           3
           0           0           0
Nuclear spins                              I   N=           3
           3           3           3
Nuclear ZEff                               R   N=           3
 -2.75000000E+00 -2.75000000E+00 -2.75000000E+00
Nuclear ZNuc                               R   N=           3
  5.00000000E+00  5.00000000E+00  5.00000000E+00
Nuclear QMom                               R   N=           3
  4.05900000E+00  4.05900000E+00  4.05900000E+00
Nuclear GFac                               R   N=           3
  2.68863700E+00  2.68863700E+00  2.68863700E+00
MicOpt                                     I   N=           3
          -1          -1          -1
Number of residues                         I                0
Number of secondary structures             I                0
Number of contracted shells                I               18
Number of primitive shells                 I               66
Pure/Cartesian d shells                    I                0
Pure/Cartesian f shells                    I                0
Highest angular momentum                   I                2
Largest degree of contraction              I                8
Shell types                                I   N=          18
           0           0           0           1           1          -2
           0           0           0           1           1          -2
           0           0           0           1           1          -2
Number of primitives per shell             I   N=          18
           8           8           1           3           1           1
           8           8           1           3           1           1
           8           8           1           3           1           1
Shell to atom map                          I   N=          18
           1           1           1           1           1           1
           2           2           2           2           2           2
           3           3           3           3           3           3
Primitive exponents                        R   N=          66
  4.57000000E+03  6.85900000E+02  1.56500000E+02  4.44700000E+01  1.44800000E+01
  5.13100000E+00  1.89800000E+00  3.32900000E-01  4.57000000E+03  6.85900000E+02
  1.56500000E+02  4.44700000E+01  1.44800000E+01  5.13100000E+00  1.89800000E+00
  3.32900000E-01  1.04300000E-01  6.00100000E+00  1.24100000E+00  3.36400000E-01
  9.53800000E-02  3.43000000E-01  4.57000000E+03  6.85900000E+02  1.56500000E+02
  4.44700000E+01  1.44800000E+01  5.13100000E+00  1.89800000E+00  3.32900000E-01
  4.57000000E+03  6.85900000E+02  1.56500000E+02  4.44700000E+01  1.44800000E+01
  5.13100000E+00  1.89800000E+00  3.32900000E-01  1.04300000E-01  6.00100000E+00
  1.24100000E+00  3.36400000E-01  9.53800000E-02  3.43000000E-01  4.57000000E+03
  6.85900000E+02  1.56500000E+02  4.44700000E+01  1.44800000E+01  5.13100000E+00
  1.89800000E+00  3.32900000E-01  4.57000000E+03  6.85900000E+02  1.56500000E+02
  4.44700000E+01  1.44800000E+01  5.13100000E+00  1.89800000E+00  3.32900000E-01
  1.04300000E-01  6.00100000E+00  1.24100000E+00  3.36400000E-01  9.53800000E-02
  3.43000000E-01
Contraction coefficients                   R   N=          66
  6.95554418E-04  5.34957299E-03  2.71166287E-02  1.01315096E-01  2.71880829E-01
  4.48115931E-01  2.89937262E-01  1.43128310E-02 -2.81280224E-04 -2.21988781E-03
 -1.10164715E-02 -4.43491899E-02 -1.20912048E-01 -2.80737900E-01 -2.66066809E-01
  1.09178413E+00  1.00000000E+00  5.41658633E-02  3.02379890E-01  7.71292217E-01
  1.00000000E+00  1.00000000E+00  6.95554418E-04  5.34957299E-03  2.71166287E-02
  1.01315096E-01  2.71880829E-01  4.48115931E-01  2.89937262E-01  1.43128310E-02
 -2.81280224E-04 -2.21988781E-03 -1.10164715E-02 -4.43491899E-02 -1.20912048E-01
 -2.80737900E-01 -2.66066809E-01  1.09178413E+00  1.00000000E+00  5.41658633E-02
  3.02379890E-01  7.71292217E-01  1.00000000E+00  1.00000000E+00  6.95554418E-04
  5.34957299E-03  2.71166287E-02  1.01315096E-01  2.71880829E-01  4.48115931E-01
  2.89937262E-01  1.43128310E-02 -2.81280224E-04 -2.21988781E-03 -1.10164715E-02
 -4.43491899E-02 -1.20912048E-01 -2.80737900E-01 -2.66066809E-01  1.09178413E+00
  1.00000000E+00  5.41658633E-02  3.02379890E-01  7.71292217E-01  1.00000000E+00
  1.00000000E+00
Coordinates of each shell                  R   N=          54
 -3.39472291E-01  4.94876753E+00  0.00000000E+00 -3.39472291E-01  4.94876753E+00
  0.00000000E+00 -3.39472291E-01  4.94876753E+00  0.00000000E+00 -3.39472291E-01
  4.94876753E+00  0.00000000E+00 -3.39472291E-01  4.94876753E+00  0.00000000E+00
 -3.39472291E-01  4.94876753E+00  0.00000000E+00 -1.79034921E+00  2.43616311E+00
  0.00000000E+00 -1.79034921E+00  2.43616311E+00  0.00000000E+00 -1.79034921E+00
  2.43616311E+00  0.00000000E+00 -1.79034921E+00  2.43616311E+00  0.00000000E+00
 -1.79034921E+00  2.43616311E+00  0.00000000E+00 -1.79034921E+00  2.43616311E+00
  0.00000000E+00  1.11140463E+00  2.43616311E+00  0.00000000E+00  1.11140463E+00
  2.43616311E+00  0.00000000E+00  1.11140463E+00  2.43616311E+00  0.00000000E+00
  1.11140463E+00  2.43616311E+00  0.00000000E+00  1.11140463E+00  2.43616311E+00
  0.00000000E+00  1.11140463E+00  2.43616311E+00  0.00000000E+00
Num ILSW                                   I              100
ILSW                                       I   N=         100
           1           0           0           0           2           1
           0           0           0           0           0          -1
           5           0           0           0           0           0
           0           0           0           0           0           0
           1           1           0           0           0           0
           0           0      100000           0          -1           0
           0           0           0           0           0           0
           0           0           0           1           0           0
           0 -2000000000           1           0           0           0
           0           0           4          52           0           0
           0           0           0           0           0           0
           0           0           0           3           0           1
           0           0           0           0           0           0
           0           0           0           0           0           0
           0           0           0           0           0           0
           0           0           0           0           0           0
           0           0           0           0
Num RLSW                                   I               52
RLSW                                       R   N=          52
  1.00000000E+00  1.00000000E+00  1.00000000E+00  1.00000000E+00  1.00000000E+00
  0.00000000E+00  0.00000000E+00  1.00000000E+00  0.00000000E+00  0.00000000E+00
  0.00000000E+00  0.00000000E+00  1.00000000E+00  0.00000000E+00  0.00000000E+00
  0.00000000E+00  0.00000000E+00  1.00000000E+00  0.00000000E+00  0.00000000E+00
  0.00000000E+00  0.00000000E+00  1.00000000E+00  0.00000000E+00  0.00000000E+00
  0.00000000E+00  0.00000000E+00  1.00000000E+00  0.00000000E+00  0.00000000E+00
  0.00000000E+00  0.00000000E+00  1.00000000E+00  0.00000000E+00  0.00000000E+00
  0.00000000E+00  0.00000000E+00  0.00000000E+00  1.00000000E+00  1.00000000E+00
  0.00000000E+00  1.00000000E+00  0.00000000E+00  0.00000000E+00  0.00000000E+00
  0.00000000E+00  0.00000000E+00  0.00000000E+00  0.00000000E+00  0.00000000E+00
  0.00000000E+00  0.00000000E+00
MxBond                                     I                2
NBond                                      I   N=           3
           2           2           2
IBond                                      I   N=           6
           2           3           1           3           1           2
RBond                                      R   N=           6
  2.00000000E+00  2.00000000E+00  2.00000000E+00  2.00000000E+00  2.00000000E+00
  2.00000000E+00
Virial Ratio                               R      1.996975190517644E+00
SCF Energy                                 R     -7.377726666322948E+01
Total Energy                               R     -7.377726666322948E+01
S**2                                       R      1.466910336597097E+00
S**2 after annihilation                    R      1.109183289411507E+00
RMS Density                                R      9.433631686534403E-09
Job Status                                 I                1
Nuclear derivative order                   I                0
External E-field                           R   N=          35
  0.00000000E+00  0.00000000E+00  0.00000000E+00  0.00000000E+00  0.00000000E+00
  0.00000000E+00  0.00000000E+00  0.00000000E+00  0.00000000E+00  0.00000000E+00
  0.00000000E+00  0.00000000E+00  0.00000000E+00  0.00000000E+00  0.00000000E+00
  0.00000000E+00  0.00000000E+00  0.00000000E+00  0.00000000E+00  0.00000000E+00
  0.00000000E+00  0.00000000E+00  0.00000000E+00  0.00000000E+00  0.00000000E+00
  0.00000000E+00  0.00000000E+00  0.00000000E+00  0.00000000E+00  0.00000000E+00
  0.00000000E+00  0.00000000E+00  0.00000000E+00  0.00000000E+00  0.00000000E+00
IOpCl                                      I                1
IROHF                                      I                0
Alpha Orbital Energies                     R   N=          42
  1.00049589E+00  1.00049560E+00  9.99550243E-01  9.98591403E-01  9.98160047E-01
  9.24434816E-01  9.24428628E-01  6.67312604E-01  7.62934102E-02  7.62865652E-02
  2.46552125E-03  2.45222694E-03  1.23379422E-03  1.23345738E-03  6.80265693E-04
  6.79299272E-04  1.03247774E-05  7.58703659E-06  7.57758597E-06  4.12955766E-10
  3.67531771E-11  5.84851360E-12  8.47968249E-13  2.24697217E-17  3.43705365E-18
  2.42350478E-18  9.34300554E-19  5.66640283E-19 -3.27627938E-14 -1.78448930E-12
 -4.79768338E-10 -3.26052100E-06 -3.28193757E-06 -7.38951351E-05 -7.39099695E-05
 -1.03702301E-04 -2.38450417E-04 -2.38741761E-04 -7.15075779E-04 -1.05692502E-03
 -2.82266654E-03 -2.82268168E-03
Beta Orbital Energies                      R   N=          42
  1.00047330E+00  1.00016683E+00  9.99635050E-01  9.99634759E-01  9.97854563E-01
  9.29515204E-01  9.29504579E-01  3.32687860E-01  7.33316732E-02  7.33214676E-02
  2.83498663E-03  1.41248343E-03  4.84708744E-04  4.84254378E-04  2.34777943E-04
  2.34524068E-04  1.52876685E-04  3.74989196E-06  3.72661007E-06  4.79770407E-10
  9.43242169E-12  1.78448437E-12  3.43351337E-18  4.32400685E-19 -7.69796382E-19
 -9.43288154E-19 -8.03129807E-17 -7.26272159E-15 -4.54824592E-12 -3.57861069E-11
 -4.12955688E-10 -5.39348118E-06 -5.40713227E-06 -8.61415556E-06 -8.30622321E-05
 -8.32006228E-05 -6.61634943E-04 -6.80227654E-04 -6.81192418E-04 -1.57930976E-03
 -2.42497194E-03 -2.42502200E-03
Alpha MO coefficients                      R   N=        1764
  8.95049498E-09 -2.32044525E-11 -2.57789351E-10 -2.07581650E-03 -5.84209483E-11
 -1.64660762E-14  1.25939874E-03  1.68070182E-11 -8.84104510E-15 -4.16597501E-12
  4.39066506E-16  2.05538252E-15  2.15668973E-11  1.12726952E-04 -7.09040737E-01
  1.85592772E-03  2.04227548E-02 -4.51353752E-03 -1.40722394E-03 -1.67090741E-14
  1.46881710E-03  1.21831036E-04 -7.64542002E-15  3.28183703E-04 -1.86437171E-15
 -8.48822163E-16  8.05592049E-04  1.50799932E-03  7.09040728E-01 -1.85592770E-03
 -2.04227545E-02 -4.51353749E-03  1.40722388E-03 -1.69467338E-14  1.46881710E-03
 -1.21831006E-04 -7.66385544E-15 -3.28183699E-04  1.93803121E-15 -1.04012884E-15
 -8.05592037E-04  1.50799930E-03  8.18775574E-01 -2.11308222E-03 -2.35742392E-02
  2.26798756E-11 -5.34749508E-03 -5.12551147E-15 -1.37513328E-11  1.53842604E-03
 -1.61834905E-15 -3.81009539E-04 -3.13188413E-16  1.81338840E-16  1.97090309E-03
 -1.24275930E-12 -4.09319848E-01  1.10146194E-03  1.18070386E-02 -1.38951300E-03
 -2.87894063E-03 -5.36638899E-15  1.23158255E-04  1.32940180E-03 -3.02866256E-15
  1.87414220E-04 -4.59265690E-16 -5.96803674E-16  5.79366321E-04  8.07682677E-04
 -4.09319864E-01  1.10146198E-03  1.18070391E-02  1.38951310E-03 -2.87894066E-03
 -5.77196933E-15 -1.23158287E-04  1.32940180E-03 -3.16335577E-15  1.87414227E-04
  2.59156710E-16 -9.51767997E-16  5.79366339E-04 -8.07682710E-04  5.75131112E-01
  1.25073347E-02  3.69674038E-03 -1.57755103E-14 -8.07455149E-03 -3.22984836E-14
 -2.76914790E-14 -5.80428901E-04 -1.57851233E-14 -1.22589751E-03  5.49731156E-17
  5.06338670E-15 -5.57410234E-04  4.98542413E-16  5.75243439E-01  1.25029995E-02
  3.69045681E-03  6.99221258E-03  4.03875057E-03 -3.17867363E-14  5.02822371E-04
  2.90639565E-04 -1.44137315E-14 -1.22561548E-03 -3.42696011E-15 -1.79446703E-15
  2.77871049E-04  4.82520933E-04  5.75243439E-01  1.25029995E-02  3.69045681E-03
 -6.99221258E-03  4.03875057E-03 -3.15749337E-14 -5.02822371E-04  2.90639565E-04
 -1.44639610E-14 -1.22561548E-03  3.46825402E-15 -1.64777149E-15  2.77871049E-04
 -4.82520933E-04 -2.43696272E-14 -1.84746171E-13 -9.03863312E-14  2.37026389E-15
  1.22859211E-13 -3.25152490E-01  5.54194797E-15  6.56052453E-15 -1.53820750E-01
  1.13746257E-14  1.06585007E-14  3.84459790E-02  1.35293107E-14 -7.34972925E-16
  2.94312494E-14 -1.95231688E-13 -5.95443166E-14 -1.08059990E-13 -5.95977130E-14
 -3.25119957E-01  3.03341290E-15  3.25722536E-15 -1.53813901E-01  1.12775587E-14
 -3.32930606E-02 -1.92202828E-02 -7.68878004E-15 -1.23678010E-14 -4.09611582E-14
 -1.87519407E-13 -1.06665136E-13  1.11514057E-13 -5.96144723E-14 -3.25119957E-01
  1.52522395E-14 -3.48485971E-15 -1.53813901E-01  1.27198817E-14  3.32930606E-02
 -1.92202828E-02 -7.79277801E-15  1.37432931E-14 -6.06284895E-02  2.46640177E-01
  1.14553584E-01 -2.26473867E-14 -1.63253702E-01 -2.44623615E-13  5.93194941E-14
 -9.66406856E-03 -1.16131072E-13 -1.63464724E-02  1.42509061E-16  2.89363889E-14
 -2.00308528E-02  3.55086179E-14 -6.04749871E-02  2.46614635E-01  1.14528060E-01
  1.41375299E-01  8.16260434E-02 -2.44529343E-13  8.37079511E-03  4.83321874E-03
 -1.15694330E-13 -1.63432475E-02 -2.50172609E-14 -1.45367726E-14  1.00130913E-02
  1.73428861E-02 -6.04749871E-02  2.46614635E-01  1.14528060E-01 -1.41375299E-01
  8.16260434E-02 -2.44766980E-13 -8.37079511E-03  4.83321874E-03 -1.15759303E-13
 -1.63432475E-02  2.51207731E-14 -1.47266864E-14  1.00130913E-02 -1.73428861E-02
  4.82691347E-03  3.27592095E-01  4.15760191E-01 -3.22960186E-09  1.19706578E-01
  3.15257568E-15 -9.95113725E-10  5.16077160E-02  1.29160734E-15 -1.01516968E-02
 -6.71286409E-17 -1.55428905E-16 -1.03287735E-02  3.83501020E-10 -2.42078887E-03
 -1.63796381E-01 -2.07867215E-01 -6.80805962E-02  2.37551564E-01  2.02432594E-15
 -1.46241029E-02  7.68991446E-02  1.00578354E-15  5.07872682E-03  1.11317779E-16
  2.53730383E-16 -2.72334024E-02  9.75427926E-03 -2.42078897E-03 -1.63796387E-01
 -2.07867224E-01  6.80805925E-02  2.37551562E-01  2.31333591E-15  1.46241015E-02
  7.68991443E-02  1.24475932E-15  5.07872702E-03 -1.88666643E-16  4.87867862E-16
 -2.72334022E-02 -9.75427889E-03 -5.62552229E-11 -3.82194187E-09 -4.85118312E-09
 -2.76870425E-01 -1.39714492E-09 -1.42216778E-15 -8.53174109E-02 -6.02297096E-10
  2.97499027E-16  1.18433918E-10 -2.35598538E-16 -1.52226258E-16  1.20587354E-10
  3.28622141E-02  4.18155812E-03  2.83724936E-01  3.60022584E-01 -1.58947580E-01
  6.80805271E-02 -1.31673268E-15 -6.00162876E-02  1.46132327E-02 -5.60407701E-16
 -8.79439429E-03 -2.58703225E-16 -1.51819247E-16 -9.75362347E-03  1.59693036E-02
 -4.18155807E-03 -2.83724932E-01 -3.60022579E-01 -1.58947582E-01 -6.80805327E-02
 -1.52252742E-15 -6.00162880E-02 -1.46132345E-02 -4.92862949E-16  8.79439417E-03
  3.30225125E-16 -1.83866970E-18  9.75362411E-03  1.59693038E-02  7.30099047E-03
  8.93258551E-02  2.66944107E-01  4.65847472E-13  3.51630748E-01  1.76615936E-15
  6.90669384E-13  1.57419335E-01  6.12665981E-16  5.97449785E-03 -7.71387166E-18
 -1.18256610E-15  1.55567495E-02  2.06096766E-13  7.30110215E-03  8.94191782E-02
  2.67088775E-01 -3.04607149E-01 -1.75810458E-01 -7.62161671E-16 -1.36362685E-01
 -7.87068091E-02 -1.70144733E-15  5.96851953E-03  2.94259314E-16 -4.94386761E-17
 -7.76909584E-03 -1.34542175E-02  7.30110215E-03  8.94191782E-02  2.67088775E-01
  3.04607149E-01 -1.75810458E-01  4.40312191E-16  1.36362685E-01 -7.87068091E-02
 -6.45933026E-16  5.96851953E-03 -1.50767791E-16 -1.75014581E-16 -7.76909584E-03
  1.34542175E-02  1.05200542E-09  2.99638119E-09  4.18729050E-09 -3.35524193E-01
  4.54602316E-09  2.14320993E-16 -2.45046378E-01  1.08384965E-09 -3.05201661E-15
 -2.04133888E-10  2.18703390E-16  1.66184464E-15 -1.85095942E-09  1.49485934E-01
 -7.82043973E-02 -2.22636480E-01 -3.11063233E-01  2.08809323E-01  3.14240116E-01
  3.28313105E-15  8.47836693E-03  1.46330704E-01  6.22739936E-16  1.51700410E-02
 -6.90916083E-16  4.82591684E-16 -1.33577338E-01 -8.18270423E-02  7.82043963E-02
  2.22636477E-01  3.11063229E-01  2.08809316E-01 -3.14240120E-01  3.98443165E-16
  8.47836353E-03 -1.46330707E-01 -6.92736334E-16 -1.51700408E-02 -1.28655654E-16
 -1.81255227E-15  1.33577340E-01 -8.18270392E-02 -9.03113431E-02 -2.57097155E-01
 -3.59215354E-01 -3.91046603E-09 -3.90244207E-01 -2.38776273E-15 -2.85517748E-09
 -9.30223868E-02 -6.65813660E-17  1.75174488E-02  1.08052036E-15 -1.32994119E-15
  1.58980684E-01  1.74039255E-09  4.51531432E-02  1.28562266E-01  1.79521528E-01
 -3.14169454E-01  1.54122860E-01  2.93942725E-17 -1.46354857E-01  1.60557434E-01
  5.45401121E-16 -8.75625259E-03  1.56605573E-15  3.83963616E-16 -7.23655373E-02
  1.33586270E-01  4.51531450E-02  1.28562271E-01  1.79521535E-01  3.14169459E-01
  1.54122853E-01  2.87253028E-15  1.46354857E-01  1.60557431E-01  2.61647675E-15
 -8.75625294E-03 -1.15872707E-15  4.38642318E-16 -7.23655342E-02 -1.33586272E-01
 -2.70911604E-14 -4.73345189E-14  2.57635604E-14  7.01453600E-16  3.66647865E-14
  3.56868995E-01 -4.04126828E-15 -1.61332444E-14 -9.36080165E-02  2.26684694E-14
 -6.01044062E-12  4.65929146E-01 -7.42589395E-14 -4.65338360E-15 -8.74779944E-15
 -8.50846624E-15 -3.39804399E-14 -1.90064242E-14 -2.15856064E-14  3.57038654E-01
 -6.04001302E-15  1.14669946E-14 -9.35344270E-02  1.85900815E-14 -4.03581771E-01
 -2.33028912E-01  5.55075774E-14  8.71770238E-14 -2.79485107E-14 -4.92016479E-14
  7.00087899E-14  1.08008088E-14 -1.89305284E-14  3.57038654E-01 -2.05427586E-14
  1.37518003E-14 -9.35344270E-02  2.95528405E-14  4.03581771E-01 -2.33028912E-01
  4.95386263E-14 -9.98945427E-14 -1.70290076E-01 -3.63709468E-01  7.23812491E-02
 -7.82261510E-12  7.81005750E-02  5.91660507E-14 -3.42600409E-12 -5.70932331E-01
 -1.52741573E-14 -6.54038018E-02  3.26334383E-15  6.82300103E-14  3.10576988E-01
 -1.51595954E-12 -1.70295871E-01 -3.63652694E-01  7.27832237E-02 -6.75747805E-02
 -3.89081944E-02  5.17102918E-14  4.94584178E-01  2.85532410E-01 -1.77258666E-14
 -6.53934124E-02 -6.40266418E-14 -3.84969511E-14 -1.55233071E-01 -2.68875657E-01
 -1.70295871E-01 -3.63652694E-01  7.27832237E-02  6.75747805E-02 -3.89081944E-02
  6.17269111E-14 -4.94584178E-01  2.85532410E-01 -1.80331163E-14 -6.53934124E-02
  6.16229552E-14 -3.21537411E-14 -1.55233071E-01  2.68875657E-01 -1.52079525E-09
 -5.18806044E-09 -2.17171099E-08  5.22343806E-01 -2.15041237E-09 -1.07107785E-15
  6.55184913E-02  1.23854368E-08  7.95870193E-15  6.76648500E-10 -7.37872345E-15
 -5.77834813E-15 -1.82314941E-08 -4.22532508E-01  7.11384375E-02  2.42724971E-01
  1.01645324E+00  4.30451545E-02 -2.76686045E-01 -6.21201512E-15  5.18790642E-01
  2.61938406E-01 -1.57502265E-15 -3.12060028E-02  1.16080891E-15 -4.78650937E-15
 -2.43873319E-01 -8.44881348E-01 -7.11384360E-02 -2.42724966E-01 -1.01645322E+00
  4.30451647E-02  2.76686059E-01 -3.88442229E-15  5.18790632E-01 -2.61938398E-01
 -6.11574272E-16  3.12060021E-02 -1.54502615E-15  4.59043545E-15  2.43873298E-01
 -8.44881339E-01 -8.21649779E-02 -2.80386761E-01 -1.17439758E+00 -9.65695186E-09
 -1.16359253E-01  8.01478002E-15 -1.21376661E-09  6.69885870E-01 -7.97075503E-15
  3.63172541E-02 -1.21154597E-14  1.15298499E-14 -9.85909645E-01  7.81636060E-09
  4.10798527E-02  1.40283915E-01  5.87052917E-01 -2.76811020E-01  3.62942771E-01
  2.18394856E-14  2.61943744E-01  2.16594955E-01 -5.73939065E-15 -1.82446646E-02
 -1.00051068E-14 -2.23038503E-16 -5.63279262E-01 -2.43882974E-01  4.10798553E-02
  1.40283924E-01  5.87052954E-01  2.76811018E-01  3.62942760E-01  9.98690494E-15
 -2.61943763E-01  2.16594965E-01 -1.01017742E-14 -1.82446657E-02 -3.95313208E-15
 -1.14667841E-14 -5.63279271E-01  2.43883005E-01 -6.41500352E-02  1.49124964E-01
  1.20117525E-01  1.19410886E-09 -7.60229460E-02 -1.22246499E-14  2.42444313E-09
 -4.46365446E-02 -4.12484657E-15  2.73828608E-01 -3.67431771E-14 -1.08390581E-15
  1.43122642E-01  4.55067104E-09  3.18464993E-02 -7.48902208E-02 -6.00142085E-02
  2.73390891E-02 -1.23764760E-01  2.23999126E-14  1.03982591E-01 -2.23910895E-01
  1.51521387E-14 -1.37304278E-01 -7.02633685E-15  7.72374883E-16 -3.63952451E-01
  2.92887570E-01  3.18465002E-02 -7.48902230E-02 -6.00142103E-02 -2.73390875E-02
 -1.23764759E-01 -1.64560035E-14 -1.03982589E-01 -2.23910894E-01 -5.68465393E-15
 -1.37304282E-01 -1.70943598E-14 -2.73687106E-14 -3.63952446E-01 -2.92887569E-01
  5.48089133E-10 -1.27358925E-09 -1.02179260E-09  1.39642839E-01  6.48360277E-10
 -4.53446038E-17  2.83849843E-01  3.79394776E-10  5.68159800E-15 -2.33525941E-09
 -2.54685048E-16  3.64332154E-15 -1.21742298E-09  5.32898997E-01 -5.54234744E-02
  1.29345578E-01  1.04157948E-01  9.21246133E-02 -2.75717656E-02 -4.26296608E-15
  1.04294829E-01 -1.03690171E-01  3.55172890E-15  2.37505807E-01 -4.30062359E-15
  1.23805516E-15 -2.92860397E-01  2.57725363E-02  5.54234738E-02 -1.29345577E-01
 -1.04157947E-01  9.21246138E-02  2.75717677E-02 -4.52340279E-15  1.04294831E-01
  1.03690174E-01  3.38240169E-15 -2.37505805E-01  3.73454858E-15  1.44982017E-15
  2.92860404E-01  2.57725413E-02  1.81664202E-01  5.40992790E-01 -6.66883828E-01
  7.61890979E-12  3.91029294E-01  2.71802608E-14  9.25616555E-11 -4.71807066E-01
 -8.80032373E-14 -1.88296323E-01  1.02793852E-14 -6.71245183E-14 -7.72000888E-02
 -1.33694175E-11  1.72012679E-01  5.19381925E-01 -5.74223256E-01 -3.35388223E-01
 -1.95606981E-01 -1.35954984E-13  4.20502923E-01  2.57575656E-01  1.05213310E-13
 -1.89818920E-01 -1.02949326E-13 -1.37145722E-13  3.31087959E-02  6.09921058E-02
  1.72012679E-01  5.19381925E-01 -5.74223257E-01  3.35388223E-01 -1.95606981E-01
  1.28658199E-13 -4.20502923E-01  2.57575657E-01 -3.07387150E-14 -1.89818920E-01
 -9.97953507E-14 -7.13066729E-15  3.31087960E-02 -6.09921059E-02  7.93877332E-01
  1.74307260E+00 -7.57732067E+00  1.37963784E-08  6.39995331E-03 -3.65372756E-13
 -1.44063484E-07  2.20753166E+00 -8.31876927E-14  1.20656962E-01  1.15913422E-12
 -4.64629562E-14 -4.09859898E-01  8.07451224E-09 -3.99449130E-01 -8.79216028E-01
  3.79761341E+00  7.05925714E-02 -1.04225190E-01 -5.79780793E-13  3.01625351E-01
  1.67074875E+00 -2.91945624E-13 -5.73591367E-02  4.85886898E-13 -6.63590336E-13
 -1.66412512E-01 -1.41844531E-01 -3.99449263E-01 -8.79216319E-01  3.79761467E+00
 -7.05925658E-02 -1.04225178E-01  9.53308408E-13 -3.01625741E-01  1.67074881E+00
  3.71343920E-13 -5.73591565E-02  2.97269607E-13  2.33938610E-13 -1.66412540E-01
  1.41844593E-01  7.61266325E-08  1.67132339E-07 -7.26781672E-07 -1.43826302E-01
  5.81522532E-10 -1.06488704E-16  1.50220400E+00  2.11835647E-07 -8.51556017E-14
  1.15892562E-08 -5.35467600E-14 -4.40423136E-14 -3.92757089E-08 -8.40229307E-02
 -6.90483866E-01 -1.51696849E+00  6.58230915E+00 -2.95695345E-02  6.67074136E-02
 -1.29781830E-13  2.03121984E+00  3.14141201E-01  8.92932336E-14 -1.03079365E-01
  1.44659177E-14 -1.78722828E-13 -1.42154363E-01 -3.26678939E-01  6.90483789E-01
  1.51696832E+00 -6.58230842E+00 -2.95695481E-02 -6.67074336E-02  1.51473196E-13
  2.03121979E+00 -3.14140881E-01 -1.69962189E-14  1.03079354E-01 -1.22465354E-13
 -1.67061923E-13  1.42154332E-01 -3.26678912E-01  5.09039563E-13  1.13114066E-12
 -5.84141461E-12 -4.04138998E-10  2.72190072E-13  3.82610390E-01 -1.94925056E-11
  1.66669696E-12  1.99802875E-01  1.14538046E-13  3.94249386E-08  1.29468858E-01
 -2.06324787E-13 -5.18826339E-10 -7.10444183E-13 -1.54912040E-12  8.47782045E-12
  2.02076907E-10 -3.50377278E-10 -1.91489378E-01  1.26822617E-11 -1.49653385E-11
 -9.97074161E-02 -3.31918546E-13 -1.54106968E-01  3.96128302E-01 -4.49648714E-10
  2.59865562E-10  2.65919428E-13  6.05006359E-13 -2.84845514E-12  2.01924620E-10
  3.50384465E-10 -1.91489376E-01  1.20381900E-11  1.75276439E-11 -9.97073527E-02
  1.76576608E-13  1.54107047E-01  3.96128303E-01  4.49298700E-10  2.59863088E-10
 -2.26595016E-12 -5.90698326E-12  6.96511336E-11  1.23907171E+00 -5.04146996E-12
 -3.99228521E-11  1.03364357E+00 -3.08664040E-11  3.64177207E-11  3.49033999E-12
  9.77242264E-12 -9.16400399E-12 -7.15718031E-12 -1.22767866E+00 -2.30845755E-04
 -3.56066973E-04  9.14590880E-03 -6.18603698E-01  1.07177280E+00  8.03891976E-11
 -5.12183791E-01  8.97930718E-01 -6.18548187E-11 -3.57322024E-04  2.28189256E-11
  1.00353778E-11 -1.06338162E+00  6.15659358E-01  2.30845761E-04  3.56066979E-04
 -9.14590886E-03 -6.18603698E-01 -1.07177280E+00 -4.04562711E-11 -5.12183791E-01
 -8.97930718E-01  2.54251462E-11  3.57322040E-04  3.59155238E-11 -5.65878519E-12
  1.06338162E+00  6.15659358E-01 -2.84535856E-12 -2.30728637E-12  5.15712939E-12
 -1.59472658E-01  9.37118247E-12 -5.15036327E-10  2.88776844E+00 -2.37372016E-11
  2.73972865E-10 -6.43626152E-12  4.82767083E-11  2.22206008E-10 -9.08806636E-12
 -3.83301297E-01  7.93096213E-05  3.60451534E-04  4.80552643E-04  7.95138104E-02
 -1.39444555E-01  1.00356488E-09 -1.44302019E+00  2.50442980E+00 -4.18858560E-10
  3.81537224E-05  3.68617271E-10  3.97181336E-10 -3.32756575E-01  1.93798921E-01
 -7.93096254E-05 -3.60451539E-04 -4.80552657E-04  7.95138104E-02  1.39444555E-01
 -4.88486459E-10 -1.44302019E+00 -2.50442980E+00  1.44827205E-10 -3.81537352E-05
  3.55044897E-10  2.39270266E-11  3.32756575E-01  1.93798921E-01  1.74143814E-13
  3.42444582E-13 -2.04651847E-12 -3.40286614E-11 -1.03659932E-13  9.82283041E-01
  1.27760471E-09  9.87165928E-13 -8.88425882E-01  5.12076352E-14 -3.03746761E-08
 -6.34394002E-01  9.96963889E-14 -2.01014293E-10  4.68838873E-14  1.72642827E-13
  1.47411180E-13  1.69275318E-11 -2.99671795E-11 -4.91169784E-01 -6.38652452E-10
  1.10825356E-09  4.44230758E-01  2.22914307E-14 -1.70771760E-01 -3.38703672E-01
 -1.74277028E-10  1.01364087E-10 -2.69979500E-13 -6.49349878E-13  2.03945054E-12
  1.69921066E-11  3.00346173E-11 -4.91154395E-01 -6.39269195E-10 -1.10753790E-09
  4.44237987E-01 -4.70148971E-14  1.70766666E-01 -3.38699470E-01  1.74462324E-10
  1.01366891E-10 -2.86850372E-12 -5.95516013E-12  3.03760087E-11  6.58331114E-10
  6.67900721E-13 -2.06774472E-05  2.14018325E-09 -1.25901379E-11 -8.55599584E-05
 -5.36837933E-13  3.46416675E-01  6.98684163E-05 -7.98527127E-13  5.37676435E-10
  1.58880807E-12  3.53793511E-12 -1.67087462E-11 -3.28634216E-10  5.69311908E-10
 -6.29606756E-01 -1.07443089E-09  1.84982210E-09  2.12141558E-01  5.27018167E-13
 -2.91167404E-01 -3.63002379E-01  4.64135126E-10 -2.67445376E-10  1.13427826E-12
  2.06455752E-12 -1.33493617E-11 -3.29729300E-10 -5.69581982E-10  6.29627436E-01
 -1.06633840E-09 -1.86126807E-09 -2.12055998E-01  9.87044122E-15 -2.91199521E-01
  3.63086498E-01 -4.65961422E-10 -2.67591145E-10  1.00369104E-12  2.07296721E-12
 -1.07200113E-11 -2.94728244E-10 -2.66540988E-13 -5.31995380E-06  9.01250806E-10
  4.46229196E-12 -3.89884486E-05  1.98087951E-13 -1.64539978E-01  2.48775818E-05
  2.55378166E-13 -5.27912284E-10 -3.37323927E-13 -7.04774998E-13  4.41331132E-12
  1.47167469E-10 -2.55638661E-10 -5.29746361E-01 -4.49536394E-10  7.83697453E-10
  1.27886716E+00 -1.29717619E-13  1.47579211E-01  2.41633045E-01 -4.57021763E-10
  2.64560644E-10 -6.76139670E-13 -1.41797528E-12  6.38633342E-12  1.47463929E-10