#INFO: **** input file is /share/home/srwang/ExSCF/test/test_dm/test.py ****
#import phf
from pyscf import gto, scf, lib
#import scipy
#import numpy as np
import sys

from pyphf import util

lib.num_threads(4)

xyz = 'h2.xyz' #sys.argv[1]
fch = '../test_carlos/test_uhf.fchk' #sys.argv[2]
bas = xyz[:-3] + 'bas'


mf = util.guess_from_fchk(xyz, bas, fch)

mf2 = util.SUHF(mf)
mf2.cut_no = False
mf2.verbose = 9
mf2.diis_on = True
mf2.max_cycle = 15
mf2.kernel()
#INFO: ******************** input file end ********************


System: uname_result(system='Linux', node='xn01', release='3.10.0-1127.el7.x86_64', version='#1 SMP Tue Feb 18 16:39:12 EST 2020', machine='x86_64', processor='x86_64')  Threads 4
Python 3.7.4 (default, Aug 13 2019, 20:35:49) 
[GCC 7.3.0]
numpy 1.17.2  scipy 1.4.1
Date: Sun Jan 24 22:56:56 2021
PySCF version 1.7.5
PySCF path  /share/home/srwang/pyscf-1.7.5/pyscf

[CONFIG] conf_file None
[INPUT] verbose = 4
[INPUT] num. atoms = 2
[INPUT] num. electrons = 2
[INPUT] charge = 0
[INPUT] spin (= nelec alpha-beta = 2S) = 0
[INPUT] symmetry False subgroup None
[INPUT] Mole.unit = angstrom
[INPUT]  1 H      0.000000000000   0.000000000000   0.000000000000 AA    0.000000000000   0.000000000000   0.000000000000 Bohr
[INPUT]  2 H      0.000000000000   0.000000000000   2.000000000000 AA    0.000000000000   0.000000000000   3.779452249130 Bohr

nuclear repulsion = 0.26458860546
number of shells = 4
number of NR pGTOs = 6
number of NR cGTOs = 4
basis = h2.bas
ecp = {}
CPU time:         0.99


******** <class 'pyscf.scf.uhf.UHF'> ********
method = UHF
initial guess = minao
damping factor = 0
level_shift factor = 0
DIIS = <class 'pyscf.scf.diis.CDIIS'>
diis_start_cycle = 1
diis_space = 8
SCF conv_tol = 1e-09
SCF conv_tol_grad = None
SCF max_cycles = 1
direct_scf = True
direct_scf_tol = 1e-13
chkfile to save SCF result = /share/home/srwang/ExSCF/test/test_dm/tmpbwicedih
max_memory 4000 MB (current use 97 MB)
number electrons alpha = 1  beta = 1
Set gradient conv threshold to 3.16228e-05
init E= -0.644800894941739
  alpha nocc = 1  HOMO = -0.248574003043426  LUMO = -0.0900508471637462
  beta  nocc = 1  HOMO = -0.241945730776492  LUMO = -0.0916003506261902
cycle= 1 E= -0.90763782954924  delta_E= -0.263  |g|= 0.0146  |ddm|= 0.599
SCF not converged.
SCF energy = -0.90763782954924 after 1 cycles  <S^2> = 6.5933669e-07  2S+1 = 1.0000013


******** <class 'pyscf.scf.uhf.UHF'> ********
method = UHF
initial guess = minao
damping factor = 0
level_shift factor = 0
DIIS = <class 'pyscf.scf.diis.CDIIS'>
diis_start_cycle = 1
diis_space = 8
SCF conv_tol = 1e-09
SCF conv_tol_grad = None
SCF max_cycles = 1
direct_scf = True
direct_scf_tol = 1e-13
chkfile to save SCF result = /share/home/srwang/ExSCF/test/test_dm/tmpbwicedih
max_memory 4000 MB (current use 104 MB)
number electrons alpha = 1  beta = 1
Set gradient conv threshold to 3.16228e-05
init E= -0.99701150589175
  alpha nocc = 1  HOMO = -0.494329974228981  LUMO = 0.12017707328242
  beta  nocc = 1  HOMO = -0.49432997422898  LUMO = 0.120177073282419
cycle= 1 E= -0.997011506088653  delta_E= -1.97e-10  |g|= 2.87e-07  |ddm|= 1.01e-06
  alpha nocc = 1  HOMO = -0.494330047369919  LUMO = 0.120177149393592
  beta  nocc = 1  HOMO = -0.494330047369919  LUMO = 0.120177149393592
Extra cycle  E= -0.997011506088841  delta_E= -1.89e-13  |g|= 1.37e-07  |ddm|= 4.63e-07
converged SCF energy = -0.997011506088841  <S^2> = 0.91048229  2S+1 = 2.1545137

******** <class 'pyphf.util.SUHF'> ********
max_cycle = 15
verbose: 9, debug2
DIIS: <class 'pyscf.scf.diis.CDIIS'>
diis_start_cyc = 40
S
[[1.         0.64589812 0.00227256 0.07465654]
 [0.64589812 1.         0.07465654 0.27025806]
 [0.00227256 0.07465654 1.         0.64589812]
 [0.07465654 0.27025806 0.64589812 1.        ]]
SVD: S^(-1/2)
[[-0.33060027  0.46012716 -0.85621857  0.83453548]
 [-0.39774552  0.36468655  0.7116764  -1.05293832]
 [-0.33060027 -0.46012716 -0.85621857 -0.83453548]
 [-0.39774552 -0.36468655  0.7116764   1.05293832]]
S^(1/2)
[[-0.61794897 -0.74345502 -0.61794897 -0.74345502]
 [ 0.66740562  0.52897084 -0.66740562 -0.52897084]
 [-0.34536263  0.28706038 -0.34536263  0.28706038]
 [ 0.2311568  -0.29165189 -0.2311568   0.29165189]]
C (ortho)
[[-0.80171146 -0.5700944  -0.0923896  -0.15399763]
 [ 0.58103364 -0.7590258   0.10126792 -0.27572549]
 [ 0.08280266  0.16885249 -0.79177861 -0.58113612]
 [-0.11314752  0.26525656  0.59522735 -0.75002733]]
[[-0.80171146 -0.5700944  -0.0923896  -0.15399763]
 [-0.58103364  0.7590258  -0.10126792  0.27572549]
 [ 0.08280266  0.16885249 -0.79177861 -0.58113612]
 [ 0.11314752 -0.26525656 -0.59522735  0.75002733]]
density matrix (ortho)
[[[ 0.64274127 -0.46582133 -0.06638384  0.09071167]
  [-0.46582133  0.33760009  0.04811113 -0.06574252]
  [-0.06638384  0.04811113  0.00685628 -0.00936892]
  [ 0.09071167 -0.06574252 -0.00936892  0.01280236]]

 [[ 0.64274127  0.46582133 -0.06638384 -0.09071167]
  [ 0.46582133  0.33760009 -0.04811113 -0.06574252]
  [-0.06638384 -0.04811113  0.00685628  0.00936892]
  [-0.09071167 -0.06574252  0.00936892  0.01280236]]]
grids:  [0.06237655 0.31939555 0.74529195 1.28265786 1.85893479 2.39630071
 2.8221971  3.07921611] 
weights:  [0.15900941 0.34931531 0.49276925 0.56970235 0.56970235 0.49276925
 0.34931531 0.15900941]
S = 0.0, Sz = 0.0
Wigner small d:  1
value : [1. 1. 1. 1. 1. 1. 1. 1.]
time for Preparation before cyc: 0.007
**** Start Cycle 1 ****
dm (ortho)
[[[ 0.642741269  -0.4658213283 -0.0663838378  0.0907116656]
  [-0.4658213283  0.3376000895  0.048111128  -0.0657425166]
  [-0.0663838378  0.048111128   0.0068562797 -0.0093689153]
  [ 0.0907116656 -0.0657425166 -0.0093689153  0.0128023618]]

 [[ 0.642741269   0.4658213283 -0.0663838378 -0.0907116656]
  [ 0.4658213283  0.3376000895 -0.048111128  -0.0657425166]
  [-0.0663838378 -0.048111128   0.0068562797  0.0093689153]
  [-0.0907116656 -0.0657425166  0.0093689153  0.0128023618]]]
Fock (ortho)
 (array([[-0.2388878328,  0.3264129105,  0.2163653017,  0.0245836224],
       [ 0.3264129105,  0.0110684007,  0.0780609512,  0.3396298552],
       [ 0.2163653017,  0.0780609512,  1.1220160141,  0.050652576 ],
       [ 0.0245836224,  0.3396298552,  0.050652576 ,  1.1126125007]]), array([[-0.2388878328, -0.3264129105,  0.2163653017, -0.0245836224],
       [-0.3264129105,  0.0110684007, -0.0780609512,  0.3396298552],
       [ 0.2163653017, -0.0780609512,  1.1220160141, -0.050652576 ],
       [-0.0245836224,  0.3396298552, -0.050652576 ,  1.1126125007]]))
E(UHF) =    -1.261600
NO eigenvalue
[-1.0000000000e+00 -1.1541275128e-16  1.4621122837e-18  2.2667514315e-18] 
 [-1.0000000000e+00 -1.1505810476e-17  3.7788148033e-19  1.0763482636e-17]
NO vec
[[ 0.8017114624  0.            0.5864057907  0.0922459945 -0.0698402186  0.            0.            0.          ]
 [-0.5810336389  0.            0.7915406622 -0.1025638941 -0.1591977958  0.            0.            0.          ]
 [-0.0828026552  0.           -0.0827190706  0.7816404213 -0.612649596   0.            0.            0.          ]
 [ 0.1131475223  0.           -0.1508283265 -0.6082841243 -0.770998624   0.            0.            0.          ]
 [ 0.            0.8017114624  0.            0.            0.           -0.4154521516 -0.0126321331 -0.4295330836]
 [ 0.            0.5810336389  0.            0.            0.            0.638592171   0.205630287   0.4607777498]
 [ 0.           -0.0828026552  0.            0.            0.            0.6347971968 -0.0163528197 -0.7680552223]
 [ 0.           -0.1131475223  0.            0.            0.           -0.1289653742  0.9784115696 -0.1152231353]]
dm(NO)
[[ 1.0000000000e+00  0.0000000000e+00 -2.2995462364e-16  1.3376130691e-17 -7.5006982440e-18  0.0000000000e+00  0.0000000000e+00  0.0000000000e+00]
 [ 0.0000000000e+00  1.0000000000e+00  0.0000000000e+00  0.0000000000e+00  0.0000000000e+00 -2.5462041865e-17  1.4671329096e-17 -8.1881735466e-17]
 [-1.8887633711e-16  0.0000000000e+00 -2.9958238429e-17 -3.8808643741e-18  3.7209146395e-18  0.0000000000e+00  0.0000000000e+00  0.0000000000e+00]
 [ 1.3491999664e-17  0.0000000000e+00 -1.2026606988e-17  5.3113966751e-19  2.5864369146e-18  0.0000000000e+00  0.0000000000e+00  0.0000000000e+00]
 [-7.4611865751e-18  0.0000000000e+00  2.6356691640e-18  1.0297523606e-18  3.6628791810e-19  0.0000000000e+00  0.0000000000e+00  0.0000000000e+00]
 [ 0.0000000000e+00 -2.8288821447e-17  0.0000000000e+00  0.0000000000e+00  0.0000000000e+00  4.0304362134e-18 -3.0450291803e-18 -2.5886158903e-18]
 [ 0.0000000000e+00  1.4926795077e-17  0.0000000000e+00  0.0000000000e+00  0.0000000000e+00 -2.0773352784e-18  1.5664929536e-18 -2.7948518841e-18]
 [ 0.0000000000e+00 -6.6768671078e-17  0.0000000000e+00  0.0000000000e+00  0.0000000000e+00  1.0177074658e-17  9.5202124848e-19  2.0377344999e-18]]
D(g) (NO)
 [[ 9.9951368521e-01  9.3298658976e-03 -2.5113709898e-16  2.5126077712e-17 -1.7726027671e-17 -2.4050720675e-02 -5.4715751953e-04 -1.7510286427e-02]
 [-9.3298658976e-03  9.9951368521e-01 -2.9747392979e-02 -5.7581488855e-04  3.2821525439e-04  6.5474452255e-17  9.6163527694e-18  9.0786491269e-18]
 [-1.3593576528e-16  2.9747392979e-02  9.9951368521e-01  4.6306646382e-17 -7.3609303093e-17  7.1344059104e-03  2.8494251388e-04  6.0419157373e-03]
 [ 1.5215079176e-17  5.7581488855e-04  4.4833566558e-17  9.9951368521e-01 -5.9846016282e-17  1.4681384554e-02 -1.9651344454e-02 -1.9244300993e-02]
 [-1.7388265043e-17 -3.2821525439e-04 -9.6979945436e-17 -3.4631735237e-17  9.9951368521e-01 -1.1292170280e-02 -2.4204073259e-02  1.6091459770e-02]
 [ 2.4050720675e-02  4.7813609118e-17 -7.1344059104e-03 -1.4681384554e-02  1.1292170280e-02  9.9951368521e-01  4.2237629808e-17  1.1558063842e-16]
 [ 5.4715751953e-04  1.7347234760e-18 -2.8494251388e-04  1.9651344454e-02  2.4204073259e-02  2.5153490402e-17  9.9951368521e-01  6.9388939039e-18]
 [ 1.7510286427e-02  0.0000000000e+00 -6.0419157373e-03  1.9244300993e-02 -1.6091459770e-02  5.5511151231e-17  6.9388939039e-18  9.9951368521e-01]]
N(g) (NO)
 [[ 1.0003993855 -0.0093381334]
 [ 0.0093381334  1.0003993855]]
P(g) (NO)
 [[ 1.0000000000e+00  6.2912008903e-18 -2.2995462364e-16  1.3376130691e-17 -7.5006982440e-18 -1.6897202513e-34  9.6296497219e-35 -4.8148248610e-34]
 [ 1.3837443197e-18  1.0000000000e+00 -2.6179853178e-34  1.6583352291e-35  4.2895082179e-36 -2.5462041865e-17  1.4671329096e-17 -8.1881735466e-17]
 [ 2.7778512343e-04  2.9759273656e-02 -6.3877973513e-20  3.7156901151e-21 -2.0835823875e-21 -7.5773187169e-19  4.3660809746e-19 -2.4367409731e-18]
 [ 5.3770362332e-06  5.7604486066e-04 -1.2364743433e-21  7.1923939387e-23 -4.0331526232e-23 -1.4667278358e-20  8.4513437247e-21 -4.7167552897e-20]
 [-3.0649178238e-06 -3.2834633880e-04  7.0479202468e-22 -4.0996741369e-23  2.2989023739e-23  8.3603682246e-21 -4.8172771939e-21  2.6885568055e-20]
 [ 2.4060326184e-02 -2.2458883762e-04 -5.5327832523e-18  3.2183406751e-19 -1.8046924636e-19  5.7184903859e-21 -3.2950167480e-21  1.8389723791e-20]
 [ 5.4737604630e-04 -5.1094298989e-06 -1.2587165272e-19  7.3217735325e-21 -4.1057025493e-21  1.3009651799e-22 -7.4962127539e-23  4.1836898736e-22]
 [ 1.7517279781e-02 -1.6351339023e-04 -4.0281794793e-18  2.3431342370e-19 -1.3139182969e-19  4.1633847874e-21 -2.3989587596e-21  1.3388760164e-20]]
time for NO, Ng: 0.015
Pg_ortho
 [[ 6.4287243289e-01 -4.6591638828e-01 -6.6397384681e-02  9.0730177050e-02  1.4051660947e-02  1.0183823077e-02 -1.4512887621e-03 -1.9831456761e-03]
 [-4.6564510041e-01  3.3747236980e-01  4.8092926801e-02 -6.5717645122e-02  1.8879395628e-02  1.3682683179e-02 -1.9499086131e-03 -2.6644958164e-03]
 [-6.6397384681e-02  4.8120946053e-02  6.8576788598e-03 -9.3708271807e-03 -1.4512887621e-03 -1.0518093230e-03  1.4989253434e-04  2.0482397378e-04]
 [ 9.0677347837e-02 -6.5717645122e-02 -9.3653708547e-03  1.2797518454e-02 -3.6764770482e-03 -2.6644958164e-03  3.7971524109e-04  5.1887030216e-04]
 [-1.4051660947e-02  1.0183823077e-02  1.4512887621e-03 -1.9831456761e-03  6.4287243289e-01  4.6591638828e-01 -6.6397384681e-02 -9.0730177050e-02]
 [ 1.8879395628e-02 -1.3682683179e-02 -1.9499086131e-03  2.6644958164e-03  4.6564510041e-01  3.3747236980e-01 -4.8092926801e-02 -6.5717645122e-02]
 [ 1.4512887621e-03 -1.0518093230e-03 -1.4989253434e-04  2.0482397378e-04 -6.6397384681e-02 -4.8120946053e-02  6.8576788598e-03  9.3708271807e-03]
 [-3.6764770482e-03  2.6644958164e-03  3.7971524109e-04 -5.1887030216e-04 -9.0677347837e-02 -6.5717645122e-02  9.3653708547e-03  1.2797518454e-02]]
G(g) (NO)
 [[ 2.7295471001e-01 -1.5811419784e-03  5.2878941335e-02  1.2446935349e-02 -6.3832260336e-04 -5.8165871322e-04 -4.2142665256e-04  5.6746057211e-05]
 [ 1.5811419784e-03  2.7295471001e-01 -4.5415815141e-04  5.5021900875e-04  1.0073139074e-04 -3.7650559663e-02  5.8638126224e-03 -3.8724244997e-02]
 [ 5.2808168677e-02 -1.8636855472e-02  8.7859335932e-01  1.5427185188e-02 -1.9216044908e-01 -3.7605950399e-03 -3.3094669017e-03  2.2887442337e-03]
 [ 1.2450966645e-02 -1.3361348059e-03  1.5428323806e-02  7.4699762508e-01 -4.4730540246e-02 -7.7163420330e-04 -5.6173814930e-04  2.6446526590e-04]
 [-6.3342899007e-04  5.5095447919e-03 -1.9215520897e-01 -4.4730620277e-02  8.8129387358e-01  2.7540524115e-03  3.0636682864e-03 -2.2616241369e-03]
 [-1.2736899004e-02 -3.7592408006e-02  9.3022769387e-04 -2.2402337661e-03 -3.1721664955e-06  7.4299601043e-01  7.4388578155e-02  5.9885266223e-02]
 [-3.9878027254e-03  5.8716494463e-03  5.6831051446e-04 -3.2404506913e-03 -2.6689675581e-04  7.4384507083e-02  7.9569936487e-01  1.4853690113e-01]
 [-1.4189487485e-02 -3.8684170856e-02  1.8871342576e-03 -5.7413399913e-03 -3.1104051259e-04  5.9883020442e-02  1.4853957403e-01  9.6818948267e-01]]
time for Gg: 0.033
C(NO)
[[-1.0000000000e+00  0.0000000000e+00  2.9267653301e-17  3.2728892189e-16 -4.5516119642e-16  0.0000000000e+00  0.0000000000e+00  0.0000000000e+00]
 [ 0.0000000000e+00 -1.0000000000e+00  0.0000000000e+00  0.0000000000e+00  0.0000000000e+00 -7.2370300960e-18  8.6736173799e-16  8.1878948066e-16]
 [ 1.5434367077e-16  0.0000000000e+00 -9.8908196813e-01  1.6979263679e-03 -1.4735663328e-01  0.0000000000e+00  0.0000000000e+00  0.0000000000e+00]
 [-2.4248430299e-17  0.0000000000e+00 -4.1097070495e-03 -9.9986251887e-01  1.6064049165e-02  0.0000000000e+00  0.0000000000e+00  0.0000000000e+00]
 [ 1.5022421045e-17  0.0000000000e+00 -1.4730909896e-01  1.6494253959e-02  9.8895296600e-01  0.0000000000e+00  0.0000000000e+00  0.0000000000e+00]
 [ 0.0000000000e+00  2.5462041865e-17  0.0000000000e+00  0.0000000000e+00  0.0000000000e+00  8.6295087822e-01 -4.5214056725e-01 -2.2557634900e-01]
 [ 0.0000000000e+00 -1.4671329096e-17  0.0000000000e+00  0.0000000000e+00  0.0000000000e+00 -9.9011099255e-02 -5.8908619125e-01  8.0198145958e-01]
 [ 0.0000000000e+00  8.1881735466e-17  0.0000000000e+00  0.0000000000e+00  0.0000000000e+00  4.9549226433e-01  6.6973604258e-01  5.5311938066e-01]]
detC 0.9999999999999998
detNg [ 1.0008861312  1.0235662265  1.1372540654  1.4834070873  2.4073534736  4.7572219651  8.8856227435 11.0615733333]
xg [0.9991146533 0.9769763539 0.8793109917 0.6741237847 0.4153939216 0.2102067146 0.1125413523 0.090403053 ]
ciS 1.0895177062942583
[[-7.6727003127e-01  0.0000000000e+00 -5.2883088730e-02 -1.2441829623e-02  6.3926227852e-04  0.0000000000e+00  0.0000000000e+00  0.0000000000e+00]
 [ 0.0000000000e+00 -7.6727003127e-01  0.0000000000e+00  0.0000000000e+00  0.0000000000e+00  3.7655900402e-02 -5.8598994951e-03  3.8723682638e-02]
 [-5.2883088730e-02  0.0000000000e+00 -7.3320694538e-01 -1.9844598285e-02  2.2915112191e-02  0.0000000000e+00  0.0000000000e+00  0.0000000000e+00]
 [-1.2441829623e-02  0.0000000000e+00 -1.9844598285e-02  3.5223917473e-01  4.7039097412e-02  0.0000000000e+00  0.0000000000e+00  0.0000000000e+00]
 [ 6.3926227852e-04  0.0000000000e+00  2.2915112191e-02  4.7039097412e-02  3.7520493860e-01  0.0000000000e+00  0.0000000000e+00  0.0000000000e+00]
 [ 0.0000000000e+00  3.7655900402e-02  0.0000000000e+00  0.0000000000e+00  0.0000000000e+00 -3.6357276644e-01 -2.3761964190e-02 -5.0128893023e-01]
 [ 0.0000000000e+00 -5.8598994951e-03  0.0000000000e+00  0.0000000000e+00  0.0000000000e+00 -2.3761964190e-02  4.1132076165e-01 -1.9532051492e-02]
 [ 0.0000000000e+00  3.8723682638e-02  0.0000000000e+00  0.0000000000e+00  0.0000000000e+00 -5.0128893023e-01 -1.9532051492e-02 -5.3510827258e-02]]
ciH -1.3881319385755901
1.0000000000000002 3.130633773051894e-18 -0.028403106962343647j 4.380176776841438e-17
0.5448382127264901 0.00040336824255716715 -0.00040336824255716715 0.4551617872735101
1.0 2.2605615296322767e-17 -0.1463110275587309j 9.627715291671279e-17
0.5468933052818759 0.010703458392645856 -0.010703458392645854 0.4531066947181242
0.9999999999999999 5.106592232406726e-17 -0.35111394299299226j 1.2967057982926633e-16
0.557888719900283 0.0616405004820431 -0.06164050048204313 0.4421112800997169
1.0 1.8626593323300966e-16 -0.647468053374115j -7.37257477290143e-18
0.5984917035775081 0.20960744007003293 -0.20960744007003293 0.4015082964224919
0.9999999999999999 3.452099717193846e-16 -1.0507462723018874j 3.209238430557093e-17
0.7593932530110267 0.5520338643781562 -0.5520338643781562 0.24060674698897308
0.9999999999999997 2.632442874794805e-16 -1.4687368572718837j 2.0816681711721685e-17
1.5129448039463314 1.0785939779544444 -1.0785939779544451 -0.5129448039463321
1.0 2.502338614096544e-16 -1.2701323670330829j -3.2959746043559335e-17
4.033903540330069 0.806618114892531 -0.8066181148925309 -3.0339035403300696
1.0 -8.239936510889834e-18 -0.31390488963876173j -2.255140518769849e-16
5.976621863201774 0.04926813986956159 -0.04926813986956159 -4.976621863201774
S2 = -0.000000
X(g)
[[ 2.0000000000e+00  5.2041704279e-18  2.7778512343e-04  5.3770362332e-06 -3.0649178238e-06 -2.4060326184e-02 -5.4737604630e-04 -1.7517279781e-02]
 [-6.9388939039e-18  2.0000000000e+00 -2.9759273656e-02 -5.7604486066e-04  3.2834633880e-04 -2.2458883762e-04 -5.1094298988e-06 -1.6351339023e-04]
 [ 2.7778512343e-04  2.9759273656e-02  0.0000000000e+00  0.0000000000e+00  0.0000000000e+00  0.0000000000e+00  0.0000000000e+00  0.0000000000e+00]
 [ 5.3770362332e-06  5.7604486066e-04  0.0000000000e+00  0.0000000000e+00  0.0000000000e+00  0.0000000000e+00  0.0000000000e+00  0.0000000000e+00]
 [-3.0649178238e-06 -3.2834633880e-04  0.0000000000e+00  0.0000000000e+00  0.0000000000e+00  0.0000000000e+00  0.0000000000e+00  0.0000000000e+00]
 [ 2.4060326184e-02 -2.2458883762e-04  0.0000000000e+00  0.0000000000e+00  0.0000000000e+00  0.0000000000e+00  0.0000000000e+00  0.0000000000e+00]
 [ 5.4737604630e-04 -5.1094298989e-06  0.0000000000e+00  0.0000000000e+00  0.0000000000e+00  0.0000000000e+00  0.0000000000e+00  0.0000000000e+00]
 [ 1.7517279781e-02 -1.6351339023e-04  0.0000000000e+00  0.0000000000e+00  0.0000000000e+00  0.0000000000e+00  0.0000000000e+00  0.0000000000e+00]]
X(g) int
[[ 2.0000000000e+00  1.1895091462e-16  2.6196795053e-01  5.0708660871e-03 -2.8904004322e-03 -5.5598459003e-01 -1.2648733204e-02 -4.0478826193e-01]
 [-6.4521910175e-17  2.0000000000e+00 -6.8767553011e-01 -1.3311210465e-02  7.5874077171e-03 -2.1180067808e-01 -4.8184973422e-03 -1.5420288600e-01]
 [ 2.6196795053e-01  6.8767553011e-01  0.0000000000e+00  0.0000000000e+00  0.0000000000e+00  0.0000000000e+00  0.0000000000e+00  0.0000000000e+00]
 [ 5.0708660871e-03  1.3311210465e-02  0.0000000000e+00  0.0000000000e+00  0.0000000000e+00  0.0000000000e+00  0.0000000000e+00  0.0000000000e+00]
 [-2.8904004322e-03 -7.5874077171e-03  0.0000000000e+00  0.0000000000e+00  0.0000000000e+00  0.0000000000e+00  0.0000000000e+00  0.0000000000e+00]
 [ 5.5598459003e-01 -2.1180067808e-01  0.0000000000e+00  0.0000000000e+00  0.0000000000e+00  0.0000000000e+00  0.0000000000e+00  0.0000000000e+00]
 [ 1.2648733204e-02 -4.8184973422e-03  0.0000000000e+00  0.0000000000e+00  0.0000000000e+00  0.0000000000e+00  0.0000000000e+00  0.0000000000e+00]
 [ 4.0478826193e-01 -1.5420288600e-01  0.0000000000e+00  0.0000000000e+00  0.0000000000e+00  0.0000000000e+00  0.0000000000e+00  0.0000000000e+00]]
Feff
 [[ 1.2080623191e-16  1.1489009747e-17  6.9745095147e-03  1.3369951149e-03 -1.6718939936e-02 -2.0379138149e-02 -9.8961286751e-03 -3.7401046780e-03]
 [ 2.0559518554e-18 -1.9489849285e-16 -1.9076241644e-02  1.2548314999e-02  2.4223568882e-03  8.4811267054e-04 -1.2684482228e-02 -1.2974548432e-02]
 [ 6.9745095147e-03  1.9076241644e-02  0.0000000000e+00  0.0000000000e+00  0.0000000000e+00  0.0000000000e+00  0.0000000000e+00  0.0000000000e+00]
 [ 1.3369951149e-03 -1.2548314999e-02  0.0000000000e+00  0.0000000000e+00  0.0000000000e+00  0.0000000000e+00  0.0000000000e+00  0.0000000000e+00]
 [-1.6718939936e-02 -2.4223568882e-03  0.0000000000e+00  0.0000000000e+00  0.0000000000e+00  0.0000000000e+00  0.0000000000e+00  0.0000000000e+00]
 [ 2.0379138149e-02  8.4811267054e-04  0.0000000000e+00  0.0000000000e+00  0.0000000000e+00  0.0000000000e+00  0.0000000000e+00  0.0000000000e+00]
 [ 9.8961286751e-03 -1.2684482228e-02  0.0000000000e+00  0.0000000000e+00  0.0000000000e+00  0.0000000000e+00  0.0000000000e+00  0.0000000000e+00]
 [ 3.7401046780e-03 -1.2974548432e-02  0.0000000000e+00  0.0000000000e+00  0.0000000000e+00  0.0000000000e+00  0.0000000000e+00  0.0000000000e+00]]
Feff (ortho)
 [[ 8.6278257568e-03  3.3233758841e-03  8.1415613343e-03  9.4477447108e-03 -8.3266726847e-17  1.2576745201e-17  5.2041704279e-18  9.1072982489e-18]
 [ 3.3233758841e-03 -9.3489461087e-03 -6.8895930671e-03 -5.4956437710e-03 -5.7245874707e-17 -9.3675067703e-17  8.2399365109e-18  1.0299920639e-17]
 [ 8.1415613343e-03 -6.8895930671e-03 -1.7737945502e-03  2.9901674992e-04  9.5409791179e-18 -8.6736173799e-19 -7.5894152074e-19 -9.7578195524e-19]
 [ 9.4477447108e-03 -5.4956437710e-03  2.9901674992e-04  2.4949149021e-03 -2.8622937354e-17 -1.0408340856e-17  2.6020852140e-18  3.6862873865e-18]
 [-8.3266726847e-17 -5.7245874707e-17  9.5409791179e-18 -2.8622937354e-17  8.6278257568e-03 -3.3233758841e-03  8.1415613343e-03 -9.4477447108e-03]
 [ 1.2576745201e-17 -9.3675067703e-17 -8.6736173799e-19 -1.0408340856e-17 -3.3233758841e-03 -9.3489461087e-03  6.8895930671e-03 -5.4956437710e-03]
 [ 5.2041704279e-18  8.2399365109e-18 -7.5894152074e-19  2.6020852140e-18  8.1415613343e-03  6.8895930671e-03 -1.7737945502e-03 -2.9901674992e-04]
 [ 9.1072982489e-18  1.0299920639e-17 -9.7578195524e-19  3.6862873865e-18 -9.4477447108e-03 -5.4956437710e-03 -2.9901674992e-04  2.4949149021e-03]]
Hsp + Hph =  -1.2740792834813113
Feff (mod,ortho)
[[-0.230260089   0.3297362552  0.224506892   0.0340313574  0.            0.            0.            0.          ]
 [ 0.3297362552  0.0017195429  0.0711713465  0.3341342057  0.            0.            0.            0.          ]
 [ 0.224506892   0.0711713465  1.1202422144  0.0509515966  0.            0.            0.            0.          ]
 [ 0.0340313574  0.3341342057  0.0509515966  1.1151074145  0.            0.            0.            0.          ]
 [ 0.            0.            0.            0.           -0.230260089  -0.3297362552  0.224506892  -0.0340313574]
 [ 0.            0.            0.            0.           -0.3297362552  0.0017195429 -0.0711713465  0.3341342057]
 [ 0.            0.            0.            0.            0.224506892  -0.0711713465  1.1202422144 -0.0509515966]
 [ 0.            0.            0.            0.           -0.0340313574  0.3341342057 -0.0509515966  1.1151074145]]
e_a, e_b
 [-0.4945369802  0.1202092691  1.0992019382  1.2819348557] 
 [-0.4945369802  0.1202092691  1.0992019382  1.2819348557]
P_a, P_b
 [[ 0.6334876196 -0.4688711895 -0.0701284311  0.0861560571]
 [-0.4688711895  0.3470315529  0.051905041  -0.0637677703]
 [-0.0701284311  0.051905041   0.0077633669 -0.0095376593]
 [ 0.0861560571 -0.0637677703 -0.0095376593  0.0117174605]] 
 [[ 0.6334876196  0.4688711895 -0.0701284311 -0.0861560571]
 [ 0.4688711895  0.3470315529 -0.051905041  -0.0637677703]
 [-0.0701284311 -0.051905041   0.0077633669  0.0095376593]
 [-0.0861560571 -0.0637677703  0.0095376593  0.0117174605]]
time for xg, H, S2, Yg, Feff: 0.023
**** Start Cycle 2 ****
dm (ortho)
[[[ 0.6334876196 -0.4688711895 -0.0701284311  0.0861560571]
  [-0.4688711895  0.3470315529  0.051905041  -0.0637677703]
  [-0.0701284311  0.051905041   0.0077633669 -0.0095376593]
  [ 0.0861560571 -0.0637677703 -0.0095376593  0.0117174605]]

 [[ 0.6334876196  0.4688711895 -0.0701284311 -0.0861560571]
  [ 0.4688711895  0.3470315529 -0.051905041  -0.0637677703]
  [-0.0701284311 -0.051905041   0.0077633669  0.0095376593]
  [-0.0861560571 -0.0637677703  0.0095376593  0.0117174605]]]
Fock (ortho)
 (array([[-0.2363084797,  0.3284562933,  0.2173272461,  0.0261900245],
       [ 0.3284562933,  0.0087230032,  0.0778262416,  0.3390103635],
       [ 0.2173272461,  0.0778262416,  1.1216796431,  0.0509166711],
       [ 0.0261900245,  0.3390103635,  0.0509166711,  1.112701148 ]]), array([[-0.2363084797, -0.3284562933,  0.2173272461, -0.0261900245],
       [-0.3284562933,  0.0087230032, -0.0778262416,  0.3390103635],
       [ 0.2173272461, -0.0778262416,  1.1216796431, -0.0509166711],
       [-0.0261900245,  0.3390103635, -0.0509166711,  1.112701148 ]]))
E(UHF) =    -1.261271
NO eigenvalue
[-1.0000000000e+00 -1.1211126779e-16  1.0369781589e-19  2.3660493880e-18] 
 [-1.0000000000e+00 -1.5235537054e-18  1.4368038920e-19  2.2218193880e-16]
NO vec
[[ 0.795919355   0.            0.6024815109 -0.046078873  -0.0374852885  0.            0.            0.          ]
 [-0.5890938405  0.            0.7848479263 -0.0616891274  0.182144534   0.            0.            0.          ]
 [-0.0881099707  0.            0.0182068308 -0.7747634657 -0.6258168395  0.            0.            0.          ]
 [ 0.1082472195  0.           -0.1438689435 -0.6275450272  0.7574770659  0.            0.            0.          ]
 [ 0.            0.795919355   0.            0.            0.           -0.0051323032 -0.0141476109 -0.605215569 ]
 [ 0.            0.5890938405  0.            0.            0.            0.1245564446 -0.1799338422  0.7778675669]
 [ 0.           -0.0881099707  0.            0.            0.           -0.3528627539 -0.9270410747 -0.0912105021]
 [ 0.           -0.1082472195  0.            0.            0.            0.9273333966 -0.3286616851 -0.1425370398]]
dm(NO)
[[ 1.0000000000e+00  0.0000000000e+00  7.5584571828e-17 -2.0084011195e-18  2.3674934440e-17  0.0000000000e+00  0.0000000000e+00  0.0000000000e+00]
 [ 0.0000000000e+00  1.0000000000e+00  0.0000000000e+00  0.0000000000e+00  0.0000000000e+00 -8.2832075244e-18 -1.2735565425e-17 -5.8039442708e-17]
 [ 8.5065145068e-17  0.0000000000e+00  2.4091484097e-17 -1.1205339797e-18 -1.2823151322e-18  0.0000000000e+00  0.0000000000e+00  0.0000000000e+00]
 [-7.8418730655e-18  0.0000000000e+00 -3.2452587759e-18  1.3803847653e-18  3.3551736174e-19  0.0000000000e+00  0.0000000000e+00  0.0000000000e+00]
 [ 8.7338401860e-18  0.0000000000e+00  4.4049115050e-18  7.5602804062e-19 -1.8133978268e-18  0.0000000000e+00  0.0000000000e+00  0.0000000000e+00]
 [ 0.0000000000e+00 -7.5318810596e-18  0.0000000000e+00  0.0000000000e+00  0.0000000000e+00  7.0308908873e-19  4.3133306794e-19  1.7187052140e-19]
 [ 0.0000000000e+00 -1.4647496316e-17  0.0000000000e+00  0.0000000000e+00  0.0000000000e+00  2.1505808707e-18 -1.3108498508e-19  7.1620233729e-18]
 [ 0.0000000000e+00 -7.6538784246e-17  0.0000000000e+00  0.0000000000e+00  0.0000000000e+00 -1.0048141222e-17  5.5969481835e-18 -2.0151735806e-17]]
D(g) (NO)
 [[ 9.9951368521e-01  8.8093205689e-03  2.8677987011e-16 -2.0114974624e-17  3.3025972683e-17  1.6842572003e-03  4.3919195246e-03 -2.9540874504e-02]
 [-8.8093205689e-03  9.9951368521e-01 -2.9806322369e-02 -1.9701132541e-03 -1.5782098956e-03 -1.2667691025e-17  4.5938225546e-18 -3.1942223834e-16]
 [ 2.5524249352e-16  2.9806322369e-02  9.9951368521e-01  2.9348070673e-17 -4.8183322545e-17 -1.4086469543e-03 -3.7213630427e-03  8.2549011173e-03]
 [-2.3824694166e-17  1.9701132541e-03  1.8589967759e-17  9.9951368521e-01 -3.6038953383e-17 -9.8540708110e-03  2.9194958087e-02  4.3661698615e-03]
 [ 2.3134328026e-17  1.5782098956e-03 -3.7417681121e-17 -8.8699748153e-17  9.9951368521e-01  2.9503717641e-02  9.3225531393e-03  3.5387817956e-03]
 [-1.6842572003e-03  5.4604124616e-18  1.4086469543e-03  9.8540708110e-03 -2.9503717641e-02  9.9951368521e-01 -5.8237312644e-17 -5.9744119060e-18]
 [-4.3919195246e-03  0.0000000000e+00  3.7213630427e-03 -2.9194958087e-02 -9.3225531393e-03 -5.5511151231e-17  9.9951368521e-01  1.3877787808e-17]
 [ 2.9540874504e-02 -2.7755575616e-16 -8.2549011173e-03 -4.3661698615e-03 -3.5387817956e-03 -2.7755575616e-17  1.3877787808e-17  9.9951368521e-01]]
N(g) (NO)
 [[ 1.00040884   -0.0088172101]
 [ 0.0088172101  1.00040884  ]]
P(g) (NO)
 [[ 1.0000000000e+00 -1.3107521299e-18  7.5584571828e-17 -2.0084011195e-18  2.3674934440e-17  7.2378693453e-36  2.4074124305e-35  9.6296497219e-35]
 [ 5.2881923016e-19  1.0000000000e+00  1.1627988207e-34  4.8683705047e-37  1.6634969215e-35 -8.2832075244e-18 -1.2735565425e-17 -5.8039442708e-17]
 [ 2.6280860696e-04  2.9818508385e-02  1.9864276030e-20 -5.2782510044e-22  6.2219765401e-21 -2.4699289302e-19 -3.7975556443e-19 -1.7306496090e-18]
 [ 1.7370902504e-05  1.9709187151e-03  1.3129722280e-21 -3.4887740035e-23  4.1125497793e-22 -1.6325528731e-20 -2.5100764245e-20 -1.1439102385e-19]
 [ 1.3915408249e-05  1.5788551309e-03  1.0517901743e-21 -2.7947721505e-23  3.2944637799e-22 -1.3077984700e-20 -2.0107612817e-20 -9.1635871913e-20]
 [-1.6849457920e-03  1.4850449616e-05 -1.2735590624e-19  3.3840470149e-21 -3.9890981160e-20 -1.2300935600e-22 -1.8912887268e-22 -8.6191181967e-22]
 [-4.3937151169e-03  3.8724477239e-05 -3.3209707585e-19  8.8243423595e-21 -1.0402091734e-19 -3.2076288125e-22 -4.9317811345e-22 -2.2475470781e-21]
 [ 2.9552951994e-02 -2.6046809736e-04  2.2337472227e-18 -5.9354181869e-20  6.9966420097e-19  2.1575113039e-21  3.3172084952e-21  1.5117423214e-20]]
time for NO, Ng: 0.013
Pg_ortho
 [[ 6.3361259114e-01 -4.6896368627e-01 -7.0142265665e-02  8.6173053614e-02  1.4179381652e-02  1.0494764753e-02 -1.5696878009e-03 -1.9284348708e-03]
 [-4.6870585495e-01  3.4690918171e-01  5.1886738137e-02 -6.3745284315e-02  1.8759015357e-02  1.3884346863e-02 -2.0766630227e-03 -2.5512776398e-03]
 [-7.0142265665e-02  5.1915280614e-02  7.7648984591e-03 -9.5395408871e-03 -1.5696878009e-03 -1.1617928490e-03  1.7376778852e-04  2.1348185456e-04]
 [ 8.6125676573e-02 -6.3745284315e-02 -9.5342961476e-03  1.1713328694e-02 -3.4470081233e-03 -2.5512776398e-03  3.8159115351e-04  4.6880257742e-04]
 [-1.4179381652e-02  1.0494764753e-02  1.5696878009e-03 -1.9284348708e-03  6.3361259114e-01  4.6896368627e-01 -7.0142265665e-02 -8.6173053614e-02]
 [ 1.8759015357e-02 -1.3884346863e-02 -2.0766630227e-03  2.5512776398e-03  4.6870585495e-01  3.4690918171e-01 -5.1886738137e-02 -6.3745284315e-02]
 [ 1.5696878009e-03 -1.1617928490e-03 -1.7376778852e-04  2.1348185456e-04 -7.0142265665e-02 -5.1915280614e-02  7.7648984591e-03  9.5395408871e-03]
 [-3.4470081233e-03  2.5512776398e-03  3.8159115351e-04 -4.6880257742e-04 -8.6125676573e-02 -6.3745284315e-02  9.5342961476e-03  1.1713328694e-02]]
G(g) (NO)
 [[ 2.7122539681e-01 -1.4540151494e-03  4.8862134393e-02  5.4437293179e-03 -8.7473662743e-03 -1.7724718058e-04  4.9590154153e-04 -3.2361001846e-04]
 [ 1.4540151494e-03  2.7122539681e-01 -3.5209133938e-04 -7.7230303412e-05 -5.0212101622e-04  1.0386106477e-02 -1.4648883809e-03 -4.8822552959e-02]
 [ 4.8795184562e-02 -1.9179369521e-02  9.0859720897e-01 -1.9092679337e-01  3.6968073965e-02 -1.6724630983e-03  5.5601028895e-03 -1.1113859028e-03]
 [ 5.4419182022e-03  4.1954467592e-03 -1.9092164296e-01  8.6256461335e-01  2.0486235873e-03  1.5085304492e-03 -4.0842015994e-03  3.8677320568e-04]
 [-8.7573028294e-03 -1.1431652300e-03  3.6965901854e-02  2.0481606111e-03  7.3743664349e-01 -2.3299108289e-04  4.4886741999e-04  1.8572554820e-04]
 [-3.6966374789e-03  1.0387801996e-02  4.2184575711e-04  6.0899760565e-04  3.7943049545e-03  8.1942524706e-01  4.1246389076e-02  1.8444013197e-01]
 [ 1.9614704499e-04 -1.4789545325e-03  3.5344826355e-04  2.4549042970e-04  1.3136046540e-03  4.1245566150e-02  7.6273222701e-01  5.5104599112e-02]
 [-1.9314585503e-02 -4.8756344471e-02  1.4849824924e-03  1.3177015368e-03  5.7918421879e-03  1.8444563144e-01  5.5105332473e-02  9.2644099173e-01]]
time for Gg: 0.031
C(NO)
[[-0.999924652   0.            0.0072239581  0.0010043153  0.0098740076  0.            0.            0.          ]
 [ 0.           -0.999924652   0.            0.            0.            0.0072239581  0.0010043153  0.0098740076]
 [-0.0092072982  0.           -0.9742790754 -0.0762336173 -0.2118583124  0.            0.            0.          ]
 [ 0.0079511954  0.           -0.2241882271  0.2379192522  0.9450242572  0.            0.            0.          ]
 [-0.0016414624  0.           -0.021627218   0.9682881061 -0.2488929744  0.            0.            0.          ]
 [ 0.            0.0074506453  0.            0.            0.           -0.2080955679 -0.2847244244  0.9357204308]
 [ 0.            0.0019411992  0.            0.            0.           -0.1978624795  0.9491683368  0.2447981605]
 [ 0.            0.0095608513  0.            0.            0.            0.9578593259  0.1342030621  0.2537787224]]
detC 0.999849309753617
detNg [ 1.0008955903  1.0238235492  1.1389212431  1.4910945175  2.4440372474  4.9558059126  9.7015267768 12.3912430223]
xg [0.99940639   0.9770252397 0.8782885162 0.6708504638 0.4092824075 0.2018443551 0.1031076316 0.0807264813]
ciS 1.080132871291072
[[-0.7662420163  0.           -0.0543547238  0.0085200379  0.0069684747  0.            0.            0.          ]
 [ 0.           -0.7662420163  0.            0.            0.            0.0024212655  0.0065576937  0.0550156415]
 [-0.0543547238  0.           -0.7293622622 -0.0600171419 -0.0480586725  0.            0.            0.          ]
 [ 0.0085200379  0.           -0.0600171419  0.3505527784 -0.0497891859  0.            0.            0.          ]
 [ 0.0069684747  0.           -0.0480586725 -0.0497891859  0.3720186368  0.            0.            0.          ]
 [ 0.            0.0024212655  0.            0.            0.            0.3971606867 -0.0395064773  0.0544697601]
 [ 0.            0.0065576937  0.            0.            0.           -0.0395064773  0.3085678179  0.1420312817]
 [ 0.            0.0550156415  0.            0.            0.            0.0544697601  0.1420312817 -0.7125193517]]
ciH -1.3766210630421933
0.9999999999999998 1.5720931501039814e-18 -0.0287062988817363j -2.1076890233118206e-16
0.5399751891292798 0.0004120257977437872 -0.00041202579774378726 0.46002481087071984
0.9999999999999997 4.336808689942018e-19 -0.14790861696598295j -4.2500725161431774e-17
0.541827624900986 0.010938479486394929 -0.010938479486394929 0.45817237509901326
0.9999999999999998 2.3635607360183997e-17 -0.35537880286772566j -1.214306433183765e-17
0.5517607263820955 0.0631470467638489 -0.0631470467638489 0.44823927361790394
0.9999999999999998 1.1275702593849246e-17 -0.6577644796787285j -9.454242944073599e-17
0.5887203654771194 0.21632705536351426 -0.2163270553635143 0.4112796345228801
0.9999999999999998 2.714842239903703e-16 -1.0781347992815262j -1.734723475976807e-18
0.7383573871281801 0.5811873227109084 -0.5811873227109084 0.2616426128718195
1.0 3.391384395534658e-16 -1.5463653725860573j -2.5977484052752686e-16
1.4800349287992434 1.195622932766608 -1.195622932766608 -0.4800349287992432
1.0000000000000004 6.583275591331983e-16 -1.401549523915152j -2.1510571102112408e-16
4.25571949792236 0.9821705339933945 -0.9821705339933946 -3.2557194979223594
1.0000000000000002 1.0885389811754465e-16 -0.35538844326857233j -8.673617379884035e-18
6.626927264710508 0.06315047280442962 -0.06315047280442963 -5.626927264710507
S2 = 0.000000
X(g)
[[ 2.0000000000e+00 -1.7347234760e-18  2.6280860696e-04  1.7370902504e-05  1.3915408249e-05  1.6849457920e-03  4.3937151169e-03 -2.9552951994e-02]
 [ 1.7347234760e-18  2.0000000000e+00 -2.9818508385e-02 -1.9709187151e-03 -1.5788551309e-03  1.4850449616e-05  3.8724477239e-05 -2.6046809736e-04]
 [ 2.6280860696e-04  2.9818508385e-02  0.0000000000e+00  0.0000000000e+00  0.0000000000e+00  0.0000000000e+00  0.0000000000e+00  0.0000000000e+00]
 [ 1.7370902504e-05  1.9709187151e-03  0.0000000000e+00  0.0000000000e+00  0.0000000000e+00  0.0000000000e+00  0.0000000000e+00  0.0000000000e+00]
 [ 1.3915408249e-05  1.5788551309e-03  0.0000000000e+00  0.0000000000e+00  0.0000000000e+00  0.0000000000e+00  0.0000000000e+00  0.0000000000e+00]
 [-1.6849457920e-03  1.4850449616e-05  0.0000000000e+00  0.0000000000e+00  0.0000000000e+00  0.0000000000e+00  0.0000000000e+00  0.0000000000e+00]
 [-4.3937151169e-03  3.8724477239e-05  0.0000000000e+00  0.0000000000e+00  0.0000000000e+00  0.0000000000e+00  0.0000000000e+00  0.0000000000e+00]
 [ 2.9552951994e-02 -2.6046809736e-04  0.0000000000e+00  0.0000000000e+00  0.0000000000e+00  0.0000000000e+00  0.0000000000e+00  0.0000000000e+00]]
X(g) int
[[ 2.0000000000e+00 -1.1937203802e-16  2.5007061716e-01  1.6528957555e-02  1.3240946592e-02  3.9285391016e-02  1.0244176234e-01 -6.8904250826e-01]
 [ 9.9105059134e-17  2.0000000000e+00 -6.9523409419e-01 -4.5952999055e-02 -3.6811831853e-02  1.4130667726e-02  3.6847552423e-02 -2.4784354900e-01]
 [ 2.5007061716e-01  6.9523409419e-01  0.0000000000e+00  0.0000000000e+00  0.0000000000e+00  0.0000000000e+00  0.0000000000e+00  0.0000000000e+00]
 [ 1.6528957555e-02  4.5952999055e-02  0.0000000000e+00  0.0000000000e+00  0.0000000000e+00  0.0000000000e+00  0.0000000000e+00  0.0000000000e+00]
 [ 1.3240946592e-02  3.6811831853e-02  0.0000000000e+00  0.0000000000e+00  0.0000000000e+00  0.0000000000e+00  0.0000000000e+00  0.0000000000e+00]
 [-3.9285391016e-02  1.4130667726e-02  0.0000000000e+00  0.0000000000e+00  0.0000000000e+00  0.0000000000e+00  0.0000000000e+00  0.0000000000e+00]
 [-1.0244176234e-01  3.6847552423e-02  0.0000000000e+00  0.0000000000e+00  0.0000000000e+00  0.0000000000e+00  0.0000000000e+00  0.0000000000e+00]
 [ 6.8904250826e-01 -2.4784354900e-01  0.0000000000e+00  0.0000000000e+00  0.0000000000e+00  0.0000000000e+00  0.0000000000e+00  0.0000000000e+00]]
Feff
 [[ 1.3422831136e-16 -9.6966911724e-19 -1.5403573523e-03 -7.9366057668e-04  3.7427385149e-03 -1.0494994459e-02  2.1469279600e-02 -1.7708134717e-02]
 [ 1.1672419394e-17 -4.9353512539e-16 -1.8857477304e-02 -6.9691031889e-04 -2.2990493169e-02 -2.6121105676e-03  2.7241776975e-03  1.6632569644e-03]
 [-1.5403573523e-03  1.8857477304e-02  0.0000000000e+00  0.0000000000e+00  0.0000000000e+00  0.0000000000e+00  0.0000000000e+00  0.0000000000e+00]
 [-7.9366057668e-04  6.9691031889e-04  0.0000000000e+00  0.0000000000e+00  0.0000000000e+00  0.0000000000e+00  0.0000000000e+00  0.0000000000e+00]
 [ 3.7427385149e-03  2.2990493169e-02  0.0000000000e+00  0.0000000000e+00  0.0000000000e+00  0.0000000000e+00  0.0000000000e+00  0.0000000000e+00]
 [ 1.0494994459e-02 -2.6121105676e-03  0.0000000000e+00  0.0000000000e+00  0.0000000000e+00  0.0000000000e+00  0.0000000000e+00  0.0000000000e+00]
 [-2.1469279600e-02  2.7241776975e-03  0.0000000000e+00  0.0000000000e+00  0.0000000000e+00  0.0000000000e+00  0.0000000000e+00  0.0000000000e+00]
 [ 1.7708134717e-02  1.6632569644e-03  0.0000000000e+00  0.0000000000e+00  0.0000000000e+00  0.0000000000e+00  0.0000000000e+00  0.0000000000e+00]]
Feff (ortho)
 [[-1.6424010356e-03  2.2714379696e-04 -1.3062598028e-03  2.7175737173e-03 -4.1633363423e-17  5.0306980803e-17  1.7347234760e-17 -8.6736173799e-18]
 [ 2.2714379696e-04  5.6348791389e-04  1.0762439888e-03 -2.1458264018e-03  8.6736173799e-18 -5.3776427755e-17 -1.1275702594e-17  9.9746599869e-18]
 [-1.3062598028e-03  1.0762439888e-03  3.0933905709e-04 -5.0322378368e-04 -9.5409791179e-18 -1.6479873022e-17 -2.1684043450e-19  3.2526065175e-18]
 [ 2.7175737173e-03 -2.1458264018e-03 -5.0322378368e-04  7.6957406457e-04 -4.5102810375e-17 -2.2117724319e-17  6.5052130349e-18  4.1199682554e-18]
 [-4.1633363423e-17  8.6736173799e-18 -9.5409791179e-18 -4.5102810375e-17 -1.6424010356e-03 -2.2714379696e-04 -1.3062598028e-03 -2.7175737173e-03]
 [ 5.0306980803e-17 -5.3776427755e-17 -1.6479873022e-17 -2.2117724319e-17 -2.2714379696e-04  5.6348791389e-04 -1.0762439888e-03 -2.1458264018e-03]
 [ 1.7347234760e-17 -1.1275702594e-17 -2.1684043450e-19  6.5052130349e-18 -1.3062598028e-03 -1.0762439888e-03  3.0933905709e-04  5.0322378368e-04]
 [-8.6736173799e-18  9.9746599869e-18  3.2526065175e-18  4.1199682554e-18 -2.7175737173e-03 -2.1458264018e-03  5.0322378368e-04  7.6957406457e-04]]
Hsp + Hph =  -1.2744923329633806
Feff (mod,ortho)
[[-0.2317677595  0.3307672866  0.2234855981  0.0367441734  0.            0.            0.            0.          ]
 [ 0.3307672866  0.0028146169  0.0726403054  0.3319701649  0.            0.            0.            0.          ]
 [ 0.2234855981  0.0726403054  1.1202605113  0.0506542212  0.            0.            0.            0.          ]
 [ 0.0367441734  0.3319701649  0.0506542212  1.115487946   0.            0.            0.            0.          ]
 [ 0.            0.            0.            0.           -0.2317677595 -0.3307672866  0.2234855981 -0.0367441734]
 [ 0.            0.            0.            0.           -0.3307672866  0.0028146169 -0.0726403054  0.3319701649]
 [ 0.            0.            0.            0.            0.2234855981 -0.0726403054  1.1202605113 -0.0506542212]
 [ 0.            0.            0.            0.           -0.0367441734  0.3319701649 -0.0506542212  1.115487946 ]]
e_a, e_b
 [-0.4950425307  0.1210947738  1.0986639899  1.2820790816] 
 [-0.4950425307  0.1210947738  1.0986639899  1.2820790816]
P_a, P_b
 [[ 0.6359929385 -0.4685792623 -0.0695633091  0.0842635252]
 [-0.4685792623  0.3452342184  0.051252022  -0.0620826712]
 [-0.0695633091  0.051252022   0.0076086599 -0.0092165326]
 [ 0.0842635252 -0.0620826712 -0.0092165326  0.0111641832]] 
 [[ 0.6359929385  0.4685792623 -0.0695633091 -0.0842635252]
 [ 0.4685792623  0.3452342184 -0.051252022  -0.0620826712]
 [-0.0695633091 -0.051252022   0.0076086599  0.0092165326]
 [-0.0842635252 -0.0620826712  0.0092165326  0.0111641832]]
time for xg, H, S2, Yg, Feff: 0.022
 E(SUHF) =     -1.00990373, delta E = -0.000413049, MaxD(dm) = 0.00250532, RMSD(dm) = 0.00700683
**** Start Cycle 3 ****
dm (ortho)
[[[ 0.6359929385 -0.4685792623 -0.0695633091  0.0842635252]
  [-0.4685792623  0.3452342184  0.051252022  -0.0620826712]
  [-0.0695633091  0.051252022   0.0076086599 -0.0092165326]
  [ 0.0842635252 -0.0620826712 -0.0092165326  0.0111641832]]

 [[ 0.6359929385  0.4685792623 -0.0695633091 -0.0842635252]
  [ 0.4685792623  0.3452342184 -0.051252022  -0.0620826712]
  [-0.0695633091 -0.051252022   0.0076086599  0.0092165326]
  [-0.0842635252 -0.0620826712  0.0092165326  0.0111641832]]]
Fock (ortho)
 (array([[-0.2364633079,  0.3286840246,  0.2172449512,  0.027136288 ],
       [ 0.3286840246,  0.009647625 ,  0.0785716251,  0.3387528409],
       [ 0.2172449512,  0.0785716251,  1.1222620821,  0.0510834038],
       [ 0.027136288 ,  0.3387528409,  0.0510834038,  1.1132549717]]), array([[-0.2364633079, -0.3286840246,  0.2172449512, -0.027136288 ],
       [-0.3286840246,  0.009647625 , -0.0785716251,  0.3387528409],
       [ 0.2172449512, -0.0785716251,  1.1222620821, -0.0510834038],
       [-0.027136288 ,  0.3387528409, -0.0510834038,  1.1132549717]]))
E(UHF) =    -1.261249
NO eigenvalue
[-1.0000000000e+00 -6.0220209252e-17  1.3821055302e-18  3.0834787231e-18] 
 [-1.0000000000e+00 -4.7180020083e-19  8.4118844488e-19  1.7111964104e-16]
NO vec
[[ 0.7974916542  0.           -0.5804296288  0.0337513859  0.1611500899  0.            0.            0.          ]
 [-0.5875663524  0.           -0.7863615982  0.1873308631  0.0361713448  0.            0.            0.          ]
 [-0.0872276327  0.            0.1590993989  0.2087054821  0.9609998663  0.            0.            0.          ]
 [ 0.1056606985  0.            0.1393709587  0.9592757755 -0.2218141998  0.            0.            0.          ]
 [ 0.            0.7974916542  0.            0.            0.            0.0955678013  0.0245018203 -0.5952088017]
 [ 0.            0.5875663524  0.            0.            0.            0.0964764919  0.013371247   0.8032927722]
 [ 0.           -0.0872276327  0.            0.            0.            0.7730941953 -0.6279896258 -0.0185939549]
 [ 0.           -0.1056606985  0.            0.            0.            0.619584092   0.7777209657 -0.0100731985]]
dm(NO)
[[ 1.0000000000e+00  0.0000000000e+00  1.2575170552e-16 -3.9240581514e-17 -1.2157366014e-17  0.0000000000e+00  0.0000000000e+00  0.0000000000e+00]
 [ 0.0000000000e+00  1.0000000000e+00  0.0000000000e+00  0.0000000000e+00  0.0000000000e+00 -6.1091302250e-17 -4.1996908885e-18  3.4324486232e-16]
 [ 1.8061273953e-16  0.0000000000e+00  2.6299429796e-17 -2.6632785540e-18 -3.3409278284e-19  0.0000000000e+00  0.0000000000e+00  0.0000000000e+00]
 [-2.1812199815e-17  0.0000000000e+00 -5.9137331855e-18  8.6172220750e-19  6.1977689024e-19  0.0000000000e+00  0.0000000000e+00  0.0000000000e+00]
 [-5.7161168848e-18  0.0000000000e+00 -1.0539466856e-17  1.8674644882e-18  9.2141178815e-19  0.0000000000e+00  0.0000000000e+00  0.0000000000e+00]
 [ 0.0000000000e+00 -5.6977873094e-17  0.0000000000e+00  0.0000000000e+00  0.0000000000e+00 -5.2918207570e-19 -7.4847814709e-19 -9.3146682631e-18]
 [ 0.0000000000e+00 -3.4407252894e-18  0.0000000000e+00  0.0000000000e+00  0.0000000000e+00  3.1136847107e-19 -6.5599559578e-19  4.5950509566e-18]
 [ 0.0000000000e+00  3.3082473872e-16  0.0000000000e+00  0.0000000000e+00  0.0000000000e+00 -8.8485784723e-18 -1.5558424574e-18 -1.4155680259e-18]]
D(g) (NO)
 [[ 9.9951368521e-01  8.9559198482e-03  2.3591710305e-16 -2.5634972631e-17 -3.9897435471e-17  5.4753660902e-04  4.6349516130e-03 -2.9502576186e-02]
 [-8.9559198482e-03  9.9951368521e-01  2.9734174165e-02 -5.4330916083e-04 -2.7871627720e-03 -3.4632309996e-17 -1.2827229958e-18  1.2351290177e-16]
 [ 2.3184738102e-16 -2.9734174165e-02  9.9951368521e-01 -3.6253411965e-17  4.9481514996e-17  2.4327605747e-03 -5.0695408487e-04 -9.0607193440e-03]
 [-2.5636034103e-17  5.4330916083e-04 -4.6554278971e-17  9.9951368521e-01  6.9930659284e-17  2.4229347078e-02  1.9281076986e-02  3.6437206714e-03]
 [-3.8952890395e-17  2.7871627720e-03  6.0047859043e-17  7.8503797391e-17  9.9951368521e-01  1.9470842163e-02 -2.4060202953e-02 -2.5724964058e-03]
 [-5.4753660902e-04 -1.8995440030e-17 -2.4327605747e-03 -2.4229347078e-02 -1.9470842163e-02  9.9951368521e-01 -6.8453779884e-17  1.0324560898e-16]
 [-4.6349516130e-03  1.3877787808e-17  5.0695408487e-04 -1.9281076986e-02  2.4060202953e-02 -1.1102230246e-16  9.9951368521e-01 -1.7347234760e-18]
 [ 2.9502576186e-02  1.1102230246e-16  9.0607193440e-03 -3.6437206714e-03  2.5724964058e-03  1.1102230246e-16 -3.4694469520e-18  9.9951368521e-01]]
N(g) (NO)
 [[ 1.0004062322 -0.0089639173]
 [ 0.0089639173  1.0004062322]]
P(g) (NO)
 [[ 1.0000000000e+00  4.3271703143e-18  1.2575170552e-16 -3.9240581514e-17 -1.2157366014e-17 -2.7257593002e-34 -1.8055593229e-35  1.5407439555e-33]
 [-1.0267980783e-17  1.0000000000e+00 -1.0519138488e-33  3.3349899913e-34  1.0832575601e-34 -6.1091302250e-17 -4.1996908885e-18  3.4324486232e-16]
 [-2.6653467870e-04 -2.9746253144e-02 -3.3517190427e-20  1.0458975786e-20  3.2403596445e-21  1.8172373416e-18  1.2492506830e-19 -1.0210248565e-17]
 [ 4.8701783952e-06  5.4352987052e-04  6.1243323939e-22 -1.9110863230e-22 -5.9208541306e-23 -3.3204947602e-20 -2.2826574449e-21  1.8656383557e-19]
 [ 2.4983896637e-05  2.7882950073e-03  3.1417676127e-21 -9.8038263251e-22 -3.0373837588e-22 -1.7034057305e-19 -1.1709977137e-20  9.5706793589e-19]
 [-5.4775903603e-04  4.9080728912e-06 -6.8881632996e-20  2.1494383103e-20  6.6593070887e-21 -2.9984056446e-22 -2.0612389001e-23  1.6846708038e-21]
 [-4.6368344797e-03  4.1547323027e-05 -5.8308984404e-19  1.8195208137e-19  5.6371693918e-20 -2.5381800687e-21 -1.7448591396e-22  1.4260905172e-20]
 [ 2.9514561083e-02 -2.6445865357e-04  3.7115063939e-18 -1.1581685400e-18 -3.5881932184e-19  1.6156123538e-20  1.1106445978e-21 -9.0774074133e-20]]
time for NO, Ng: 0.013
Pg_ortho
 [[ 6.3611965603e-01 -4.6867262372e-01 -6.9577169138e-02  8.4280314177e-02  1.4142147226e-02  1.0419481905e-02 -1.5468325183e-03 -1.8737113372e-03]
 [-4.6841066562e-01  3.4511000180e-01  5.1233581291e-02 -6.2060333600e-02  1.8816008090e-02  1.3863033151e-02 -2.0580476723e-03 -2.4929571951e-03]
 [-6.9577169138e-02  5.1262233609e-02  7.6101758833e-03 -9.2183689325e-03 -1.5468325183e-03 -1.1396567422e-03  1.6918865301e-04  2.0494183663e-04]
 [ 8.4233206858e-02 -6.2060333600e-02 -9.2132164523e-03  1.1160166285e-02 -3.3836392252e-03 -2.4929571951e-03  3.7009395393e-04  4.4830272774e-04]
 [-1.4142147226e-02  1.0419481905e-02  1.5468325183e-03 -1.8737113372e-03  6.3611965603e-01  4.6867262372e-01 -6.9577169138e-02 -8.4280314177e-02]
 [ 1.8816008090e-02 -1.3863033151e-02 -2.0580476723e-03  2.4929571951e-03  4.6841066562e-01  3.4511000180e-01 -5.1233581291e-02 -6.2060333600e-02]
 [ 1.5468325183e-03 -1.1396567422e-03 -1.6918865301e-04  2.0494183663e-04 -6.9577169138e-02 -5.1262233609e-02  7.6101758833e-03  9.2183689325e-03]
 [-3.3836392252e-03  2.4929571951e-03  3.7009395393e-04 -4.4830272774e-04 -8.4233206858e-02 -6.2060333600e-02  9.2132164523e-03  1.1160166285e-02]]
G(g) (NO)
 [[ 2.7182183915e-01 -1.4742329060e-03 -4.8561478860e-02 -7.9422610385e-03  1.2165450262e-02 -4.8316337894e-04  1.5362528788e-05 -4.1060407224e-04]
 [ 1.4742329060e-03  2.7182183915e-01  4.3140330760e-04 -2.7054725684e-04  3.7811893656e-04  1.1641984132e-02  1.2074164616e-02 -4.7832767784e-02]
 [-4.8493149941e-02  1.8428566994e-02  8.6329751832e-01 -1.6109046680e-01 -1.0273331572e-01  4.9803392940e-03 -2.9697182013e-04  1.7533143421e-03]
 [-7.9496983804e-03 -4.6730681460e-03 -1.6108497368e-01  8.2313096246e-01  9.4626507226e-02 -3.8263549242e-03 -9.8821811991e-05 -7.8852044692e-04]
 [ 1.2162493685e-02 -5.0737193825e-03 -1.0273169180e-01  9.4626965955e-02  8.2347920795e-01 -3.1966081085e-03  7.1760824806e-05 -1.0532118869e-03]
 [ 1.3831792356e-03  1.1646574440e-02  5.4285608495e-04 -3.8263136495e-04  7.3097812666e-04  7.4568378304e-01 -4.1981240864e-02 -2.2258867968e-02]
 [-2.3687209199e-03  1.2067477984e-02 -9.3694768954e-04  1.8769116872e-03 -3.1147870601e-03 -4.1981322651e-02  8.1745428778e-01  1.8261127589e-01]
 [-1.9485077678e-02 -4.7764451500e-02 -2.3443942303e-03  2.7451278088e-03 -5.1440652292e-03 -2.2257849359e-02  1.8261693077e-01  9.4676961791e-01]]
time for Gg: 0.031
C(NO)
[[-0.999931942   0.            0.0046310896 -0.0012244477  0.0106379128  0.            0.            0.          ]
 [ 0.           -0.999931942   0.            0.            0.            0.0046310896 -0.0012244477  0.0106379128]
 [ 0.0058389197  0.            0.991601815  -0.0690216373  0.1092142897  0.            0.            0.          ]
 [-0.009471649   0.            0.1282641972  0.4215909757 -0.8976188683  0.            0.            0.          ]
 [-0.0035080385  0.           -0.0158962009 -0.9041546126 -0.426895117   0.            0.            0.          ]
 [ 0.            0.001444768   0.            0.            0.           -0.0150643879 -0.9995122916  0.027315852 ]
 [ 0.            0.0085854574  0.            0.            0.           -0.3161524278  0.0306901681  0.9481730042]
 [ 0.            0.0077662101  0.            0.            0.            0.9485774927 -0.0056385474  0.3163994835]]
detC 0.9998638885477479
detNg [ 1.0008929813  1.0237525614  1.1384609133  1.4889662204  2.4338079216  4.8993954342  9.4618888159 11.9935914692]
xg [0.999379851  0.9770644941 0.8786180244 0.6717897725 0.4109906413 0.2041623894 0.1057159197 0.0834005628]
ciS 1.0827804137939072
[[-0.7665289097  0.            0.0515802451 -0.006415536  -0.0184541203  0.            0.            0.          ]
 [ 0.           -0.7665289097  0.            0.            0.           -0.0106509405  0.0025918891  0.05405622  ]
 [ 0.0515802451  0.           -0.723098347   0.0178485671  0.108609619   0.            0.            0.          ]
 [-0.006415536   0.            0.0178485671  0.4075673222 -0.0218333007  0.            0.            0.          ]
 [-0.0184541203  0.            0.108609619  -0.0218333007  0.3090270712  0.            0.            0.          ]
 [ 0.           -0.0106509405  0.            0.            0.            0.3530266884  0.0418092745  0.0373076503]
 [ 0.            0.0025918891  0.            0.            0.            0.0418092745  0.3486682441  0.1667931321]
 [ 0.            0.05405622    0.            0.            0.            0.0373076503  0.1667931321 -0.7081988862]]
ciH -1.380031830485402
0.9999999999999998 4.025100565352435e-18 -0.028622671757950576j -1.3270634591222574e-16
0.5413165291646327 0.00040962866928169077 -0.0004096286692816907 0.45868347083536687
0.9999999999999999 -2.2280354644577116e-17 -0.14746788881474568j 1.244664094013359e-16
0.5432253527611083 0.0108733891157391 -0.010873389115739098 0.45677464723889155
0.9999999999999999 6.353424730765056e-17 -0.35420121869801613j -1.0234868508263162e-16
0.5534545641347741 0.06272925166357994 -0.06272925166357994 0.44654543586522555
0.9999999999999998 2.0101108277881252e-16 -0.6549138711738532j -7.19910242530375e-17
0.5914362136815463 0.21445608932796117 -0.2144560893279612 0.4085637863184533
0.9999999999999996 -1.3227266504323154e-16 -1.0704974671322427j 9.454242944073599e-17
0.7442986933454535 0.5729824135682734 -0.5729824135682735 0.25570130665454555
0.9999999999999999 2.1163626406917047e-16 -1.5243139341918286j 1.0798653637955624e-16
1.4899962048703073 1.161766484985685 -1.1617664849856852 -0.4899962048703075
0.9999999999999998 1.6479873021779667e-17 -1.3629511860964085j -1.9081958235744878e-16
4.192361588776418 0.9288179678408037 -0.9288179678408037 -3.192361588776419
0.9999999999999989 1.973247953923618e-17 -0.342982354999941j -2.3418766925686896e-16
6.432627038028249 0.05881844792065278 -0.05881844792065278 -5.432627038028251
S2 = 0.000000
X(g)
[[ 2.0000000000e+00  1.3877787808e-17 -2.6653467870e-04  4.8701783952e-06  2.4983896637e-05  5.4775903603e-04  4.6368344797e-03 -2.9514561083e-02]
 [-1.5612511284e-17  2.0000000000e+00  2.9746253144e-02 -5.4352987052e-04 -2.7882950073e-03  4.9080728911e-06  4.1547323027e-05 -2.6445865357e-04]
 [-2.6653467870e-04 -2.9746253144e-02  0.0000000000e+00  0.0000000000e+00  0.0000000000e+00  0.0000000000e+00  0.0000000000e+00  0.0000000000e+00]
 [ 4.8701783952e-06  5.4352987052e-04  0.0000000000e+00  0.0000000000e+00  0.0000000000e+00  0.0000000000e+00  0.0000000000e+00  0.0000000000e+00]
 [ 2.4983896637e-05  2.7882950073e-03  0.0000000000e+00  0.0000000000e+00  0.0000000000e+00  0.0000000000e+00  0.0000000000e+00  0.0000000000e+00]
 [-5.4775903603e-04  4.9080728912e-06  0.0000000000e+00  0.0000000000e+00  0.0000000000e+00  0.0000000000e+00  0.0000000000e+00  0.0000000000e+00]
 [-4.6368344797e-03  4.1547323027e-05  0.0000000000e+00  0.0000000000e+00  0.0000000000e+00  0.0000000000e+00  0.0000000000e+00  0.0000000000e+00]
 [ 2.9514561083e-02 -2.6445865357e-04  0.0000000000e+00  0.0000000000e+00  0.0000000000e+00  0.0000000000e+00  0.0000000000e+00  0.0000000000e+00]]
X(g) int
[[ 2.0000000000e+00  2.9085781193e-16 -2.5298924767e-01  4.6226733955e-03  2.3714202012e-02  1.2739722153e-02  1.0784300953e-01 -6.8644656308e-01]
 [-3.3656280997e-16  2.0000000000e+00  6.9183523271e-01 -1.2641360666e-02 -6.4849872550e-02  4.6586420735e-03  3.9435866456e-02 -2.5101872721e-01]
 [-2.5298924767e-01 -6.9183523271e-01  0.0000000000e+00  0.0000000000e+00  0.0000000000e+00  0.0000000000e+00  0.0000000000e+00  0.0000000000e+00]
 [ 4.6226733955e-03  1.2641360666e-02  0.0000000000e+00  0.0000000000e+00  0.0000000000e+00  0.0000000000e+00  0.0000000000e+00  0.0000000000e+00]
 [ 2.3714202012e-02  6.4849872550e-02  0.0000000000e+00  0.0000000000e+00  0.0000000000e+00  0.0000000000e+00  0.0000000000e+00  0.0000000000e+00]
 [-1.2739722153e-02  4.6586420735e-03  0.0000000000e+00  0.0000000000e+00  0.0000000000e+00  0.0000000000e+00  0.0000000000e+00  0.0000000000e+00]
 [-1.0784300953e-01  3.9435866456e-02  0.0000000000e+00  0.0000000000e+00  0.0000000000e+00  0.0000000000e+00  0.0000000000e+00  0.0000000000e+00]
 [ 6.8644656308e-01 -2.5101872721e-01  0.0000000000e+00  0.0000000000e+00  0.0000000000e+00  0.0000000000e+00  0.0000000000e+00  0.0000000000e+00]]
Feff
 [[ 9.1956337306e-17 -8.7366697944e-18 -2.5741530540e-04  1.7994620244e-03 -4.9547289783e-04 -2.2046575586e-02 -4.2202927752e-03 -2.1435742289e-02]
 [-2.0534416636e-18  8.7423146472e-16  2.1275558807e-02 -1.7114688014e-02  1.4757759494e-02 -1.2626774375e-03 -1.3149508432e-03 -4.7578312064e-04]
 [-2.5741530540e-04 -2.1275558807e-02  0.0000000000e+00  0.0000000000e+00  0.0000000000e+00  0.0000000000e+00  0.0000000000e+00  0.0000000000e+00]
 [ 1.7994620244e-03  1.7114688014e-02  0.0000000000e+00  0.0000000000e+00  0.0000000000e+00  0.0000000000e+00  0.0000000000e+00  0.0000000000e+00]
 [-4.9547289783e-04 -1.4757759494e-02  0.0000000000e+00  0.0000000000e+00  0.0000000000e+00  0.0000000000e+00  0.0000000000e+00  0.0000000000e+00]
 [ 2.2046575586e-02 -1.2626774375e-03  0.0000000000e+00  0.0000000000e+00  0.0000000000e+00  0.0000000000e+00  0.0000000000e+00  0.0000000000e+00]
 [ 4.2202927752e-03 -1.3149508432e-03  0.0000000000e+00  0.0000000000e+00  0.0000000000e+00  0.0000000000e+00  0.0000000000e+00  0.0000000000e+00]
 [ 2.1435742289e-02 -4.7578312064e-04  0.0000000000e+00  0.0000000000e+00  0.0000000000e+00  0.0000000000e+00  0.0000000000e+00  0.0000000000e+00]]
Feff (ortho)
 [[ 2.0782681206e-04  3.3940707707e-04 -1.2424787554e-04  1.4494177078e-03 -3.8163916471e-17 -1.9949319974e-17  3.3827107782e-17 -3.5561831258e-17]
 [ 3.3940707707e-04 -6.1294259576e-04  3.7670471892e-05 -1.0026290564e-03 -3.4694469520e-17 -3.2959746044e-17 -1.8214596498e-17  3.4260788651e-17]
 [-1.2424787554e-04  3.7670471892e-05  2.4693518209e-05 -1.7198369163e-04 -2.2551405188e-17 -1.8214596498e-17 -1.0842021725e-18  7.8062556419e-18]
 [ 1.4494177078e-03 -1.0026290564e-03 -1.7198369163e-04  3.8042226550e-04 -1.2143064332e-17 -6.5052130349e-18  4.9873299934e-18 -3.9031278209e-18]
 [-3.8163916471e-17 -3.4694469520e-17 -2.2551405188e-17 -1.2143064332e-17  2.0782681206e-04 -3.3940707707e-04 -1.2424787554e-04 -1.4494177078e-03]
 [-1.9949319974e-17 -3.2959746044e-17 -1.8214596498e-17 -6.5052130349e-18 -3.3940707707e-04 -6.1294259576e-04 -3.7670471892e-05 -1.0026290564e-03]
 [ 3.3827107782e-17 -1.8214596498e-17 -1.0842021725e-18  4.9873299934e-18 -1.2424787554e-04 -3.7670471892e-05  2.4693518209e-05  1.7198369163e-04]
 [-3.5561831258e-17  3.4260788651e-17  7.8062556419e-18 -3.9031278209e-18 -1.4494177078e-03 -1.0026290564e-03  1.7198369163e-04  3.8042226550e-04]]
Hsp + Hph =  -1.274526037693985
Feff (mod,ortho)
[[-0.2310743099  0.331331587   0.223666307   0.0384628719  0.            0.            0.            0.          ]
 [ 0.331331587   0.0028210522  0.0731167148  0.3312846039  0.            0.            0.            0.          ]
 [ 0.223666307   0.0731167148  1.1207929077  0.0507733992  0.            0.            0.            0.          ]
 [ 0.0384628719  0.3312846039  0.0507733992  1.116161721   0.            0.            0.            0.          ]
 [ 0.            0.            0.            0.           -0.2310743099 -0.331331587   0.223666307  -0.0384628719]
 [ 0.            0.            0.            0.           -0.331331587   0.0028210522 -0.0731167148  0.3312846039]
 [ 0.            0.            0.            0.            0.223666307  -0.0731167148  1.1207929077 -0.0507733992]
 [ 0.            0.            0.            0.           -0.0384628719  0.3312846039 -0.0507733992  1.116161721 ]]
e_a, e_b
 [-0.494722375   0.1214839754  1.0988012198  1.2831385508] 
 [-0.494722375   0.1214839754  1.0988012198  1.2831385508]
P_a, P_b
 [[ 0.6358717632 -0.4687846704 -0.0694405557  0.0834134641]
 [-0.4687846704  0.3456028084  0.0511937625 -0.0614950302]
 [-0.0694405557  0.0511937625  0.0075832755 -0.0091091909]
 [ 0.0834134641 -0.0614950302 -0.0091091909  0.0109421528]] 
 [[ 0.6358717632  0.4687846704 -0.0694405557 -0.0834134641]
 [ 0.4687846704  0.3456028084 -0.0511937625 -0.0614950302]
 [-0.0694405557 -0.0511937625  0.0075832755  0.0091091909]
 [-0.0834134641 -0.0614950302  0.0091091909  0.0109421528]]
time for xg, H, S2, Yg, Feff: 0.022
 E(SUHF) =     -1.00993743, delta E = -3.37047e-05, MaxD(dm) = 0.000850061, RMSD(dm) = 0.00222742
**** Start Cycle 4 ****
dm (ortho)
[[[ 0.6358717632 -0.4687846704 -0.0694405557  0.0834134641]
  [-0.4687846704  0.3456028084  0.0511937625 -0.0614950302]
  [-0.0694405557  0.0511937625  0.0075832755 -0.0091091909]
  [ 0.0834134641 -0.0614950302 -0.0091091909  0.0109421528]]

 [[ 0.6358717632  0.4687846704 -0.0694405557 -0.0834134641]
  [ 0.4687846704  0.3456028084 -0.0511937625 -0.0614950302]
  [-0.0694405557 -0.0511937625  0.0075832755  0.0091091909]
  [-0.0834134641 -0.0614950302  0.0091091909  0.0109421528]]]
Fock (ortho)
 (array([[-0.2362404225,  0.3289818126,  0.2172410663,  0.02755998  ],
       [ 0.3289818126,  0.0097339223,  0.078864353 ,  0.3386486534],
       [ 0.2172410663,  0.078864353 ,  1.1224625859,  0.0511749164],
       [ 0.02755998  ,  0.3386486534,  0.0511749164,  1.1134678843]]), array([[-0.2362404225, -0.3289818126,  0.2172410663, -0.02755998  ],
       [-0.3289818126,  0.0097339223, -0.078864353 ,  0.3386486534],
       [ 0.2172410663, -0.078864353 ,  1.1224625859, -0.0511749164],
       [-0.02755998  ,  0.3386486534, -0.0511749164,  1.1134678843]]))
E(UHF) =    -1.261193
NO eigenvalue
[-1.0000000000e+00 -2.4392467763e-18 -1.5716919339e-19  5.6056316160e-17] 
 [-1.0000000000e+00 -6.2266002119e-17 -1.7444125513e-18  3.7165368718e-18]
NO vec
[[ 0.7974156778  0.           -0.0270222366 -0.052645162   0.6005218751  0.            0.            0.          ]
 [-0.5878799269  0.            0.1857990231 -0.0227796228  0.7869923782  0.            0.            0.          ]
 [-0.0870820046  0.           -0.4580316675 -0.8844874365  0.0174840114  0.            0.            0.          ]
 [ 0.1046047456  0.            0.8688817602 -0.4630243518 -0.1403950981  0.            0.            0.          ]
 [ 0.            0.7974156778  0.            0.            0.            0.5715443584  0.0476948588 -0.1875912675]
 [ 0.            0.5878799269  0.            0.            0.           -0.8055917252  0.0471652865  0.0565207885]
 [ 0.           -0.0870820046  0.            0.            0.           -0.1490072631 -0.3617937091 -0.9161434779]
 [ 0.           -0.1046047456  0.            0.            0.           -0.0464311768  0.9298418942 -0.349708514 ]]
dm(NO)
[[ 1.0000000000e+00  0.0000000000e+00 -5.3478639167e-18  4.7027718454e-17 -9.1999393261e-17  0.0000000000e+00  0.0000000000e+00  0.0000000000e+00]
 [ 0.0000000000e+00  1.0000000000e+00  0.0000000000e+00  0.0000000000e+00  0.0000000000e+00  2.2723700907e-16  2.1092010094e-17 -4.7766265505e-17]
 [-3.9138058532e-18  0.0000000000e+00  9.5736667000e-19 -4.4783203550e-19 -4.5528074307e-18  0.0000000000e+00  0.0000000000e+00  0.0000000000e+00]
 [ 3.7853973463e-17  0.0000000000e+00 -3.3407592315e-19  1.5696528830e-19 -3.1598916338e-19  0.0000000000e+00  0.0000000000e+00  0.0000000000e+00]
 [-1.3020655948e-16  0.0000000000e+00  2.4889880431e-18  2.7257280521e-18  2.1993772455e-17  0.0000000000e+00  0.0000000000e+00  0.0000000000e+00]
 [ 0.0000000000e+00  2.1652457685e-16  0.0000000000e+00  0.0000000000e+00  0.0000000000e+00  1.7967826264e-18 -4.0977673556e-18  3.4668153778e-18]
 [ 0.0000000000e+00  1.4799618810e-17  0.0000000000e+00  0.0000000000e+00  0.0000000000e+00  2.1906797213e-18  1.2775562287e-18 -1.3208168384e-18]
 [ 0.0000000000e+00 -4.9623455578e-17  0.0000000000e+00  0.0000000000e+00  0.0000000000e+00  8.3477765884e-18 -7.4731159146e-20 -1.3451395014e-18]]
D(g) (NO)
 [[ 9.9951368521e-01  8.9467794474e-03 -1.7632400695e-18  3.7993052316e-17 -5.2494354926e-17  2.9233286517e-02  4.3368590069e-03 -4.3537140062e-03]
 [-8.9467794474e-03  9.9951368521e-01 -1.1436981900e-03 -2.1854983700e-03 -2.9770182458e-02  1.0249107702e-16 -8.6948010153e-18 -2.3330889899e-18]
 [ 2.4376646699e-18  1.1436981900e-03  9.9951368521e-01 -1.6784428393e-16 -1.7202356121e-17 -4.2788276829e-03  3.0594169350e-02  4.0955420427e-03]
 [ 3.5182542656e-17  2.1854983700e-03 -1.7259434937e-16  9.9951368521e-01 -1.7009991835e-17  4.4141668452e-03 -3.5587149176e-03  3.0585410751e-02]
 [-1.1146375408e-16  2.9770182458e-02 -1.1471095414e-17 -2.0831684646e-17  9.9951368521e-01 -8.9450991552e-03 -2.2174486697e-03 -1.0942731177e-03]
 [-2.9233286517e-02  4.6205099662e-17  4.2788276829e-03 -4.4141668452e-03  8.9450991552e-03  9.9951368521e-01 -2.0803673037e-17 -2.7248094417e-17]
 [-4.3368590069e-03 -1.3877787808e-17 -3.0594169350e-02  3.5587149176e-03  2.2174486697e-03  0.0000000000e+00  9.9951368521e-01 -1.1102230246e-16]
 [ 4.3537140062e-03  0.0000000000e+00 -4.0955420427e-03 -3.0585410751e-02  1.0942731177e-03 -2.0816681712e-17 -1.1102230246e-16  9.9951368521e-01]]
N(g) (NO)
 [[ 1.0004063961 -0.0089547702]
 [ 0.0089547702  1.0004063961]]
P(g) (NO)
 [[ 1.0000000000e+00  3.5486293433e-18 -5.3478639167e-18  4.7027718454e-17 -9.1999393261e-17  7.0621424959e-34  7.2222372915e-35 -9.6296497219e-35]
 [ 8.3375548058e-18  1.0000000000e+00 -4.7976334486e-35  3.6759390463e-34 -7.9160481043e-34  2.2723700907e-16  2.1092010094e-17 -4.7766265505e-17]
 [ 1.0241554493e-05  1.1441629845e-03 -5.4770439726e-23  4.8163694124e-22 -9.4221679943e-22  2.5999617448e-19  2.4132697218e-20 -5.4652392897e-20]
 [ 1.9570635721e-05  2.1863865479e-03 -1.0466109660e-22  9.2036234663e-22 -1.8004866120e-21  4.9682793983e-19  4.6115287140e-20 -1.0443552034e-19]
 [ 2.6658514334e-04  2.9782280943e-02 -1.4256610688e-21  1.2536891065e-20 -2.4525671439e-20  6.7676364450e-18  6.2816817029e-19 -1.4225883389e-18]
 [-2.9245166810e-02  2.6177736355e-04  1.5639917232e-19 -1.3753334709e-18  2.6905376023e-18  5.9485505136e-20  5.5214107945e-21 -1.2504127050e-20]
 [-4.3386214893e-03  3.8835575885e-05  2.3202357311e-20 -2.0403546988e-19  3.9915054461e-19  8.8248801099e-21  8.1912035860e-22 -1.8550304288e-21]
 [ 4.3554833385e-03 -3.8986508532e-05 -2.3292532186e-20  2.0482844417e-19 -4.0070182450e-19 -8.8591775930e-21 -8.2230383150e-22  1.8622399176e-21]]
time for NO, Ng: 0.013
Pg_ortho
 [[ 6.3599837941e-01 -4.6887801581e-01 -6.9454382903e-02  8.3430073560e-02  1.4145269534e-02  1.0428337755e-02 -1.5447381602e-03 -1.8555721460e-03]
 [-4.6861621031e-01  3.4547861438e-01  5.1175365785e-02 -6.1472931635e-02  1.8819972806e-02  1.3874676088e-02 -2.0552404531e-03 -2.4687982964e-03]
 [-6.9454382903e-02  5.1203956329e-02  7.5847855287e-03 -9.1110047796e-03 -1.5447381602e-03 -1.1388295740e-03  1.6869356768e-04  2.0263828102e-04]
 [ 8.3383489050e-02 -6.1472931635e-02 -9.1059175050e-03  1.0938220678e-02 -3.3487424503e-03 -2.4687982964e-03  3.6570036641e-04  4.3928701394e-04]
 [-1.4145269534e-02  1.0428337755e-02  1.5447381602e-03 -1.8555721460e-03  6.3599837941e-01  4.6887801581e-01 -6.9454382903e-02 -8.3430073560e-02]
 [ 1.8819972806e-02 -1.3874676088e-02 -2.0552404531e-03  2.4687982964e-03  4.6861621031e-01  3.4547861438e-01 -5.1175365785e-02 -6.1472931635e-02]
 [ 1.5447381602e-03 -1.1388295740e-03 -1.6869356768e-04  2.0263828102e-04 -6.9454382903e-02 -5.1203956329e-02  7.5847855287e-03  9.1110047796e-03]
 [-3.3487424503e-03  2.4687982964e-03  3.6570036641e-04 -4.3928701394e-04 -8.3383489050e-02 -6.1472931635e-02  9.1059175050e-03  1.0938220678e-02]]
G(g) (NO)
 [[ 2.7183990686e-01 -1.4699563306e-03 -9.8463162015e-03  3.6822525464e-03  4.9461112586e-02  4.8369323857e-04 -1.3284447999e-04  3.8264444283e-04]
 [ 1.4699563306e-03  2.7183990686e-01 -4.7885934997e-04 -1.8278082536e-04 -3.6784299281e-04  4.5719898321e-02  1.4905533090e-02 -1.5634147420e-02]
 [-9.8559330042e-03 -1.9392452468e-03  7.4123715398e-01 -2.2253144657e-02  7.4344772896e-02  3.0775792297e-04 -5.0562159987e-04  1.2205783060e-03]
 [ 3.6785403773e-03  3.9409000833e-03 -2.2252713038e-02  8.5908287391e-01 -1.8060275545e-01 -1.6858872296e-03  1.3008704406e-03 -3.6227031930e-03]
 [ 4.9393123266e-02 -1.9205647589e-02  7.4347973398e-02 -1.8060755644e-01  9.1029198815e-01  2.8609681243e-03 -1.4307304357e-03  5.0003009743e-03]
 [ 1.8820032813e-02  4.5651513329e-02 -5.1242253109e-03 -2.3406770419e-03 -1.3955794710e-03  9.1278365863e-01 -1.5587509790e-01 -1.0128606027e-01]
 [-1.9941292779e-03  1.4901155690e-02  3.1224434942e-03  1.1503307890e-03  3.1313058047e-04 -1.5586944372e-01  7.8883441666e-01  8.4717175168e-02]
 [-5.4752240385e-03 -1.5628390532e-02  2.7853243615e-03  1.2163322663e-03  8.0076119551e-04 -1.0128527632e-01  8.4718121100e-02  8.0899394074e-01]]
time for Gg: 0.031
C(NO)
[[-0.9999216914  0.            0.0046569056 -0.0019930206  0.0114434373  0.            0.            0.          ]
 [ 0.           -0.9999216914  0.            0.            0.            0.0046569056 -0.0019930206  0.0114434373]
 [-0.0066185372  0.            0.027515773   0.9011539228 -0.4325744845  0.            0.            0.          ]
 [ 0.0081226526  0.           -0.2248651176  0.4272704931  0.8756766681  0.            0.            0.          ]
 [-0.0068431453  0.           -0.9739901819 -0.0731953623 -0.2143332358  0.            0.            0.          ]
 [ 0.           -0.0077295415  0.            0.            0.           -0.9501432172  0.1743937152 -0.2583697992]
 [ 0.            0.0096096937  0.            0.            0.           -0.2991273325 -0.2761896502  0.9133180004]
 [ 0.            0.0021258256  0.            0.            0.            0.0879148396  0.945146622   0.3145859577]]
detC 0.9998433888412903
detNg [ 1.0008931452  1.0237570215  1.1384898258  1.4890997667  2.4344481288  4.9029019802  9.4765966512 12.01782376  ]
xg [0.9994206681 0.9771003031 0.8786317394 0.6717570698 0.4108994084 0.2040247388 0.1055561751 0.0832358101]
ciS 1.0826564782004466
[[-7.6650982514e-01  0.0000000000e+00  1.2294695604e-03  1.0408552069e-02 -5.4195781310e-02  0.0000000000e+00  0.0000000000e+00  0.0000000000e+00]
 [ 0.0000000000e+00 -7.6650982514e-01  0.0000000000e+00  0.0000000000e+00  0.0000000000e+00 -5.1524309571e-02  7.2239438302e-04  1.9792825291e-02]
 [ 1.2294695604e-03  0.0000000000e+00  3.9099869720e-01 -4.1297566358e-02 -3.0935563996e-02  0.0000000000e+00  0.0000000000e+00  0.0000000000e+00]
 [ 1.0408552069e-02  0.0000000000e+00 -4.1297566358e-02  3.3170577928e-01 -6.9555350807e-02  0.0000000000e+00  0.0000000000e+00  0.0000000000e+00]
 [-5.4195781310e-02  0.0000000000e+00 -3.0935563996e-02 -6.9555350807e-02 -7.2922751465e-01  0.0000000000e+00  0.0000000000e+00  0.0000000000e+00]
 [ 0.0000000000e+00 -5.1524309571e-02  0.0000000000e+00  0.0000000000e+00  0.0000000000e+00 -6.8322968032e-01 -1.6638975065e-01  1.6686805251e-01]
 [ 0.0000000000e+00  7.2239438302e-04  0.0000000000e+00  0.0000000000e+00  0.0000000000e+00 -1.6638975065e-01  3.7568558742e-01 -5.7113494137e-03]
 [ 0.0000000000e+00  1.9792825291e-02  0.0000000000e+00  0.0000000000e+00  0.0000000000e+00  1.6686805251e-01 -5.7113494137e-03  3.0102105472e-01]]
ciH -1.3798803395538668
1.0 8.239936510889834e-18 -0.02862792620393402j -2.0469737016526324e-16
0.5412322505092986 0.0004097790793689462 -0.0004097790793689461 0.4587677494907017
1.0000000000000002 1.951563910473908e-17 -0.14749557884325792j 1.0495077029659683e-16
0.5431375421597703 0.010877472889153856 -0.010877472889153856 0.45686245784023005
1.0000000000000002 1.1817803680091998e-16 -0.35427518063080343j 7.892991815694472e-17
0.553348218060774 0.06275545180549422 -0.06275545180549422 0.4466517819392261
1.0000000000000002 1.4354836763708079e-16 -0.6550927409779117j 1.6566609195578508e-16
0.5912660387550758 0.21457324964097665 -0.21457324964097668 0.4087339612449246
1.0 4.735795089416683e-16 -1.0709754531758966j 6.505213034913027e-17
0.7439285649204318 0.5734942106526583 -0.5734942106526585 0.25607143507956825
1.0 3.139849491518021e-16 -1.5256846792132779j -8.543513119185775e-17
1.48939117345584 1.1638568701930612 -1.1638568701930612 -0.4893911734558395
0.9999999999999999 2.92300905702092e-16 -1.3653201680094336j -3.0010716134398763e-16
4.196293108451999 0.9320495805866538 -0.9320495805866539 -3.196293108451999
1.0000000000000002 1.2967057982926633e-16 -0.34373836346013487j -2.1163626406917047e-16
6.444471806958155 0.05907803125712587 -0.059078031257125886 -5.444471806958155
S2 = 0.000000
X(g)
[[ 2.0000000000e+00 -5.2041704279e-18  1.0241554493e-05  1.9570635721e-05  2.6658514334e-04  2.9245166810e-02  4.3386214893e-03 -4.3554833385e-03]
 [ 5.2041704279e-18  2.0000000000e+00 -1.1441629845e-03 -2.1863865479e-03 -2.9782280943e-02  2.6177736355e-04  3.8835575885e-05 -3.8986508532e-05]
 [ 1.0241554493e-05  1.1441629845e-03  0.0000000000e+00  0.0000000000e+00  0.0000000000e+00  0.0000000000e+00  0.0000000000e+00  0.0000000000e+00]
 [ 1.9570635721e-05  2.1863865479e-03  0.0000000000e+00  0.0000000000e+00  0.0000000000e+00  0.0000000000e+00  0.0000000000e+00  0.0000000000e+00]
 [ 2.6658514334e-04  2.9782280943e-02  0.0000000000e+00  0.0000000000e+00  0.0000000000e+00  0.0000000000e+00  0.0000000000e+00  0.0000000000e+00]
 [-2.9245166810e-02  2.6177736355e-04  0.0000000000e+00  0.0000000000e+00  0.0000000000e+00  0.0000000000e+00  0.0000000000e+00  0.0000000000e+00]
 [-4.3386214893e-03  3.8835575885e-05  0.0000000000e+00  0.0000000000e+00  0.0000000000e+00  0.0000000000e+00  0.0000000000e+00  0.0000000000e+00]
 [ 4.3554833385e-03 -3.8986508532e-05  0.0000000000e+00  0.0000000000e+00  0.0000000000e+00  0.0000000000e+00  0.0000000000e+00  0.0000000000e+00]]
X(g) int
[[ 2.0000000000e+00 -7.3066544577e-17  9.7225832503e-03  1.8578931077e-02  2.5307644958e-01  6.8028666557e-01  1.0092287609e-01 -1.0131510812e-01]
 [ 6.8569991417e-17  2.0000000000e+00 -2.6614955785e-02 -5.0858646970e-02 -6.9278074999e-01  2.4851229487e-01  3.6867657138e-02 -3.7010941560e-02]
 [ 9.7225832503e-03  2.6614955785e-02  0.0000000000e+00  0.0000000000e+00  0.0000000000e+00  0.0000000000e+00  0.0000000000e+00  0.0000000000e+00]
 [ 1.8578931077e-02  5.0858646970e-02  0.0000000000e+00  0.0000000000e+00  0.0000000000e+00  0.0000000000e+00  0.0000000000e+00  0.0000000000e+00]
 [ 2.5307644958e-01  6.9278074999e-01  0.0000000000e+00  0.0000000000e+00  0.0000000000e+00  0.0000000000e+00  0.0000000000e+00  0.0000000000e+00]
 [-6.8028666557e-01  2.4851229487e-01  0.0000000000e+00  0.0000000000e+00  0.0000000000e+00  0.0000000000e+00  0.0000000000e+00  0.0000000000e+00]
 [-1.0092287609e-01  3.6867657138e-02  0.0000000000e+00  0.0000000000e+00  0.0000000000e+00  0.0000000000e+00  0.0000000000e+00  0.0000000000e+00]
 [ 1.0131510812e-01 -3.7010941560e-02  0.0000000000e+00  0.0000000000e+00  0.0000000000e+00  0.0000000000e+00  0.0000000000e+00  0.0000000000e+00]]
Feff
 [[ 2.3778716354e-16  1.0532132811e-17  7.9944027319e-04 -1.8138796497e-04 -5.2343480916e-05  2.4823495168e-02 -1.2052104543e-02  1.6012848496e-02]
 [ 4.7337471271e-18  3.9123731548e-16 -2.5386898883e-02 -3.0685836938e-03 -1.9077725556e-02  1.3223222892e-04 -6.6338132573e-04  4.6603222907e-04]
 [ 7.9944027319e-04  2.5386898883e-02  0.0000000000e+00  0.0000000000e+00  0.0000000000e+00  0.0000000000e+00  0.0000000000e+00  0.0000000000e+00]
 [-1.8138796497e-04  3.0685836938e-03  0.0000000000e+00  0.0000000000e+00  0.0000000000e+00  0.0000000000e+00  0.0000000000e+00  0.0000000000e+00]
 [-5.2343480916e-05  1.9077725556e-02  0.0000000000e+00  0.0000000000e+00  0.0000000000e+00  0.0000000000e+00  0.0000000000e+00  0.0000000000e+00]
 [-2.4823495168e-02  1.3223222892e-04  0.0000000000e+00  0.0000000000e+00  0.0000000000e+00  0.0000000000e+00  0.0000000000e+00  0.0000000000e+00]
 [ 1.2052104543e-02 -6.6338132573e-04  0.0000000000e+00  0.0000000000e+00  0.0000000000e+00  0.0000000000e+00  0.0000000000e+00  0.0000000000e+00]
 [-1.6012848496e-02  4.6603222907e-04  0.0000000000e+00  0.0000000000e+00  0.0000000000e+00  0.0000000000e+00  0.0000000000e+00  0.0000000000e+00]]
Feff (ortho)
 [[-6.9354225030e-05  1.1445557613e-04 -1.6099803658e-04  6.2218381416e-04 -8.5001450323e-17  1.1102230246e-16  6.9388939039e-18 -3.6429192996e-17]
 [ 1.1445557613e-04 -1.3106577290e-04  1.1177734337e-04 -4.5038646920e-04  5.1174342541e-17 -9.1940344227e-17 -4.7704895589e-18  2.7755575616e-17]
 [-1.6099803658e-04  1.1177734337e-04  3.5990776426e-05 -9.0058967804e-05  1.0408340856e-17 -1.1275702594e-17 -1.0842021725e-18  3.9031278209e-18]
 [ 6.2218381416e-04 -4.5038646920e-04 -9.0058967804e-05  1.6442922150e-04 -3.3827107782e-17 -4.3368086899e-18  3.6862873865e-18 -1.5178830415e-18]
 [-8.5001450323e-17  5.1174342541e-17  1.0408340856e-17 -3.3827107782e-17 -6.9354225029e-05 -1.1445557613e-04 -1.6099803658e-04 -6.2218381416e-04]
 [ 1.1102230246e-16 -9.1940344227e-17 -1.1275702594e-17 -4.3368086899e-18 -1.1445557613e-04 -1.3106577290e-04 -1.1177734337e-04 -4.5038646920e-04]
 [ 6.9388939039e-18 -4.7704895589e-18 -1.0842021725e-18  3.6862873865e-18 -1.6099803658e-04 -1.1177734337e-04  3.5990776426e-05  9.0058967804e-05]
 [-3.6429192996e-17  2.7755575616e-17  3.9031278209e-18 -1.5178830415e-18 -6.2218381416e-04 -4.5038646920e-04  9.0058967804e-05  1.6442922150e-04]]
Hsp + Hph =  -1.2745320120814825
Feff (mod,ortho)
[[-0.2309663532  0.3316278365  0.2236480595  0.0391734947  0.            0.            0.            0.          ]
 [ 0.3316278365  0.0029659476  0.0734273432  0.3309439638  0.            0.            0.            0.          ]
 [ 0.2236480595  0.0734273432  1.1210003335  0.0508226804  0.            0.            0.            0.          ]
 [ 0.0391734947  0.3309439638  0.0508226804  1.1164240422  0.            0.            0.            0.          ]
 [ 0.            0.            0.            0.           -0.2309663532 -0.3316278365  0.2236480595 -0.0391734947]
 [ 0.            0.            0.            0.           -0.3316278365  0.0029659476 -0.0734273432  0.3309439638]
 [ 0.            0.            0.            0.            0.2236480595 -0.0734273432  1.1210003335 -0.0508226804]
 [ 0.            0.            0.            0.           -0.0391734947  0.3309439638 -0.0508226804  1.1164240422]]
e_a, e_b
 [-0.4946834967  0.1217321359  1.0988053313  1.2835699995] 
 [-0.4946834967  0.1217321359  1.0988053313  1.2835699995]
P_a, P_b
 [[ 0.6360272977 -0.4688224217 -0.0693461548  0.0830254299]
 [-0.4688224217  0.3455739461  0.0511157813 -0.0611989191]
 [-0.0693461548  0.0511157813  0.007560822  -0.0090522755]
 [ 0.0830254299 -0.0611989191 -0.0090522755  0.0108379342]] 
 [[ 0.6360272977  0.4688224217 -0.0693461548 -0.0830254299]
 [ 0.4688224217  0.3455739461 -0.0511157813 -0.0611989191]
 [-0.0693461548 -0.0511157813  0.007560822   0.0090522755]
 [-0.0830254299 -0.0611989191  0.0090522755  0.0108379342]]
time for xg, H, S2, Yg, Feff: 0.022
 E(SUHF) =     -1.00994341, delta E = -5.97439e-06, MaxD(dm) = 0.000388034, RMSD(dm) = 0.00105091
**** Start Cycle 5 ****
dm (ortho)
[[[ 0.6360272977 -0.4688224217 -0.0693461548  0.0830254299]
  [-0.4688224217  0.3455739461  0.0511157813 -0.0611989191]
  [-0.0693461548  0.0511157813  0.007560822  -0.0090522755]
  [ 0.0830254299 -0.0611989191 -0.0090522755  0.0108379342]]

 [[ 0.6360272977  0.4688224217 -0.0693461548 -0.0830254299]
  [ 0.4688224217  0.3455739461 -0.0511157813 -0.0611989191]
  [-0.0693461548 -0.0511157813  0.007560822   0.0090522755]
  [-0.0830254299 -0.0611989191  0.0090522755  0.0108379342]]]
Fock (ortho)
 (array([[-0.2361854517,  0.3290883533,  0.2172301735,  0.0277566179],
       [ 0.3290883533,  0.0098315521,  0.0790120833,  0.338599899 ],
       [ 0.2172301735,  0.0790120833,  1.1225685934,  0.0512156979],
       [ 0.0277566179,  0.338599899 ,  0.0512156979,  1.1135742228]]), array([[-0.2361854517, -0.3290883533,  0.2172301735, -0.0277566179],
       [-0.3290883533,  0.0098315521, -0.0790120833,  0.338599899 ],
       [ 0.2172301735, -0.0790120833,  1.1225685934, -0.0512156979],
       [-0.0277566179,  0.338599899 , -0.0512156979,  1.1135742228]]))
E(UHF) =    -1.261172
NO eigenvalue
[-1.0000000000e+00 -6.2642739068e-18  5.5993336232e-19  9.9603394476e-18] 
 [-1.0000000000e+00 -1.1242282350e-16 -1.6934420000e-18 -1.0527777376e-18]
NO vec
[...]
  [-0.069276372   0.0510631439  0.0075446936 -0.0090061535]
  [ 0.0826956898 -0.060954432  -0.0090061535  0.0107507084]]

 [[ 0.6361047889  0.4688685249 -0.069276372  -0.0826956898]
  [ 0.4688685249  0.3455998091 -0.0510631439 -0.060954432 ]
  [-0.069276372  -0.0510631439  0.0075446936  0.0090061535]
  [-0.0826956898 -0.060954432   0.0090061535  0.0107507084]]]
Fock (ortho)
 (array([[-0.2361266836,  0.3291860732,  0.2172233889,  0.0279227377],
       [ 0.3291860732,  0.00989951  ,  0.0791336802,  0.3385587106],
       [ 0.2172233889,  0.0791336802,  1.1226546549,  0.0512505751],
       [ 0.0279227377,  0.3385587106,  0.0512505751,  1.113661859 ]]), array([[-0.2361266836, -0.3291860732,  0.2172233889, -0.0279227377],
       [-0.3291860732,  0.00989951  , -0.0791336802,  0.3385587106],
       [ 0.2172233889, -0.0791336802,  1.1226546549, -0.0512505751],
       [-0.0279227377,  0.3385587106, -0.0512505751,  1.113661859 ]]))
E(UHF) =    -1.261151
NO eigenvalue
[-1.0000000000e+00 -1.1561740339e-16 -1.6732143578e-18  3.7106589821e-18] 
 [-1.0000000000e+00 -5.6073993935e-17 -1.1136249871e-18  1.4653103768e-18]
NO vec
[[ 0.7975617775  0.           -0.5913603993 -0.0623083474  0.1015172846  0.            0.            0.          ]
 [-0.5878773759  0.           -0.7887194606  0.1414525814  0.1109638259  0.            0.            0.          ]
 [-0.0868601957  0.           -0.1584332824 -0.7126199278 -0.6778842379  0.            0.            0.          ]
 [ 0.1036856231  0.           -0.0557977212  0.6843110956 -0.7196208934  0.            0.            0.          ]
 [ 0.            0.7975617775  0.            0.            0.           -0.6001414524 -0.0608336039 -0.0049720119]
 [ 0.            0.5878773759  0.            0.            0.            0.7879006221 -0.0790005522  0.1654439886]
 [ 0.           -0.0868601957  0.            0.            0.           -0.0141381578 -0.9913468346 -0.0974005776]
 [ 0.           -0.1036856231  0.            0.            0.           -0.1372696592 -0.0853793828  0.9813850892]]
dm(NO)
[[ 1.0000000000e+00  0.0000000000e+00  6.9278441122e-17  2.3388835912e-17 -2.4860048081e-17  0.0000000000e+00  0.0000000000e+00  0.0000000000e+00]
 [ 0.0000000000e+00  1.0000000000e+00  0.0000000000e+00  0.0000000000e+00  0.0000000000e+00  3.3738680830e-16 -2.1035254839e-17  1.3597291621e-17]
 [-8.5197424244e-18  0.0000000000e+00 -1.3482757888e-18  9.4448872314e-19  3.2409563539e-18  0.0000000000e+00  0.0000000000e+00  0.0000000000e+00]
 [ 7.5037140962e-19  0.0000000000e+00  3.6292475471e-18 -1.1379397357e-18 -8.8250364043e-20  0.0000000000e+00  0.0000000000e+00  0.0000000000e+00]
 [-1.7882410412e-17  0.0000000000e+00  1.0725201995e-17  1.5700649587e-18 -3.6852199353e-18  0.0000000000e+00  0.0000000000e+00  0.0000000000e+00]
 [ 0.0000000000e+00  2.8567939303e-16  0.0000000000e+00  0.0000000000e+00  0.0000000000e+00  2.8728964349e-17  9.5879984160e-18 -3.1729759177e-19]
 [ 0.0000000000e+00 -2.4176214304e-17  0.0000000000e+00  0.0000000000e+00  0.0000000000e+00  5.1782853297e-18  9.5041021742e-19  2.2298778551e-18]
 [ 0.0000000000e+00  9.8383413769e-18  0.0000000000e+00  0.0000000000e+00  0.0000000000e+00 -4.8505473692e-18  5.1561652678e-19 -2.7427476014e-18]]
D(g) (NO)
 [[ 9.9951368521e-01  8.9589062086e-03  4.8318629846e-17  5.2794326079e-18  2.1542883895e-18 -2.9775098496e-02  2.3443557384e-03  2.8032132284e-04]
 [-8.9589062086e-03  9.9951368521e-01  2.8556649494e-02 -7.6109191955e-04 -8.7217878363e-03  2.0444779220e-16 -3.3938209693e-17  1.1123575798e-17]
 [-4.7548591486e-17 -2.8556649494e-02  9.9951368521e-01  1.5998468035e-17 -6.0659777906e-17 -8.0026544615e-03  8.1110719406e-03 -5.2037369236e-03]
 [-3.9059609013e-18  7.6109191955e-04  1.8236032778e-17  9.9951368521e-01  9.3566888908e-17  2.0264221135e-03  1.9977312094e-02  2.3845637520e-02]
 [ 6.6337932299e-18  8.7217878363e-03 -6.0225299436e-17  3.8694530822e-18  9.9951368521e-01  4.2056770340e-03  2.2405681966e-02 -1.9406730482e-02]
 [ 2.9775098496e-02  1.2521476940e-16  8.0026544615e-03 -2.0264221135e-03 -4.2056770340e-03  9.9951368521e-01  3.3917867190e-17 -7.2573576796e-19]
 [-2.3443557384e-03 -3.4694469520e-17 -8.1110719406e-03 -1.9977312094e-02 -2.2405681966e-02  1.3877787808e-17  9.9951368521e-01  0.0000000000e+00]
 [-2.8032132284e-04  1.3010426070e-17  5.2037369236e-03 -2.3845637520e-02  1.9406730482e-02  1.6479873022e-17  0.0000000000e+00  9.9951368521e-01]]
N(g) (NO)
 [[ 1.0004061787 -0.0089669059]
 [ 0.0089669059  1.0004061787]]
P(g) (NO)
 [[ 1.0000000000e+00  1.2696663301e-18  6.9278441122e-17  2.3388835912e-17 -2.4860048081e-17  5.7205972129e-34  0.0000000000e+00  2.4074124305e-35]
 [-1.2130279998e-17  1.0000000000e+00 -8.1244508847e-34 -2.9500883659e-34  2.6638762562e-34  3.3738680830e-16 -2.1035254839e-17  1.3597291621e-17]
 [-2.5606478780e-04 -2.8568248595e-02 -1.7739769325e-20 -5.9890573047e-21  6.3657829366e-21 -9.6385502123e-18  6.0094038950e-19 -3.8845080724e-19]
 [ 6.8246395965e-06  7.6140105884e-04  4.7280039246e-22  1.5962037568e-22 -1.6966086850e-22  2.5688667308e-19 -1.6016265307e-20  1.0352992237e-20]
 [ 7.8207450494e-05  8.7253304403e-03  5.4180902543e-21  1.8291812267e-21 -1.9442409796e-21  2.9438113886e-18 -1.8353954937e-19  1.1864086248e-19]
 [ 2.9787192505e-02 -2.6699050530e-04  2.0636102621e-18  6.9668775777e-19 -7.4051103787e-19 -9.0079074430e-20  5.6162133185e-21 -3.6303477605e-21]
 [-2.3453079657e-03  2.1021617218e-05 -1.6247927981e-19 -5.4854023172e-20  5.8304468791e-20  7.0924163385e-21 -4.4219507531e-22  2.8583705965e-22]
 [-2.8043518338e-04  2.5136149136e-06 -1.9428112340e-20 -6.5590524879e-21  6.9716321423e-21  8.4806051300e-22 -5.2874530275e-23  3.4178355002e-23]]
time for NO, Ng: 0.013
Pg_ortho
 [[ 6.3623155395e-01 -4.6896196253e-01 -6.9290177672e-02  8.2712169699e-02  1.4142733201e-02  1.0424512705e-02 -1.5402450416e-03 -1.8386012785e-03]
 [-4.6869975533e-01  3.4547541022e-01  5.1044763687e-02 -6.0932491418e-02  1.8829023329e-02  1.3878745369e-02 -2.0506156347e-03 -2.4478342251e-03]
 [-6.9290177672e-02  5.1073319931e-02  7.5461971226e-03 -9.0079482831e-03 -1.5402450416e-03 -1.1353041719e-03  1.6774372778e-04  2.0023686104e-04]
 [ 8.2665923461e-02 -6.0932491418e-02 -9.0029117362e-03  1.0746838706e-02 -3.3209289820e-03 -2.4478342251e-03  3.6167297546e-04  4.3173156033e-04]
 [-1.4142733201e-02  1.0424512705e-02  1.5402450416e-03 -1.8386012785e-03  6.3623155395e-01  4.6896196253e-01 -6.9290177672e-02 -8.2712169699e-02]
 [ 1.8829023329e-02 -1.3878745369e-02 -2.0506156347e-03  2.4478342251e-03  4.6869975533e-01  3.4547541022e-01 -5.1044763687e-02 -6.0932491418e-02]
 [ 1.5402450416e-03 -1.1353041719e-03 -1.6774372778e-04  2.0023686104e-04 -6.9290177672e-02 -5.1073319931e-02  7.5461971226e-03  9.0079482831e-03]
 [-3.3209289820e-03  2.4478342251e-03  3.6167297546e-04 -4.3173156033e-04 -8.2665923461e-02 -6.0932491418e-02  9.0029117362e-03  1.0746838706e-02]]
G(g) (NO)
 [[ 2.7192290149e-01 -1.4700360917e-03 -4.6164502975e-02 -9.8836038831e-03  1.8178725214e-02 -3.7142771588e-04  4.1297709913e-04 -2.9944130083e-04]
 [ 1.4700360917e-03  2.7192290149e-01  3.6957605519e-04 -4.9815989817e-04 -1.1586190254e-04 -4.9436147225e-02 -2.3761124441e-03  1.0475421152e-02]
 [-4.6098159200e-02  1.9714669059e-02  9.9822324833e-01 -2.0825684653e-03  1.6081988800e-01  1.6263364204e-03 -5.5578122939e-03  3.5782886324e-03]
 [-9.8916343002e-03  5.4151411743e-05 -2.0811420478e-03  7.3881163373e-01  2.5199116856e-02  2.9563737790e-04 -2.0924434373e-04  7.0732104942e-05]
 [ 1.8162045339e-02 -3.1876832811e-04  1.6081427142e-01  2.5199703953e-02  7.7415934804e-01  2.7722173813e-04 -2.2910284189e-03  1.7483683027e-03]
 [-1.9218575575e-02 -4.9368011400e-02 -1.4890860208e-03  5.6569462464e-03  1.0343228458e-03  9.1068450531e-01  1.1171643885e-01  1.6037900547e-01]
 [-2.3301031691e-03 -2.3842455860e-03 -6.2339292707e-04  2.7372054358e-03  3.4570537235e-04  1.1171412124e-01  8.0475006681e-01  6.3299935233e-02]
 [-3.7402799134e-03  1.0481384690e-02 -4.0890414192e-04  3.3674100510e-03  2.4843579589e-04  1.6037367682e-01  6.3300334643e-02  7.9575965799e-01]]
time for Gg: 0.036
C(NO)
[[-0.9999149761  0.            0.0043653285 -0.0027289708  0.0119807007  0.            0.            0.          ]
 [ 0.           -0.9999149761  0.            0.            0.            0.0043653285 -0.0027289708  0.0119807007]
 [ 0.0090225498  0.            0.8942371085  0.0669953242  0.4424592794  0.            0.            0.          ]
 [-0.0042929027  0.           -0.0106541601  0.9916391508 -0.1285295863  0.            0.            0.          ]
 [ 0.0083788511  0.           -0.4474454454  0.1102541335  0.8874493756  0.            0.            0.          ]
 [ 0.            0.0066411171  0.            0.            0.            0.9741985981  0.0685587172  0.2149248458]
 [ 0.            0.0029263601  0.            0.            0.           -0.1700264989  0.8493679764  0.4996563486]
 [ 0.            0.010833861   0.            0.            0.           -0.1483543901 -0.523322363   0.8390514327]]
detC 0.9998299594355413
detNg [ 1.0008929277  1.0237511033  1.1384514609  1.4889225637  2.4335986839  4.8982500839  9.4570901009 11.9856900928]
xg [0.9994477333 0.9771322001 0.8786849525 0.6718550664 0.4110538745 0.2042239883 0.1057767408 0.0834612075]
ciS 1.082908940843358
[[-0.7665305448  0.            0.0548695352  0.0053811951 -0.0030423314  0.            0.            0.          ]
 [ 0.           -0.7665305448  0.            0.            0.            0.054157444   0.0092426045  0.0055158368]
 [ 0.0548695352  0.           -0.642907012   0.0014092832  0.3038931338  0.            0.            0.          ]
 [ 0.0053811951  0.            0.0014092832  0.3628078399 -0.0506293733  0.            0.            0.          ]
 [-0.0030423314  0.            0.3038931338 -0.0506293733  0.2735968536  0.            0.            0.          ]
 [ 0.            0.054157444   0.            0.            0.           -0.7296641429  0.071341668   0.0152204533]
 [ 0.            0.0092426045  0.            0.            0.            0.071341668   0.3121101037 -0.0104479366]
 [ 0.            0.0055158368  0.            0.            0.            0.0152204533 -0.0104479366  0.4110517208]]
ciH -1.3802037880875213
0.9999999999999998 1.8201043970600406e-17 -0.028620953857857366j 6.678685382510707e-17
0.5413440834070484 0.00040957949986680027 -0.00040957949986680016 0.4586559165929514
0.9999999999999999 5.941427905220564e-17 -0.14745883582646438j -1.734723475976807e-17
0.5432540614256453 0.010872054131648087 -0.010872054131648087 0.4567459385743546
0.9999999999999999 1.5439038936193583e-16 -0.35417703823111335j 6.852157730108388e-17
0.5534893308027763 0.06272068720508175 -0.06272068720508175 0.4465106691972235
1.0 1.5959455978986625e-16 -0.6548553980342658j 1.8474805019152996e-16
0.5914918374973599 0.2144177961673084 -0.2144177961673084 0.4085081625026399
0.9999999999999999 5.143455106271233e-16 -1.0703412478210876j -9.107298248878237e-18
0.7444196122092998 0.5728151933936014 -0.5728151933936014 0.25558038779070025
1.0 4.614364446098307e-16 -1.5238662049220384j 5.204170427930421e-17
1.4901934204353642 1.1610841052517482 -1.1610841052517482 -0.49019342043536424
0.9999999999999998 7.771561172376096e-16 -1.3621782600524577j 1.8388068845354155e-16
4.1910776404167045 0.9277648060797706 -0.9277648060797706 -3.1910776404167063
1.0000000000000002 1.3834419720915037e-16 -0.3427358447768325j -1.9081958235744878e-17
6.428764713461896 0.05873392964744454 -0.058733929647444526 -5.428764713461895
S2 = 0.000000
X(g)
[[ 2.0000000000e+00  1.0408340856e-17 -2.5606478780e-04  6.8246395965e-06  7.8207450494e-05 -2.9787192505e-02  2.3453079657e-03  2.8043518338e-04]
 [-1.3877787808e-17  2.0000000000e+00  2.8568248595e-02 -7.6140105884e-04 -8.7253304403e-03 -2.6699050530e-04  2.1021617218e-05  2.5136149136e-06]
 [-2.5606478780e-04 -2.8568248595e-02  0.0000000000e+00  0.0000000000e+00  0.0000000000e+00  0.0000000000e+00  0.0000000000e+00  0.0000000000e+00]
 [ 6.8246395965e-06  7.6140105884e-04  0.0000000000e+00  0.0000000000e+00  0.0000000000e+00  0.0000000000e+00  0.0000000000e+00  0.0000000000e+00]
 [ 7.8207450494e-05  8.7253304403e-03  0.0000000000e+00  0.0000000000e+00  0.0000000000e+00  0.0000000000e+00  0.0000000000e+00  0.0000000000e+00]
 [ 2.9787192505e-02 -2.6699050530e-04  0.0000000000e+00  0.0000000000e+00  0.0000000000e+00  0.0000000000e+00  0.0000000000e+00  0.0000000000e+00]
 [-2.3453079657e-03  2.1021617218e-05  0.0000000000e+00  0.0000000000e+00  0.0000000000e+00  0.0000000000e+00  0.0000000000e+00  0.0000000000e+00]
 [-2.8043518338e-04  2.5136149136e-06  0.0000000000e+00  0.0000000000e+00  0.0000000000e+00  0.0000000000e+00  0.0000000000e+00  0.0000000000e+00]]
X(g) int
[[ 2.0000000000e+00  2.6142795404e-16 -2.4303910224e-01  6.4774789806e-03  7.4229138336e-02 -6.9275222293e-01  5.4544157071e-02  6.5220009117e-03]
 [-2.1515049238e-16  2.0000000000e+00  6.6440359280e-01 -1.7707686818e-02 -2.0292251636e-01 -2.5340904258e-01  1.9952274658e-02  2.3857505642e-03]
 [-2.4303910224e-01 -6.6440359280e-01  0.0000000000e+00  0.0000000000e+00  0.0000000000e+00  0.0000000000e+00  0.0000000000e+00  0.0000000000e+00]
 [ 6.4774789806e-03  1.7707686818e-02  0.0000000000e+00  0.0000000000e+00  0.0000000000e+00  0.0000000000e+00  0.0000000000e+00  0.0000000000e+00]
 [ 7.4229138336e-02  2.0292251636e-01  0.0000000000e+00  0.0000000000e+00  0.0000000000e+00  0.0000000000e+00  0.0000000000e+00  0.0000000000e+00]
 [ 6.9275222293e-01 -2.5340904258e-01  0.0000000000e+00  0.0000000000e+00  0.0000000000e+00  0.0000000000e+00  0.0000000000e+00  0.0000000000e+00]
 [-5.4544157071e-02  1.9952274658e-02  0.0000000000e+00  0.0000000000e+00  0.0000000000e+00  0.0000000000e+00  0.0000000000e+00  0.0000000000e+00]
 [-6.5220009117e-03  2.3857505642e-03  0.0000000000e+00  0.0000000000e+00  0.0000000000e+00  0.0000000000e+00  0.0000000000e+00  0.0000000000e+00]]
Feff
 [[-5.6017494194e-16 -1.4638326994e-18 -2.3043699687e-08  1.3127742562e-07 -8.5334282432e-08 -1.9243194336e-02  1.6344956508e-02 -2.0593213885e-02]
 [ 4.7244656957e-18 -4.3884439074e-16  2.0817781871e-02 -2.5046154752e-02  9.2123815887e-04  1.8300614073e-09  4.7149090463e-08 -1.5106398782e-07]
 [-2.3043699546e-08 -2.0817781871e-02  0.0000000000e+00  0.0000000000e+00  0.0000000000e+00  0.0000000000e+00  0.0000000000e+00  0.0000000000e+00]
 [ 1.3127742549e-07  2.5046154752e-02  0.0000000000e+00  0.0000000000e+00  0.0000000000e+00  0.0000000000e+00  0.0000000000e+00  0.0000000000e+00]
 [-8.5334282409e-08 -9.2123815887e-04  0.0000000000e+00  0.0000000000e+00  0.0000000000e+00  0.0000000000e+00  0.0000000000e+00  0.0000000000e+00]
 [ 1.9243194336e-02  1.8300614032e-09  0.0000000000e+00  0.0000000000e+00  0.0000000000e+00  0.0000000000e+00  0.0000000000e+00  0.0000000000e+00]
 [-1.6344956508e-02  4.7149090435e-08  0.0000000000e+00  0.0000000000e+00  0.0000000000e+00  0.0000000000e+00  0.0000000000e+00  0.0000000000e+00]
 [ 2.0593213885e-02 -1.5106398796e-07  0.0000000000e+00  0.0000000000e+00  0.0000000000e+00  0.0000000000e+00  0.0000000000e+00  0.0000000000e+00]]
Feff (ortho)
 [[-5.1290446417e-09  2.3644209614e-08 -2.5285156578e-08  1.2131767870e-07 -9.8879238131e-17 -2.6020852140e-17  6.0715321659e-18  2.9490299092e-17]
 [ 2.3644209614e-08 -3.2069330201e-08  1.6474226151e-08 -8.6840102129e-08 -8.8470897275e-17 -9.8879238131e-17  1.3444106939e-17  0.0000000000e+00]
 [-2.5285156578e-08  1.6474226151e-08  5.5683040921e-09 -1.6572136005e-08  1.7347234760e-17  7.8062556419e-18 -1.3010426070e-18 -4.1199682554e-18]
 [ 1.2131767870e-07 -8.6840102129e-08 -1.6572136005e-08  3.1630070191e-08  2.9490299092e-17  2.7755575616e-17 -3.6862873865e-18 -1.7347234760e-18]
 [-9.8879238131e-17 -8.8470897275e-17  1.7347234760e-17  2.9490299092e-17 -5.1290448666e-09 -2.3644209466e-08 -2.5285156612e-08 -1.2131767867e-07]
 [-2.6020852140e-17 -9.8879238131e-17  7.8062556419e-18  2.7755575616e-17 -2.3644209466e-08 -3.2069329862e-08 -1.6474226211e-08 -8.6840102148e-08]
 [ 6.0715321659e-18  1.3444106939e-17 -1.3010426070e-18 -3.6862873865e-18 -2.5285156612e-08 -1.6474226211e-08  5.5683041023e-09  1.6572136009e-08]
 [ 2.9490299092e-17  0.0000000000e+00 -4.1199682554e-18 -1.7347234760e-18 -1.2131767867e-07 -8.6840102148e-08  1.6572136009e-08  3.1630070187e-08]]
Hsp + Hph =  -1.2745335605158392
Feff (mod,ortho)
[[-0.2308167108  0.3318707358  0.223661446   0.0397981606  0.            0.            0.            0.          ]
 [ 0.3318707358  0.0030568746  0.0736695962  0.3306632573  0.            0.            0.            0.          ]
 [ 0.223661446   0.0736695962  1.1211893734  0.0508694049  0.            0.            0.            0.          ]
 [ 0.0397981606  0.3306632573  0.0508694049  1.1166598031  0.            0.            0.            0.          ]
 [ 0.            0.            0.            0.           -0.2308167108 -0.3318707358  0.223661446  -0.0397981606]
 [ 0.            0.            0.            0.           -0.3318707358  0.0030568746 -0.0736695962  0.3306632573]
 [ 0.            0.            0.            0.            0.223661446  -0.0736695962  1.1211893734 -0.0508694049]
 [ 0.            0.            0.            0.           -0.0397981606  0.3306632573 -0.0508694049  1.1166598031]]
e_a, e_b
 [-0.4946208197  0.1219277156  1.0988238214  1.2839586229] 
 [-0.4946208197  0.1219277156  1.0988238214  1.2839586229]
P_a, P_b
 [[ 0.6361048086 -0.4688685346 -0.0692763562  0.0826956153]
 [-0.4688685346  0.3455998127  0.0510631317 -0.0609543765]
 [-0.0692763562  0.0510631317  0.0075446899 -0.0090061431]
 [ 0.0826956153 -0.0609543765 -0.0090061431  0.0107506887]] 
 [[ 0.6361048086  0.4688685346 -0.0692763562 -0.0826956153]
 [ 0.4688685346  0.3455998127 -0.0510631317 -0.0609543765]
 [-0.0692763562 -0.0510631317  0.0075446899  0.0090061431]
 [-0.0826956153 -0.0609543765  0.0090061431  0.0107506887]]
time for xg, H, S2, Yg, Feff: 0.023
 E(SUHF) =     -1.00994496, delta E = -2.11164e-13, MaxD(dm) = 7.44886e-08, RMSD(dm) = 1.96376e-07
SUHF not converged
time for cyc: 1.001
dm_reg
 [[[1.3933194898e-01 2.6226400763e-01 1.9909407053e-03 2.0708203961e-02]
  [2.6226400763e-01 4.9365856291e-01 3.7475402603e-03 3.8978975043e-02]
  [1.9909407053e-03 3.7475402603e-03 2.8448930208e-05 2.9590346295e-04]
  [2.0708203961e-02 3.8978975043e-02 2.9590346295e-04 3.0777557800e-03]]

 [[2.8448930208e-05 2.9590346295e-04 1.9909407053e-03 3.7475402603e-03]
  [2.9590346295e-04 3.0777557800e-03 2.0708203961e-02 3.8978975043e-02]
  [1.9909407053e-03 2.0708203961e-02 1.3933194898e-01 2.6226400763e-01]
  [3.7475402603e-03 3.8978975043e-02 2.6226400763e-01 4.9365856291e-01]]]
******* suhf density *****
Clebsch-Gordan coeff: < 0 0 0 0 | 0 0 > = 1
Clebsch-Gordan coeff: < 0 0 1 0 | 0 0 > = 0
xggint 1.0
SUHF DM alpha
 [[0.0648956316 0.1245154082 0.0203317992 0.0461363392]
 [0.1245154082 0.2397755902 0.0461363392 0.1019221309]
 [0.0203317992 0.0461363392 0.0648956316 0.1245154082]
 [0.0461363392 0.1019221309 0.1245154082 0.2397755902]] 
SUHF DM beta
 [[0.0648956316 0.1245154082 0.0203317992 0.0461363392]
 [0.1245154082 0.2397755902 0.0461363392 0.1019221309]
 [0.0203317992 0.0461363392 0.0648956316 0.1245154082]
 [0.0461363392 0.1019221309 0.1245154082 0.2397755902]]
SUHF natural orbitals alpha
 [[-0.2359567436 -0.3081810938  0.1361986105 -1.2575261508]
 [-0.4724585762 -0.5420302948 -0.3327164875  1.1307722835]
 [-0.2359567436  0.3081810938 -1.2596066334 -0.1153828868]
 [-0.4724585762  0.5420302948  1.1742546033 -0.1023344755]] 
SUHF NO occ alpha
 [ 7.6539322374e-01  2.3460677626e-01  9.9703536831e-18 -3.4719169118e-18]
SUHF natural orbitals beta
 [[-0.2359567436 -0.3081810938  0.1361986105 -1.2575261508]
 [-0.4724585762 -0.5420302948 -0.3327164875  1.1307722835]
 [-0.2359567436  0.3081810938 -1.2596066334 -0.1153828868]
 [-0.4724585762  0.5420302948  1.1742546033 -0.1023344755]] 
SUHF NO occ beta
 [ 7.6539322374e-01  2.3460677626e-01  9.9703536831e-18 -3.4719169118e-18]
time for dm: 0.010
time tot: 1.018
