#INFO: **** input file is /share/home/srwang/ExSCF/test/test_dm/test.py ****
#import phf
from pyscf import gto, scf, lib
#import scipy
#import numpy as np
import sys

from pyphf import util

lib.num_threads(4)

xyz = 'h2.xyz' #sys.argv[1]
fch = 'test_uhf.fchk' #sys.argv[2]
bas = xyz[:-3] + 'bas'


mf = util.guess_from_fchk(xyz, bas, fch)

mf2 = util.SUHF(mf)
mf2.cut_no = False
mf2.verbose = 9
#mf2.diis_on = True
mf2.max_cycle = 30
mf2.tofch = True
mf2.oldfch = fch
mf2.kernel()
#INFO: ******************** input file end ********************


System: uname_result(system='Linux', node='xn01', release='3.10.0-1127.el7.x86_64', version='#1 SMP Tue Feb 18 16:39:12 EST 2020', machine='x86_64', processor='x86_64')  Threads 4
Python 3.7.4 (default, Aug 13 2019, 20:35:49) 
[GCC 7.3.0]
numpy 1.17.2  scipy 1.4.1
Date: Mon Jan 25 18:12:11 2021
PySCF version 1.7.5
PySCF path  /share/home/srwang/pyscf-1.7.5/pyscf

[CONFIG] conf_file None
[INPUT] verbose = 4
[INPUT] num. atoms = 2
[INPUT] num. electrons = 2
[INPUT] charge = 0
[INPUT] spin (= nelec alpha-beta = 2S) = 0
[INPUT] symmetry False subgroup None
[INPUT] Mole.unit = angstrom
[INPUT]  1 H      0.000000000000   0.000000000000   0.000000000000 AA    0.000000000000   0.000000000000   0.000000000000 Bohr
[INPUT]  2 H      0.000000000000   0.000000000000   2.000000000000 AA    0.000000000000   0.000000000000   3.779452249130 Bohr

nuclear repulsion = 0.26458860546
number of shells = 4
number of NR pGTOs = 6
number of NR cGTOs = 4
basis = h2.bas
ecp = {}
CPU time:         0.99


******** <class 'pyscf.scf.uhf.UHF'> ********
method = UHF
initial guess = minao
damping factor = 0
level_shift factor = 0
DIIS = <class 'pyscf.scf.diis.CDIIS'>
diis_start_cycle = 1
diis_space = 8
SCF conv_tol = 1e-09
SCF conv_tol_grad = None
SCF max_cycles = 1
direct_scf = True
direct_scf_tol = 1e-13
chkfile to save SCF result = /share/home/srwang/ExSCF/test/test_dm/tmpyjhnuk62
max_memory 4000 MB (current use 98 MB)
number electrons alpha = 1  beta = 1
Set gradient conv threshold to 3.16228e-05
init E= -0.644800894941739
  alpha nocc = 1  HOMO = -0.248574003043426  LUMO = -0.0900508471637462
  beta  nocc = 1  HOMO = -0.241945730776492  LUMO = -0.0916003506261902
cycle= 1 E= -0.90763782954924  delta_E= -0.263  |g|= 0.0146  |ddm|= 0.599
SCF not converged.
SCF energy = -0.90763782954924 after 1 cycles  <S^2> = 6.5933669e-07  2S+1 = 1.0000013


******** <class 'pyscf.scf.uhf.UHF'> ********
method = UHF
initial guess = minao
damping factor = 0
level_shift factor = 0
DIIS = <class 'pyscf.scf.diis.CDIIS'>
diis_start_cycle = 1
diis_space = 8
SCF conv_tol = 1e-09
SCF conv_tol_grad = None
SCF max_cycles = 1
direct_scf = True
direct_scf_tol = 1e-13
chkfile to save SCF result = /share/home/srwang/ExSCF/test/test_dm/tmpyjhnuk62
max_memory 4000 MB (current use 105 MB)
number electrons alpha = 1  beta = 1
Set gradient conv threshold to 3.16228e-05
init E= -0.99701150589175
  alpha nocc = 1  HOMO = -0.494329974228981  LUMO = 0.12017707328242
  beta  nocc = 1  HOMO = -0.49432997422898  LUMO = 0.120177073282419
cycle= 1 E= -0.997011506088653  delta_E= -1.97e-10  |g|= 2.87e-07  |ddm|= 1.01e-06
  alpha nocc = 1  HOMO = -0.494330047369919  LUMO = 0.120177149393592
  beta  nocc = 1  HOMO = -0.494330047369919  LUMO = 0.120177149393592
Extra cycle  E= -0.997011506088841  delta_E= -1.89e-13  |g|= 1.37e-07  |ddm|= 4.63e-07
converged SCF energy = -0.997011506088841  <S^2> = 0.91048229  2S+1 = 2.1545137

******** <class 'pyphf.util.SUHF'> ********
max_cycle = 30
verbose: 9, debug2
S
[[1.         0.64589812 0.00227256 0.07465654]
 [0.64589812 1.         0.07465654 0.27025806]
 [0.00227256 0.07465654 1.         0.64589812]
 [0.07465654 0.27025806 0.64589812 1.        ]]
SVD: S^(-1/2)
[[-0.33060027  0.46012716 -0.85621857  0.83453548]
 [-0.39774552  0.36468655  0.7116764  -1.05293832]
 [-0.33060027 -0.46012716 -0.85621857 -0.83453548]
 [-0.39774552 -0.36468655  0.7116764   1.05293832]]
S^(1/2)
[[-0.61794897 -0.74345502 -0.61794897 -0.74345502]
 [ 0.66740562  0.52897084 -0.66740562 -0.52897084]
 [-0.34536263  0.28706038 -0.34536263  0.28706038]
 [ 0.2311568  -0.29165189 -0.2311568   0.29165189]]
C (ortho)
 [[-0.80171146 -0.5700944  -0.0923896  -0.15399763]
 [ 0.58103364 -0.7590258   0.10126792 -0.27572549]
 [ 0.08280266  0.16885249 -0.79177861 -0.58113612]
 [-0.11314752  0.26525656  0.59522735 -0.75002733]] 
 [[-0.80171146 -0.5700944  -0.0923896  -0.15399763]
 [-0.58103364  0.7590258  -0.10126792  0.27572549]
 [ 0.08280266  0.16885249 -0.79177861 -0.58113612]
 [ 0.11314752 -0.26525656 -0.59522735  0.75002733]]
density matrix (ortho)
[[[ 0.64274127 -0.46582133 -0.06638384  0.09071167]
  [-0.46582133  0.33760009  0.04811113 -0.06574252]
  [-0.06638384  0.04811113  0.00685628 -0.00936892]
  [ 0.09071167 -0.06574252 -0.00936892  0.01280236]]

 [[ 0.64274127  0.46582133 -0.06638384 -0.09071167]
  [ 0.46582133  0.33760009 -0.04811113 -0.06574252]
  [-0.06638384 -0.04811113  0.00685628  0.00936892]
  [-0.09071167 -0.06574252  0.00936892  0.01280236]]]
grids:  [0.06237655 0.31939555 0.74529195 1.28265786 1.85893479 2.39630071
 2.8221971  3.07921611] 
weights:  [0.15900941 0.34931531 0.49276925 0.56970235 0.56970235 0.49276925
 0.34931531 0.15900941]
S = 0.0, Sz = 0.0
Wigner small d:  1
value : [1. 1. 1. 1. 1. 1. 1. 1.]
time for Preparation before cyc: 0.007
**** Start Cycle 1 ****
dm (ortho)
[[[ 0.642741269  -0.4658213283 -0.0663838378  0.0907116656]
  [-0.4658213283  0.3376000895  0.048111128  -0.0657425166]
  [-0.0663838378  0.048111128   0.0068562797 -0.0093689153]
  [ 0.0907116656 -0.0657425166 -0.0093689153  0.0128023618]]

 [[ 0.642741269   0.4658213283 -0.0663838378 -0.0907116656]
  [ 0.4658213283  0.3376000895 -0.048111128  -0.0657425166]
  [-0.0663838378 -0.048111128   0.0068562797  0.0093689153]
  [-0.0907116656 -0.0657425166  0.0093689153  0.0128023618]]]
Fock (ortho)
 (array([[-0.2388878328,  0.3264129105,  0.2163653017,  0.0245836224],
       [ 0.3264129105,  0.0110684007,  0.0780609512,  0.3396298552],
       [ 0.2163653017,  0.0780609512,  1.1220160141,  0.050652576 ],
       [ 0.0245836224,  0.3396298552,  0.050652576 ,  1.1126125007]]), array([[-0.2388878328, -0.3264129105,  0.2163653017, -0.0245836224],
       [-0.3264129105,  0.0110684007, -0.0780609512,  0.3396298552],
       [ 0.2163653017, -0.0780609512,  1.1220160141, -0.050652576 ],
       [-0.0245836224,  0.3396298552, -0.050652576 ,  1.1126125007]]))
E(UHF) =    -1.261600
NO eigenvalue
[-1.0000000000e+00 -1.1541275128e-16  1.4621122837e-18  2.2667514315e-18] 
 [-1.0000000000e+00 -1.1505810476e-17  3.7788148033e-19  1.0763482636e-17]
NO vec
[[ 0.8017114624  0.            0.5864057907  0.0922459945 -0.0698402186  0.            0.            0.          ]
 [-0.5810336389  0.            0.7915406622 -0.1025638941 -0.1591977958  0.            0.            0.          ]
 [-0.0828026552  0.           -0.0827190706  0.7816404213 -0.612649596   0.            0.            0.          ]
 [ 0.1131475223  0.           -0.1508283265 -0.6082841243 -0.770998624   0.            0.            0.          ]
 [ 0.            0.8017114624  0.            0.            0.           -0.4154521516 -0.0126321331 -0.4295330836]
 [ 0.            0.5810336389  0.            0.            0.            0.638592171   0.205630287   0.4607777498]
 [ 0.           -0.0828026552  0.            0.            0.            0.6347971968 -0.0163528197 -0.7680552223]
 [ 0.           -0.1131475223  0.            0.            0.           -0.1289653742  0.9784115696 -0.1152231353]]
dm(NO)
[[ 1.0000000000e+00  0.0000000000e+00 -2.2995462364e-16  1.3376130691e-17 -7.5006982440e-18  0.0000000000e+00  0.0000000000e+00  0.0000000000e+00]
 [ 0.0000000000e+00  1.0000000000e+00  0.0000000000e+00  0.0000000000e+00  0.0000000000e+00 -2.5462041865e-17  1.4671329096e-17 -8.1881735466e-17]
 [-1.8887633711e-16  0.0000000000e+00 -2.9958238429e-17 -3.8808643741e-18  3.7209146395e-18  0.0000000000e+00  0.0000000000e+00  0.0000000000e+00]
 [ 1.3491999664e-17  0.0000000000e+00 -1.2026606988e-17  5.3113966751e-19  2.5864369146e-18  0.0000000000e+00  0.0000000000e+00  0.0000000000e+00]
 [-7.4611865751e-18  0.0000000000e+00  2.6356691640e-18  1.0297523606e-18  3.6628791810e-19  0.0000000000e+00  0.0000000000e+00  0.0000000000e+00]
 [ 0.0000000000e+00 -2.8288821447e-17  0.0000000000e+00  0.0000000000e+00  0.0000000000e+00  4.0304362134e-18 -3.0450291803e-18 -2.5886158903e-18]
 [ 0.0000000000e+00  1.4926795077e-17  0.0000000000e+00  0.0000000000e+00  0.0000000000e+00 -2.0773352784e-18  1.5664929536e-18 -2.7948518841e-18]
 [ 0.0000000000e+00 -6.6768671078e-17  0.0000000000e+00  0.0000000000e+00  0.0000000000e+00  1.0177074658e-17  9.5202124848e-19  2.0377344999e-18]]
D(g) (NO)
 [[ 9.9951368521e-01  9.3298658976e-03 -2.5113709898e-16  2.5126077712e-17 -1.7726027671e-17 -2.4050720675e-02 -5.4715751953e-04 -1.7510286427e-02]
 [-9.3298658976e-03  9.9951368521e-01 -2.9747392979e-02 -5.7581488855e-04  3.2821525439e-04  6.5474452255e-17  9.6163527694e-18  9.0786491269e-18]
 [-1.3593576528e-16  2.9747392979e-02  9.9951368521e-01  4.6306646382e-17 -7.3609303093e-17  7.1344059104e-03  2.8494251388e-04  6.0419157373e-03]
 [ 1.5215079176e-17  5.7581488855e-04  4.4833566558e-17  9.9951368521e-01 -5.9846016282e-17  1.4681384554e-02 -1.9651344454e-02 -1.9244300993e-02]
 [-1.7388265043e-17 -3.2821525439e-04 -9.6979945436e-17 -3.4631735237e-17  9.9951368521e-01 -1.1292170280e-02 -2.4204073259e-02  1.6091459770e-02]
 [ 2.4050720675e-02  4.7813609118e-17 -7.1344059104e-03 -1.4681384554e-02  1.1292170280e-02  9.9951368521e-01  4.2237629808e-17  1.1558063842e-16]
 [ 5.4715751953e-04  1.7347234760e-18 -2.8494251388e-04  1.9651344454e-02  2.4204073259e-02  2.5153490402e-17  9.9951368521e-01  6.9388939039e-18]
 [ 1.7510286427e-02  0.0000000000e+00 -6.0419157373e-03  1.9244300993e-02 -1.6091459770e-02  5.5511151231e-17  6.9388939039e-18  9.9951368521e-01]]
N(g) (NO)
 [[ 1.0003993855 -0.0093381334]
 [ 0.0093381334  1.0003993855]]
P(g) (NO)
 [[ 1.0000000000e+00  6.2912008903e-18 -2.2995462364e-16  1.3376130691e-17 -7.5006982440e-18 -1.6897202513e-34  9.6296497219e-35 -4.8148248610e-34]
 [ 1.3837443197e-18  1.0000000000e+00 -2.6179853178e-34  1.6583352291e-35  4.2895082179e-36 -2.5462041865e-17  1.4671329096e-17 -8.1881735466e-17]
 [ 2.7778512343e-04  2.9759273656e-02 -6.3877973513e-20  3.7156901151e-21 -2.0835823875e-21 -7.5773187169e-19  4.3660809746e-19 -2.4367409731e-18]
 [ 5.3770362332e-06  5.7604486066e-04 -1.2364743433e-21  7.1923939387e-23 -4.0331526232e-23 -1.4667278358e-20  8.4513437247e-21 -4.7167552897e-20]
 [-3.0649178238e-06 -3.2834633880e-04  7.0479202468e-22 -4.0996741369e-23  2.2989023739e-23  8.3603682246e-21 -4.8172771939e-21  2.6885568055e-20]
 [ 2.4060326184e-02 -2.2458883762e-04 -5.5327832523e-18  3.2183406751e-19 -1.8046924636e-19  5.7184903859e-21 -3.2950167480e-21  1.8389723791e-20]
 [ 5.4737604630e-04 -5.1094298989e-06 -1.2587165272e-19  7.3217735325e-21 -4.1057025493e-21  1.3009651799e-22 -7.4962127539e-23  4.1836898736e-22]
 [ 1.7517279781e-02 -1.6351339023e-04 -4.0281794793e-18  2.3431342370e-19 -1.3139182969e-19  4.1633847874e-21 -2.3989587596e-21  1.3388760164e-20]]
time for NO, Ng: 0.015
Pg_ortho
 [[ 6.4287243289e-01 -4.6591638828e-01 -6.6397384681e-02  9.0730177050e-02  1.4051660947e-02  1.0183823077e-02 -1.4512887621e-03 -1.9831456761e-03]
 [-4.6564510041e-01  3.3747236980e-01  4.8092926801e-02 -6.5717645122e-02  1.8879395628e-02  1.3682683179e-02 -1.9499086131e-03 -2.6644958164e-03]
 [-6.6397384681e-02  4.8120946053e-02  6.8576788598e-03 -9.3708271807e-03 -1.4512887621e-03 -1.0518093230e-03  1.4989253434e-04  2.0482397378e-04]
 [ 9.0677347837e-02 -6.5717645122e-02 -9.3653708547e-03  1.2797518454e-02 -3.6764770482e-03 -2.6644958164e-03  3.7971524109e-04  5.1887030216e-04]
 [-1.4051660947e-02  1.0183823077e-02  1.4512887621e-03 -1.9831456761e-03  6.4287243289e-01  4.6591638828e-01 -6.6397384681e-02 -9.0730177050e-02]
 [ 1.8879395628e-02 -1.3682683179e-02 -1.9499086131e-03  2.6644958164e-03  4.6564510041e-01  3.3747236980e-01 -4.8092926801e-02 -6.5717645122e-02]
 [ 1.4512887621e-03 -1.0518093230e-03 -1.4989253434e-04  2.0482397378e-04 -6.6397384681e-02 -4.8120946053e-02  6.8576788598e-03  9.3708271807e-03]
 [-3.6764770482e-03  2.6644958164e-03  3.7971524109e-04 -5.1887030216e-04 -9.0677347837e-02 -6.5717645122e-02  9.3653708547e-03  1.2797518454e-02]]
G(g) (NO)
 [[ 2.7295471001e-01 -1.5811419784e-03  5.2878941335e-02  1.2446935349e-02 -6.3832260336e-04 -5.8165871322e-04 -4.2142665256e-04  5.6746057211e-05]
 [ 1.5811419784e-03  2.7295471001e-01 -4.5415815141e-04  5.5021900875e-04  1.0073139074e-04 -3.7650559663e-02  5.8638126224e-03 -3.8724244997e-02]
 [ 5.2808168677e-02 -1.8636855472e-02  8.7859335932e-01  1.5427185188e-02 -1.9216044908e-01 -3.7605950399e-03 -3.3094669017e-03  2.2887442337e-03]
 [ 1.2450966645e-02 -1.3361348059e-03  1.5428323806e-02  7.4699762508e-01 -4.4730540246e-02 -7.7163420330e-04 -5.6173814930e-04  2.6446526590e-04]
 [-6.3342899007e-04  5.5095447919e-03 -1.9215520897e-01 -4.4730620277e-02  8.8129387358e-01  2.7540524115e-03  3.0636682864e-03 -2.2616241369e-03]
 [-1.2736899004e-02 -3.7592408006e-02  9.3022769387e-04 -2.2402337661e-03 -3.1721664955e-06  7.4299601043e-01  7.4388578155e-02  5.9885266223e-02]
 [-3.9878027254e-03  5.8716494463e-03  5.6831051446e-04 -3.2404506913e-03 -2.6689675581e-04  7.4384507083e-02  7.9569936487e-01  1.4853690113e-01]
 [-1.4189487485e-02 -3.8684170856e-02  1.8871342576e-03 -5.7413399913e-03 -3.1104051259e-04  5.9883020442e-02  1.4853957403e-01  9.6818948267e-01]]
time for Gg: 0.024
C(NO)
[[-1.0000000000e+00  0.0000000000e+00  2.9267653301e-17  3.2728892189e-16 -4.5516119642e-16  0.0000000000e+00  0.0000000000e+00  0.0000000000e+00]
 [ 0.0000000000e+00 -1.0000000000e+00  0.0000000000e+00  0.0000000000e+00  0.0000000000e+00 -7.2370300960e-18  8.6736173799e-16  8.1878948066e-16]
 [ 1.5434367077e-16  0.0000000000e+00 -9.8908196813e-01  1.6979263679e-03 -1.4735663328e-01  0.0000000000e+00  0.0000000000e+00  0.0000000000e+00]
 [-2.4248430299e-17  0.0000000000e+00 -4.1097070495e-03 -9.9986251887e-01  1.6064049165e-02  0.0000000000e+00  0.0000000000e+00  0.0000000000e+00]
 [ 1.5022421045e-17  0.0000000000e+00 -1.4730909896e-01  1.6494253959e-02  9.8895296600e-01  0.0000000000e+00  0.0000000000e+00  0.0000000000e+00]
 [ 0.0000000000e+00  2.5462041865e-17  0.0000000000e+00  0.0000000000e+00  0.0000000000e+00  8.6295087822e-01 -4.5214056725e-01 -2.2557634900e-01]
 [ 0.0000000000e+00 -1.4671329096e-17  0.0000000000e+00  0.0000000000e+00  0.0000000000e+00 -9.9011099255e-02 -5.8908619125e-01  8.0198145958e-01]
 [ 0.0000000000e+00  8.1881735466e-17  0.0000000000e+00  0.0000000000e+00  0.0000000000e+00  4.9549226433e-01  6.6973604258e-01  5.5311938066e-01]]
detC 0.9999999999999998
detNg [ 1.0008861312  1.0235662265  1.1372540654  1.4834070873  2.4073534736  4.7572219651  8.8856227435 11.0615733333]
xg [0.9991146533 0.9769763539 0.8793109917 0.6741237847 0.4153939216 0.2102067146 0.1125413523 0.090403053 ]
ciS 1.0895177062942583
[[-7.6727003127e-01  0.0000000000e+00 -5.2883088730e-02 -1.2441829623e-02  6.3926227852e-04  0.0000000000e+00  0.0000000000e+00  0.0000000000e+00]
 [ 0.0000000000e+00 -7.6727003127e-01  0.0000000000e+00  0.0000000000e+00  0.0000000000e+00  3.7655900402e-02 -5.8598994951e-03  3.8723682638e-02]
 [-5.2883088730e-02  0.0000000000e+00 -7.3320694538e-01 -1.9844598285e-02  2.2915112191e-02  0.0000000000e+00  0.0000000000e+00  0.0000000000e+00]
 [-1.2441829623e-02  0.0000000000e+00 -1.9844598285e-02  3.5223917473e-01  4.7039097412e-02  0.0000000000e+00  0.0000000000e+00  0.0000000000e+00]
 [ 6.3926227852e-04  0.0000000000e+00  2.2915112191e-02  4.7039097412e-02  3.7520493860e-01  0.0000000000e+00  0.0000000000e+00  0.0000000000e+00]
 [ 0.0000000000e+00  3.7655900402e-02  0.0000000000e+00  0.0000000000e+00  0.0000000000e+00 -3.6357276644e-01 -2.3761964190e-02 -5.0128893023e-01]
 [ 0.0000000000e+00 -5.8598994951e-03  0.0000000000e+00  0.0000000000e+00  0.0000000000e+00 -2.3761964190e-02  4.1132076165e-01 -1.9532051492e-02]
 [ 0.0000000000e+00  3.8723682638e-02  0.0000000000e+00  0.0000000000e+00  0.0000000000e+00 -5.0128893023e-01 -1.9532051492e-02 -5.3510827258e-02]]
ciH -1.3881319385755901
1.0000000000000002 3.130633773051894e-18 -0.028403106962343647j 4.380176776841438e-17
0.5448382127264901 0.00040336824255716715 -0.00040336824255716715 0.4551617872735101
1.0 2.2605615296322767e-17 -0.1463110275587309j 9.627715291671279e-17
0.5468933052818759 0.010703458392645856 -0.010703458392645854 0.4531066947181242
0.9999999999999999 5.106592232406726e-17 -0.35111394299299226j 1.2967057982926633e-16
0.557888719900283 0.0616405004820431 -0.06164050048204313 0.4421112800997169
1.0 1.8626593323300966e-16 -0.647468053374115j -7.37257477290143e-18
0.5984917035775081 0.20960744007003293 -0.20960744007003293 0.4015082964224919
0.9999999999999999 3.452099717193846e-16 -1.0507462723018874j 3.209238430557093e-17
0.7593932530110267 0.5520338643781562 -0.5520338643781562 0.24060674698897308
0.9999999999999997 2.632442874794805e-16 -1.4687368572718837j 2.0816681711721685e-17
1.5129448039463314 1.0785939779544444 -1.0785939779544451 -0.5129448039463321
1.0 2.502338614096544e-16 -1.2701323670330829j -3.2959746043559335e-17
4.033903540330069 0.806618114892531 -0.8066181148925309 -3.0339035403300696
1.0 -8.239936510889834e-18 -0.31390488963876173j -2.255140518769849e-16
5.976621863201774 0.04926813986956159 -0.04926813986956159 -4.976621863201774
S2 = -0.000000
X(g)
[[ 2.0000000000e+00  5.2041704279e-18  2.7778512343e-04  5.3770362332e-06 -3.0649178238e-06 -2.4060326184e-02 -5.4737604630e-04 -1.7517279781e-02]
 [-6.9388939039e-18  2.0000000000e+00 -2.9759273656e-02 -5.7604486066e-04  3.2834633880e-04 -2.2458883762e-04 -5.1094298988e-06 -1.6351339023e-04]
 [ 2.7778512343e-04  2.9759273656e-02  0.0000000000e+00  0.0000000000e+00  0.0000000000e+00  0.0000000000e+00  0.0000000000e+00  0.0000000000e+00]
 [ 5.3770362332e-06  5.7604486066e-04  0.0000000000e+00  0.0000000000e+00  0.0000000000e+00  0.0000000000e+00  0.0000000000e+00  0.0000000000e+00]
 [-3.0649178238e-06 -3.2834633880e-04  0.0000000000e+00  0.0000000000e+00  0.0000000000e+00  0.0000000000e+00  0.0000000000e+00  0.0000000000e+00]
 [ 2.4060326184e-02 -2.2458883762e-04  0.0000000000e+00  0.0000000000e+00  0.0000000000e+00  0.0000000000e+00  0.0000000000e+00  0.0000000000e+00]
 [ 5.4737604630e-04 -5.1094298989e-06  0.0000000000e+00  0.0000000000e+00  0.0000000000e+00  0.0000000000e+00  0.0000000000e+00  0.0000000000e+00]
 [ 1.7517279781e-02 -1.6351339023e-04  0.0000000000e+00  0.0000000000e+00  0.0000000000e+00  0.0000000000e+00  0.0000000000e+00  0.0000000000e+00]]
X(g) int
[[ 2.0000000000e+00  1.1895091462e-16  2.6196795053e-01  5.0708660871e-03 -2.8904004322e-03 -5.5598459003e-01 -1.2648733204e-02 -4.0478826193e-01]
 [-6.4521910175e-17  2.0000000000e+00 -6.8767553011e-01 -1.3311210465e-02  7.5874077171e-03 -2.1180067808e-01 -4.8184973422e-03 -1.5420288600e-01]
 [ 2.6196795053e-01  6.8767553011e-01  0.0000000000e+00  0.0000000000e+00  0.0000000000e+00  0.0000000000e+00  0.0000000000e+00  0.0000000000e+00]
 [ 5.0708660871e-03  1.3311210465e-02  0.0000000000e+00  0.0000000000e+00  0.0000000000e+00  0.0000000000e+00  0.0000000000e+00  0.0000000000e+00]
 [-2.8904004322e-03 -7.5874077171e-03  0.0000000000e+00  0.0000000000e+00  0.0000000000e+00  0.0000000000e+00  0.0000000000e+00  0.0000000000e+00]
 [ 5.5598459003e-01 -2.1180067808e-01  0.0000000000e+00  0.0000000000e+00  0.0000000000e+00  0.0000000000e+00  0.0000000000e+00  0.0000000000e+00]
 [ 1.2648733204e-02 -4.8184973422e-03  0.0000000000e+00  0.0000000000e+00  0.0000000000e+00  0.0000000000e+00  0.0000000000e+00  0.0000000000e+00]
 [ 4.0478826193e-01 -1.5420288600e-01  0.0000000000e+00  0.0000000000e+00  0.0000000000e+00  0.0000000000e+00  0.0000000000e+00  0.0000000000e+00]]
Feff
 [[ 1.2080623191e-16  1.1489009747e-17  6.9745095147e-03  1.3369951149e-03 -1.6718939936e-02 -2.0379138149e-02 -9.8961286751e-03 -3.7401046780e-03]
 [ 2.0559518554e-18 -1.9489849285e-16 -1.9076241644e-02  1.2548314999e-02  2.4223568882e-03  8.4811267054e-04 -1.2684482228e-02 -1.2974548432e-02]
 [ 6.9745095147e-03  1.9076241644e-02  0.0000000000e+00  0.0000000000e+00  0.0000000000e+00  0.0000000000e+00  0.0000000000e+00  0.0000000000e+00]
 [ 1.3369951149e-03 -1.2548314999e-02  0.0000000000e+00  0.0000000000e+00  0.0000000000e+00  0.0000000000e+00  0.0000000000e+00  0.0000000000e+00]
 [-1.6718939936e-02 -2.4223568882e-03  0.0000000000e+00  0.0000000000e+00  0.0000000000e+00  0.0000000000e+00  0.0000000000e+00  0.0000000000e+00]
 [ 2.0379138149e-02  8.4811267054e-04  0.0000000000e+00  0.0000000000e+00  0.0000000000e+00  0.0000000000e+00  0.0000000000e+00  0.0000000000e+00]
 [ 9.8961286751e-03 -1.2684482228e-02  0.0000000000e+00  0.0000000000e+00  0.0000000000e+00  0.0000000000e+00  0.0000000000e+00  0.0000000000e+00]
 [ 3.7401046780e-03 -1.2974548432e-02  0.0000000000e+00  0.0000000000e+00  0.0000000000e+00  0.0000000000e+00  0.0000000000e+00  0.0000000000e+00]]
Feff (ortho)
 [[ 8.6278257568e-03  3.3233758841e-03  8.1415613343e-03  9.4477447108e-03 -8.3266726847e-17  1.2576745201e-17  5.2041704279e-18  9.1072982489e-18]
 [ 3.3233758841e-03 -9.3489461087e-03 -6.8895930671e-03 -5.4956437710e-03 -5.7245874707e-17 -9.3675067703e-17  8.2399365109e-18  1.0299920639e-17]
 [ 8.1415613343e-03 -6.8895930671e-03 -1.7737945502e-03  2.9901674992e-04  9.5409791179e-18 -8.6736173799e-19 -7.5894152074e-19 -9.7578195524e-19]
 [ 9.4477447108e-03 -5.4956437710e-03  2.9901674992e-04  2.4949149021e-03 -2.8622937354e-17 -1.0408340856e-17  2.6020852140e-18  3.6862873865e-18]
 [-8.3266726847e-17 -5.7245874707e-17  9.5409791179e-18 -2.8622937354e-17  8.6278257568e-03 -3.3233758841e-03  8.1415613343e-03 -9.4477447108e-03]
 [ 1.2576745201e-17 -9.3675067703e-17 -8.6736173799e-19 -1.0408340856e-17 -3.3233758841e-03 -9.3489461087e-03  6.8895930671e-03 -5.4956437710e-03]
 [ 5.2041704279e-18  8.2399365109e-18 -7.5894152074e-19  2.6020852140e-18  8.1415613343e-03  6.8895930671e-03 -1.7737945502e-03 -2.9901674992e-04]
 [ 9.1072982489e-18  1.0299920639e-17 -9.7578195524e-19  3.6862873865e-18 -9.4477447108e-03 -5.4956437710e-03 -2.9901674992e-04  2.4949149021e-03]]
Hsp + Hph =  -1.2740792834813113
Feff (mod,ortho)
[[-0.230260089   0.3297362552  0.224506892   0.0340313574  0.            0.            0.            0.          ]
 [ 0.3297362552  0.0017195429  0.0711713465  0.3341342057  0.            0.            0.            0.          ]
 [ 0.224506892   0.0711713465  1.1202422144  0.0509515966  0.            0.            0.            0.          ]
 [ 0.0340313574  0.3341342057  0.0509515966  1.1151074145  0.            0.            0.            0.          ]
 [ 0.            0.            0.            0.           -0.230260089  -0.3297362552  0.224506892  -0.0340313574]
 [ 0.            0.            0.            0.           -0.3297362552  0.0017195429 -0.0711713465  0.3341342057]
 [ 0.            0.            0.            0.            0.224506892  -0.0711713465  1.1202422144 -0.0509515966]
 [ 0.            0.            0.            0.           -0.0340313574  0.3341342057 -0.0509515966  1.1151074145]]
e_a, e_b
 [-0.4945369802  0.1202092691  1.0992019382  1.2819348557] 
 [-0.4945369802  0.1202092691  1.0992019382  1.2819348557]
v_a, v_b
 [[ 0.795919355  -0.5758525709  0.0931817983  0.1619362511]
 [-0.5890938405 -0.7547801787 -0.1018740492  0.2699944574]
 [-0.0881099707  0.1695189468  0.7916382962  0.580352279 ]
 [ 0.1082472195  0.2645071361 -0.5951870618  0.7510465204]] 
 [[ 0.795919355   0.5758525709 -0.0931817983  0.1619362511]
 [ 0.5890938405 -0.7547801787 -0.1018740492 -0.2699944574]
 [-0.0881099707 -0.1695189468 -0.7916382962  0.580352279 ]
 [-0.1082472195  0.2645071361 -0.5951870618 -0.7510465204]]
P_a, P_b
 [[ 0.6334876196 -0.4688711895 -0.0701284311  0.0861560571]
 [-0.4688711895  0.3470315529  0.051905041  -0.0637677703]
 [-0.0701284311  0.051905041   0.0077633669 -0.0095376593]
 [ 0.0861560571 -0.0637677703 -0.0095376593  0.0117174605]] 
 [[ 0.6334876196  0.4688711895 -0.0701284311 -0.0861560571]
 [ 0.4688711895  0.3470315529 -0.051905041  -0.0637677703]
 [-0.0701284311 -0.051905041   0.0077633669  0.0095376593]
 [-0.0861560571 -0.0637677703  0.0095376593  0.0117174605]]
time for xg, H, S2, Yg, Feff: 0.024
**** Start Cycle 2 ****
dm (ortho)
[[[ 0.6334876196 -0.4688711895 -0.0701284311  0.0861560571]
  [-0.4688711895  0.3470315529  0.051905041  -0.0637677703]
  [-0.0701284311  0.051905041   0.0077633669 -0.0095376593]
  [ 0.0861560571 -0.0637677703 -0.0095376593  0.0117174605]]

 [[ 0.6334876196  0.4688711895 -0.0701284311 -0.0861560571]
  [ 0.4688711895  0.3470315529 -0.051905041  -0.0637677703]
  [-0.0701284311 -0.051905041   0.0077633669  0.0095376593]
  [-0.0861560571 -0.0637677703  0.0095376593  0.0117174605]]]
Fock (ortho)
 (array([[-0.2363084797,  0.3284562933,  0.2173272461,  0.0261900245],
       [ 0.3284562933,  0.0087230032,  0.0778262416,  0.3390103635],
       [ 0.2173272461,  0.0778262416,  1.1216796431,  0.0509166711],
       [ 0.0261900245,  0.3390103635,  0.0509166711,  1.112701148 ]]), array([[-0.2363084797, -0.3284562933,  0.2173272461, -0.0261900245],
       [-0.3284562933,  0.0087230032, -0.0778262416,  0.3390103635],
       [ 0.2173272461, -0.0778262416,  1.1216796431, -0.0509166711],
       [-0.0261900245,  0.3390103635, -0.0509166711,  1.112701148 ]]))
E(UHF) =    -1.261271
NO eigenvalue
[-1.0000000000e+00 -6.0201709703e-17  2.9988740925e-18  3.2194990230e-18] 
 [-1.0000000000e+00 -5.5038124079e-18  1.8320017191e-18  5.6449143373e-18]
NO vec
[[ 0.795919355   0.           -0.5825092871  0.1594854713 -0.0419487213  0.            0.            0.          ]
 [-0.5890938405  0.           -0.7847923264  0.1142607256  0.1549643122  0.            0.            0.          ]
 [-0.0881099707  0.            0.1580187672  0.9542020263 -0.2382544758  0.            0.            0.          ]
 [ 0.1082472195  0.            0.140762225   0.2258480993  0.9578419345  0.            0.            0.          ]
 [ 0.            0.795919355   0.            0.            0.           -0.4278242013  0.0862127304 -0.419578596 ]
 [ 0.            0.5890938405  0.            0.            0.            0.4569935791  0.0596130105  0.6637556815]
 [ 0.           -0.0881099707  0.            0.            0.           -0.7794456155 -0.0432749049  0.6187313214]
 [ 0.           -0.1082472195  0.            0.            0.           -0.0242456983  0.9935496649  0.0235318695]]
dm(NO)
[[ 1.0000000000e+00  0.0000000000e+00 -1.1700465772e-16  4.5945423795e-17  1.9228548311e-17  0.0000000000e+00  0.0000000000e+00  0.0000000000e+00]
 [ 0.0000000000e+00  1.0000000000e+00  0.0000000000e+00  0.0000000000e+00  0.0000000000e+00 -1.7404758631e-17  3.7798385899e-18 -2.0890417942e-17]
 [ 1.1939905430e-17  0.0000000000e+00  1.2577967737e-17  1.0186866169e-18 -4.2090122595e-18  0.0000000000e+00  0.0000000000e+00  0.0000000000e+00]
 [ 5.0982967231e-17  0.0000000000e+00  3.2688851813e-18 -5.8741848505e-19 -4.2229052174e-20  0.0000000000e+00  0.0000000000e+00  0.0000000000e+00]
 [-8.6219815765e-18  0.0000000000e+00 -3.3863936674e-18 -2.0786075699e-19  1.5848248537e-19  0.0000000000e+00  0.0000000000e+00  0.0000000000e+00]
 [ 0.0000000000e+00 -7.3358482933e-17  0.0000000000e+00  0.0000000000e+00  0.0000000000e+00  9.5589829382e-18 -4.4304196851e-18  6.8928376033e-18]
 [ 0.0000000000e+00  1.3669539346e-17  0.0000000000e+00  0.0000000000e+00  0.0000000000e+00 -4.7524200205e-18 -1.9533172869e-18 -6.9805474248e-18]
 [ 0.0000000000e+00 -8.0666480772e-17  0.0000000000e+00  0.0000000000e+00  0.0000000000e+00  8.8724728354e-19  5.4375166514e-18 -9.9892344586e-18]]
D(g) (NO)
 [[ 9.9951368521e-01  8.8093205689e-03  3.7521948431e-16 -4.0592875911e-17  2.6156911429e-18 -1.6953481825e-02  4.5172839710e-03 -2.4227309908e-02]
 [-8.8093205689e-03  9.9951368521e-01  2.9783306211e-02 -2.6732038557e-03  7.7304471317e-04 -1.0953171658e-16  1.7992766728e-17 -1.5032818329e-16]
 [ 4.8401812663e-16 -2.9783306211e-02  9.9951368521e-01 -4.6173896741e-17 -1.4895043179e-17 -7.3596571814e-03  1.1229845425e-03 -5.4701094832e-03]
 [-4.0281336730e-17  2.6732038557e-03 -5.1687549753e-17  9.9951368521e-01  6.8414533991e-17 -2.3862638042e-02  6.3507555980e-03  1.8854428257e-02]
 [-2.0884752819e-18 -7.7304471317e-04  1.1069771462e-17  5.5843011664e-17  9.9951368521e-01  7.8346972241e-03  3.0172736524e-02 -1.3771964933e-04]
 [ 1.6953481825e-02 -9.1503417538e-17  7.3596571814e-03  2.3862638042e-02 -7.8346972241e-03  9.9951368521e-01 -7.4543294276e-18 -4.1511334398e-17]
 [-4.5172839710e-03  1.3877787808e-17 -1.1229845425e-03 -6.3507555980e-03 -3.0172736524e-02 -6.9388939039e-18  9.9951368521e-01 -5.5511151231e-17]
 [ 2.4227309908e-02 -1.1102230246e-16  5.4701094832e-03 -1.8854428257e-02  1.3771964933e-04 -1.1102230246e-16 -5.5511151231e-17  9.9951368521e-01]]
N(g) (NO)
 [[ 1.00040884   -0.0088172101]
 [ 0.0088172101  1.00040884  ]]
P(g) (NO)
 [[ 1.0000000000e+00 -3.0497309518e-18 -1.1700465772e-16  4.5945423795e-17  1.9228548311e-17  2.2788140366e-35 -6.0185310762e-36  4.8148248610e-35]
 [ 3.1500860897e-19  1.0000000000e+00  1.0994256533e-34  6.1623130838e-36 -1.3100639222e-35 -1.7404758631e-17  3.7798385899e-18 -2.0890417942e-17]
 [-2.6260566867e-04 -2.9795482818e-02  3.0726086378e-20 -1.2065528738e-20 -5.0495257867e-21  5.1858318673e-19 -1.1262211576e-19  6.2244008884e-19]
 [ 2.3570200065e-05  2.6742967683e-03 -2.7578231910e-21  1.0829428309e-21  4.5322073065e-22 -4.6545489759e-20  1.0108410126e-20 -5.5867177190e-20]
 [-6.8160976613e-06 -7.7336076476e-04  7.9751517386e-22 -3.1316849568e-22 -1.3106366317e-22  1.3460157445e-20 -2.9231788625e-21  1.6155829596e-20]
 [ 1.6960413086e-02 -1.4948241136e-04 -1.9844473280e-18  7.7925336698e-19  3.2612412240e-19  2.6017052893e-21 -5.6501938698e-22  3.1227500483e-21]
 [-4.5191308173e-03  3.9829841904e-05  5.2875935448e-19 -2.0763338059e-19 -8.6896325244e-20 -6.9322878463e-22  1.5055037346e-22 -8.3206204392e-22]
 [ 2.4237215001e-02 -2.1361728189e-04 -2.8358670454e-18  1.1135891149e-18  4.6604645958e-19  3.7179572306e-21 -8.0743884554e-22  4.4625542982e-21]]
time for NO, Ng: 0.013
Pg_ortho
 [[ 6.3361259114e-01 -4.6896368627e-01 -7.0142265665e-02  8.6173053614e-02  1.4179381652e-02  1.0494764753e-02 -1.5696878009e-03 -1.9284348708e-03]
 [-4.6870585495e-01  3.4690918171e-01  5.1886738137e-02 -6.3745284315e-02  1.8759015357e-02  1.3884346863e-02 -2.0766630227e-03 -2.5512776398e-03]
 [-7.0142265665e-02  5.1915280614e-02  7.7648984591e-03 -9.5395408871e-03 -1.5696878009e-03 -1.1617928490e-03  1.7376778852e-04  2.1348185456e-04]
 [ 8.6125676573e-02 -6.3745284315e-02 -9.5342961476e-03  1.1713328694e-02 -3.4470081233e-03 -2.5512776398e-03  3.8159115351e-04  4.6880257742e-04]
 [-1.4179381652e-02  1.0494764753e-02  1.5696878009e-03 -1.9284348708e-03  6.3361259114e-01  4.6896368627e-01 -7.0142265665e-02 -8.6173053614e-02]
 [ 1.8759015357e-02 -1.3884346863e-02 -2.0766630227e-03  2.5512776398e-03  4.6870585495e-01  3.4690918171e-01 -5.1886738137e-02 -6.3745284315e-02]
 [ 1.5696878009e-03 -1.1617928490e-03 -1.7376778852e-04  2.1348185456e-04 -7.0142265665e-02 -5.1915280614e-02  7.7648984591e-03  9.5395408871e-03]
 [-3.4470081233e-03  2.5512776398e-03  3.8159115351e-04 -4.6880257742e-04 -8.6125676573e-02 -6.3745284315e-02  9.5342961476e-03  1.1713328694e-02]]
G(g) (NO)
 [[ 2.7122539681e-01 -1.4540151494e-03 -4.7839352108e-02  7.0610403435e-03 -1.2457804071e-02  4.6307714804e-05 -2.6878297749e-04 -5.5467977475e-04]
 [ 1.4540151494e-03  2.7122539681e-01  4.1394635551e-04  2.1556602232e-04 -4.0526294025e-04 -3.1358120405e-02  1.7242358698e-02 -3.4828553434e-02]
 [-4.7772083538e-02  1.8438734418e-02  8.6293604674e-01 -1.6284822480e-01 -9.8852055051e-02 -2.0916639046e-03  2.7218700643e-03  4.0143302304e-03]
 [ 7.0553237722e-03 -6.5593739393e-03 -1.6284446658e-01  8.9740818197e-01  5.7271728727e-02  1.9911681698e-03 -2.6847698529e-03 -3.3349921961e-03]
 [-1.2462957272e-02 -1.9350715852e-03 -9.8847913025e-02  5.7271306146e-02  7.4825423709e-01  1.0291196931e-03 -1.3001726487e-03 -1.1833621226e-03]
 [-1.4330678074e-02 -3.1321181713e-02 -2.2184986362e-03 -3.3710342545e-03  4.8589194570e-03  9.9166553284e-01  1.1728223991e-01  9.2100638027e-02]
 [-7.7549438998e-04  1.7238656138e-02 -3.8788366377e-04 -1.2355746824e-03  1.9960129710e-03  1.1727908533e-01  7.4813234825e-01  7.2085246436e-02]
 [-1.3445708975e-02 -3.4771930830e-02 -1.1598726118e-03 -1.6371610030e-03  2.1821556608e-03  9.2103088979e-02  7.2089183522e-02  7.6880058471e-01]]
time for Gg: 0.022
C(NO)
[[ 1.0000000000e+00  0.0000000000e+00  2.6410201690e-16  6.4709517152e-17  2.8961384438e-17  0.0000000000e+00  0.0000000000e+00  0.0000000000e+00]
 [ 0.0000000000e+00  1.0000000000e+00  0.0000000000e+00  0.0000000000e+00  0.0000000000e+00  1.2342031632e-16  2.7755575616e-17  1.3877787808e-17]
 [ 1.7428794147e-17  0.0000000000e+00  9.9180495099e-01  6.6984561709e-02 -1.0879341750e-01  0.0000000000e+00  0.0000000000e+00  0.0000000000e+00]
 [ 6.1163911413e-17  0.0000000000e+00  4.3411906908e-02  6.2418193991e-01  7.8007199170e-01  0.0000000000e+00  0.0000000000e+00  0.0000000000e+00]
 [-6.1867845553e-18  0.0000000000e+00  1.2015966685e-01 -7.7840219321e-01  6.1615881076e-01  0.0000000000e+00  0.0000000000e+00  0.0000000000e+00]
 [ 0.0000000000e+00 -6.2073888137e-17  0.0000000000e+00  0.0000000000e+00  0.0000000000e+00 -4.6557572193e-01  6.2477936702e-01 -6.2680937270e-01]
 [ 0.0000000000e+00  1.7657626398e-17  0.0000000000e+00  0.0000000000e+00  0.0000000000e+00  2.7478799651e-01 -5.7119630988e-01 -7.7345092447e-01]
 [ 0.0000000000e+00 -8.5075186553e-17  0.0000000000e+00  0.0000000000e+00  0.0000000000e+00 -8.4126737969e-01 -5.3233966425e-01  9.4253263811e-02]]
detC 1.0000000000000004
detNg [ 1.0008955903  1.0238235492  1.1389212431  1.4910945175  2.4440372474  4.9558059126  9.7015267768 12.3912430223]
xg [0.9991052111 0.9767308056 0.8780238371 0.6706482978 0.4091590671 0.2017835278 0.1030765593 0.0807021538]
ciS 1.0798073648412423
[[-0.7662420163  0.            0.051555025  -0.0197700305  0.0051780285  0.            0.            0.          ]
 [ 0.           -0.7662420163  0.            0.            0.            0.042949151  -0.0075653692  0.0342596308]
 [ 0.051555025   0.           -0.7236406782  0.10452464   -0.030059755   0.            0.            0.          ]
 [-0.0197700305  0.            0.10452464    0.3111543604  0.0256522738  0.            0.            0.          ]
 [ 0.0051780285  0.           -0.030059755   0.0256522738  0.4056954708  0.            0.            0.          ]
 [ 0.            0.042949151   0.            0.            0.           -0.0321534311  0.096711858  -0.4855279362]
 [ 0.           -0.0075653692  0.            0.            0.            0.096711858   0.386087576   0.1407740013]
 [ 0.            0.0342596308  0.            0.            0.           -0.4855279362  0.1407740013 -0.360724992 ]]
ciH -1.3762062075675559
1.0000000000000002 -1.202109158743303e-17 -0.028706298881736304j 3.48245737802344e-16
0.5399751891292799 0.0004120257977437875 -0.0004120257977437874 0.4600248108707205
1.0000000000000002 -8.635670303847043e-17 -0.147908616965983j 4.0549161250957866e-16
0.5418276249009863 0.010938479486394937 -0.01093847948639494 0.4581723750990141
1.0000000000000002 -2.495833401061631e-16 -0.3553788028677259j 3.7903707950093235e-16
0.5517607263820956 0.06314704676384897 -0.06314704676384898 0.4482392736179047
1.0000000000000004 -4.2717565595928875e-16 -0.6577644796787293j 3.8163916471489756e-16
0.5887203654771199 0.21632705536351468 -0.21632705536351474 0.4112796345228809
1.0000000000000002 -3.629908873481469e-16 -1.0781347992815273j 3.3176586478056436e-16
0.73835738712818 0.5811873227109096 -0.5811873227109098 0.2616426128718204
1.0 -9.246076126956382e-16 -1.54636537258606j -8.890457814381136e-17
1.4800349287992427 1.195622932766612 -1.195622932766612 -0.4800349287992425
1.0000000000000002 -7.268491364342822e-16 -1.401549523915157j -5.603156827405087e-16
4.25571949792237 0.9821705339934013 -0.9821705339934015 -3.2557194979223683
0.9999999999999993 -2.0816681711721685e-16 -0.3553884432685734j -7.147060721024445e-16
6.626927264710524 0.06315047280443004 -0.06315047280443001 -5.6269272647105275
S2 = -0.000000
X(g)
[[ 2.0000000000e+00 -3.4694469520e-18 -2.6260566867e-04  2.3570200065e-05 -6.8160976612e-06 -1.6960413086e-02  4.5191308173e-03 -2.4237215001e-02]
 [ 0.0000000000e+00  2.0000000000e+00  2.9795482818e-02 -2.6742967683e-03  7.7336076476e-04 -1.4948241136e-04  3.9829841904e-05 -2.1361728189e-04]
 [-2.6260566867e-04 -2.9795482818e-02  0.0000000000e+00  0.0000000000e+00  0.0000000000e+00  0.0000000000e+00  0.0000000000e+00  0.0000000000e+00]
 [ 2.3570200065e-05  2.6742967683e-03  0.0000000000e+00  0.0000000000e+00  0.0000000000e+00  0.0000000000e+00  0.0000000000e+00  0.0000000000e+00]
 [-6.8160976613e-06 -7.7336076476e-04  0.0000000000e+00  0.0000000000e+00  0.0000000000e+00  0.0000000000e+00  0.0000000000e+00  0.0000000000e+00]
 [ 1.6960413086e-02 -1.4948241136e-04  0.0000000000e+00  0.0000000000e+00  0.0000000000e+00  0.0000000000e+00  0.0000000000e+00  0.0000000000e+00]
 [-4.5191308173e-03  3.9829841904e-05  0.0000000000e+00  0.0000000000e+00  0.0000000000e+00  0.0000000000e+00  0.0000000000e+00  0.0000000000e+00]
 [ 2.4237215001e-02 -2.1361728189e-04  0.0000000000e+00  0.0000000000e+00  0.0000000000e+00  0.0000000000e+00  0.0000000000e+00  0.0000000000e+00]]
X(g) int
[[ 2.0000000000e+00 -9.9361437269e-17 -2.4987751502e-01  2.2427783264e-02 -6.4857303132e-03 -3.9544088781e-01  1.0536589489e-01 -5.6510332440e-01]
 [-4.3246094682e-18  2.0000000000e+00  6.9469724106e-01 -6.2352625667e-02  1.8031310078e-02 -1.4223719419e-01  3.7899341506e-02 -2.0326353134e-01]
 [-2.4987751502e-01 -6.9469724106e-01  0.0000000000e+00  0.0000000000e+00  0.0000000000e+00  0.0000000000e+00  0.0000000000e+00  0.0000000000e+00]
 [ 2.2427783264e-02  6.2352625667e-02  0.0000000000e+00  0.0000000000e+00  0.0000000000e+00  0.0000000000e+00  0.0000000000e+00  0.0000000000e+00]
 [-6.4857303132e-03 -1.8031310078e-02  0.0000000000e+00  0.0000000000e+00  0.0000000000e+00  0.0000000000e+00  0.0000000000e+00  0.0000000000e+00]
 [ 3.9544088781e-01 -1.4223719419e-01  0.0000000000e+00  0.0000000000e+00  0.0000000000e+00  0.0000000000e+00  0.0000000000e+00  0.0000000000e+00]
 [-1.0536589489e-01  3.7899341506e-02  0.0000000000e+00  0.0000000000e+00  0.0000000000e+00  0.0000000000e+00  0.0000000000e+00  0.0000000000e+00]
 [ 5.6510332440e-01 -2.0326353134e-01  0.0000000000e+00  0.0000000000e+00  0.0000000000e+00  0.0000000000e+00  0.0000000000e+00  0.0000000000e+00]]
Feff
 [[ 5.4286621773e-16  3.6438367027e-17  1.1993316922e-03 -1.0913949694e-03  3.7922486716e-03 -1.4222359806e-03 -1.3768212389e-02 -2.6326155869e-02]
 [-1.4308059424e-17  2.8151623443e-16  2.1261835281e-02  6.8608676599e-03 -1.9634555402e-02  2.1144147236e-03 -3.5162517072e-03 -4.1942077075e-04]
 [ 1.1993316922e-03 -2.1261835281e-02  0.0000000000e+00  0.0000000000e+00  0.0000000000e+00  0.0000000000e+00  0.0000000000e+00  0.0000000000e+00]
 [-1.0913949694e-03 -6.8608676599e-03  0.0000000000e+00  0.0000000000e+00  0.0000000000e+00  0.0000000000e+00  0.0000000000e+00  0.0000000000e+00]
 [ 3.7922486716e-03  1.9634555402e-02  0.0000000000e+00  0.0000000000e+00  0.0000000000e+00  0.0000000000e+00  0.0000000000e+00  0.0000000000e+00]
 [ 1.4222359806e-03  2.1144147236e-03  0.0000000000e+00  0.0000000000e+00  0.0000000000e+00  0.0000000000e+00  0.0000000000e+00  0.0000000000e+00]
 [ 1.3768212389e-02 -3.5162517072e-03  0.0000000000e+00  0.0000000000e+00  0.0000000000e+00  0.0000000000e+00  0.0000000000e+00  0.0000000000e+00]
 [ 2.6326155869e-02 -4.1942077075e-04  0.0000000000e+00  0.0000000000e+00  0.0000000000e+00  0.0000000000e+00  0.0000000000e+00  0.0000000000e+00]]
Feff (ortho)
 [[-1.6424010356e-03  2.2714379696e-04 -1.3062598028e-03  2.7175737173e-03  1.0408340856e-17  4.9439619065e-17  8.3266726847e-17 -4.3368086899e-18]
 [ 2.2714379696e-04  5.6348791389e-04  1.0762439888e-03 -2.1458264018e-03  2.5153490402e-17 -1.3877787808e-17 -6.5485811218e-17 -1.3010426070e-18]
 [-1.3062598028e-03  1.0762439888e-03  3.0933905709e-04 -5.0322378368e-04 -1.2143064332e-17 -1.3877787808e-17 -8.4567769454e-18  1.9515639105e-18]
 [ 2.7175737173e-03 -2.1458264018e-03 -5.0322378368e-04  7.6957406457e-04 -3.5561831258e-17 -2.0383000843e-17  1.5395670849e-17  4.5536491244e-18]
 [ 1.0408340856e-17  2.5153490402e-17 -1.2143064332e-17 -3.5561831258e-17 -1.6424010356e-03 -2.2714379696e-04 -1.3062598028e-03 -2.7175737173e-03]
 [ 4.9439619065e-17 -1.3877787808e-17 -1.3877787808e-17 -2.0383000843e-17 -2.2714379696e-04  5.6348791389e-04 -1.0762439888e-03 -2.1458264018e-03]
 [ 8.3266726847e-17 -6.5485811218e-17 -8.4567769454e-18  1.5395670849e-17 -1.3062598028e-03 -1.0762439888e-03  3.0933905709e-04  5.0322378368e-04]
 [-4.3368086899e-18 -1.3010426070e-18  1.9515639105e-18  4.5536491244e-18 -2.7175737173e-03 -2.1458264018e-03  5.0322378368e-04  7.6957406457e-04]]
Hsp + Hph =  -1.2744923329633813
Feff (mod,ortho)
[[-0.2317677595  0.3307672866  0.2234855981  0.0367441734  0.            0.            0.            0.          ]
 [ 0.3307672866  0.0028146169  0.0726403054  0.3319701649  0.            0.            0.            0.          ]
 [ 0.2234855981  0.0726403054  1.1202605113  0.0506542212  0.            0.            0.            0.          ]
 [ 0.0367441734  0.3319701649  0.0506542212  1.115487946   0.            0.            0.            0.          ]
 [ 0.            0.            0.            0.           -0.2317677595 -0.3307672866  0.2234855981 -0.0367441734]
 [ 0.            0.            0.            0.           -0.3307672866  0.0028146169 -0.0726403054  0.3319701649]
 [ 0.            0.            0.            0.            0.2234855981 -0.0726403054  1.1202605113 -0.0506542212]
 [ 0.            0.            0.            0.           -0.0367441734  0.3319701649 -0.0506542212  1.115487946 ]]
e_a, e_b
 [-0.4950425307  0.1210947738  1.0986639899  1.2820790816] 
 [-0.4950425307  0.1210947738  1.0986639899  1.2820790816]
v_a, v_b
 [[ 0.7974916542 -0.5736704688  0.0914123222  0.162951042 ]
 [-0.5875663524 -0.7561937629 -0.1006147197  0.2698396797]
 [-0.0872276327  0.1698558389  0.7911452607  0.5810589562]
 [ 0.1056606985  0.2649946796 -0.5963301452  0.7503359212]] 
 [[ 0.7974916542  0.5736704688 -0.0914123222  0.162951042 ]
 [ 0.5875663524 -0.7561937629 -0.1006147197 -0.2698396797]
 [-0.0872276327 -0.1698558389 -0.7911452607  0.5810589562]
 [-0.1056606985  0.2649946796 -0.5963301452 -0.7503359212]]
P_a, P_b
 [[ 0.6359929385 -0.4685792623 -0.0695633091  0.0842635252]
 [-0.4685792623  0.3452342184  0.051252022  -0.0620826712]
 [-0.0695633091  0.051252022   0.0076086599 -0.0092165326]
 [ 0.0842635252 -0.0620826712 -0.0092165326  0.0111641832]] 
 [[ 0.6359929385  0.4685792623 -0.0695633091 -0.0842635252]
 [ 0.4685792623  0.3452342184 -0.051252022  -0.0620826712]
 [-0.0695633091 -0.051252022   0.0076086599  0.0092165326]
 [-0.0842635252 -0.0620826712  0.0092165326  0.0111641832]]
time for xg, H, S2, Yg, Feff: 0.023
 E(SUHF) =     -1.00990373, delta E = -0.000413049, MaxD(dm) = 0.00250532, RMSD(dm) = 0.00700683
**** Start Cycle 3 ****
dm (ortho)
[[[ 0.6359929385 -0.4685792623 -0.0695633091  0.0842635252]
  [-0.4685792623  0.3452342184  0.051252022  -0.0620826712]
  [-0.0695633091  0.051252022   0.0076086599 -0.0092165326]
  [ 0.0842635252 -0.0620826712 -0.0092165326  0.0111641832]]

 [[ 0.6359929385  0.4685792623 -0.0695633091 -0.0842635252]
  [ 0.4685792623  0.3452342184 -0.051252022  -0.0620826712]
  [-0.0695633091 -0.051252022   0.0076086599  0.0092165326]
  [-0.0842635252 -0.0620826712  0.0092165326  0.0111641832]]]
Fock (ortho)
 (array([[-0.2364633079,  0.3286840246,  0.2172449512,  0.027136288 ],
       [ 0.3286840246,  0.009647625 ,  0.0785716251,  0.3387528409],
       [ 0.2172449512,  0.0785716251,  1.1222620821,  0.0510834038],
       [ 0.027136288 ,  0.3387528409,  0.0510834038,  1.1132549717]]), array([[-0.2364633079, -0.3286840246,  0.2172449512, -0.027136288 ],
       [-0.3286840246,  0.009647625 , -0.0785716251,  0.3387528409],
       [ 0.2172449512, -0.0785716251,  1.1222620821, -0.0510834038],
       [-0.027136288 ,  0.3387528409, -0.0510834038,  1.1132549717]]))
E(UHF) =    -1.261249
NO eigenvalue
[-1.0000000000e+00 -1.8976434471e-18  4.1910780000e-20  1.1780194888e-16] 
 [-1.0000000000e+00 -1.6802493040e-16 -2.2833553741e-18 -4.0593339773e-20]
NO vec
[[ 7.9749165417e-01  0.0000000000e+00  1.4353874246e-01  3.7137172216e-03  5.8599479456e-01  0.0000000000e+00  0.0000000000e+00  0.0000000000e+00]
 [-5.8756635236e-01  0.0000000000e+00 -3.5216439783e-02 -1.1400868496e-02  8.0832889602e-01  0.0000000000e+00  0.0000000000e+00  0.0000000000e+00]
 [-8.7227632698e-02  0.0000000000e+00  5.7353364031e-01  8.1407921316e-01 -2.6935816737e-02  0.0000000000e+00  0.0000000000e+00  0.0000000000e+00]
 [ 1.0566069847e-01  0.0000000000e+00 -8.0573916078e-01  5.8063005710e-01  4.9889461673e-02  0.0000000000e+00  0.0000000000e+00  0.0000000000e+00]
 [ 0.0000000000e+00  7.9749165417e-01  0.0000000000e+00  0.0000000000e+00  0.0000000000e+00 -6.0060922116e-01  5.7229927401e-02 -6.0033514925e-04]
 [ 0.0000000000e+00  5.8756635236e-01  0.0000000000e+00  0.0000000000e+00  0.0000000000e+00  7.9459805412e-01  1.5159292870e-01  1.9982440569e-02]
 [ 0.0000000000e+00 -8.7227632698e-02  0.0000000000e+00  0.0000000000e+00  0.0000000000e+00 -4.9281786648e-02  6.9079818214e-01 -7.1607298311e-01]
 [ 0.0000000000e+00 -1.0566069847e-01  0.0000000000e+00  0.0000000000e+00  0.0000000000e+00 -7.3849856822e-02  7.0465749902e-01  6.9773908055e-01]]
dm(NO)
[[ 1.0000000000e+00  0.0000000000e+00  1.2615018081e-17 -3.7113417933e-18  4.5389232031e-17  0.0000000000e+00  0.0000000000e+00  0.0000000000e+00]
 [ 0.0000000000e+00  1.0000000000e+00  0.0000000000e+00  0.0000000000e+00  0.0000000000e+00  1.9522162277e-16 -2.2840938871e-17 -4.4374704097e-19]
 [ 1.6948722603e-17  0.0000000000e+00  9.5774543549e-19 -9.8718723613e-19 -7.0766204093e-19  0.0000000000e+00  0.0000000000e+00  0.0000000000e+00]
 [ 1.0151100742e-18  0.0000000000e+00  1.4585554668e-20 -2.0976187541e-19  3.2962053339e-18  0.0000000000e+00  0.0000000000e+00  0.0000000000e+00]
 [ 1.4643920758e-16  0.0000000000e+00  6.6816943967e-18  2.0499045545e-18  4.2848118348e-17  0.0000000000e+00  0.0000000000e+00  0.0000000000e+00]
 [ 0.0000000000e+00  1.8221335000e-16  0.0000000000e+00  0.0000000000e+00  0.0000000000e+00  2.3462750837e-17 -2.5411343163e-18  2.8082965637e-18]
 [ 0.0000000000e+00 -2.2121294607e-17  0.0000000000e+00  0.0000000000e+00  0.0000000000e+00  7.1021396855e-18  1.9255124290e-18  4.2961724149e-19]
 [ 0.0000000000e+00  4.6884446713e-18  0.0000000000e+00  0.0000000000e+00  0.0000000000e+00  6.1757318358e-19  8.9989462414e-20  6.8446829724e-19]]
D(g) (NO)
 [[ 9.9951368521e-01  8.9559198482e-03 -8.8698126080e-18 -6.3707281338e-21  8.8923082487e-17 -2.9604231137e-02 -9.1156657303e-04  3.8656331427e-03]
 [-8.9559198482e-03  9.9951368521e-01 -4.0190781841e-03  4.2439451486e-03 -2.9291987207e-02  8.2110981167e-17 -3.9732451008e-17  4.3735345086e-18]
 [-8.4557832674e-18  4.0190781841e-03  9.9951368521e-01  7.4480658345e-17 -3.5214777816e-17 -2.5867928493e-03 -5.2605463957e-03 -3.0362398451e-02]
 [ 2.1834461694e-19 -4.2439451486e-03  1.4980702957e-17  9.9951368521e-01  2.9004222647e-19 -2.9402133909e-03  3.0247534490e-02 -5.5519192003e-03]
 [ 1.3901752818e-16  2.9291987207e-02 -1.9911747103e-17 -9.8399062615e-19  9.9951368521e-01  8.9803241316e-03  5.3828830581e-03  2.1796579260e-03]
 [ 2.9604231137e-02  4.0885513085e-17  2.5867928493e-03  2.9402133909e-03 -8.9803241316e-03  9.9951368521e-01 -3.3597375839e-17  2.0984676866e-17]
 [ 9.1156657303e-04 -2.0816681712e-17  5.2605463957e-03 -3.0247534490e-02 -5.3828830581e-03 -2.7755575616e-17  9.9951368521e-01  1.6653345369e-16]
 [-3.8656331427e-03 -6.9388939039e-18  3.0362398451e-02  5.5519192003e-03 -2.1796579260e-03  1.3877787808e-17  1.1102230246e-16  9.9951368521e-01]]
N(g) (NO)
 [[ 1.0004062322 -0.0089639173]
 [ 0.0089639173  1.0004062322]]
P(g) (NO)
 [[ 1.0000000000e+00 -1.1322997232e-18  1.2615018081e-17 -3.7113417933e-18  4.5389232031e-17 -3.7315663357e-34  4.8148248610e-35  7.5231638453e-37]
 [-3.0776389839e-18  1.0000000000e+00 -5.1975837785e-35  1.2269291771e-35 -1.7446873518e-34  1.9522162277e-16 -2.2840938871e-17 -4.4374704097e-19]
 [ 3.6026684532e-05  4.0207108631e-03  4.5447727678e-22 -1.3370733998e-22  1.6352235435e-21  7.8492969937e-19 -9.1836811044e-20 -1.7841785481e-21]
 [-3.8042373410e-05 -4.2456691759e-03 -4.7990522842e-22  1.4118825035e-22 -1.7267141137e-21 -8.2884642624e-19  9.6975070114e-20  1.8840031338e-21]
 [ 2.6257095137e-04  2.9303886556e-02  3.3123372992e-21 -9.7449054553e-22  1.1917893836e-20  5.7207522868e-18 -6.6932828152e-19 -1.3003512948e-20]
 [ 2.9616257329e-02 -2.6536988014e-04  3.7360962171e-19 -1.0991605359e-19  1.3442591758e-18 -5.1805938634e-20  6.0612972106e-21  1.1775709908e-22]
 [ 9.1193688075e-04 -8.1712073896e-06  1.1504100240e-20 -3.3845094583e-21  4.1392114678e-20 -1.5951963665e-21  1.8663804849e-22  3.6259491003e-24]
 [-3.8672034875e-03  3.4651215869e-05 -4.8784841918e-20  1.4352513926e-20 -1.7552939640e-19  6.7646665927e-21 -7.9146630348e-22 -1.5376374508e-23]]
time for NO, Ng: 0.013
Pg_ortho
 [[ 6.3611965603e-01 -4.6867262372e-01 -6.9577169138e-02  8.4280314177e-02  1.4142147226e-02  1.0419481905e-02 -1.5468325183e-03 -1.8737113372e-03]
 [-4.6841066562e-01  3.4511000180e-01  5.1233581291e-02 -6.2060333600e-02  1.8816008090e-02  1.3863033151e-02 -2.0580476723e-03 -2.4929571951e-03]
 [-6.9577169138e-02  5.1262233609e-02  7.6101758833e-03 -9.2183689325e-03 -1.5468325183e-03 -1.1396567422e-03  1.6918865301e-04  2.0494183663e-04]
 [ 8.4233206858e-02 -6.2060333600e-02 -9.2132164523e-03  1.1160166285e-02 -3.3836392252e-03 -2.4929571951e-03  3.7009395393e-04  4.4830272774e-04]
 [-1.4142147226e-02  1.0419481905e-02  1.5468325183e-03 -1.8737113372e-03  6.3611965603e-01  4.6867262372e-01 -6.9577169138e-02 -8.4280314177e-02]
 [ 1.8816008090e-02 -1.3863033151e-02 -2.0580476723e-03  2.4929571951e-03  4.6841066562e-01  3.4511000180e-01 -5.1233581291e-02 -6.2060333600e-02]
 [ 1.5468325183e-03 -1.1396567422e-03 -1.6918865301e-04  2.0494183663e-04 -6.9577169138e-02 -5.1262233609e-02  7.6101758833e-03  9.2183689325e-03]
 [-3.3836392252e-03  2.4929571951e-03  3.7009395393e-04 -4.4830272774e-04 -8.4233206858e-02 -6.2060333600e-02  9.2132164523e-03  1.1160166285e-02]]
G(g) (NO)
 [[ 2.7182183915e-01 -1.4742329060e-03  1.8070524847e-02 -8.3543972551e-03  4.6614966457e-02 -3.7881419897e-04 -5.0470792883e-04  6.3626027823e-05]
 [ 1.4742329060e-03  2.7182183915e-01  4.2837746756e-04  1.4479533617e-04 -4.4475343516e-04 -4.8831665018e-02  9.7131424867e-03  9.5088524074e-03]
 [ 1.8067934836e-02 -2.1662961292e-03  7.2604303808e-01  3.0795294190e-02 -1.1371337155e-02 -3.9498505501e-04 -2.8724351095e-04  1.6437388845e-04]
 [-8.3468765935e-03 -2.7005655958e-03  3.0794977556e-02  8.3493975301e-01  1.8025192811e-01 -6.2994781737e-04 -3.8164127546e-03  3.4301218847e-04]
 [ 4.6546631780e-02 -1.9370244765e-02 -1.1373850659e-02  1.8025708601e-01  9.4892489764e-01 -1.5854317810e-03 -5.9862390570e-03  9.3681522331e-04]
 [-1.9452171172e-02 -4.8763615467e-02 -5.4132752041e-03 -1.8711162649e-03  2.4183977262e-03  9.3737286919e-01  1.4076917949e-02  1.8826847343e-01]
 [-2.2873234882e-04  9.7215332485e-03 -3.1872131124e-05  8.4496736517e-05 -2.5478610690e-04  1.4075229769e-02  7.3773730412e-01 -1.9553689070e-02]
 [-2.9585459141e-03  9.5032176657e-03 -3.6881576509e-03 -9.5345954447e-04  1.1547198562e-03  1.8826299629e-01 -1.9554104777e-02  8.3479751543e-01]]
time for Gg: 0.022
C(NO)
[[ 1.0000000000e+00  0.0000000000e+00  4.2053991371e-16  6.9086031908e-17  1.0989060706e-18  0.0000000000e+00  0.0000000000e+00  0.0000000000e+00]
 [ 0.0000000000e+00  1.0000000000e+00  0.0000000000e+00  0.0000000000e+00  0.0000000000e+00  1.9280559248e-17  6.9388939039e-17  2.7755575616e-17]
 [ 1.4331409795e-18  0.0000000000e+00 -1.7181203870e-01  9.5089947407e-01 -2.5743118221e-01  0.0000000000e+00  0.0000000000e+00  0.0000000000e+00]
 [ 4.3465189339e-18  0.0000000000e+00  2.9863079936e-01  2.9929427979e-01  9.0622435398e-01  0.0000000000e+00  0.0000000000e+00  0.0000000000e+00]
 [ 1.3628720814e-16  0.0000000000e+00 -9.3877594187e-01 -7.8823374051e-02  3.3539023044e-01  0.0000000000e+00  0.0000000000e+00  0.0000000000e+00]
 [ 0.0000000000e+00  1.9522162277e-16  0.0000000000e+00  0.0000000000e+00  0.0000000000e+00 -9.5662088592e-01  5.7982770889e-02 -2.8550740604e-01]
 [ 0.0000000000e+00 -2.2840938871e-17  0.0000000000e+00  0.0000000000e+00  0.0000000000e+00 -1.2408124460e-02 -9.8721421717e-01 -1.5891547399e-01]
 [ 0.0000000000e+00 -4.4374704097e-19  0.0000000000e+00  0.0000000000e+00  0.0000000000e+00  2.9107132987e-01  1.4847925009e-01 -9.4510919645e-01]]
detC 1.0
detNg [ 1.0008929813  1.0237525614  1.1384609133  1.4889662204  2.4338079216  4.8993954342  9.4618888159 11.9935914692]
xg [0.9991078154 0.9767985328 0.8783788607 0.6716069084 0.4108787678 0.2041068155 0.1056871434 0.0833778608]
ciS 1.0824856762246682
[[-0.7665289097  0.           -0.0136254087 -0.0055084578 -0.0531623972  0.            0.            0.          ]
 [ 0.           -0.7665289097  0.            0.            0.            0.0545267384 -0.0065841861  0.0050713543]
 [-0.0136254087  0.            0.356007099  -0.0233795263 -0.1621311913  0.            0.            0.          ]
 [-0.0055084578  0.           -0.0233795263  0.3278693939  0.1502196624  0.            0.            0.          ]
 [-0.0531623972  0.           -0.1621311913  0.1502196624 -0.6903804465  0.            0.            0.          ]
 [ 0.            0.0545267384  0.            0.            0.           -0.7175991983 -0.01737022    0.1341001198]
 [ 0.           -0.0065841861  0.            0.            0.           -0.01737022    0.3655078823  0.050588141 ]
 [ 0.            0.0050713543  0.            0.            0.            0.1341001198  0.050588141   0.3455873623]]
ciH -1.3796561797791203
0.9999999999999999 -9.120850776034306e-18 -0.028622671757950593j -1.8084492237058214e-16
0.5413165291646332 0.0004096286692816913 -0.00040962866928169125 0.45868347083536676
1.0 -7.058156142880634e-17 -0.14746788881474576j 2.3765711620882257e-16
0.5432253527611085 0.010873389115739113 -0.010873389115739113 0.4567746472388915
1.0 -4.8138576458356397e-17 -0.35420121869801646j 1.6219664500383146e-16
0.5534545641347742 0.06272925166358004 -0.06272925166358004 0.44654543586522555
1.0 -1.8756697583999227e-16 -0.6549138711738536j -1.457167719820518e-16
0.5914362136815469 0.21445608932796145 -0.21445608932796145 0.40856378631845325
0.9999999999999999 -3.0097452308197603e-16 -1.070497467132243j 5.117434254131581e-17
0.7442986933454545 0.5729824135682737 -0.5729824135682737 0.2557013066545452
1.0 -2.888314587501384e-16 -1.5243139341918284j 2.194425197110661e-16
1.489996204870309 1.161766484985685 -1.1617664849856848 -0.4899962048703086
1.0000000000000002 -4.2587461335230614e-16 -1.3629511860964074j 5.0306980803327406e-17
4.192361588776421 0.928817967840802 -0.928817967840802 -3.192361588776421
0.9999999999999996 -1.0690233420707074e-16 -0.3429823549999405j 3.660266534311063e-16
6.432627038028246 0.058818447920652606 -0.05881844792065262 -5.432627038028248
S2 = -0.000000
X(g)
[[ 2.0000000000e+00  1.7347234760e-18  3.6026684532e-05 -3.8042373410e-05  2.6257095137e-04 -2.9616257329e-02 -9.1193688075e-04  3.8672034875e-03]
 [ 0.0000000000e+00  2.0000000000e+00 -4.0207108631e-03  4.2456691759e-03 -2.9303886556e-02 -2.6536988014e-04 -8.1712073896e-06  3.4651215869e-05]
 [ 3.6026684532e-05  4.0207108631e-03  0.0000000000e+00  0.0000000000e+00  0.0000000000e+00  0.0000000000e+00  0.0000000000e+00  0.0000000000e+00]
 [-3.8042373410e-05 -4.2456691759e-03  0.0000000000e+00  0.0000000000e+00  0.0000000000e+00  0.0000000000e+00  0.0000000000e+00  0.0000000000e+00]
 [ 2.6257095137e-04  2.9303886556e-02  0.0000000000e+00  0.0000000000e+00  0.0000000000e+00  0.0000000000e+00  0.0000000000e+00  0.0000000000e+00]
 [ 2.9616257329e-02 -2.6536988014e-04  0.0000000000e+00  0.0000000000e+00  0.0000000000e+00  0.0000000000e+00  0.0000000000e+00  0.0000000000e+00]
 [ 9.1193688075e-04 -8.1712073896e-06  0.0000000000e+00  0.0000000000e+00  0.0000000000e+00  0.0000000000e+00  0.0000000000e+00  0.0000000000e+00]
 [-3.8672034875e-03  3.4651215869e-05  0.0000000000e+00  0.0000000000e+00  0.0000000000e+00  0.0000000000e+00  0.0000000000e+00  0.0000000000e+00]]
X(g) int
[[ 2.0000000000e+00  8.9361713161e-17  3.4195789682e-02 -3.6109040202e-02  2.4922695903e-01 -6.8881180369e-01 -2.1209732232e-02  8.9943012711e-02]
 [-4.8175236062e-17  2.0000000000e+00 -9.3513271138e-02  9.8745327959e-02 -6.8154671704e-01 -2.5188364478e-01 -7.7559423790e-03  3.2890223052e-02]
 [ 3.4195789682e-02  9.3513271138e-02  0.0000000000e+00  0.0000000000e+00  0.0000000000e+00  0.0000000000e+00  0.0000000000e+00  0.0000000000e+00]
 [-3.6109040202e-02 -9.8745327959e-02  0.0000000000e+00  0.0000000000e+00  0.0000000000e+00  0.0000000000e+00  0.0000000000e+00  0.0000000000e+00]
 [ 2.4922695903e-01  6.8154671704e-01  0.0000000000e+00  0.0000000000e+00  0.0000000000e+00  0.0000000000e+00  0.0000000000e+00  0.0000000000e+00]
 [ 6.8881180369e-01 -2.5188364478e-01  0.0000000000e+00  0.0000000000e+00  0.0000000000e+00  0.0000000000e+00  0.0000000000e+00  0.0000000000e+00]
 [ 2.1209732232e-02 -7.7559423790e-03  0.0000000000e+00  0.0000000000e+00  0.0000000000e+00  0.0000000000e+00  0.0000000000e+00  0.0000000000e+00]
 [-8.9943012711e-02  3.2890223052e-02  0.0000000000e+00  0.0000000000e+00  0.0000000000e+00  0.0000000000e+00  0.0000000000e+00  0.0000000000e+00]]
Feff
 [[ 4.3650408727e-17  2.0671034464e-19 -1.5313444938e-03  9.2456158551e-04  5.9159912541e-04 -1.9827797749e-02 -2.3791567435e-02 -2.0428335721e-03]
 [-1.1608223464e-18  3.6682676940e-16  2.0672693171e-02  1.8636242337e-03 -2.3076396499e-02 -3.5279673933e-04 -1.4379223369e-03 -1.1652181869e-03]
 [-1.5313444938e-03 -2.0672693171e-02  0.0000000000e+00  0.0000000000e+00  0.0000000000e+00  0.0000000000e+00  0.0000000000e+00  0.0000000000e+00]
 [ 9.2456158551e-04 -1.8636242337e-03  0.0000000000e+00  0.0000000000e+00  0.0000000000e+00  0.0000000000e+00  0.0000000000e+00  0.0000000000e+00]
 [ 5.9159912541e-04  2.3076396499e-02  0.0000000000e+00  0.0000000000e+00  0.0000000000e+00  0.0000000000e+00  0.0000000000e+00  0.0000000000e+00]
 [ 1.9827797749e-02 -3.5279673933e-04  0.0000000000e+00  0.0000000000e+00  0.0000000000e+00  0.0000000000e+00  0.0000000000e+00  0.0000000000e+00]
 [ 2.3791567435e-02 -1.4379223369e-03  0.0000000000e+00  0.0000000000e+00  0.0000000000e+00  0.0000000000e+00  0.0000000000e+00  0.0000000000e+00]
 [ 2.0428335721e-03 -1.1652181869e-03  0.0000000000e+00  0.0000000000e+00  0.0000000000e+00  0.0000000000e+00  0.0000000000e+00  0.0000000000e+00]]
Feff (ortho)
 [[ 2.0782681206e-04  3.3940707707e-04 -1.2424787554e-04  1.4494177078e-03  7.9797279895e-17 -1.3617579286e-16 -4.2500725161e-17  7.7195194681e-17]
 [ 3.3940707707e-04 -6.1294259576e-04  3.7670471892e-05 -1.0026290564e-03 -9.6277152917e-17  7.4593109467e-17  3.5561831258e-17 -5.2041704279e-17]
 [-1.2424787554e-04  3.7670471892e-05  2.4693518209e-05 -1.7198369163e-04 -2.3418766926e-17  3.9031278209e-18  6.5052130349e-18 -6.7220534694e-18]
 [ 1.4494177078e-03 -1.0026290564e-03 -1.7198369163e-04  3.8042226550e-04 -1.0408340856e-17 -3.1658703437e-17 -3.4694469520e-18  1.2576745201e-17]
 [ 7.9797279895e-17 -9.6277152917e-17 -2.3418766926e-17 -1.0408340856e-17  2.0782681206e-04 -3.3940707707e-04 -1.2424787554e-04 -1.4494177078e-03]
 [-1.3617579286e-16  7.4593109467e-17  3.9031278209e-18 -3.1658703437e-17 -3.3940707707e-04 -6.1294259576e-04 -3.7670471892e-05 -1.0026290564e-03]
 [-4.2500725161e-17  3.5561831258e-17  6.5052130349e-18 -3.4694469520e-18 -1.2424787554e-04 -3.7670471892e-05  2.4693518209e-05  1.7198369163e-04]
 [ 7.7195194681e-17 -5.2041704279e-17 -6.7220534694e-18  1.2576745201e-17 -1.4494177078e-03 -1.0026290564e-03  1.7198369163e-04  3.8042226550e-04]]
Hsp + Hph =  -1.274526037693985
Feff (mod,ortho)
[[-0.2310743099  0.331331587   0.223666307   0.0384628719  0.            0.            0.            0.          ]
 [ 0.331331587   0.0028210522  0.0731167148  0.3312846039  0.            0.            0.            0.          ]
 [ 0.223666307   0.0731167148  1.1207929077  0.0507733992  0.            0.            0.            0.          ]
 [ 0.0384628719  0.3312846039  0.0507733992  1.116161721   0.            0.            0.            0.          ]
 [ 0.            0.            0.            0.           -0.2310743099 -0.331331587   0.223666307  -0.0384628719]
 [ 0.            0.            0.            0.           -0.331331587   0.0028210522 -0.0731167148  0.3312846039]
 [ 0.            0.            0.            0.            0.223666307  -0.0731167148  1.1207929077 -0.0507733992]
 [ 0.            0.            0.            0.           -0.0384628719  0.3312846039 -0.0507733992  1.116161721 ]]
e_a, e_b
 [-0.494722375   0.1214839754  1.0988012198  1.2831385508] 
 [-0.494722375   0.1214839754  1.0988012198  1.2831385508]
v_a, v_b
 [[ 0.7974156778 -0.5736012799  0.0906726958  0.1639764333]
 [-0.5878799269 -0.7560561556 -0.100388488   0.2696264688]
 [-0.0870820046  0.1702230082  0.7905448732  0.5817900441]
 [ 0.1046047456  0.2653013169 -0.5972766672  0.7496223324]] 
 [[ 0.7974156778  0.5736012799 -0.0906726958  0.1639764333]
 [ 0.5878799269 -0.7560561556 -0.100388488  -0.2696264688]
 [-0.0870820046 -0.1702230082 -0.7905448732  0.5817900441]
 [-0.1046047456  0.2653013169 -0.5972766672 -0.7496223324]]
P_a, P_b
 [[ 0.6358717632 -0.4687846704 -0.0694405557  0.0834134641]
 [-0.4687846704  0.3456028084  0.0511937625 -0.0614950302]
 [-0.0694405557  0.0511937625  0.0075832755 -0.0091091909]
 [ 0.0834134641 -0.0614950302 -0.0091091909  0.0109421528]] 
 [[ 0.6358717632  0.4687846704 -0.0694405557 -0.0834134641]
 [ 0.4687846704  0.3456028084 -0.0511937625 -0.0614950302]
 [-0.0694405557 -0.0511937625  0.0075832755  0.0091091909]
 [-0.0834134641 -0.0614950302  0.0091091909  0.0109421528]]
time for xg, H, S2, Yg, Feff: 0.023
 E(SUHF) =     -1.00993743, delta E = -3.37047e-05, MaxD(dm) = 0.000850061, RMSD(dm) = 0.00222742
**** Start Cycle 4 ****
dm (ortho)
[[[ 0.6358717632 -0.4687846704 -0.0694405557  0.0834134641]
  [-0.4687846704  0.3456028084  0.0511937625 -0.0614950302]
  [-0.0694405557  0.0511937625  0.0075832755 -0.0091091909]
  [ 0.0834134641 -0.0614950302 -0.0091091909  0.0109421528]]

 [[ 0.6358717632  0.4687846704 -0.0694405557 -0.0834134641]
  [ 0.4687846704  0.3456028084 -0.0511937625 -0.0614950302]
  [-0.0694405557 -0.0511937625  0.0075832755  0.0091091909]
  [-0.0834134641 -0.0614950302  0.0091091909  0.0109421528]]]
Fock (ortho)
 (array([[-0.2362404225,  0.3289818126,  0.2172410663,  0.02755998  ],
       [ 0.3289818126,  0.0097339223,  0.078864353 ,  0.3386486534],
       [ 0.2172410663,  0.078864353 ,  1.1224625859,  0.0511749164],
       [ 0.02755998  ,  0.3386486534,  0.0511749164,  1.1134678843]]), array([[-0.2362404225, -0.3289818126,  0.2172410663, -0.02755998  ],
       [-0.3289818126,  0.0097339223, -0.078864353 ,  0.3386486534],
       [ 0.2172410663, -0.078864353 ,  1.1224625859, -0.0511749164],
       [-0.02755998  ,  0.3386486534, -0.0511749164,  1.1134678843]]))
E(UHF) =    -1.261193
NO eigenvalue
[-1.0000000000e+00 -1.5807394175e-17 -2.3440339396e-18  1.9391165002e-17] 
 [-1.0000000000e+00 -6.0981973816e-18  3.0710643389e-19  5.8011597960e-17]
NO vec
[[ 0.7974156778  0.           -0.4475739715 -0.0212434585 -0.404171365   0.            0.            0.          ]
 [-0.5878799269  0.           -0.451224936   0.0922990989 -0.6650369351  0.            0.            0.          ]
 [-0.0870820046  0.           -0.7211681928  0.3162489076  0.6101801297  0.            0.            0.          ]
 [ 0.1046047456  0.            0.2756629009  0.9439365552 -0.1484977846  0.            0.            0.          ]
 [ 0.            0.7974156778  0.            0.            0.            0.1155054695 -0.0309181469  0.5914649537]
 [ 0.            0.5878799269  0.            0.            0.           -0.3700783308  0.0398876614 -0.7182257271]
 [ 0.           -0.0870820046  0.            0.            0.           -0.5975524258 -0.7731983313  0.1936805704]
 [ 0.           -0.1046047456  0.            0.            0.           -0.7018772072  0.6321529745  0.311141206 ]]
dm(NO)
[[ 1.0000000000e+00  0.0000000000e+00  1.5133885065e-16  1.8267297385e-17  9.8561750859e-17  0.0000000000e+00  0.0000000000e+00  0.0000000000e+00]
 [ 0.0000000000e+00  1.0000000000e+00  0.0000000000e+00  0.0000000000e+00  0.0000000000e+00  2.4676292333e-17  4.0730079694e-18  1.0673643716e-16]
 [ 6.1133512078e-17  0.0000000000e+00  9.8107228063e-18  4.8208985487e-18  9.1177992477e-18  0.0000000000e+00  0.0000000000e+00  0.0000000000e+00]
 [ 1.4130815921e-17  0.0000000000e+00  1.6758291283e-18  5.3539980494e-19  3.5740935346e-18  0.0000000000e+00  0.0000000000e+00  0.0000000000e+00]
 [ 6.6222493672e-17  0.0000000000e+00  7.7384563462e-19 -3.5183753514e-19  2.3903406444e-18  0.0000000000e+00  0.0000000000e+00  0.0000000000e+00]
 [ 0.0000000000e+00  6.4900475911e-17  0.0000000000e+00  0.0000000000e+00  0.0000000000e+00  2.1795705087e-18  7.2316859959e-19  2.9653466923e-18]
 [ 0.0000000000e+00 -7.5166604871e-19  0.0000000000e+00  0.0000000000e+00  0.0000000000e+00 -1.9734324739e-19 -4.9733456286e-20 -3.3845120109e-18]
 [ 0.0000000000e+00  1.7814546441e-16  0.0000000000e+00  0.0000000000e+00  0.0000000000e+00  8.6893039009e-18 -9.7097579311e-18  3.2316696680e-17]]
D(g) (NO)
 [[ 9.9951368521e-01  8.9467794474e-03 -6.2991675276e-17 -1.4552630816e-17 -1.0073170333e-16  8.9896187410e-03  2.6616152171e-03  2.8362841388e-02]
 [-8.9467794474e-03  9.9951368521e-01  1.8342076624e-02  2.7740251125e-03  2.3414124413e-02  3.2182264528e-17  3.4143824709e-18  5.8935138918e-17]
 [ 4.3316853279e-18 -1.8342076624e-02  9.9951368521e-01 -1.0155595646e-16  3.6717635479e-17  1.0999743678e-02  2.2692246413e-02  1.6997534993e-04]
 [-1.6891537127e-18 -2.7740251125e-03 -3.0078348329e-17  9.9951368521e-01 -2.5800120224e-18 -2.7694267518e-02  1.1117677099e-02  8.6094518977e-03]
 [-8.1484254043e-17 -2.3414124413e-02  1.2442705899e-16 -2.5265712011e-18  9.9951368521e-01 -1.9007933352e-03 -1.8076727797e-02  9.6845624348e-03]
 [-8.9896187410e-03  1.9032825659e-18 -1.0999743678e-02  2.7694267518e-02  1.9007933352e-03  9.9951368521e-01 -4.3793132421e-17  1.6530500213e-16]
 [-2.6616152171e-03  6.9388939039e-18 -2.2692246413e-02 -1.1117677099e-02  1.8076727797e-02 -5.5511151231e-17  9.9951368521e-01  0.0000000000e+00]
 [-2.8362841388e-02  0.0000000000e+00 -1.6997534993e-04 -8.6094518977e-03 -9.6845624348e-03  1.6653345369e-16  0.0000000000e+00  9.9951368521e-01]]
N(g) (NO)
 [[ 1.0004063961 -0.0089547702]
 [ 0.0089547702  1.0004063961]]
P(g) (NO)
 [[ 1.0000000000e+00  5.2847627889e-18  1.5133885065e-16  1.8267297385e-17  9.8561750859e-17  1.0144448299e-34  1.8055593229e-35  3.8518598888e-34]
 [ 4.8664206105e-18  1.0000000000e+00  6.4680435418e-34  7.7819878267e-35  4.3078736188e-34  2.4676292333e-17  4.0730079694e-18  1.0673643716e-16]
 [-1.6424908154e-04 -1.8349530772e-02 -2.4857267220e-20 -3.0003868178e-21 -1.6188677054e-20 -4.5279838552e-19 -7.4737785070e-20 -1.9585635381e-18]
 [-2.4840757468e-05 -2.7751524654e-03 -3.7593716845e-21 -4.5377350395e-22 -2.4483485487e-21 -6.8480473505e-20 -1.1303218108e-20 -2.9620988672e-19]
 [-2.0966810404e-04 -2.3423639822e-02 -3.1730929882e-20 -3.8300696087e-21 -2.0665255433e-20 -5.7800858374e-19 -9.5404671664e-20 -2.5001558598e-18]
 [-8.9932720867e-03  8.0499970196e-05 -1.3610314612e-18 -1.6428277568e-19 -8.8639264282e-19  1.9864407974e-21  3.2787702014e-22  8.5922800098e-21]
 [-2.6626968871e-03  2.3834152685e-05 -4.0296948651e-19 -4.8640275884e-20 -2.6244006720e-19  5.8813851917e-22  9.7076693828e-23  2.5439725402e-21]
 [-2.8374367935e-02  2.5398272743e-04 -4.2941442312e-18 -5.1832301720e-19 -2.7966273832e-18  6.2673520297e-21  1.0344736729e-21  2.7109211425e-20]]
time for NO, Ng: 0.013
Pg_ortho
 [[ 6.3599837941e-01 -4.6887801581e-01 -6.9454382903e-02  8.3430073560e-02  1.4145269534e-02  1.0428337755e-02 -1.5447381602e-03 -1.8555721460e-03]
 [-4.6861621031e-01  3.4547861438e-01  5.1175365785e-02 -6.1472931635e-02  1.8819972806e-02  1.3874676088e-02 -2.0552404531e-03 -2.4687982964e-03]
 [-6.9454382903e-02  5.1203956329e-02  7.5847855287e-03 -9.1110047796e-03 -1.5447381602e-03 -1.1388295740e-03  1.6869356768e-04  2.0263828102e-04]
 [ 8.3383489050e-02 -6.1472931635e-02 -9.1059175050e-03  1.0938220678e-02 -3.3487424503e-03 -2.4687982964e-03  3.6570036641e-04  4.3928701394e-04]
 [-1.4145269534e-02  1.0428337755e-02  1.5447381602e-03 -1.8555721460e-03  6.3599837941e-01  4.6887801581e-01 -6.9454382903e-02 -8.3430073560e-02]
 [ 1.8819972806e-02 -1.3874676088e-02 -2.0552404531e-03  2.4687982964e-03  4.6861621031e-01  3.4547861438e-01 -5.1175365785e-02 -6.1472931635e-02]
 [ 1.5447381602e-03 -1.1388295740e-03 -1.6869356768e-04  2.0263828102e-04 -6.9454382903e-02 -5.1203956329e-02  7.5847855287e-03  9.1110047796e-03]
 [-3.3487424503e-03  2.4687982964e-03  3.6570036641e-04 -4.3928701394e-04 -8.3383489050e-02 -6.1472931635e-02  9.1059175050e-03  1.0938220678e-02]]
G(g) (NO)
 [[ 2.7183990686e-01 -1.4699563306e-03 -3.6297098268e-02 -1.2786393071e-02 -3.2801515123e-02  5.8163569905e-04  9.1679494421e-05  2.2653555664e-04]
 [ 1.4699563306e-03  2.7183990686e-01 -8.9594505570e-05 -1.7598750362e-04  5.9918678029e-04  3.7957149948e-03  6.8413982425e-03  4.9956965506e-02]
 [-3.6258001672e-02  1.4145825095e-02  9.2381534278e-01 -1.5700456059e-01  8.5267491067e-02 -5.5029750669e-03 -1.2105828311e-03  2.4277302933e-05]
 [-1.2785830444e-02 -2.8836738617e-03 -1.5700098496e-01  8.0053458561e-01 -9.2273219136e-02  3.4648109847e-03  5.5398867927e-04 -5.4016294173e-04]
 [-3.2744947020e-02  1.3406279214e-02  8.5268550097e-02 -9.2277643195e-02  7.8626208764e-01 -3.1310997969e-03 -7.5966379692e-04  2.1707955297e-05]
 [ 5.9283677188e-03  3.7687773664e-03 -1.1521459941e-03 -7.0118469944e-04  1.4192022987e-03  7.6649900008e-01 -4.4295582169e-02  7.6206051172e-02]
 [-3.7643475446e-03  6.8379848302e-03  2.3528286884e-03  1.5763561364e-03 -3.1481255829e-03 -4.4293765482e-02  8.5341402196e-01 -1.8526620536e-01]
 [ 1.8407400921e-02  4.9893787001e-02 -2.7580168956e-03 -1.7104339725e-03  4.7367607435e-03  7.6208205624e-02 -1.8527125877e-01  8.9069899400e-01]]
time for Gg: 0.022
C(NO)
[[ 1.0000000000e+00  0.0000000000e+00 -3.4338545953e-16  3.0804244333e-17  5.8540580159e-17  0.0000000000e+00  0.0000000000e+00  0.0000000000e+00]
 [ 0.0000000000e+00  1.0000000000e+00  0.0000000000e+00  0.0000000000e+00  0.0000000000e+00 -2.0917642146e-16  7.6327832943e-17 -1.2490009027e-16]
 [ 8.1593767315e-17  0.0000000000e+00  5.4825470471e-01 -7.3004778572e-01 -4.0797917756e-01  0.0000000000e+00  0.0000000000e+00  0.0000000000e+00]
 [ 5.1675461683e-18  0.0000000000e+00  2.4666242472e-01 -3.2497429582e-01  9.1298924161e-01  0.0000000000e+00  0.0000000000e+00  0.0000000000e+00]
 [ 5.3785037752e-17  0.0000000000e+00  7.9910852016e-01  6.0118378023e-01 -1.9066703929e-03  0.0000000000e+00  0.0000000000e+00  0.0000000000e+00]
 [ 0.0000000000e+00  6.0706437667e-17  0.0000000000e+00  0.0000000000e+00  0.0000000000e+00  2.6156230931e-01  9.1828529756e-01  2.9721586537e-01]
 [ 0.0000000000e+00  7.7409898453e-18  0.0000000000e+00  0.0000000000e+00  0.0000000000e+00  2.5143516192e-01  2.3247692469e-01 -9.3953969519e-01]
 [ 0.0000000000e+00  1.6394459775e-16  0.0000000000e+00  0.0000000000e+00  0.0000000000e+00  9.3186131892e-01 -3.2047869160e-01  1.7008201119e-01]]
detC 1.0000000000000002
detNg [ 1.0008931452  1.0237570215  1.1384898258  1.4890997667  2.4344481288  4.9029019802  9.4765966512 12.01782376  ]
xg [0.9991076518 0.9767942774 0.8783565539 0.671546677  0.4107707156 0.2039608387 0.1055231152 0.0832097408]
ciS 1.0823173925837482
[[-0.7665098251  0.            0.0428682867 -0.0029815988  0.0346475443  0.            0.            0.          ]
 [ 0.           -0.7665098251  0.            0.            0.           -0.0105024684  0.008573517  -0.0535091135]
 [ 0.0428682867  0.           -0.0877289967 -0.0440744452 -0.513125569   0.            0.            0.          ]
 [-0.0029815988  0.           -0.0440744452  0.39266868   -0.1007657054  0.            0.            0.          ]
 [ 0.0346475443  0.           -0.513125569  -0.1007657054 -0.3114627214  0.            0.            0.          ]
 [ 0.           -0.0105024684  0.            0.            0.            0.281739357  -0.0715454421 -0.3050017144]
 [ 0.            0.008573517   0.            0.            0.           -0.0715454421  0.3466240002 -0.0734396801]
 [ 0.           -0.0535091135  0.            0.            0.           -0.3050017144 -0.0734396801 -0.6348863954]]
ciH -1.3794481640805483
1.0 3.496552006265752e-18 -0.028627926203934017j -3.616898447411643e-16
0.5412322505092987 0.0004097790793689459 -0.0004097790793689459 0.4587677494907016
1.0000000000000002 -2.5099280293039428e-17 -0.14749557884325787j 6.071532165918825e-17
0.5431375421597704 0.01087747288915385 -0.010877472889153849 0.45686245784023
1.0000000000000002 -1.4094628242311558e-17 -0.35427518063080343j -1.0928757898653885e-16
0.5533482180607742 0.0627554518054942 -0.06275545180549419 0.446651781939226
1.0000000000000004 -9.063930161978817e-17 -0.6550927409779116j -9.974659986866641e-17
0.5912660387550761 0.2145732496409766 -0.2145732496409766 0.4087339612449246
1.0000000000000002 1.3010426069826053e-16 -1.0709754531758962j -2.177077962350893e-16
0.7439285649204324 0.5734942106526578 -0.5734942106526579 0.25607143507956803
1.0 -5.0306980803327406e-17 -1.525684679213277j 2.0383000842727483e-17
1.4893911734558403 1.16385687019306 -1.1638568701930598 -0.48939117345584016
1.0000000000000002 1.6306400674181987e-16 -1.3653201680094316j -1.717376241217039e-16
4.1962931084519965 0.9320495805866515 -0.9320495805866513 -3.1962931084519948
0.9999999999999999 -2.7538735181131813e-17 -0.3437383634601346j 6.418476861114186e-17
6.444471806958149 0.05907803125712581 -0.05907803125712581 -5.444471806958151
S2 = 0.000000
X(g)
[[ 2.0000000000e+00 -3.4694469520e-18 -1.6424908154e-04 -2.4840757468e-05 -2.0966810404e-04  8.9932720867e-03  2.6626968871e-03  2.8374367935e-02]
 [ 0.0000000000e+00  2.0000000000e+00  1.8349530772e-02  2.7751524654e-03  2.3423639822e-02  8.0499970196e-05  2.3834152685e-05  2.5398272743e-04]
 [-1.6424908154e-04 -1.8349530772e-02  0.0000000000e+00  0.0000000000e+00  0.0000000000e+00  0.0000000000e+00  0.0000000000e+00  0.0000000000e+00]
 [-2.4840757468e-05 -2.7751524654e-03  0.0000000000e+00  0.0000000000e+00  0.0000000000e+00  0.0000000000e+00  0.0000000000e+00  0.0000000000e+00]
 [-2.0966810404e-04 -2.3423639822e-02  0.0000000000e+00  0.0000000000e+00  0.0000000000e+00  0.0000000000e+00  0.0000000000e+00  0.0000000000e+00]
 [-8.9932720867e-03  8.0499970196e-05  0.0000000000e+00  0.0000000000e+00  0.0000000000e+00  0.0000000000e+00  0.0000000000e+00  0.0000000000e+00]
 [-2.6626968871e-03  2.3834152685e-05  0.0000000000e+00  0.0000000000e+00  0.0000000000e+00  0.0000000000e+00  0.0000000000e+00  0.0000000000e+00]
 [-2.8374367935e-02  2.5398272743e-04  0.0000000000e+00  0.0000000000e+00  0.0000000000e+00  0.0000000000e+00  0.0000000000e+00  0.0000000000e+00]]
X(g) int
[[ 2.0000000000e+00 -1.7219144680e-17 -1.5592607256e-01 -2.3581999456e-02 -1.9904357271e-01  2.0919706563e-01  6.1938343471e-02  6.6003057106e-01]
 [-2.4639550342e-18  2.0000000000e+00  4.2683774673e-01  6.4554229744e-02  5.4486917217e-01  7.6420787722e-02  2.2626402450e-02  2.4111263707e-01]
 [-1.5592607256e-01 -4.2683774673e-01  0.0000000000e+00  0.0000000000e+00  0.0000000000e+00  0.0000000000e+00  0.0000000000e+00  0.0000000000e+00]
 [-2.3581999456e-02 -6.4554229744e-02  0.0000000000e+00  0.0000000000e+00  0.0000000000e+00  0.0000000000e+00  0.0000000000e+00  0.0000000000e+00]
 [-1.9904357271e-01 -5.4486917217e-01  0.0000000000e+00  0.0000000000e+00  0.0000000000e+00  0.0000000000e+00  0.0000000000e+00  0.0000000000e+00]
 [-2.0919706563e-01  7.6420787722e-02  0.0000000000e+00  0.0000000000e+00  0.0000000000e+00  0.0000000000e+00  0.0000000000e+00  0.0000000000e+00]
 [-6.1938343471e-02  2.2626402450e-02  0.0000000000e+00  0.0000000000e+00  0.0000000000e+00  0.0000000000e+00  0.0000000000e+00  0.0000000000e+00]
 [-6.6003057106e-01  2.4111263707e-01  0.0000000000e+00  0.0000000000e+00  0.0000000000e+00  0.0000000000e+00  0.0000000000e+00  0.0000000000e+00]]
Feff
 [[ 3.4241830301e-16  5.0181126312e-18  3.3485119685e-04  6.8775179425e-04 -2.9936320699e-04  2.9477350504e-02 -1.6336510564e-03  1.2094934670e-02]
 [-7.7639982675e-19  6.7460055889e-17 -1.4333029300e-03 -1.4111246714e-02  2.8577767794e-02  7.1135815006e-04 -3.4016511622e-04 -2.3022480378e-04]
 [ 3.3485119685e-04  1.4333029300e-03  0.0000000000e+00  0.0000000000e+00  0.0000000000e+00  0.0000000000e+00  0.0000000000e+00  0.0000000000e+00]
 [ 6.8775179425e-04  1.4111246714e-02  0.0000000000e+00  0.0000000000e+00  0.0000000000e+00  0.0000000000e+00  0.0000000000e+00  0.0000000000e+00]
 [-2.9936320699e-04 -2.8577767794e-02  0.0000000000e+00  0.0000000000e+00  0.0000000000e+00  0.0000000000e+00  0.0000000000e+00  0.0000000000e+00]
 [-2.9477350504e-02  7.1135815006e-04  0.0000000000e+00  0.0000000000e+00  0.0000000000e+00  0.0000000000e+00  0.0000000000e+00  0.0000000000e+00]
 [ 1.6336510564e-03 -3.4016511622e-04  0.0000000000e+00  0.0000000000e+00  0.0000000000e+00  0.0000000000e+00  0.0000000000e+00  0.0000000000e+00]
 [-1.2094934670e-02 -2.3022480378e-04  0.0000000000e+00  0.0000000000e+00  0.0000000000e+00  0.0000000000e+00  0.0000000000e+00  0.0000000000e+00]]
Feff (ortho)
 [[-6.9354225030e-05  1.1445557613e-04 -1.6099803658e-04  6.2218381416e-04  3.4694469520e-17  3.9898639947e-17  8.6736173799e-19 -4.6837533851e-17]
 [ 1.1445557613e-04 -1.3106577290e-04  1.1177734337e-04 -4.5038646920e-04  6.5919492087e-17  3.6429192996e-17 -1.2143064332e-17  2.2551405188e-17]
 [-1.6099803658e-04  1.1177734337e-04  3.5990776426e-05 -9.0058967804e-05 -5.4643789493e-17 -4.2500725161e-17  5.2041704279e-18  1.1709383463e-17]
 [ 6.2218381416e-04 -4.5038646920e-04 -9.0058967804e-05  1.6442922150e-04 -3.9898639947e-17 -2.6020852140e-17  4.7704895589e-18 -2.1684043450e-19]
 [ 3.4694469520e-17  6.5919492087e-17 -5.4643789493e-17 -3.9898639947e-17 -6.9354225029e-05 -1.1445557613e-04 -1.6099803658e-04 -6.2218381416e-04]
 [ 3.9898639947e-17  3.6429192996e-17 -4.2500725161e-17 -2.6020852140e-17 -1.1445557613e-04 -1.3106577290e-04 -1.1177734337e-04 -4.5038646920e-04]
 [ 8.6736173799e-19 -1.2143064332e-17  5.2041704279e-18  4.7704895589e-18 -1.6099803658e-04 -1.1177734337e-04  3.5990776426e-05  9.0058967804e-05]
 [-4.6837533851e-17  2.2551405188e-17  1.1709383463e-17 -2.1684043450e-19 -6.2218381416e-04 -4.5038646920e-04  9.0058967804e-05  1.6442922150e-04]]
Hsp + Hph =  -1.2745320120814823
Feff (mod,ortho)
[[-0.2309663532  0.3316278365  0.2236480595  0.0391734947  0.            0.            0.            0.          ]
 [ 0.3316278365  0.0029659476  0.0734273432  0.3309439638  0.            0.            0.            0.          ]
 [ 0.2236480595  0.0734273432  1.1210003335  0.0508226804  0.            0.            0.            0.          ]
 [ 0.0391734947  0.3309439638  0.0508226804  1.1164240422  0.            0.            0.            0.          ]
 [ 0.            0.            0.            0.           -0.2309663532 -0.3316278365  0.2236480595 -0.0391734947]
 [ 0.            0.            0.            0.           -0.3316278365  0.0029659476 -0.0734273432  0.3309439638]
 [ 0.            0.            0.            0.            0.2236480595 -0.0734273432  1.1210003335 -0.0508226804]
[...]
 [-0.587877379   0.           -0.4346702185 -0.106334622  -0.6739101843  0.            0.            0.          ]
 [-0.0868601744  0.           -0.0380127316  0.9938884675 -0.0565336767  0.            0.            0.          ]
 [ 0.1036855281  0.            0.7917646058  0.0051045799 -0.6019402492  0.            0.            0.          ]
 [ 0.            0.7975617899  0.            0.            0.           -0.0356617986  0.0502692462  0.6000803533]
 [ 0.            0.587877379   0.            0.            0.            0.0580728013  0.1584030471 -0.7911613057]
 [ 0.           -0.0868601744  0.            0.            0.            0.7911466329  0.5948586622  0.112629869 ]
 [ 0.           -0.1036855281  0.            0.            0.           -0.6078180576  0.7864633809  0.0358032199]]
dm(NO)
[[ 1.0000000000e+00  0.0000000000e+00  7.1321685393e-17  3.3308093238e-18  3.8019231163e-17  0.0000000000e+00  0.0000000000e+00  0.0000000000e+00]
 [ 0.0000000000e+00  1.0000000000e+00  0.0000000000e+00  0.0000000000e+00  0.0000000000e+00 -2.0964580166e-17  3.9108059673e-17 -1.6204358747e-16]
 [ 5.7056962107e-18  0.0000000000e+00  1.2490649420e-17  2.1067935901e-18  1.0251400097e-17  0.0000000000e+00  0.0000000000e+00  0.0000000000e+00]
 [-9.6296114177e-19  0.0000000000e+00  4.6649342201e-18  4.3061632365e-19  4.3239892916e-18  0.0000000000e+00  0.0000000000e+00  0.0000000000e+00]
 [-1.8569066282e-17  0.0000000000e+00 -1.0355916670e-17  1.3135417493e-19 -1.6606257778e-17  0.0000000000e+00  0.0000000000e+00  0.0000000000e+00]
 [ 0.0000000000e+00 -1.3275767468e-17  0.0000000000e+00  0.0000000000e+00  0.0000000000e+00  1.1810700787e-18 -9.1480739033e-19  1.6991006415e-18]
 [ 0.0000000000e+00  3.3808798877e-17  0.0000000000e+00  0.0000000000e+00  0.0000000000e+00 -4.6250013143e-19 -9.0670619069e-20 -4.8534907646e-18]
 [ 0.0000000000e+00 -1.1112455430e-16  0.0000000000e+00  0.0000000000e+00  0.0000000000e+00 -1.9540688237e-18 -9.0391929473e-18  3.7375457931e-17]]
D(g) (NO)
 [[ 9.9951368521e-01  8.9589072108e-03  1.9035111785e-17  6.6905727907e-18 -2.6956972666e-18 -6.0596240782e-03 -7.2199734207e-04  2.9238514535e-02]
 [-8.9589072108e-03  9.9951368521e-01  2.1056612538e-02  3.9316418438e-03  2.0815674795e-02 -7.8821868292e-20  8.6319118100e-18 -3.1804230564e-16]
 [-4.4155931689e-17 -2.1056612538e-02  9.9951368521e-01  8.3032164723e-18 -1.2750152618e-16 -1.6256461454e-02  1.5895342064e-02  3.4752992409e-03]
 [ 5.0029351930e-18 -3.9316418438e-03  1.5296537245e-17  9.9951368521e-01 -7.0854789514e-17  2.4197940227e-02  1.8081957874e-02  6.6661649655e-03]
 [ 4.7556734696e-18 -2.0815674795e-02 -3.2095474520e-17 -6.7954120064e-17  9.9951368521e-01  9.2661308274e-03 -1.9805370350e-02  7.8094098613e-03]
 [ 6.0596240782e-03 -1.5336607484e-17  1.6256461454e-02 -2.4197940227e-02 -9.2661308274e-03  9.9951368521e-01 -6.2365522109e-17 -3.7096879894e-17]
 [ 7.2199734207e-04 -6.9388939039e-18 -1.5895342064e-02 -1.8081957874e-02  1.9805370350e-02  0.0000000000e+00  9.9951368521e-01  6.9388939039e-17]
 [-2.9238514535e-02 -3.8857805862e-16 -3.4752992409e-03 -6.6661649655e-03 -7.8094098613e-03 -2.7755575616e-17  6.9388939039e-17  9.9951368521e-01]]
N(g) (NO)
 [[ 1.0004061786 -0.0089669069]
 [ 0.0089669069  1.0004061786]]
P(g) (NO)
 [[ 1.0000000000e+00 -9.9164548616e-20  7.1321685393e-17  3.3308093238e-18  3.8019231163e-17  2.7798398777e-36  0.0000000000e+00 -1.9259299444e-34]
 [-5.4445656110e-18  1.0000000000e+00 -4.6831061370e-34 -1.6570500263e-35 -2.2823121775e-34 -2.0964580166e-17  3.9108059673e-17 -1.6204358747e-16]
 [-1.8881268356e-04 -2.1065165284e-02 -1.3466438815e-20 -6.2889904686e-22 -7.1785130628e-21  4.4162234632e-19 -8.2381774097e-19  3.4134749533e-18]
 [-3.5254666247e-05 -3.9332387927e-03 -2.5144222147e-21 -1.1742657104e-22 -1.3403553056e-21  8.2458699983e-20 -1.5382133742e-19  6.3735612435e-19]
 [-1.8665221726e-04 -2.0824129677e-02 -1.3312350717e-20 -6.2170294554e-22 -7.0963737949e-21  4.3656913601e-19 -8.1439130606e-19  3.3744166788e-18]
 [ 6.0620853681e-03 -5.4336084758e-05  4.3235814545e-19  2.0191650465e-20  2.3047582494e-19  1.1391332048e-21 -2.1249788451e-21  8.8048141032e-21]
 [ 7.2229060196e-04 -6.4740829245e-06  5.1514983076e-20  2.4058122715e-21  2.7460933363e-20  1.3572643047e-22 -2.5318882134e-22  1.0490836227e-21]
 [-2.9250390595e-02  2.6217903676e-04 -2.0861871556e-18 -9.7427473717e-20 -1.1120773616e-18 -5.4964734341e-21  1.0253313415e-20 -4.2484431676e-20]]
time for NO, Ng: 0.013
Pg_ortho
 [[ 6.3623157372e-01 -4.6896197229e-01 -6.9290161794e-02  8.2712095197e-02  1.4142733003e-02  1.0424512452e-02 -1.5402446191e-03 -1.8385995395e-03]
 [-4.6869976505e-01  3.4547541384e-01  5.1044751462e-02 -6.0932435903e-02  1.8829024190e-02  1.3878745861e-02 -2.0506151949e-03 -2.4478320561e-03]
 [-6.9290161794e-02  5.1073307702e-02  7.5461934297e-03 -9.0079378251e-03 -1.5402446191e-03 -1.1353038488e-03  1.6774363812e-04  2.0023661954e-04]
 [ 8.2665848996e-02 -6.0932435903e-02 -9.0029012836e-03  1.0746819011e-02 -3.3209260735e-03 -2.4478320561e-03  3.6167256459e-04  4.3173077992e-04]
 [-1.4142733003e-02  1.0424512452e-02  1.5402446191e-03 -1.8385995395e-03  6.3623157372e-01  4.6896197229e-01 -6.9290161794e-02 -8.2712095197e-02]
 [ 1.8829024190e-02 -1.3878745861e-02 -2.0506151949e-03  2.4478320561e-03  4.6869976505e-01  3.4547541384e-01 -5.1044751462e-02 -6.0932435903e-02]
 [ 1.5402446191e-03 -1.1353038488e-03 -1.6774363812e-04  2.0023661954e-04 -6.9290161794e-02 -5.1073307702e-02  7.5461934297e-03  9.0079378251e-03]
 [-3.3209260735e-03  2.4478320561e-03  3.6167256459e-04 -4.3173077992e-04 -8.2665848996e-02 -6.0932435903e-02  9.0029012836e-03  1.0746819011e-02]]
G(g) (NO)
 [[ 2.7192290924e-01 -1.4700360496e-03 -4.2568255244e-02 -1.1349781432e-03 -2.7312425023e-02 -1.5648321362e-04 -4.9116601144e-04  3.6392670107e-04]
 [ 1.4700360496e-03  2.7192290924e-01  1.3627169618e-05  4.0531199429e-04  4.8343580570e-04 -1.2099089195e-02  1.0422190292e-02  4.8003156987e-02]
 [-4.2524957537e-02  1.1221717960e-02  7.0139317501e-01 -4.6705747292e-02  7.0147491101e-02  8.0106397458e-04  1.8415425671e-03 -8.2489137228e-04]
 [-1.1237837430e-03 -1.6172968122e-03 -4.6704262063e-02  8.0241665017e-01 -1.2199550015e-01 -6.6865491376e-04 -2.6541402012e-03  5.2150134809e-04]
 [-2.7260039933e-02  1.6131651671e-02  7.0142405602e-02 -1.2199792031e-01  1.0073844651e+00  1.7305764422e-03  6.1571220152e-03 -1.2145183175e-03]
 [ 1.5157175684e-03 -1.2087572595e-02 -1.3811388868e-03  2.6363430323e-03  1.8567364779e-03  8.1202895763e-01  8.1007138882e-03  1.7637755323e-01]
 [-7.8274843960e-04  1.0430590718e-02  4.1018340163e-04 -3.4567006863e-04 -1.3469211847e-04  8.1001000084e-03  7.3500450249e-01 -3.8973980450e-02]
 [ 1.9643388041e-02  4.7935770011e-02 -1.7525292853e-03  5.0821868766e-03  3.6532000410e-03  1.7638285972e-01 -3.8976302013e-02  9.6416083018e-01]]
time for Gg: 0.022
C(NO)
[[ 1.0000000000e+00  0.0000000000e+00 -2.3962001052e-17 -7.6004876261e-18 -1.4615507502e-16  0.0000000000e+00  0.0000000000e+00  0.0000000000e+00]
 [ 0.0000000000e+00  1.0000000000e+00  0.0000000000e+00  0.0000000000e+00  0.0000000000e+00 -2.2894212623e-16  3.4694469520e-17 -1.6653345369e-16]
 [ 1.5810534162e-17  0.0000000000e+00  7.7750813214e-01 -4.9854327954e-01  3.8332193112e-01  0.0000000000e+00  0.0000000000e+00  0.0000000000e+00]
 [ 3.3308093238e-18  0.0000000000e+00  2.3451946022e-01  7.9542671038e-01  5.5883537038e-01  0.0000000000e+00  0.0000000000e+00  0.0000000000e+00]
 [-1.7491920069e-17  0.0000000000e+00  5.8350812096e-01  3.4460259262e-01 -7.3536883666e-01  0.0000000000e+00  0.0000000000e+00  0.0000000000e+00]
 [ 0.0000000000e+00 -1.5521962388e-17  0.0000000000e+00  0.0000000000e+00  0.0000000000e+00 -3.6069395715e-01 -2.6410211087e-01  8.9451100849e-01]
 [ 0.0000000000e+00  3.6144643785e-17  0.0000000000e+00  0.0000000000e+00  0.0000000000e+00  1.6452534887e-02 -9.6072409519e-01 -2.7701719625e-01]
 [ 0.0000000000e+00 -1.2685224846e-16  0.0000000000e+00  0.0000000000e+00  0.0000000000e+00  9.3253910554e-01 -8.5201455141e-02  3.5087252482e-01]]
detC 1.0
detNg [ 1.0008929277  1.0237511028  1.1384514577  1.4889225491  2.4335986136  4.8982496996  9.4570884911 11.9856874426]
xg [0.9991078689 0.9767999246 0.8783861562 0.6716266072 0.4109141065 0.2041545575 0.1057407891 0.0834328448]
ciS 1.0825407137253906
[[-0.7665305464  0.            0.0353952362 -0.0067967242  0.0418313413  0.            0.            0.          ]
 [ 0.           -0.7665305464  0.            0.            0.           -0.0029030714 -0.0033109415 -0.0550407955]
 [ 0.0353952362  0.           -0.1659259653 -0.0917650181 -0.5655396778  0.            0.            0.          ]
 [-0.0067967242  0.           -0.0917650181  0.3004969865 -0.0877595     0.            0.            0.          ]
 [ 0.0418313413  0.           -0.5655396778 -0.0877595    -0.1410733381  0.            0.            0.          ]
 [ 0.           -0.0029030714  0.            0.            0.            0.3078319871 -0.0481756464  0.2103118266]
 [ 0.           -0.0033109415  0.            0.            0.           -0.0481756464  0.3777663288  0.0059904381]
 [ 0.           -0.0550407955  0.            0.            0.            0.2103118266  0.0059904381 -0.6921006328]]
ciH -1.3797344702678285
1.0 -1.3227266504323154e-17 -0.02862095328127532j -2.0556473190325164e-16
0.5413440926551305 0.00040957948336447234 -0.00040957948336447234 0.45865590734486955
1.0000000000000002 -6.033585089881832e-17 -0.147458832787997j -2.0166160408230382e-16
0.5432540710611617 0.010872053683599234 -0.010872053683599234 0.4567459289388385
1.0 -1.8149544367407344e-16 -0.3541770301154447j -1.4181364416110398e-16
0.5534893424713846 0.06272068433069831 -0.06272068433069833 0.4465106575286156
1.0000000000000002 -2.8796409701215e-16 -0.6548553784093903j -5.117434254131581e-17
0.5914918561653663 0.2144177833158529 -0.2144177833158529 0.4085081438346344
1.0000000000000002 -4.935288289154016e-16 -1.0703411953934119j -5.377642775528102e-17
0.7444196527859424 0.5728151372780989 -0.5728151372780989 0.25558034721405815
0.9999999999999999 -6.539907504432563e-16 -1.5238660546849514j 5.204170427930421e-18
1.4901934865780768 1.1610838763105393 -1.1610838763105393 -0.4901934865780771
0.9999999999999999 -5.646524914304507e-16 -1.3621780007654267j 4.3021142204224816e-16
4.191077209601059 0.927764452884648 -0.9277644528846477 -3.1910772096010582
0.9999999999999996 -1.8604909279851256e-16 -0.3427357620946613j 5.759281940243e-16
6.428763417986635 0.05873390130930412 -0.058733901309304136 -5.428763417986637
S2 = -0.000000
X(g)
[[ 2.0000000000e+00  3.4694469520e-18 -1.8881268356e-04 -3.5254666247e-05 -1.8665221726e-04 -6.0620853681e-03 -7.2229060196e-04  2.9250390595e-02]
 [-3.4694469520e-18  2.0000000000e+00  2.1065165284e-02  3.9332387927e-03  2.0824129677e-02 -5.4336084758e-05 -6.4740829244e-06  2.6217903676e-04]
 [-1.8881268356e-04 -2.1065165284e-02  0.0000000000e+00  0.0000000000e+00  0.0000000000e+00  0.0000000000e+00  0.0000000000e+00  0.0000000000e+00]
 [-3.5254666247e-05 -3.9332387927e-03  0.0000000000e+00  0.0000000000e+00  0.0000000000e+00  0.0000000000e+00  0.0000000000e+00  0.0000000000e+00]
 [-1.8665221726e-04 -2.0824129677e-02  0.0000000000e+00  0.0000000000e+00  0.0000000000e+00  0.0000000000e+00  0.0000000000e+00  0.0000000000e+00]
 [ 6.0620853681e-03 -5.4336084758e-05  0.0000000000e+00  0.0000000000e+00  0.0000000000e+00  0.0000000000e+00  0.0000000000e+00  0.0000000000e+00]
 [ 7.2229060196e-04 -6.4740829245e-06  0.0000000000e+00  0.0000000000e+00  0.0000000000e+00  0.0000000000e+00  0.0000000000e+00  0.0000000000e+00]
 [-2.9250390595e-02  2.6217903676e-04  0.0000000000e+00  0.0000000000e+00  0.0000000000e+00  0.0000000000e+00  0.0000000000e+00  0.0000000000e+00]]
X(g) int
[[ 2.0000000000e+00  1.2729103545e-16 -1.7920802277e-01 -3.3461306266e-02 -1.7715745663e-01 -1.4098418446e-01 -1.6798105814e-02  6.8026796274e-01]
 [-9.9536401543e-17  2.0000000000e+00  4.8990652027e-01  9.1474208928e-02  4.8430082413e-01 -5.1572077314e-02 -6.1447545697e-03  2.4884232300e-01]
 [-1.7920802277e-01 -4.8990652027e-01  0.0000000000e+00  0.0000000000e+00  0.0000000000e+00  0.0000000000e+00  0.0000000000e+00  0.0000000000e+00]
 [-3.3461306266e-02 -9.1474208928e-02  0.0000000000e+00  0.0000000000e+00  0.0000000000e+00  0.0000000000e+00  0.0000000000e+00  0.0000000000e+00]
 [-1.7715745663e-01 -4.8430082413e-01  0.0000000000e+00  0.0000000000e+00  0.0000000000e+00  0.0000000000e+00  0.0000000000e+00  0.0000000000e+00]
 [ 1.4098418446e-01 -5.1572077314e-02  0.0000000000e+00  0.0000000000e+00  0.0000000000e+00  0.0000000000e+00  0.0000000000e+00  0.0000000000e+00]
 [ 1.6798105814e-02 -6.1447545697e-03  0.0000000000e+00  0.0000000000e+00  0.0000000000e+00  0.0000000000e+00  0.0000000000e+00  0.0000000000e+00]
 [-6.8026796274e-01  2.4884232300e-01  0.0000000000e+00  0.0000000000e+00  0.0000000000e+00  0.0000000000e+00  0.0000000000e+00  0.0000000000e+00]]
Feff
 [[-5.0778209447e-16  9.5398677968e-18  5.1211054923e-08 -1.5648902692e-08 -4.9150082714e-08 -1.0239460945e-03 -2.5808469983e-02  1.9859952465e-02]
 [ 7.6166803278e-18 -6.5309697730e-17 -2.3564453664e-03  1.5544388298e-02  2.8537036603e-02  3.0257746134e-08 -6.5909454614e-08  4.8583452133e-09]
 [ 5.1211054918e-08  2.3564453664e-03  0.0000000000e+00  0.0000000000e+00  0.0000000000e+00  0.0000000000e+00  0.0000000000e+00  0.0000000000e+00]
 [-1.5648902751e-08 -1.5544388298e-02  0.0000000000e+00  0.0000000000e+00  0.0000000000e+00  0.0000000000e+00  0.0000000000e+00  0.0000000000e+00]
 [-4.9150082853e-08 -2.8537036603e-02  0.0000000000e+00  0.0000000000e+00  0.0000000000e+00  0.0000000000e+00  0.0000000000e+00  0.0000000000e+00]
 [ 1.0239460945e-03  3.0257746081e-08  0.0000000000e+00  0.0000000000e+00  0.0000000000e+00  0.0000000000e+00  0.0000000000e+00  0.0000000000e+00]
 [ 2.5808469983e-02 -6.5909454674e-08  0.0000000000e+00  0.0000000000e+00  0.0000000000e+00  0.0000000000e+00  0.0000000000e+00  0.0000000000e+00]
 [-1.9859952465e-02  4.8583449099e-09  0.0000000000e+00  0.0000000000e+00  0.0000000000e+00  0.0000000000e+00  0.0000000000e+00  0.0000000000e+00]]
Feff (ortho)
 [[-2.3557853310e-09  1.0859146589e-08 -1.1612866348e-08  5.5718173378e-08  1.0234868508e-16 -1.6479873022e-17  5.2041704279e-18 -4.6837533851e-17]
 [ 1.0859146589e-08 -1.4728493167e-08  7.5662363049e-09 -3.9883505949e-08  2.2551405188e-17  8.5001450323e-17 -1.4745149546e-17  2.3418766926e-17]
 [-1.1612866348e-08  7.5662363049e-09  2.5573895658e-09 -7.6111697736e-09 -4.3368086899e-18  7.3725747729e-18 -1.3010426070e-18  4.1199682554e-18]
 [ 5.5718173378e-08 -3.9883505949e-08 -7.6111697736e-09  1.4526888424e-08 -9.1940344227e-17 -7.9797279895e-17  1.2143064332e-17  7.3725747729e-18]
 [ 1.0234868508e-16  2.2551405188e-17 -4.3368086899e-18 -9.1940344227e-17 -2.3557851425e-09 -1.0859146356e-08 -1.1612866497e-08 -5.5718173322e-08]
 [-1.6479873022e-17  8.5001450323e-17  7.3725747729e-18 -7.9797279895e-17 -1.0859146356e-08 -1.4728492925e-08 -7.5662364251e-09 -3.9883505920e-08]
 [ 5.2041704279e-18 -1.4745149546e-17 -1.3010426070e-18  1.2143064332e-17 -1.1612866497e-08 -7.5662364251e-09  2.5573895960e-09  7.6111697842e-09]
 [-4.6837533851e-17  2.3418766926e-17  4.1199682554e-18  7.3725747729e-18 -5.5718173322e-08 -3.9883505920e-08  7.6111697842e-09  1.4526888406e-08]]
Hsp + Hph =  -1.2745335605158843
Feff (mod,ortho)
[[-0.2308166963  0.3318707608  0.223661447   0.0397982251  0.            0.            0.            0.          ]
 [ 0.3318707608  0.0030568846  0.0736696215  0.3306632281  0.            0.            0.            0.          ]
 [ 0.223661447   0.0736696215  1.1211893927  0.0508694096  0.            0.            0.            0.          ]
 [ 0.0397982251  0.3306632281  0.0508694096  1.1166598272  0.            0.            0.            0.          ]
 [ 0.            0.            0.            0.           -0.2308166963 -0.3318707608  0.223661447  -0.0397982251]
 [ 0.            0.            0.            0.           -0.3318707608  0.0030568846 -0.0736696215  0.3306632281]
 [ 0.            0.            0.            0.            0.223661447  -0.0736696215  1.1211893927 -0.0508694096]
 [ 0.            0.            0.            0.           -0.0397982251  0.3306632281 -0.0508694096  1.1166598272]]
e_a, e_b
 [-0.4946208134  0.1219277359  1.0988238231  1.2839586626] 
 [-0.4946208134  0.1219277359  1.0988238231  1.2839586626]
v_a, v_b
 [[ 0.7975617955 -0.5732884342  0.0900042075  0.1647264281]
 [-0.5878773804 -0.7561292356 -0.1001106665  0.2695303677]
 [-0.0868601647  0.1705431347  0.79003475    0.5824220504]
 [ 0.1036854844  0.2655635319 -0.5980988136  0.7490014286]] 
 [[ 0.7975617955  0.5732884342 -0.0900042075  0.1647264281]
 [ 0.5878773804 -0.7561292356 -0.1001106665 -0.2695303677]
 [-0.0868601647 -0.1705431347 -0.79003475    0.5824220504]
 [-0.1036854844  0.2655635319 -0.5980988136 -0.7490014286]]
P_a, P_b
 [[ 0.6361048177 -0.4688685391 -0.0692763489  0.0826955811]
 [-0.4688685391  0.3455998144  0.0510631261 -0.060954351 ]
 [-0.0692763489  0.0510631261  0.0075446882 -0.0090061382]
 [ 0.0826955811 -0.060954351  -0.0090061382  0.0107506797]] 
 [[ 0.6361048177  0.4688685391 -0.0692763489 -0.0826955811]
 [ 0.4688685391  0.3455998144 -0.0510631261 -0.060954351 ]
 [-0.0692763489 -0.0510631261  0.0075446882  0.0090061382]
 [-0.0826955811 -0.060954351   0.0090061382  0.0107506797]]
time for xg, H, S2, Yg, Feff: 0.023

***************
SUHF converged at cycle 15
Final E(SUHF) =     -1.00994496, delta E = -4.44089e-14, MaxD(dm) = 3.42108e-08, RMSD(dm) = 9.01908e-08
time for cyc: 0.952
dm_reg
 [[[1.3933198429e-01 2.6226402216e-01 1.9909309436e-03 2.0708221794e-02]
  [2.6226402216e-01 4.9365849250e-01 3.7475211436e-03 3.8979000888e-02]
  [1.9909309436e-03 3.7475211436e-03 2.8448644023e-05 2.9590219191e-04]
  [2.0708221794e-02 3.8979000888e-02 2.9590219191e-04 3.0777603006e-03]]

 [[2.8448644023e-05 2.9590219191e-04 1.9909309436e-03 3.7475211436e-03]
  [2.9590219191e-04 3.0777603006e-03 2.0708221794e-02 3.8979000888e-02]
  [1.9909309436e-03 2.0708221794e-02 1.3933198429e-01 2.6226402216e-01]
  [3.7475211436e-03 3.8979000888e-02 2.6226402216e-01 4.9365849250e-01]]]
mo_reg
 [[-0.3732719977 -0.0827862963 -1.2513961574  0.195947327 ]
 [-0.7026083493 -0.2059777509  1.1197024577 -0.3413813774]
 [-0.005333727   0.1698005248 -0.1609995278 -1.3022256863]
 [-0.0554775657  0.9047666068 -0.0668018319  1.0393350312]] 
 [[-0.005333727  -0.1698005248  0.1609995278 -1.3022256863]
 [-0.0554775657 -0.9047666068  0.0668018319  1.0393350312]
 [-0.3732719977  0.0827862963  1.2513961574  0.195947327 ]
 [-0.7026083493  0.2059777509 -1.1197024577 -0.3413813774]]
******* suhf density *****
Clebsch-Gordan coeff: < 0 0 0 0 | 0 0 > = 1
Clebsch-Gordan coeff: < 0 0 1 0 | 0 0 > = 0
xggint 1.0
SUHF DM alpha
 [[0.0648956601 0.1245154194 0.0203317914 0.0461363448]
 [0.1245154194 0.2397755359 0.0461363448 0.1019221695]
 [0.0203317914 0.0461363448 0.0648956601 0.1245154194]
 [0.0461363448 0.1019221695 0.1245154194 0.2397755359]] 
SUHF DM beta
 [[0.0648956601 0.1245154194 0.0203317914 0.0461363448]
 [0.1245154194 0.2397755359 0.0461363448 0.1019221695]
 [0.0203317914 0.0461363448 0.0648956601 0.1245154194]
 [0.0461363448 0.1019221695 0.1245154194 0.2397755359]]
SUHF natural orbitals alpha
 [[-0.2359567685 -0.3081812359 -1.0059961777 -0.7667422465]
 [-0.4724585576 -0.5420301413  0.7958952536  0.8694234569]
 [-0.2359567685  0.3081812359 -0.750000163   1.0185390211]
 [-0.4724585576  0.5420301413  0.5195109588 -1.0580428941]] 
SUHF NO occ alpha
 [ 7.6539324890e-01  2.3460675110e-01  8.3691897229e-17 -6.2676422356e-19]
SUHF natural orbitals beta
 [[-0.2359567685 -0.3081812359 -1.0059961777 -0.7667422465]
 [-0.4724585576 -0.5420301413  0.7958952536  0.8694234569]
 [-0.2359567685  0.3081812359 -0.750000163   1.0185390211]
 [-0.4724585576  0.5420301413  0.5195109588 -1.0580428941]] 
SUHF NO occ beta
 [ 7.6539324890e-01  2.3460675110e-01  8.3691897229e-17 -6.2676422356e-19]
time for dm: 0.039
time tot: 0.998
