 Entering Gaussian System, Link 0=g09
 Input=test_dm.gjf
 Output=test_dm.log
 Initial command:
 /share/apps/gaussian/G09C01Z/srwang-mod-2020/g09/l1.exe /scratch/scr/srwang/gau/Gau-25179.inp -scrdir=/scratch/scr/srwang/gau/
 Entering Link 1 = /share/apps/gaussian/G09C01Z/srwang-mod-2020/g09/l1.exe PID=     25181.
  
 Copyright (c) 1988,1990,1992,1993,1995,1998,2003,2009,2011,
            Gaussian, Inc.  All Rights Reserved.
  
 This is part of the Gaussian(R) 09 program.  It is based on
 the Gaussian(R) 03 system (copyright 2003, Gaussian, Inc.),
 the Gaussian(R) 98 system (copyright 1998, Gaussian, Inc.),
 the Gaussian(R) 94 system (copyright 1995, Gaussian, Inc.),
 the Gaussian 92(TM) system (copyright 1992, Gaussian, Inc.),
 the Gaussian 90(TM) system (copyright 1990, Gaussian, Inc.),
 the Gaussian 88(TM) system (copyright 1988, Gaussian, Inc.),
 the Gaussian 86(TM) system (copyright 1986, Carnegie Mellon
 University), and the Gaussian 82(TM) system (copyright 1983,
 Carnegie Mellon University). Gaussian is a federally registered
 trademark of Gaussian, Inc.
  
 This software contains proprietary and confidential information,
 including trade secrets, belonging to Gaussian, Inc.
  
 This software is provided under written license and may be
 used, copied, transmitted, or stored only in accord with that
 written license.
  
 The following legend is applicable only to US Government
 contracts under FAR:
  
                    RESTRICTED RIGHTS LEGEND
  
 Use, reproduction and disclosure by the US Government is
 subject to restrictions as set forth in subparagraphs (a)
 and (c) of the Commercial Computer Software - Restricted
 Rights clause in FAR 52.227-19.
  
 Gaussian, Inc.
 340 Quinnipiac St., Bldg. 40, Wallingford CT 06492
  
  
 ---------------------------------------------------------------
 Warning -- This program may not be used in any manner that
 competes with the business of Gaussian, Inc. or will provide
 assistance to any competitor of Gaussian, Inc.  The licensee
 of this program is prohibited from giving any competitor of
 Gaussian, Inc. access to this program.  By using this program,
 the user acknowledges that Gaussian, Inc. is engaged in the
 business of creating and licensing software in the field of
 computational chemistry and represents and warrants to the
 licensee that it is not a competitor of Gaussian, Inc. and that
 it will not use this program in any manner prohibited above.
 ---------------------------------------------------------------
  

 Cite this work as:
 Gaussian 09, Revision C.01,
 M. J. Frisch, G. W. Trucks, H. B. Schlegel, G. E. Scuseria, 
 M. A. Robb, J. R. Cheeseman, G. Scalmani, V. Barone, B. Mennucci, 
 G. A. Petersson, H. Nakatsuji, M. Caricato, X. Li, H. P. Hratchian, 
 A. F. Izmaylov, J. Bloino, G. Zheng, J. L. Sonnenberg, M. Hada, 
 M. Ehara, K. Toyota, R. Fukuda, J. Hasegawa, M. Ishida, T. Nakajima, 
 Y. Honda, O. Kitao, H. Nakai, T. Vreven, J. A. Montgomery, Jr., 
 J. E. Peralta, F. Ogliaro, M. Bearpark, J. J. Heyd, E. Brothers, 
 K. N. Kudin, V. N. Staroverov, T. Keith, R. Kobayashi, J. Normand, 
 K. Raghavachari, A. Rendell, J. C. Burant, S. S. Iyengar, J. Tomasi, 
 M. Cossi, N. Rega, J. M. Millam, M. Klene, J. E. Knox, J. B. Cross, 
 V. Bakken, C. Adamo, J. Jaramillo, R. Gomperts, R. E. Stratmann, 
 O. Yazyev, A. J. Austin, R. Cammi, C. Pomelli, J. W. Ochterski, 
 R. L. Martin, K. Morokuma, V. G. Zakrzewski, G. A. Voth, 
 P. Salvador, J. J. Dannenberg, S. Dapprich, A. D. Daniels, 
 O. Farkas, J. B. Foresman, J. V. Ortiz, J. Cioslowski, 
 and D. J. Fox, Gaussian, Inc., Wallingford CT, 2010.
 
 ******************************************
 Gaussian 09:  EM64L-G09RevC.01 23-Sep-2011
                19-Jan-2021 
 ******************************************
 %subst l530 ../../phf
 %nproc=1
 Will use up to    1 processors via shared memory.
 %mem=4GB
 %chk=test_dm.chk
 ----------------------------------------------------------------------
 #p uhf/3-21g nosymm guess=mix scf=conver=4 # extralink=l530 iop(5/206=
 9, 5/207=4, 5/216=0, 5/221=213) pop=none
 ----------------------------------------------------------------------
 1/38=1/1;
 2/12=2,15=1,17=6,18=5,40=1/2;
 3/5=5,11=2,16=1,25=1,30=1,116=2/1,2,3;
 4/13=-1/1;
 5/5=2,6=4,38=5,206=9,207=4,221=213/2,30;
 99/5=1,9=1/99;
 Leave Link    1 at Tue Jan 19 20:18:54 2021, MaxMem=  536870912 cpu:       0.0
 (Enter /share/apps/gaussian/G09C01Z/srwang-mod-2020/g09/l101.exe)
 -----
 title
 -----
 Charge =  0 Multiplicity = 1
 Symbolic Z-Matrix:
 H                     0.        0.        0. 
 H                     0.        0.        2. 
 
 NAtoms=      2 NQM=        0 NQMF=       0 NMMI=      2 NMMIF=      0
                NMic=       0 NMicF=      0.
                    Isotopes and Nuclear Properties:
 (Nuclear quadrupole moments (NQMom) in fm**2, nuclear magnetic moments (NMagM)
  in nuclear magnetons)

  Atom         1           2
 IAtWgt=           1           1
 AtmWgt=   1.0078250   1.0078250
 NucSpn=           1           1
 AtZEff=   0.0000000   0.0000000
 NQMom=    0.0000000   0.0000000
 NMagM=    2.7928460   2.7928460
 Leave Link  101 at Tue Jan 19 20:18:54 2021, MaxMem=  536870912 cpu:       0.1
 (Enter /share/apps/gaussian/G09C01Z/srwang-mod-2020/g09/l202.exe)
                          Input orientation:                          
 ---------------------------------------------------------------------
 Center     Atomic      Atomic             Coordinates (Angstroms)
 Number     Number       Type             X           Y           Z
 ---------------------------------------------------------------------
      1          1           0        0.000000    0.000000    0.000000
      2          1           0        0.000000    0.000000    2.000000
 ---------------------------------------------------------------------
 Symmetry turned off by external request.
 Stoichiometry    H2
 Framework group  D*H[C*(H.H)]
 Deg. of freedom     1
 Full point group                 D*H     NOp   8
 Rotational constants (GHZ):      0.0000000    250.7275501    250.7275501
 Leave Link  202 at Tue Jan 19 20:18:54 2021, MaxMem=  536870912 cpu:       0.0
 (Enter /share/apps/gaussian/G09C01Z/srwang-mod-2020/g09/l301.exe)
 Standard basis: 3-21G (6D, 7F)
 Ernie: Thresh=  0.10000D-02 Tol=  0.10000D-05 Strict=F.
 Integral buffers will be    131072 words long.
 Raffenetti 2 integral format.
 Two-electron integral symmetry is turned off.
     4 basis functions,     6 primitive gaussians,     4 cartesian basis functions
     1 alpha electrons        1 beta electrons
       nuclear repulsion energy         0.2645886043 Hartrees.
 IExCor=    0 DFT=F Ex=HF Corr=None ExCW=0 ScaHFX=  1.000000
 ScaDFX=  1.000000  1.000000  1.000000  1.000000 ScalE2=  1.000000  1.000000
 IRadAn=      0 IRanWt=     -1 IRanGd=            0 ICorTp=0
 NAtoms=    2 NActive=    2 NUniq=    2 SFac= 1.00D+00 NAtFMM=   60 NAOKFM=F Big=F
 Leave Link  301 at Tue Jan 19 20:18:54 2021, MaxMem=  536870912 cpu:       0.0
 (Enter /share/apps/gaussian/G09C01Z/srwang-mod-2020/g09/l302.exe)
 NPDir=0 NMtPBC=     1 NCelOv=     1 NCel=       1 NClECP=     1 NCelD=      1
         NCelK=      1 NCelE2=     1 NClLst=     1 CellRange=     0.0.
 One-electron integrals computed using PRISM.
 Bad symmetry data in SVDSVc:  NBasis=    4 NT=    4 NBlks=1 MaxCmp=1 NBF=    4
 NBasis=     4 RedAO= T  NBF=     4
 NBsUse=     4 1.00D-06 NBFU=     4
 Leave Link  302 at Tue Jan 19 20:18:54 2021, MaxMem=  536870912 cpu:       0.1
 (Enter /share/apps/gaussian/G09C01Z/srwang-mod-2020/g09/l303.exe)
 DipDrv:  MaxL=1.
 Leave Link  303 at Tue Jan 19 20:18:55 2021, MaxMem=  536870912 cpu:       0.0
 (Enter /share/apps/gaussian/G09C01Z/srwang-mod-2020/g09/l401.exe)
 Harris functional with IExCor=  205 diagonalized for initial guess.
 ExpMin= 1.83D-01 ExpMax= 5.45D+00 ExpMxC= 5.45D+00 IAcc=1 IRadAn=         1 AccDes= 0.00D+00
 HarFok:  IExCor=  205 AccDes= 0.00D+00 IRadAn=         1 IDoV= 1
 ScaDFX=  1.000000  1.000000  1.000000  1.000000
 FoFCou: FMM=F IPFlag=           0 FMFlag=      100000 FMFlg1=           0
         NFxFlg=           0 DoJE=T BraDBF=F KetDBF=T FulRan=T
         Omega=  0.000000  0.000000  1.000000  0.000000  0.000000 ICntrl=     500 IOpCl=  0
         NMat0=    1 NMatS0=    1 NMatT0=    0 NMatD0=    1 NMtDS0=    0 NMtDT0=    0
         I1Cent=           4 NGrid=           0.
 Symmetry not used in FoFCou.
 Harris En=-0.998534334700695    
 Mixing orbitals, IMix= 1 IMixAn=  0 NRI=1 NE=    1 Coef=  7.07106781D-01  7.07106781D-01
 Mixing orbitals, IMix= 1 IMixAn=  0 NRI=1 NE=    1 Coef= -7.07106781D-01  7.07106781D-01
 Initial guess <Sx>= 0.0000 <Sy>= 0.0000 <Sz>= 0.0000 <S**2>= 1.0000 S= 0.6180
 Leave Link  401 at Tue Jan 19 20:18:55 2021, MaxMem=  536870912 cpu:       0.1
 (Enter /share/apps/gaussian/G09C01Z/srwang-mod-2020/g09/l502.exe)
 UHF open shell SCF:
 Requested convergence on RMS density matrix=1.00D-04 within 128 cycles.
 Requested convergence on MAX density matrix=1.00D-02.
 Requested convergence on             energy=1.00D-02.
 No special actions if energy rises.
 Using DIIS extrapolation, IDIIS=  1040.
 Two-electron integral symmetry not used.
 Keep R1 and R2 ints in memory in canonical form, NReq=819856.
 IEnd=       19725 IEndB=       19725 NGot=   536870912 MDV=   536868152
 LenX=   536868152 LenY=   536867270
 Symmetry not used in FoFDir.
 MinBra= 0 MaxBra= 0 Meth= 1.
 IRaf=       0 NMat=   1 IRICut=       1 DoRegI=T DoRafI=F ISym2E= 0 JSym2E=0.

 Cycle   1  Pass 1  IDiag  1:
 E=-0.976252209587262    
 DIIS: error= 2.74D-02 at cycle   1 NSaved=   1.
 NSaved= 1 IEnMin= 1 EnMin=-0.976252209587262     IErMin= 1 ErrMin= 2.74D-02
 ErrMax= 2.74D-02 EMaxC= 1.00D-01 BMatC= 2.22D-02 BMatP= 2.22D-02
 IDIUse=3 WtCom= 7.26D-01 WtEn= 2.74D-01
 Coeff-Com:  0.100D+01
 Coeff-En:   0.100D+01
 Coeff:      0.100D+01
 Gap=     0.617 Goal=   None    Shift=    0.000
 Gap=     0.617 Goal=   None    Shift=    0.000
 GapD=    0.617 DampG=2.000 DampE=0.500 DampFc=1.0000 IDamp=-1.
 RMSDP=3.02D-02 MaxDP=6.52D-02              OVMax= 9.37D-02

 Cycle   2  Pass 1  IDiag  1:
 E=-0.994211662723095     Delta-E=       -0.017959453136 Rises=F Damp=F
 DIIS: error= 1.03D-02 at cycle   2 NSaved=   2.
 NSaved= 2 IEnMin= 2 EnMin=-0.994211662723095     IErMin= 2 ErrMin= 1.03D-02
 ErrMax= 1.03D-02 EMaxC= 1.00D-01 BMatC= 2.49D-03 BMatP= 2.22D-02
 IDIUse=3 WtCom= 8.97D-01 WtEn= 1.03D-01
 Coeff-Com: -0.469D+00 0.147D+01
 Coeff-En:   0.000D+00 0.100D+01
 Coeff:     -0.421D+00 0.142D+01
 Gap=     0.623 Goal=   None    Shift=    0.000
 Gap=     0.623 Goal=   None    Shift=    0.000
 RMSDP=1.49D-02 MaxDP=3.09D-02 DE=-1.80D-02 OVMax= 5.02D-02

 Cycle   3  Pass 1  IDiag  1:
 E=-0.996913990388707     Delta-E=       -0.002702327666 Rises=F Damp=F
 DIIS: error= 1.84D-03 at cycle   3 NSaved=   3.
 NSaved= 3 IEnMin= 3 EnMin=-0.996913990388707     IErMin= 3 ErrMin= 1.84D-03
 ErrMax= 1.84D-03 EMaxC= 1.00D-01 BMatC= 7.61D-05 BMatP= 2.49D-03
 IDIUse=3 WtCom= 9.82D-01 WtEn= 1.84D-02
 Coeff-Com:  0.321D+00-0.108D+01 0.176D+01
 Coeff-En:   0.000D+00 0.000D+00 0.100D+01
 Coeff:      0.315D+00-0.106D+01 0.175D+01
 Gap=     0.611 Goal=   None    Shift=    0.000
 Gap=     0.611 Goal=   None    Shift=    0.000
 RMSDP=2.91D-03 MaxDP=6.60D-03 DE=-2.70D-03 OVMax= 1.10D-02

 Cycle   4  Pass 1  IDiag  1:
 E=-0.997011007279650     Delta-E=       -0.000097016891 Rises=F Damp=F
 DIIS: error= 1.60D-04 at cycle   4 NSaved=   4.
 NSaved= 4 IEnMin= 4 EnMin=-0.997011007279650     IErMin= 4 ErrMin= 1.60D-04
 ErrMax= 1.60D-04 EMaxC= 1.00D-01 BMatC= 5.53D-07 BMatP= 7.61D-05
 IDIUse=3 WtCom= 9.98D-01 WtEn= 1.60D-03
 Coeff-Com: -0.360D-01 0.112D+00-0.185D+00 0.111D+01
 Coeff-En:   0.000D+00 0.000D+00 0.000D+00 0.100D+01
 Coeff:     -0.359D-01 0.112D+00-0.185D+00 0.111D+01
 Gap=     0.615 Goal=   None    Shift=    0.000
 Gap=     0.615 Goal=   None    Shift=    0.000
 RMSDP=1.48D-04 MaxDP=2.67D-04 DE=-9.70D-05 OVMax= 6.23D-04

 Cycle   5  Pass 1  IDiag  1:
 E=-0.997011480180126     Delta-E=       -0.000000472900 Rises=F Damp=F
 DIIS: error= 2.63D-05 at cycle   5 NSaved=   5.
 NSaved= 5 IEnMin= 5 EnMin=-0.997011480180126     IErMin= 5 ErrMin= 2.63D-05
 ErrMax= 2.63D-05 EMaxC= 1.00D-01 BMatC= 3.34D-08 BMatP= 5.53D-07
 IDIUse=1 WtCom= 1.00D+00 WtEn= 0.00D+00
 Coeff-Com: -0.522D-03 0.430D-02-0.242D-01-0.922D-01 0.111D+01
 Coeff:     -0.522D-03 0.430D-02-0.242D-01-0.922D-01 0.111D+01
 Gap=     0.615 Goal=   None    Shift=    0.000
 Gap=     0.615 Goal=   None    Shift=    0.000
 RMSDP=4.82D-05 MaxDP=8.44D-05 DE=-4.73D-07 OVMax= 1.67D-04

 SCF Done:  E(UHF) = -0.997011480180     A.U. after    5 cycles
             Convg  =    0.4824D-04             -V/T =  1.9954
 <Sx>= 0.0000 <Sy>= 0.0000 <Sz>= 0.0000 <S**2>= 0.9105 S= 0.5773
 <L.S>= 0.000000000000E+00
 KE= 1.001635978686D+00 PE=-2.536147924251D+00 EE= 2.729118610899D-01
 Annihilation of the first spin contaminant:
 S**2 before annihilation     0.9105,   after     0.0000
 Leave Link  502 at Tue Jan 19 20:18:55 2021, MaxMem=  536870912 cpu:       0.0
  
  +-------------------------------------------+
  |                                           |
  |  LINK 530 - Projected Hartree-Fock (PHF)  |
  |     Self-Consistent Field (SCF) Code      |
  |                                           |
  |                                           |
  |         the Scuseria group, v0.2, 07.2011 |
  +-------------------------------------------+
  
 (Enter ../../phf/l530.exe)

 PHF SCF was invoked with the following options:

   method selection:
 iprint =  9
 iphf   =  4, [ UHF + spin projection ]

   general options:
 maxcyc =    512, S      =      0
 ngrda  =      1, ngrdb  =      8, ngrdg  =      1

   accuracy requested:
 conv criterion (RMSDP, RMSDK) =     1.0000E-08
 requested integral accuracy   =     1.0000E-10

   use of symmetry:
 two-electron integral symmetry not used

   strategy options:
 level shifting is turned off
 istrat =      1, continue as usual if energy rises
 modified PHF effective Fock matrix used

   initial guess options:
 igues1 =  1, read GDV guess


 PHF SCF - preparing initial guess

  
 Transform Matrix:
                 1             2             3             4 
      1   0.330600D+00  0.460127D+00  0.856219D+00 -0.834535D+00
      2   0.397746D+00  0.364687D+00 -0.711676D+00  0.105294D+01
      3   0.330600D+00 -0.460127D+00  0.856219D+00  0.834535D+00
      4   0.397746D+00 -0.364687D+00 -0.711676D+00 -0.105294D+01
  
 MO coefficients (alpha):
                 1             2             3             4 
      1   0.367072D+00 -0.839840D-01  0.125181D+01 -0.204302D+00
      2   0.708838D+00 -0.209185D+00 -0.111655D+01  0.336850D+00
      3   0.212254D-01  0.171781D+00  0.165145D+00  0.130128D+01
      4   0.467742D-01  0.903026D+00  0.630638D-01 -0.104151D+01
 MO coefficients (beta):
                 1             2             3             4 
      1   0.212254D-01  0.171781D+00  0.165145D+00  0.130128D+01
      2   0.467742D-01  0.903026D+00  0.630638D-01 -0.104151D+01
      3   0.367072D+00 -0.839840D-01  0.125181D+01 -0.204302D+00
      4   0.708838D+00 -0.209185D+00 -0.111655D+01  0.336850D+00
 After transformation 
  
 MO coefficients (alpha, real):
                 1             2             3             4 
      1   0.801712D+00  0.570094D+00  0.923896D-01  0.153998D+00
      2   0.581033D+00 -0.759026D+00  0.101268D+00 -0.275726D+00
      3  -0.828028D-01 -0.168852D+00  0.791779D+00  0.581136D+00
      4   0.113147D+00 -0.265257D+00 -0.595227D+00  0.750027D+00
 MO coefficients (alpha, imaginary):
                 1             2             3             4 
      1   0.000000D+00  0.000000D+00  0.000000D+00  0.000000D+00
      2   0.000000D+00  0.000000D+00  0.000000D+00  0.000000D+00
      3   0.000000D+00  0.000000D+00  0.000000D+00  0.000000D+00
      4   0.000000D+00  0.000000D+00  0.000000D+00  0.000000D+00
 MO coefficients (beta, real):
                 1             2             3             4 
      1   0.801712D+00  0.570094D+00  0.923896D-01  0.153998D+00
      2  -0.581033D+00  0.759026D+00 -0.101268D+00  0.275726D+00
      3  -0.828028D-01 -0.168852D+00  0.791779D+00  0.581136D+00
      4  -0.113147D+00  0.265257D+00  0.595227D+00 -0.750027D+00
 MO coefficients (beta, imaginary):
                 1             2             3             4 
      1   0.000000D+00  0.000000D+00  0.000000D+00  0.000000D+00
      2   0.000000D+00  0.000000D+00  0.000000D+00  0.000000D+00
      3   0.000000D+00  0.000000D+00  0.000000D+00  0.000000D+00
      4   0.000000D+00  0.000000D+00  0.000000D+00  0.000000D+00
  
 Overlap Matrix:
                 1             2             3             4 
      1   0.100000D+01  0.645898D+00  0.227256D-02  0.746565D-01
      2   0.645898D+00  0.100000D+01  0.746565D-01  0.270258D+00
      3   0.227256D-02  0.746565D-01  0.100000D+01  0.645898D+00
      4   0.746565D-01  0.270258D+00  0.645898D+00  0.100000D+01
  
 Transform Matrix:
                 1             2             3             4 
      1   0.330600D+00  0.460127D+00  0.856219D+00 -0.834535D+00
      2   0.397746D+00  0.364687D+00 -0.711676D+00  0.105294D+01
      3   0.330600D+00 -0.460127D+00  0.856219D+00  0.834535D+00
      4   0.397746D+00 -0.364687D+00 -0.711676D+00 -0.105294D+01
  
 S^(1/2) Matrix:
                 1             2             3             4 
      1   0.617949D+00  0.743455D+00  0.617949D+00  0.743455D+00
      2   0.667406D+00  0.528971D+00 -0.667406D+00 -0.528971D+00
      3   0.345363D+00 -0.287060D+00  0.345363D+00 -0.287060D+00
      4  -0.231157D+00  0.291652D+00  0.231157D+00 -0.291652D+00
  
 density matrix (alpha, real):
                1             2             3             4 
      1  0.642742D+00
      2  0.465821D+00  0.337599D+00
      3 -0.663840D-01 -0.481112D-01  0.685631D-02
      4  0.907116D-01  0.657423D-01 -0.936892D-02  0.128023D-01
 density matrix (alpha, imaginary):
                1             2             3             4 
      1  0.000000D+00
      2 -0.000000D+00  0.000000D+00
      3 -0.000000D+00 -0.000000D+00  0.000000D+00
      4 -0.000000D+00 -0.000000D+00 -0.000000D+00  0.000000D+00
 density matrix (beta, real):
                1             2             3             4 
      1  0.642742D+00
      2 -0.465821D+00  0.337599D+00
      3 -0.663840D-01  0.481112D-01  0.685631D-02
      4 -0.907116D-01  0.657423D-01  0.936892D-02  0.128023D-01
 density matrix (beta, imaginary):
                1             2             3             4 
      1  0.000000D+00
      2 -0.000000D+00  0.000000D+00
      3 -0.000000D+00 -0.000000D+00  0.000000D+00
      4 -0.000000D+00 -0.000000D+00 -0.000000D+00  0.000000D+00

 PHF SCF - starting SCF procedure

beta in GauLeg
grd=    0.0624    0.3194    0.7453    1.2827    1.8589    2.3963    2.8222    3.0792
wgt=    0.0099    0.1097    0.3342    0.5462    0.5462    0.3342    0.1097    0.0099
WigArr: s=    0, sz=    0, isint=    T, ncis=                       1, dind=    0.0000
dmt=    1.0000    1.0000    1.0000    1.0000    1.0000    1.0000    1.0000    1.0000
*********  Start Cycle  1  *************
  
 HF density matrix (alpha, real):
                1             2             3             4 
      1  0.642742D+00
      2  0.465821D+00  0.337599D+00
      3 -0.663840D-01 -0.481112D-01  0.685631D-02
      4  0.907116D-01  0.657423D-01 -0.936892D-02  0.128023D-01
 HF density matrix (alpha, imaginary):
                1             2             3             4 
      1  0.000000D+00
      2 -0.000000D+00  0.000000D+00
      3 -0.000000D+00 -0.000000D+00  0.000000D+00
      4 -0.000000D+00 -0.000000D+00 -0.000000D+00  0.000000D+00
 HF density matrix (beta, real):
                1             2             3             4 
      1  0.642742D+00
      2 -0.465821D+00  0.337599D+00
      3 -0.663840D-01  0.481112D-01  0.685631D-02
      4 -0.907116D-01  0.657423D-01  0.936892D-02  0.128023D-01
 HF density matrix (beta, imaginary):
                1             2             3             4 
      1  0.000000D+00
      2 -0.000000D+00  0.000000D+00
      3 -0.000000D+00 -0.000000D+00  0.000000D+00
      4 -0.000000D+00 -0.000000D+00 -0.000000D+00  0.000000D+00
 
Start hffock
  
 Core Hamiltonian (real):
                 1             2             3             4 
      1  -0.796723D+00  0.000000D+00  0.103744D+00  0.000000D+00
      2   0.000000D+00 -0.658935D+00  0.000000D+00 -0.196746D+00
      3   0.103744D+00  0.000000D+00  0.306545D+00  0.000000D+00
      4   0.000000D+00 -0.196746D+00  0.000000D+00  0.376081D+00
 Core Hamiltonian (imaginary):
                 1             2             3             4 
      1   0.000000D+00  0.000000D+00  0.000000D+00  0.000000D+00
      2   0.000000D+00  0.000000D+00  0.000000D+00  0.000000D+00
      3   0.000000D+00  0.000000D+00  0.000000D+00  0.000000D+00
      4   0.000000D+00  0.000000D+00  0.000000D+00  0.000000D+00

 Symmetry not used in FoFDir.
 MinBra= 0 MaxBra= 0 Meth= 1.
 IRaf=       1 NMat=   2 IRICut=       1 DoRegI=T DoRafI=F ISym2E= 0 JSym2E=0.
 PrsmSu:  NPrtUS=   1 ThrOK=F IAlg=1 NPAlg=1 LenDen=           0.
 Prism:   IPart=     0 DynPar=F LinDyn=F Incr=           1.
 PRISM was handed   536868987 working-precision words and    10 shell-pairs
 IPart=  0 NShTot=          55 NBatch=          10 AvBLen=         5.5
 PrSmSu:  NxtVal=              2.
  
 HF Fock matrix (alpha, real):
                1             2             3             4 
      1 -0.238888D+00
      2 -0.326413D+00  0.110686D-01
      3  0.216365D+00 -0.780609D-01  0.112202D+01
      4  0.245836D-01 -0.339630D+00  0.506525D-01  0.111261D+01
 HF Fock matrix (alpha, imaginary):
                1             2             3             4 
      1  0.000000D+00
      2 -0.000000D+00  0.000000D+00
      3 -0.000000D+00 -0.000000D+00  0.000000D+00
      4 -0.000000D+00 -0.000000D+00 -0.000000D+00  0.000000D+00
 HF Fock matrix (beta, real):
                1             2             3             4 
      1 -0.238888D+00
      2  0.326413D+00  0.110686D-01
      3  0.216365D+00  0.780609D-01  0.112202D+01
      4 -0.245836D-01 -0.339630D+00 -0.506525D-01  0.111261D+01
 HF Fock matrix (beta, imaginary):
                1             2             3             4 
      1  0.000000D+00
      2 -0.000000D+00  0.000000D+00
      3 -0.000000D+00 -0.000000D+00  0.000000D+00
      4 -0.000000D+00 -0.000000D+00 -0.000000D+00  0.000000D+00
 
Start hfdmdg: find NO basis
  
 dm to be diaged (alpha, real):
                1             2             3             4 
      1 -0.642742D+00
      2 -0.465821D+00 -0.337599D+00
      3  0.663840D-01  0.481112D-01 -0.685631D-02
      4 -0.907116D-01 -0.657423D-01  0.936892D-02 -0.128023D-01
 dm to be diaged (alpha, imaginary):
                1             2             3             4 
      1  0.000000D+00
      2 -0.000000D+00  0.000000D+00
      3 -0.000000D+00 -0.000000D+00  0.000000D+00
      4 -0.000000D+00 -0.000000D+00 -0.000000D+00  0.000000D+00
 dm to be diaged (beta, real):
                1             2             3             4 
      1 -0.642742D+00
      2  0.465821D+00 -0.337599D+00
      3  0.663840D-01 -0.481112D-01 -0.685631D-02
      4  0.907116D-01 -0.657423D-01 -0.936892D-02 -0.128023D-01
 dm to be diaged (beta, imaginary):
                1             2             3             4 
      1  0.000000D+00
      2 -0.000000D+00  0.000000D+00
      3 -0.000000D+00 -0.000000D+00  0.000000D+00
      4 -0.000000D+00 -0.000000D+00 -0.000000D+00  0.000000D+00
  
 eigenvectors (alpha, real):
                 1             2             3             4 
      1  -0.801712D+00  0.255010D+00  0.519332D+00 -0.150074D+00
      2  -0.581033D+00 -0.264824D+00 -0.769537D+00 -0.904099D-02
      3   0.828028D-01  0.904741D+00 -0.371627D+00 -0.191000D+00
      4  -0.113147D+00  0.215134D+00  0.000000D+00  0.970008D+00
 eigenvectors (alpha, imaginary):
                 1             2             3             4 
      1   0.000000D+00  0.000000D+00  0.000000D+00  0.000000D+00
      2   0.000000D+00  0.000000D+00  0.000000D+00  0.000000D+00
      3   0.000000D+00  0.000000D+00  0.000000D+00  0.000000D+00
      4   0.000000D+00  0.000000D+00  0.000000D+00  0.000000D+00
 eigenvectors (beta, real):
                 1             2             3             4 
      1   0.801712D+00 -0.114566D-01  0.590131D+00  0.941923D-01
      2  -0.581033D+00 -0.184006D+00  0.791884D+00 -0.382427D-01
      3  -0.828028D-01  0.970836D+00  0.157052D+00 -0.161105D+00
      4  -0.113147D+00  0.153256D+00  0.000000D+00  0.981687D+00
 eigenvectors (beta, imaginary):
                 1             2             3             4 
      1   0.000000D+00  0.000000D+00  0.000000D+00  0.000000D+00
      2   0.000000D+00  0.000000D+00  0.000000D+00  0.000000D+00
      3   0.000000D+00  0.000000D+00  0.000000D+00  0.000000D+00
      4   0.000000D+00  0.000000D+00  0.000000D+00  0.000000D+00
eigenvalues  -0.100000000000000E+01 -0.574357147731033E-17  0.000000000000000E+00  0.116765873939826E-15
eigenvalues  -0.999999999999999E+00 -0.554680819923604E-17  0.000000000000000E+00  0.227591413124267E-15
  
 expanded eigenvectors (real):
                 1             2             3             4             5 
      1  -0.801712D+00  0.000000D+00  0.255010D+00  0.519332D+00 -0.150074D+00
      2  -0.581033D+00  0.000000D+00 -0.264824D+00 -0.769537D+00 -0.904099D-02
      3   0.828028D-01  0.000000D+00  0.904741D+00 -0.371627D+00 -0.191000D+00
      4  -0.113147D+00  0.000000D+00  0.215134D+00  0.000000D+00  0.970008D+00
      5   0.000000D+00  0.801712D+00  0.000000D+00  0.000000D+00  0.000000D+00
      6   0.000000D+00 -0.581033D+00  0.000000D+00  0.000000D+00  0.000000D+00
      7   0.000000D+00 -0.828028D-01  0.000000D+00  0.000000D+00  0.000000D+00
      8   0.000000D+00 -0.113147D+00  0.000000D+00  0.000000D+00  0.000000D+00
                 6             7             8 
      1   0.000000D+00  0.000000D+00  0.000000D+00
      2   0.000000D+00  0.000000D+00  0.000000D+00
      3   0.000000D+00  0.000000D+00  0.000000D+00
      4   0.000000D+00  0.000000D+00  0.000000D+00
      5  -0.114566D-01  0.590131D+00  0.941923D-01
      6  -0.184006D+00  0.791884D+00 -0.382427D-01
      7   0.970836D+00  0.157052D+00 -0.161105D+00
      8   0.153256D+00  0.000000D+00  0.981687D+00
 expanded eigenvectors (imaginary):
                 1             2             3             4             5 
      1   0.000000D+00  0.000000D+00  0.000000D+00  0.000000D+00  0.000000D+00
      2   0.000000D+00  0.000000D+00  0.000000D+00  0.000000D+00  0.000000D+00
      3   0.000000D+00  0.000000D+00  0.000000D+00  0.000000D+00  0.000000D+00
      4   0.000000D+00  0.000000D+00  0.000000D+00  0.000000D+00  0.000000D+00
      5   0.000000D+00  0.000000D+00  0.000000D+00  0.000000D+00  0.000000D+00
      6   0.000000D+00  0.000000D+00  0.000000D+00  0.000000D+00  0.000000D+00
      7   0.000000D+00  0.000000D+00  0.000000D+00  0.000000D+00  0.000000D+00
      8   0.000000D+00  0.000000D+00  0.000000D+00  0.000000D+00  0.000000D+00
                 6             7             8 
      1   0.000000D+00  0.000000D+00  0.000000D+00
      2   0.000000D+00  0.000000D+00  0.000000D+00
      3   0.000000D+00  0.000000D+00  0.000000D+00
      4   0.000000D+00  0.000000D+00  0.000000D+00
      5   0.000000D+00  0.000000D+00  0.000000D+00
      6   0.000000D+00  0.000000D+00  0.000000D+00
      7   0.000000D+00  0.000000D+00  0.000000D+00
      8   0.000000D+00  0.000000D+00  0.000000D+00
  
 expanded density matrix P (real):
                 1             2             3             4             5 
      1   0.642742D+00  0.465821D+00 -0.663840D-01  0.907116D-01  0.000000D+00
      2   0.465821D+00  0.337599D+00 -0.481112D-01  0.657423D-01  0.000000D+00
      3  -0.663840D-01 -0.481112D-01  0.685631D-02 -0.936892D-02  0.000000D+00
      4   0.907116D-01  0.657423D-01 -0.936892D-02  0.128023D-01  0.000000D+00
      5   0.000000D+00  0.000000D+00  0.000000D+00  0.000000D+00  0.642742D+00
      6   0.000000D+00  0.000000D+00  0.000000D+00  0.000000D+00 -0.465821D+00
      7   0.000000D+00  0.000000D+00  0.000000D+00  0.000000D+00 -0.663840D-01
      8   0.000000D+00  0.000000D+00  0.000000D+00  0.000000D+00 -0.907116D-01
                 6             7             8 
      1   0.000000D+00  0.000000D+00  0.000000D+00
      2   0.000000D+00  0.000000D+00  0.000000D+00
      3   0.000000D+00  0.000000D+00  0.000000D+00
      4   0.000000D+00  0.000000D+00  0.000000D+00
      5  -0.465821D+00 -0.663840D-01 -0.907116D-01
      6   0.337599D+00  0.481112D-01  0.657423D-01
      7   0.481112D-01  0.685631D-02  0.936892D-02
      8   0.657423D-01  0.936892D-02  0.128023D-01
 expanded density matrix P (imaginary):
                 1             2             3             4             5 
      1   0.000000D+00  0.000000D+00  0.000000D+00  0.000000D+00  0.000000D+00
      2   0.000000D+00  0.000000D+00  0.000000D+00  0.000000D+00  0.000000D+00
      3   0.000000D+00  0.000000D+00  0.000000D+00  0.000000D+00  0.000000D+00
      4   0.000000D+00  0.000000D+00  0.000000D+00  0.000000D+00  0.000000D+00
      5   0.000000D+00  0.000000D+00  0.000000D+00  0.000000D+00  0.000000D+00
      6   0.000000D+00  0.000000D+00  0.000000D+00  0.000000D+00  0.000000D+00
      7   0.000000D+00  0.000000D+00  0.000000D+00  0.000000D+00  0.000000D+00
      8   0.000000D+00  0.000000D+00  0.000000D+00  0.000000D+00  0.000000D+00
                 6             7             8 
      1   0.000000D+00  0.000000D+00  0.000000D+00
      2   0.000000D+00  0.000000D+00  0.000000D+00
      3   0.000000D+00  0.000000D+00  0.000000D+00
      4   0.000000D+00  0.000000D+00  0.000000D+00
      5   0.000000D+00  0.000000D+00  0.000000D+00
      6   0.000000D+00  0.000000D+00  0.000000D+00
      7   0.000000D+00  0.000000D+00  0.000000D+00
      8   0.000000D+00  0.000000D+00  0.000000D+00
  
 density matrix (NO) (real):
                 1             2             3             4             5 
      1   0.100000D+01  0.000000D+00  0.000000D+00  0.000000D+00  0.000000D+00
      2   0.000000D+00  0.100000D+01  0.000000D+00  0.000000D+00  0.000000D+00
      3   0.000000D+00  0.000000D+00  0.000000D+00  0.000000D+00  0.000000D+00
      4   0.000000D+00  0.000000D+00  0.000000D+00  0.000000D+00  0.000000D+00
      5   0.000000D+00  0.000000D+00  0.000000D+00  0.000000D+00  0.000000D+00
      6   0.000000D+00  0.000000D+00  0.000000D+00  0.000000D+00  0.000000D+00
      7   0.000000D+00  0.000000D+00  0.000000D+00  0.000000D+00  0.000000D+00
      8   0.000000D+00  0.000000D+00  0.000000D+00  0.000000D+00  0.000000D+00
                 6             7             8 
      1   0.000000D+00  0.000000D+00  0.000000D+00
      2   0.000000D+00  0.000000D+00  0.000000D+00
      3   0.000000D+00  0.000000D+00  0.000000D+00
      4   0.000000D+00  0.000000D+00  0.000000D+00
      5   0.000000D+00  0.000000D+00  0.000000D+00
      6   0.000000D+00  0.000000D+00  0.000000D+00
      7   0.000000D+00  0.000000D+00  0.000000D+00
      8   0.000000D+00  0.000000D+00  0.000000D+00
 density matrix (NO) (imaginary):
                 1             2             3             4             5 
      1   0.000000D+00  0.000000D+00  0.000000D+00  0.000000D+00  0.000000D+00
      2   0.000000D+00  0.000000D+00  0.000000D+00  0.000000D+00  0.000000D+00
      3   0.000000D+00  0.000000D+00  0.000000D+00  0.000000D+00  0.000000D+00
      4   0.000000D+00  0.000000D+00  0.000000D+00  0.000000D+00  0.000000D+00
      5   0.000000D+00  0.000000D+00  0.000000D+00  0.000000D+00  0.000000D+00
      6   0.000000D+00  0.000000D+00  0.000000D+00  0.000000D+00  0.000000D+00
      7   0.000000D+00  0.000000D+00  0.000000D+00  0.000000D+00  0.000000D+00
      8   0.000000D+00  0.000000D+00  0.000000D+00  0.000000D+00  0.000000D+00
                 6             7             8 
      1   0.000000D+00  0.000000D+00  0.000000D+00
      2   0.000000D+00  0.000000D+00  0.000000D+00
      3   0.000000D+00  0.000000D+00  0.000000D+00
      4   0.000000D+00  0.000000D+00  0.000000D+00
      5   0.000000D+00  0.000000D+00  0.000000D+00
      6   0.000000D+00  0.000000D+00  0.000000D+00
      7   0.000000D+00  0.000000D+00  0.000000D+00
      8   0.000000D+00  0.000000D+00  0.000000D+00
 
Start formng/pg
igrda/b/g:   1   1   1,  Alpha=    0.0000, Beta=    0.0624, Gamma=    0.0000
  
 D(g) (NO) (real):
                 1             2             3             4             5 
      1   0.999514D+00  0.932993D-02  0.000000D+00  0.000000D+00  0.000000D+00
      2  -0.932993D-02  0.999514D+00  0.807829D-02  0.278857D-01 -0.651733D-02
      3   0.000000D+00 -0.807829D-02  0.999514D+00  0.000000D+00  0.000000D+00
      4   0.000000D+00 -0.278857D-01  0.000000D+00  0.999514D+00  0.000000D+00
      5   0.000000D+00  0.651733D-02  0.000000D+00  0.000000D+00  0.999514D+00
      6   0.558634D-02  0.000000D+00  0.298465D-01 -0.702059D-02 -0.104112D-02
      7  -0.286955D-01  0.000000D+00  0.258419D-02 -0.112657D-01 -0.392034D-02
      8  -0.554157D-02  0.000000D+00  0.310531D-02  0.431006D-02  0.302236D-01
                 6             7             8 
      1  -0.558634D-02  0.286955D-01  0.554157D-02
      2   0.000000D+00  0.000000D+00  0.000000D+00
      3  -0.298465D-01 -0.258419D-02 -0.310531D-02
      4   0.702059D-02  0.112657D-01 -0.431006D-02
      5   0.104112D-02  0.392034D-02 -0.302236D-01
      6   0.999514D+00  0.000000D+00  0.000000D+00
      7   0.000000D+00  0.999514D+00  0.000000D+00
      8   0.000000D+00  0.000000D+00  0.999514D+00
 D(g) (NO) (imaginary):
                 1             2             3             4             5 
      1   0.000000D+00  0.000000D+00  0.000000D+00  0.000000D+00  0.000000D+00
      2   0.000000D+00  0.000000D+00  0.000000D+00  0.000000D+00  0.000000D+00
      3   0.000000D+00  0.000000D+00  0.000000D+00  0.000000D+00  0.000000D+00
      4   0.000000D+00  0.000000D+00  0.000000D+00  0.000000D+00  0.000000D+00
      5   0.000000D+00  0.000000D+00  0.000000D+00  0.000000D+00  0.000000D+00
      6   0.000000D+00  0.000000D+00  0.000000D+00  0.000000D+00  0.000000D+00
      7   0.000000D+00  0.000000D+00  0.000000D+00  0.000000D+00  0.000000D+00
      8   0.000000D+00  0.000000D+00  0.000000D+00  0.000000D+00  0.000000D+00
                 6             7             8 
      1   0.000000D+00  0.000000D+00  0.000000D+00
      2   0.000000D+00  0.000000D+00  0.000000D+00
      3   0.000000D+00  0.000000D+00  0.000000D+00
      4   0.000000D+00  0.000000D+00  0.000000D+00
      5   0.000000D+00  0.000000D+00  0.000000D+00
      6   0.000000D+00  0.000000D+00  0.000000D+00
      7   0.000000D+00  0.000000D+00  0.000000D+00
      8   0.000000D+00  0.000000D+00  0.000000D+00
  
 N(g) (    1, 1, 1) (real):
                 1             2 
      1   0.100040D+01 -0.933819D-02
      2   0.933819D-02  0.100040D+01
 N(g) (    1, 1, 1) (imaginary):
                 1             2 
      1   0.000000D+00  0.000000D+00
      2   0.000000D+00  0.000000D+00
igrda/b/g:   1   2   1,  Alpha=    0.0000, Beta=    0.3194, Gamma=    0.0000
  
 D(g) (NO) (real):
                 1             2             3             4             5 
      1   0.987275D+00  0.475783D-01  0.000000D+00  0.000000D+00  0.000000D+00
      2  -0.475783D-01  0.987275D+00  0.411955D-01  0.142204D+00 -0.332354D-01
      3   0.000000D+00 -0.411955D-01  0.987275D+00  0.000000D+00  0.000000D+00
      4   0.000000D+00 -0.142204D+00  0.000000D+00  0.987275D+00  0.000000D+00
      5   0.000000D+00  0.332354D-01  0.000000D+00  0.000000D+00  0.987275D+00
      6   0.284877D-01  0.000000D+00  0.152203D+00 -0.358017D-01 -0.530923D-02
      7  -0.146333D+00  0.000000D+00  0.131782D-01 -0.574500D-01 -0.199919D-01
      8  -0.282594D-01  0.000000D+00  0.158356D-01  0.219793D-01  0.154126D+00
                 6             7             8 
      1  -0.284877D-01  0.146333D+00  0.282594D-01
      2   0.000000D+00  0.000000D+00  0.000000D+00
      3  -0.152203D+00 -0.131782D-01 -0.158356D-01
      4   0.358017D-01  0.574500D-01 -0.219793D-01
      5   0.530923D-02  0.199919D-01 -0.154126D+00
      6   0.987275D+00  0.000000D+00  0.000000D+00
      7   0.000000D+00  0.987275D+00  0.000000D+00
      8   0.000000D+00  0.000000D+00  0.987275D+00
 D(g) (NO) (imaginary):
                 1             2             3             4             5 
      1   0.000000D+00  0.000000D+00  0.000000D+00  0.000000D+00  0.000000D+00
      2   0.000000D+00  0.000000D+00  0.000000D+00  0.000000D+00  0.000000D+00
      3   0.000000D+00  0.000000D+00  0.000000D+00  0.000000D+00  0.000000D+00
      4   0.000000D+00  0.000000D+00  0.000000D+00  0.000000D+00  0.000000D+00
      5   0.000000D+00  0.000000D+00  0.000000D+00  0.000000D+00  0.000000D+00
      6   0.000000D+00  0.000000D+00  0.000000D+00  0.000000D+00  0.000000D+00
      7   0.000000D+00  0.000000D+00  0.000000D+00  0.000000D+00  0.000000D+00
      8   0.000000D+00  0.000000D+00  0.000000D+00  0.000000D+00  0.000000D+00
                 6             7             8 
      1   0.000000D+00  0.000000D+00  0.000000D+00
      2   0.000000D+00  0.000000D+00  0.000000D+00
      3   0.000000D+00  0.000000D+00  0.000000D+00
      4   0.000000D+00  0.000000D+00  0.000000D+00
      5   0.000000D+00  0.000000D+00  0.000000D+00
      6   0.000000D+00  0.000000D+00  0.000000D+00
      7   0.000000D+00  0.000000D+00  0.000000D+00
      8   0.000000D+00  0.000000D+00  0.000000D+00
  
 N(g) (    2, 1, 1) (real):
                 1             2 
      1   0.101054D+01 -0.486995D-01
      2   0.486995D-01  0.101054D+01
 N(g) (    2, 1, 1) (imaginary):
                 1             2 
      1   0.000000D+00  0.000000D+00
      2   0.000000D+00  0.000000D+00
igrda/b/g:   1   3   1,  Alpha=    0.0000, Beta=    0.7453, Gamma=    0.0000
  
 D(g) (NO) (real):
                 1             2             3             4             5 
      1   0.931367D+00  0.108932D+00  0.000000D+00  0.000000D+00  0.000000D+00
      2  -0.108932D+00  0.931367D+00  0.943185D-01  0.325581D+00 -0.760934D-01
      3   0.000000D+00 -0.943185D-01  0.931367D+00  0.000000D+00  0.000000D+00
      4   0.000000D+00 -0.325581D+00  0.000000D+00  0.931367D+00  0.000000D+00
      5   0.000000D+00  0.760934D-01  0.000000D+00  0.000000D+00  0.931367D+00
      6   0.652236D-01  0.000000D+00  0.348474D+00 -0.819692D-01 -0.121557D-01
      7  -0.335035D+00  0.000000D+00  0.301718D-01 -0.131534D+00 -0.457721D-01
      8  -0.647009D-01  0.000000D+00  0.362562D-01  0.503223D-01  0.352877D+00
                 6             7             8 
      1  -0.652236D-01  0.335035D+00  0.647009D-01
      2   0.000000D+00  0.000000D+00  0.000000D+00
      3  -0.348474D+00 -0.301718D-01 -0.362562D-01
      4   0.819692D-01  0.131534D+00 -0.503223D-01
      5   0.121557D-01  0.457721D-01 -0.352877D+00
      6   0.931367D+00  0.000000D+00  0.000000D+00
      7   0.000000D+00  0.931367D+00  0.000000D+00
      8   0.000000D+00  0.000000D+00  0.931367D+00
 D(g) (NO) (imaginary):
                 1             2             3             4             5 
      1   0.000000D+00  0.000000D+00  0.000000D+00  0.000000D+00  0.000000D+00
      2   0.000000D+00  0.000000D+00  0.000000D+00  0.000000D+00  0.000000D+00
      3   0.000000D+00  0.000000D+00  0.000000D+00  0.000000D+00  0.000000D+00
      4   0.000000D+00  0.000000D+00  0.000000D+00  0.000000D+00  0.000000D+00
      5   0.000000D+00  0.000000D+00  0.000000D+00  0.000000D+00  0.000000D+00
      6   0.000000D+00  0.000000D+00  0.000000D+00  0.000000D+00  0.000000D+00
      7   0.000000D+00  0.000000D+00  0.000000D+00  0.000000D+00  0.000000D+00
      8   0.000000D+00  0.000000D+00  0.000000D+00  0.000000D+00  0.000000D+00
                 6             7             8 
      1   0.000000D+00  0.000000D+00  0.000000D+00
      2   0.000000D+00  0.000000D+00  0.000000D+00
      3   0.000000D+00  0.000000D+00  0.000000D+00
      4   0.000000D+00  0.000000D+00  0.000000D+00
      5   0.000000D+00  0.000000D+00  0.000000D+00
      6   0.000000D+00  0.000000D+00  0.000000D+00
      7   0.000000D+00  0.000000D+00  0.000000D+00
      8   0.000000D+00  0.000000D+00  0.000000D+00
  
 N(g) (    3, 1, 1) (real):
                 1             2 
      1   0.105920D+01 -0.123883D+00
      2   0.123883D+00  0.105920D+01
 N(g) (    3, 1, 1) (imaginary):
                 1             2 
      1   0.000000D+00  0.000000D+00
      2   0.000000D+00  0.000000D+00
igrda/b/g:   1   4   1,  Alpha=    0.0000, Beta=    1.2827, Gamma=    0.0000
  
 D(g) (NO) (real):
                 1             2             3             4             5 
      1   0.801301D+00  0.178998D+00  0.000000D+00  0.000000D+00  0.000000D+00
      2  -0.178998D+00  0.801301D+00  0.154985D+00  0.534996D+00 -0.125037D+00
      3   0.000000D+00 -0.154985D+00  0.801301D+00  0.000000D+00  0.000000D+00
      4   0.000000D+00 -0.534996D+00  0.000000D+00  0.801301D+00  0.000000D+00
      5   0.000000D+00  0.125037D+00  0.000000D+00  0.000000D+00  0.801301D+00
      6   0.107176D+00  0.000000D+00  0.572615D+00 -0.134692D+00 -0.199743D-01
      7  -0.550532D+00  0.000000D+00  0.495786D-01 -0.216137D+00 -0.752131D-01
      8  -0.106317D+00  0.000000D+00  0.595765D-01  0.826901D-01  0.579850D+00
                 6             7             8 
      1  -0.107176D+00  0.550532D+00  0.106317D+00
      2   0.000000D+00  0.000000D+00  0.000000D+00
      3  -0.572615D+00 -0.495786D-01 -0.595765D-01
      4   0.134692D+00  0.216137D+00 -0.826901D-01
      5   0.199743D-01  0.752131D-01 -0.579850D+00
      6   0.801301D+00  0.000000D+00  0.000000D+00
      7   0.000000D+00  0.801301D+00  0.000000D+00
      8   0.000000D+00  0.000000D+00  0.801301D+00
 D(g) (NO) (imaginary):
                 1             2             3             4             5 
      1   0.000000D+00  0.000000D+00  0.000000D+00  0.000000D+00  0.000000D+00
      2   0.000000D+00  0.000000D+00  0.000000D+00  0.000000D+00  0.000000D+00
      3   0.000000D+00  0.000000D+00  0.000000D+00  0.000000D+00  0.000000D+00
      4   0.000000D+00  0.000000D+00  0.000000D+00  0.000000D+00  0.000000D+00
      5   0.000000D+00  0.000000D+00  0.000000D+00  0.000000D+00  0.000000D+00
      6   0.000000D+00  0.000000D+00  0.000000D+00  0.000000D+00  0.000000D+00
      7   0.000000D+00  0.000000D+00  0.000000D+00  0.000000D+00  0.000000D+00
      8   0.000000D+00  0.000000D+00  0.000000D+00  0.000000D+00  0.000000D+00
                 6             7             8 
      1   0.000000D+00  0.000000D+00  0.000000D+00
      2   0.000000D+00  0.000000D+00  0.000000D+00
      3   0.000000D+00  0.000000D+00  0.000000D+00
      4   0.000000D+00  0.000000D+00  0.000000D+00
      5   0.000000D+00  0.000000D+00  0.000000D+00
      6   0.000000D+00  0.000000D+00  0.000000D+00
      7   0.000000D+00  0.000000D+00  0.000000D+00
      8   0.000000D+00  0.000000D+00  0.000000D+00
  
 N(g) (    4, 1, 1) (real):
                 1             2 
      1   0.118866D+01 -0.265527D+00
      2   0.265527D+00  0.118866D+01
 N(g) (    4, 1, 1) (imaginary):
                 1             2 
      1   0.000000D+00  0.000000D+00
      2   0.000000D+00  0.000000D+00
igrda/b/g:   1   5   1,  Alpha=    0.0000, Beta=    1.8589, Gamma=    0.0000
  
 D(g) (NO) (real):
                 1             2             3             4             5 
      1   0.598261D+00  0.239747D+00  0.000000D+00  0.000000D+00  0.000000D+00
      2  -0.239747D+00  0.598261D+00  0.207584D+00  0.716566D+00 -0.167473D+00
      3   0.000000D+00 -0.207584D+00  0.598261D+00  0.000000D+00  0.000000D+00
      4   0.000000D+00 -0.716566D+00  0.000000D+00  0.598261D+00  0.000000D+00
      5   0.000000D+00  0.167473D+00  0.000000D+00  0.000000D+00  0.598261D+00
      6   0.143550D+00  0.000000D+00  0.766952D+00 -0.180405D+00 -0.267532D-01
      7  -0.737375D+00  0.000000D+00  0.664048D-01 -0.289490D+00 -0.100739D+00
      8  -0.142399D+00  0.000000D+00  0.797959D-01  0.110754D+00  0.776642D+00
                 6             7             8 
      1  -0.143550D+00  0.737375D+00  0.142399D+00
      2   0.000000D+00  0.000000D+00  0.000000D+00
      3  -0.766952D+00 -0.664048D-01 -0.797959D-01
      4   0.180405D+00  0.289490D+00 -0.110754D+00
      5   0.267532D-01  0.100739D+00 -0.776642D+00
      6   0.598261D+00  0.000000D+00  0.000000D+00
      7   0.000000D+00  0.598261D+00  0.000000D+00
      8   0.000000D+00  0.000000D+00  0.598261D+00
 D(g) (NO) (imaginary):
                 1             2             3             4             5 
      1   0.000000D+00  0.000000D+00  0.000000D+00  0.000000D+00  0.000000D+00
      2   0.000000D+00  0.000000D+00  0.000000D+00  0.000000D+00  0.000000D+00
      3   0.000000D+00  0.000000D+00  0.000000D+00  0.000000D+00  0.000000D+00
      4   0.000000D+00  0.000000D+00  0.000000D+00  0.000000D+00  0.000000D+00
      5   0.000000D+00  0.000000D+00  0.000000D+00  0.000000D+00  0.000000D+00
      6   0.000000D+00  0.000000D+00  0.000000D+00  0.000000D+00  0.000000D+00
      7   0.000000D+00  0.000000D+00  0.000000D+00  0.000000D+00  0.000000D+00
      8   0.000000D+00  0.000000D+00  0.000000D+00  0.000000D+00  0.000000D+00
                 6             7             8 
      1   0.000000D+00  0.000000D+00  0.000000D+00
      2   0.000000D+00  0.000000D+00  0.000000D+00
      3   0.000000D+00  0.000000D+00  0.000000D+00
      4   0.000000D+00  0.000000D+00  0.000000D+00
      5   0.000000D+00  0.000000D+00  0.000000D+00
      6   0.000000D+00  0.000000D+00  0.000000D+00
      7   0.000000D+00  0.000000D+00  0.000000D+00
      8   0.000000D+00  0.000000D+00  0.000000D+00
  
 N(g) (    5, 1, 1) (real):
                 1             2 
      1   0.144022D+01 -0.577155D+00
      2   0.577155D+00  0.144022D+01
 N(g) (    5, 1, 1) (imaginary):
                 1             2 
      1   0.000000D+00  0.000000D+00
      2   0.000000D+00  0.000000D+00
igrda/b/g:   1   6   1,  Alpha=    0.0000, Beta=    2.3963, Gamma=    0.0000
  
 D(g) (NO) (real):
                 1             2             3             4             5 
      1   0.364081D+00  0.278662D+00  0.000000D+00  0.000000D+00  0.000000D+00
      2  -0.278662D+00  0.364081D+00  0.241279D+00  0.832878D+00 -0.194657D+00
      3   0.000000D+00 -0.241279D+00  0.364081D+00  0.000000D+00  0.000000D+00
      4   0.000000D+00 -0.832878D+00  0.000000D+00  0.364081D+00  0.000000D+00
      5   0.000000D+00  0.194657D+00  0.000000D+00  0.000000D+00  0.364081D+00
      6   0.166851D+00  0.000000D+00  0.891443D+00 -0.209688D+00 -0.310958D-01
      7  -0.857064D+00  0.000000D+00  0.771835D-01 -0.336480D+00 -0.117091D+00
      8  -0.165513D+00  0.000000D+00  0.927482D-01  0.128731D+00  0.902705D+00
                 6             7             8 
      1  -0.166851D+00  0.857064D+00  0.165513D+00
      2   0.000000D+00  0.000000D+00  0.000000D+00
      3  -0.891443D+00 -0.771835D-01 -0.927482D-01
      4   0.209688D+00  0.336480D+00 -0.128731D+00
      5   0.310958D-01  0.117091D+00 -0.902705D+00
      6   0.364081D+00  0.000000D+00  0.000000D+00
      7   0.000000D+00  0.364081D+00  0.000000D+00
      8   0.000000D+00  0.000000D+00  0.364081D+00
 D(g) (NO) (imaginary):
                 1             2             3             4             5 
      1   0.000000D+00  0.000000D+00  0.000000D+00  0.000000D+00  0.000000D+00
      2   0.000000D+00  0.000000D+00  0.000000D+00  0.000000D+00  0.000000D+00
      3   0.000000D+00  0.000000D+00  0.000000D+00  0.000000D+00  0.000000D+00
      4   0.000000D+00  0.000000D+00  0.000000D+00  0.000000D+00  0.000000D+00
      5   0.000000D+00  0.000000D+00  0.000000D+00  0.000000D+00  0.000000D+00
      6   0.000000D+00  0.000000D+00  0.000000D+00  0.000000D+00  0.000000D+00
      7   0.000000D+00  0.000000D+00  0.000000D+00  0.000000D+00  0.000000D+00
      8   0.000000D+00  0.000000D+00  0.000000D+00  0.000000D+00  0.000000D+00
                 6             7             8 
      1   0.000000D+00  0.000000D+00  0.000000D+00
      2   0.000000D+00  0.000000D+00  0.000000D+00
      3   0.000000D+00  0.000000D+00  0.000000D+00
      4   0.000000D+00  0.000000D+00  0.000000D+00
      5   0.000000D+00  0.000000D+00  0.000000D+00
      6   0.000000D+00  0.000000D+00  0.000000D+00
      7   0.000000D+00  0.000000D+00  0.000000D+00
      8   0.000000D+00  0.000000D+00  0.000000D+00
  
 N(g) (    6, 1, 1) (real):
                 1             2 
      1   0.173201D+01 -0.132565D+01
      2   0.132565D+01  0.173201D+01
 N(g) (    6, 1, 1) (imaginary):
                 1             2 
      1   0.000000D+00  0.000000D+00
      2   0.000000D+00  0.000000D+00
igrda/b/g:   1   7   1,  Alpha=    0.0000, Beta=    2.8222, Gamma=    0.0000
  
 D(g) (NO) (real):
                 1             2             3             4             5 
      1   0.159020D+00  0.295390D+00  0.000000D+00  0.000000D+00  0.000000D+00
      2  -0.295390D+00  0.159020D+00  0.255763D+00  0.882874D+00 -0.206342D+00
      3   0.000000D+00 -0.255763D+00  0.159020D+00  0.000000D+00  0.000000D+00
      4   0.000000D+00 -0.882874D+00  0.000000D+00  0.159020D+00  0.000000D+00
      5   0.000000D+00  0.206342D+00  0.000000D+00  0.000000D+00  0.159020D+00
      6   0.176866D+00  0.000000D+00  0.944954D+00 -0.222275D+00 -0.329624D-01
      7  -0.908512D+00  0.000000D+00  0.818167D-01 -0.356678D+00 -0.124120D+00
      8  -0.175449D+00  0.000000D+00  0.983157D-01  0.136459D+00  0.956893D+00
                 6             7             8 
      1  -0.176866D+00  0.908512D+00  0.175449D+00
      2   0.000000D+00  0.000000D+00  0.000000D+00
      3  -0.944954D+00 -0.818167D-01 -0.983157D-01
      4   0.222275D+00  0.356678D+00 -0.136459D+00
      5   0.329624D-01  0.124120D+00 -0.956893D+00
      6   0.159020D+00  0.000000D+00  0.000000D+00
      7   0.000000D+00  0.159020D+00  0.000000D+00
      8   0.000000D+00  0.000000D+00  0.159020D+00
 D(g) (NO) (imaginary):
                 1             2             3             4             5 
      1   0.000000D+00  0.000000D+00  0.000000D+00  0.000000D+00  0.000000D+00
      2   0.000000D+00  0.000000D+00  0.000000D+00  0.000000D+00  0.000000D+00
      3   0.000000D+00  0.000000D+00  0.000000D+00  0.000000D+00  0.000000D+00
      4   0.000000D+00  0.000000D+00  0.000000D+00  0.000000D+00  0.000000D+00
      5   0.000000D+00  0.000000D+00  0.000000D+00  0.000000D+00  0.000000D+00
      6   0.000000D+00  0.000000D+00  0.000000D+00  0.000000D+00  0.000000D+00
      7   0.000000D+00  0.000000D+00  0.000000D+00  0.000000D+00  0.000000D+00
      8   0.000000D+00  0.000000D+00  0.000000D+00  0.000000D+00  0.000000D+00
                 6             7             8 
      1   0.000000D+00  0.000000D+00  0.000000D+00
      2   0.000000D+00  0.000000D+00  0.000000D+00
      3   0.000000D+00  0.000000D+00  0.000000D+00
      4   0.000000D+00  0.000000D+00  0.000000D+00
      5   0.000000D+00  0.000000D+00  0.000000D+00
      6   0.000000D+00  0.000000D+00  0.000000D+00
      7   0.000000D+00  0.000000D+00  0.000000D+00
      8   0.000000D+00  0.000000D+00  0.000000D+00
  
 N(g) (    7, 1, 1) (real):
                 1             2 
      1   0.141298D+01 -0.262470D+01
      2   0.262470D+01  0.141298D+01
 N(g) (    7, 1, 1) (imaginary):
                 1             2 
      1   0.000000D+00  0.000000D+00
      2   0.000000D+00  0.000000D+00
igrda/b/g:   1   8   1,  Alpha=    0.0000, Beta=    3.0792, Gamma=    0.0000
  
 D(g) (NO) (real):
                 1             2             3             4             5 
      1   0.311832D-01  0.299052D+00  0.000000D+00  0.000000D+00  0.000000D+00
      2  -0.299052D+00  0.311832D-01  0.258933D+00  0.893818D+00 -0.208900D+00
      3   0.000000D+00 -0.258933D+00  0.311832D-01  0.000000D+00  0.000000D+00
      4   0.000000D+00 -0.893818D+00  0.000000D+00  0.311832D-01  0.000000D+00
      5   0.000000D+00  0.208900D+00  0.000000D+00  0.000000D+00  0.311832D-01
      6   0.179059D+00  0.000000D+00  0.956668D+00 -0.225030D+00 -0.333710D-01
      7  -0.919774D+00  0.000000D+00  0.828309D-01 -0.361100D+00 -0.125658D+00
      8  -0.177624D+00  0.000000D+00  0.995344D-01  0.138150D+00  0.968754D+00
                 6             7             8 
      1  -0.179059D+00  0.919774D+00  0.177624D+00
      2   0.000000D+00  0.000000D+00  0.000000D+00
      3  -0.956668D+00 -0.828309D-01 -0.995344D-01
      4   0.225030D+00  0.361100D+00 -0.138150D+00
      5   0.333710D-01  0.125658D+00 -0.968754D+00
      6   0.311832D-01  0.000000D+00  0.000000D+00
      7   0.000000D+00  0.311832D-01  0.000000D+00
      8   0.000000D+00  0.000000D+00  0.311832D-01
 D(g) (NO) (imaginary):
                 1             2             3             4             5 
      1   0.000000D+00  0.000000D+00  0.000000D+00  0.000000D+00  0.000000D+00
      2   0.000000D+00  0.000000D+00  0.000000D+00  0.000000D+00  0.000000D+00
      3   0.000000D+00  0.000000D+00  0.000000D+00  0.000000D+00  0.000000D+00
      4   0.000000D+00  0.000000D+00  0.000000D+00  0.000000D+00  0.000000D+00
      5   0.000000D+00  0.000000D+00  0.000000D+00  0.000000D+00  0.000000D+00
      6   0.000000D+00  0.000000D+00  0.000000D+00  0.000000D+00  0.000000D+00
      7   0.000000D+00  0.000000D+00  0.000000D+00  0.000000D+00  0.000000D+00
      8   0.000000D+00  0.000000D+00  0.000000D+00  0.000000D+00  0.000000D+00
                 6             7             8 
      1   0.000000D+00  0.000000D+00  0.000000D+00
      2   0.000000D+00  0.000000D+00  0.000000D+00
      3   0.000000D+00  0.000000D+00  0.000000D+00
      4   0.000000D+00  0.000000D+00  0.000000D+00
      5   0.000000D+00  0.000000D+00  0.000000D+00
      6   0.000000D+00  0.000000D+00  0.000000D+00
      7   0.000000D+00  0.000000D+00  0.000000D+00
      8   0.000000D+00  0.000000D+00  0.000000D+00
  
 N(g) (    8, 1, 1) (real):
                 1             2 
      1   0.344931D+00 -0.330794D+01
      2   0.330794D+01  0.344931D+00
 N(g) (    8, 1, 1) (imaginary):
                 1             2 
      1   0.000000D+00  0.000000D+00
      2   0.000000D+00  0.000000D+00
  
 P(g) (    1, 1, 1) (real):
                 1             2             3             4             5 
      1   0.100000D+01  0.000000D+00  0.000000D+00  0.000000D+00  0.000000D+00
      2   0.000000D+00  0.100000D+01  0.000000D+00  0.000000D+00  0.000000D+00
      3  -0.754367D-04 -0.808152D-02  0.000000D+00  0.000000D+00  0.000000D+00
      4  -0.260402D-03 -0.278968D-01  0.000000D+00  0.000000D+00  0.000000D+00
      5   0.608601D-04  0.651994D-02  0.000000D+00  0.000000D+00  0.000000D+00
      6   0.558857D-02 -0.521663D-04  0.000000D+00  0.000000D+00  0.000000D+00
      7  -0.287069D-01  0.267964D-03  0.000000D+00  0.000000D+00  0.000000D+00
      8  -0.554379D-02  0.517483D-04  0.000000D+00  0.000000D+00  0.000000D+00
                 6             7             8 
      1   0.000000D+00  0.000000D+00  0.000000D+00
      2   0.000000D+00  0.000000D+00  0.000000D+00
      3   0.000000D+00  0.000000D+00  0.000000D+00
      4   0.000000D+00  0.000000D+00  0.000000D+00
      5   0.000000D+00  0.000000D+00  0.000000D+00
      6   0.000000D+00  0.000000D+00  0.000000D+00
      7   0.000000D+00  0.000000D+00  0.000000D+00
      8   0.000000D+00  0.000000D+00  0.000000D+00
 P(g) (    1, 1, 1) (imaginary):
                 1             2             3             4             5 
      1   0.000000D+00  0.000000D+00  0.000000D+00  0.000000D+00  0.000000D+00
      2   0.000000D+00  0.000000D+00  0.000000D+00  0.000000D+00  0.000000D+00
      3   0.000000D+00  0.000000D+00  0.000000D+00  0.000000D+00  0.000000D+00
      4   0.000000D+00  0.000000D+00  0.000000D+00  0.000000D+00  0.000000D+00
      5   0.000000D+00  0.000000D+00  0.000000D+00  0.000000D+00  0.000000D+00
      6   0.000000D+00  0.000000D+00  0.000000D+00  0.000000D+00  0.000000D+00
      7   0.000000D+00  0.000000D+00  0.000000D+00  0.000000D+00  0.000000D+00
      8   0.000000D+00  0.000000D+00  0.000000D+00  0.000000D+00  0.000000D+00
                 6             7             8 
      1   0.000000D+00  0.000000D+00  0.000000D+00
      2   0.000000D+00  0.000000D+00  0.000000D+00
      3   0.000000D+00  0.000000D+00  0.000000D+00
      4   0.000000D+00  0.000000D+00  0.000000D+00
      5   0.000000D+00  0.000000D+00  0.000000D+00
      6   0.000000D+00  0.000000D+00  0.000000D+00
      7   0.000000D+00  0.000000D+00  0.000000D+00
      8   0.000000D+00  0.000000D+00  0.000000D+00
  
 P(g) (    2, 1, 1) (real):
                 1             2             3             4             5 
      1   0.100000D+01  0.000000D+00  0.000000D+00  0.000000D+00  0.000000D+00
      2   0.000000D+00  0.100000D+01  0.000000D+00  0.000000D+00  0.000000D+00
      3  -0.200620D-02 -0.416298D-01  0.000000D+00  0.000000D+00  0.000000D+00
      4  -0.692526D-02 -0.143703D+00  0.000000D+00  0.000000D+00  0.000000D+00
      5   0.161855D-02  0.335857D-01  0.000000D+00  0.000000D+00  0.000000D+00
      6   0.287880D-01 -0.138734D-02  0.000000D+00  0.000000D+00  0.000000D+00
      7  -0.147876D+00  0.712636D-02  0.000000D+00  0.000000D+00  0.000000D+00
      8  -0.285573D-01  0.137622D-02  0.000000D+00  0.000000D+00  0.000000D+00
                 6             7             8 
      1   0.000000D+00  0.000000D+00  0.000000D+00
      2   0.000000D+00  0.000000D+00  0.000000D+00
      3   0.000000D+00  0.000000D+00  0.000000D+00
      4   0.000000D+00  0.000000D+00  0.000000D+00
      5   0.000000D+00  0.000000D+00  0.000000D+00
      6   0.000000D+00  0.000000D+00  0.000000D+00
      7   0.000000D+00  0.000000D+00  0.000000D+00
      8   0.000000D+00  0.000000D+00  0.000000D+00
 P(g) (    2, 1, 1) (imaginary):
                 1             2             3             4             5 
      1   0.000000D+00  0.000000D+00  0.000000D+00  0.000000D+00  0.000000D+00
      2   0.000000D+00  0.000000D+00  0.000000D+00  0.000000D+00  0.000000D+00
      3   0.000000D+00  0.000000D+00  0.000000D+00  0.000000D+00  0.000000D+00
      4   0.000000D+00  0.000000D+00  0.000000D+00  0.000000D+00  0.000000D+00
      5   0.000000D+00  0.000000D+00  0.000000D+00  0.000000D+00  0.000000D+00
      6   0.000000D+00  0.000000D+00  0.000000D+00  0.000000D+00  0.000000D+00
      7   0.000000D+00  0.000000D+00  0.000000D+00  0.000000D+00  0.000000D+00
      8   0.000000D+00  0.000000D+00  0.000000D+00  0.000000D+00  0.000000D+00
                 6             7             8 
      1   0.000000D+00  0.000000D+00  0.000000D+00
      2   0.000000D+00  0.000000D+00  0.000000D+00
      3   0.000000D+00  0.000000D+00  0.000000D+00
      4   0.000000D+00  0.000000D+00  0.000000D+00
      5   0.000000D+00  0.000000D+00  0.000000D+00
      6   0.000000D+00  0.000000D+00  0.000000D+00
      7   0.000000D+00  0.000000D+00  0.000000D+00
      8   0.000000D+00  0.000000D+00  0.000000D+00
  
 P(g) (    3, 1, 1) (real):
                 1             2             3             4             5 
      1   0.100000D+01  0.000000D+00  0.000000D+00  0.000000D+00  0.000000D+00
      2   0.000000D+00  0.100000D+01  0.000000D+00  0.000000D+00  0.000000D+00
      3  -0.116845D-01 -0.999022D-01  0.000000D+00  0.000000D+00  0.000000D+00
      4  -0.403340D-01 -0.344855D+00  0.000000D+00  0.000000D+00  0.000000D+00
      5   0.942671D-02  0.805982D-01  0.000000D+00  0.000000D+00  0.000000D+00
      6   0.690849D-01 -0.808011D-02  0.000000D+00  0.000000D+00  0.000000D+00
      7  -0.354870D+00  0.415053D-01  0.000000D+00  0.000000D+00  0.000000D+00
      8  -0.685312D-01  0.801536D-02  0.000000D+00  0.000000D+00  0.000000D+00
                 6             7             8 
      1   0.000000D+00  0.000000D+00  0.000000D+00
      2   0.000000D+00  0.000000D+00  0.000000D+00
      3   0.000000D+00  0.000000D+00  0.000000D+00
      4   0.000000D+00  0.000000D+00  0.000000D+00
      5   0.000000D+00  0.000000D+00  0.000000D+00
      6   0.000000D+00  0.000000D+00  0.000000D+00
      7   0.000000D+00  0.000000D+00  0.000000D+00
      8   0.000000D+00  0.000000D+00  0.000000D+00
 P(g) (    3, 1, 1) (imaginary):
                 1             2             3             4             5 
      1   0.000000D+00  0.000000D+00  0.000000D+00  0.000000D+00  0.000000D+00
      2   0.000000D+00  0.000000D+00  0.000000D+00  0.000000D+00  0.000000D+00
      3   0.000000D+00  0.000000D+00  0.000000D+00  0.000000D+00  0.000000D+00
      4   0.000000D+00  0.000000D+00  0.000000D+00  0.000000D+00  0.000000D+00
      5   0.000000D+00  0.000000D+00  0.000000D+00  0.000000D+00  0.000000D+00
      6   0.000000D+00  0.000000D+00  0.000000D+00  0.000000D+00  0.000000D+00
      7   0.000000D+00  0.000000D+00  0.000000D+00  0.000000D+00  0.000000D+00
      8   0.000000D+00  0.000000D+00  0.000000D+00  0.000000D+00  0.000000D+00
                 6             7             8 
      1   0.000000D+00  0.000000D+00  0.000000D+00
      2   0.000000D+00  0.000000D+00  0.000000D+00
      3   0.000000D+00  0.000000D+00  0.000000D+00
      4   0.000000D+00  0.000000D+00  0.000000D+00
      5   0.000000D+00  0.000000D+00  0.000000D+00
      6   0.000000D+00  0.000000D+00  0.000000D+00
      7   0.000000D+00  0.000000D+00  0.000000D+00
      8   0.000000D+00  0.000000D+00  0.000000D+00
  
 P(g) (    4, 1, 1) (real):
                 1             2             3             4             5 
      1   0.100000D+01  0.000000D+00  0.000000D+00  0.000000D+00  0.000000D+00
      2   0.000000D+00  0.100000D+01  0.000000D+00  0.000000D+00  0.000000D+00
      3  -0.411526D-01 -0.184224D+00  0.000000D+00  0.000000D+00  0.000000D+00
      4  -0.142056D+00 -0.635926D+00  0.000000D+00  0.000000D+00  0.000000D+00
      5   0.332007D-01  0.148626D+00  0.000000D+00  0.000000D+00  0.000000D+00
      6   0.127395D+00 -0.284581D-01  0.000000D+00  0.000000D+00  0.000000D+00
      7  -0.654393D+00  0.146181D+00  0.000000D+00  0.000000D+00  0.000000D+00
      8  -0.126374D+00  0.282300D-01  0.000000D+00  0.000000D+00  0.000000D+00
                 6             7             8 
      1   0.000000D+00  0.000000D+00  0.000000D+00
      2   0.000000D+00  0.000000D+00  0.000000D+00
      3   0.000000D+00  0.000000D+00  0.000000D+00
      4   0.000000D+00  0.000000D+00  0.000000D+00
      5   0.000000D+00  0.000000D+00  0.000000D+00
      6   0.000000D+00  0.000000D+00  0.000000D+00
      7   0.000000D+00  0.000000D+00  0.000000D+00
      8   0.000000D+00  0.000000D+00  0.000000D+00
 P(g) (    4, 1, 1) (imaginary):
                 1             2             3             4             5 
      1   0.000000D+00  0.000000D+00  0.000000D+00  0.000000D+00  0.000000D+00
      2   0.000000D+00  0.000000D+00  0.000000D+00  0.000000D+00  0.000000D+00
      3   0.000000D+00  0.000000D+00  0.000000D+00  0.000000D+00  0.000000D+00
      4   0.000000D+00  0.000000D+00  0.000000D+00  0.000000D+00  0.000000D+00
      5   0.000000D+00  0.000000D+00  0.000000D+00  0.000000D+00  0.000000D+00
      6   0.000000D+00  0.000000D+00  0.000000D+00  0.000000D+00  0.000000D+00
      7   0.000000D+00  0.000000D+00  0.000000D+00  0.000000D+00  0.000000D+00
      8   0.000000D+00  0.000000D+00  0.000000D+00  0.000000D+00  0.000000D+00
                 6             7             8 
      1   0.000000D+00  0.000000D+00  0.000000D+00
      2   0.000000D+00  0.000000D+00  0.000000D+00
      3   0.000000D+00  0.000000D+00  0.000000D+00
      4   0.000000D+00  0.000000D+00  0.000000D+00
      5   0.000000D+00  0.000000D+00  0.000000D+00
      6   0.000000D+00  0.000000D+00  0.000000D+00
      7   0.000000D+00  0.000000D+00  0.000000D+00
      8   0.000000D+00  0.000000D+00  0.000000D+00
  
 P(g) (    5, 1, 1) (real):
                 1             2             3             4             5 
      1   0.100000D+01  0.000000D+00  0.000000D+00  0.000000D+00  0.000000D+00
      2   0.000000D+00  0.100000D+01  0.000000D+00  0.000000D+00  0.000000D+00
      3  -0.119808D+00 -0.298968D+00  0.000000D+00  0.000000D+00  0.000000D+00
      4  -0.413569D+00 -0.103201D+01  0.000000D+00  0.000000D+00  0.000000D+00
      5   0.966579D-01  0.241199D+00  0.000000D+00  0.000000D+00  0.000000D+00
      6   0.206744D+00 -0.828504D-01  0.000000D+00  0.000000D+00  0.000000D+00
      7  -0.106198D+01  0.425579D+00  0.000000D+00  0.000000D+00  0.000000D+00
      8  -0.205087D+00  0.821865D-01  0.000000D+00  0.000000D+00  0.000000D+00
                 6             7             8 
      1   0.000000D+00  0.000000D+00  0.000000D+00
      2   0.000000D+00  0.000000D+00  0.000000D+00
      3   0.000000D+00  0.000000D+00  0.000000D+00
      4   0.000000D+00  0.000000D+00  0.000000D+00
      5   0.000000D+00  0.000000D+00  0.000000D+00
      6   0.000000D+00  0.000000D+00  0.000000D+00
      7   0.000000D+00  0.000000D+00  0.000000D+00
      8   0.000000D+00  0.000000D+00  0.000000D+00
 P(g) (    5, 1, 1) (imaginary):
                 1             2             3             4             5 
      1   0.000000D+00  0.000000D+00  0.000000D+00  0.000000D+00  0.000000D+00
      2   0.000000D+00  0.000000D+00  0.000000D+00  0.000000D+00  0.000000D+00
      3   0.000000D+00  0.000000D+00  0.000000D+00  0.000000D+00  0.000000D+00
      4   0.000000D+00  0.000000D+00  0.000000D+00  0.000000D+00  0.000000D+00
      5   0.000000D+00  0.000000D+00  0.000000D+00  0.000000D+00  0.000000D+00
      6   0.000000D+00  0.000000D+00  0.000000D+00  0.000000D+00  0.000000D+00
      7   0.000000D+00  0.000000D+00  0.000000D+00  0.000000D+00  0.000000D+00
      8   0.000000D+00  0.000000D+00  0.000000D+00  0.000000D+00  0.000000D+00
                 6             7             8 
      1   0.000000D+00  0.000000D+00  0.000000D+00
      2   0.000000D+00  0.000000D+00  0.000000D+00
      3   0.000000D+00  0.000000D+00  0.000000D+00
      4   0.000000D+00  0.000000D+00  0.000000D+00
      5   0.000000D+00  0.000000D+00  0.000000D+00
      6   0.000000D+00  0.000000D+00  0.000000D+00
      7   0.000000D+00  0.000000D+00  0.000000D+00
      8   0.000000D+00  0.000000D+00  0.000000D+00
  
 P(g) (    6, 1, 1) (real):
                 1             2             3             4             5 
      1   0.100000D+01  0.000000D+00  0.000000D+00  0.000000D+00  0.000000D+00
      2   0.000000D+00  0.100000D+01  0.000000D+00  0.000000D+00  0.000000D+00
      3  -0.319852D+00 -0.417897D+00  0.000000D+00  0.000000D+00  0.000000D+00
      4  -0.110411D+01 -0.144255D+01  0.000000D+00  0.000000D+00  0.000000D+00
      5   0.258048D+00  0.337147D+00  0.000000D+00  0.000000D+00  0.000000D+00
      6   0.288986D+00 -0.221186D+00  0.000000D+00  0.000000D+00  0.000000D+00
      7  -0.148444D+01  0.113617D+01  0.000000D+00  0.000000D+00  0.000000D+00
      8  -0.286670D+00  0.219413D+00  0.000000D+00  0.000000D+00  0.000000D+00
                 6             7             8 
      1   0.000000D+00  0.000000D+00  0.000000D+00
      2   0.000000D+00  0.000000D+00  0.000000D+00
      3   0.000000D+00  0.000000D+00  0.000000D+00
      4   0.000000D+00  0.000000D+00  0.000000D+00
      5   0.000000D+00  0.000000D+00  0.000000D+00
      6   0.000000D+00  0.000000D+00  0.000000D+00
      7   0.000000D+00  0.000000D+00  0.000000D+00
      8   0.000000D+00  0.000000D+00  0.000000D+00
 P(g) (    6, 1, 1) (imaginary):
                 1             2             3             4             5 
      1   0.000000D+00  0.000000D+00  0.000000D+00  0.000000D+00  0.000000D+00
      2   0.000000D+00  0.000000D+00  0.000000D+00  0.000000D+00  0.000000D+00
      3   0.000000D+00  0.000000D+00  0.000000D+00  0.000000D+00  0.000000D+00
      4   0.000000D+00  0.000000D+00  0.000000D+00  0.000000D+00  0.000000D+00
      5   0.000000D+00  0.000000D+00  0.000000D+00  0.000000D+00  0.000000D+00
      6   0.000000D+00  0.000000D+00  0.000000D+00  0.000000D+00  0.000000D+00
      7   0.000000D+00  0.000000D+00  0.000000D+00  0.000000D+00  0.000000D+00
      8   0.000000D+00  0.000000D+00  0.000000D+00  0.000000D+00  0.000000D+00
                 6             7             8 
      1   0.000000D+00  0.000000D+00  0.000000D+00
      2   0.000000D+00  0.000000D+00  0.000000D+00
      3   0.000000D+00  0.000000D+00  0.000000D+00
      4   0.000000D+00  0.000000D+00  0.000000D+00
      5   0.000000D+00  0.000000D+00  0.000000D+00
      6   0.000000D+00  0.000000D+00  0.000000D+00
      7   0.000000D+00  0.000000D+00  0.000000D+00
      8   0.000000D+00  0.000000D+00  0.000000D+00
  
 P(g) (    7, 1, 1) (real):
                 1             2             3             4             5 
      1   0.100000D+01  0.000000D+00  0.000000D+00  0.000000D+00  0.000000D+00
      2   0.000000D+00  0.100000D+01  0.000000D+00  0.000000D+00  0.000000D+00
      3  -0.671299D+00 -0.361386D+00  0.000000D+00  0.000000D+00  0.000000D+00
      4  -0.231728D+01 -0.124748D+01  0.000000D+00  0.000000D+00  0.000000D+00
      5   0.541585D+00  0.291556D+00  0.000000D+00  0.000000D+00  0.000000D+00
      6   0.249908D+00 -0.464220D+00  0.000000D+00  0.000000D+00  0.000000D+00
      7  -0.128371D+01  0.238457D+01  0.000000D+00  0.000000D+00  0.000000D+00
      8  -0.247905D+00  0.460500D+00  0.000000D+00  0.000000D+00  0.000000D+00
                 6             7             8 
      1   0.000000D+00  0.000000D+00  0.000000D+00
      2   0.000000D+00  0.000000D+00  0.000000D+00
      3   0.000000D+00  0.000000D+00  0.000000D+00
      4   0.000000D+00  0.000000D+00  0.000000D+00
      5   0.000000D+00  0.000000D+00  0.000000D+00
      6   0.000000D+00  0.000000D+00  0.000000D+00
      7   0.000000D+00  0.000000D+00  0.000000D+00
      8   0.000000D+00  0.000000D+00  0.000000D+00
 P(g) (    7, 1, 1) (imaginary):
                 1             2             3             4             5 
      1   0.000000D+00  0.000000D+00  0.000000D+00  0.000000D+00  0.000000D+00
      2   0.000000D+00  0.000000D+00  0.000000D+00  0.000000D+00  0.000000D+00
      3   0.000000D+00  0.000000D+00  0.000000D+00  0.000000D+00  0.000000D+00
      4   0.000000D+00  0.000000D+00  0.000000D+00  0.000000D+00  0.000000D+00
      5   0.000000D+00  0.000000D+00  0.000000D+00  0.000000D+00  0.000000D+00
      6   0.000000D+00  0.000000D+00  0.000000D+00  0.000000D+00  0.000000D+00
      7   0.000000D+00  0.000000D+00  0.000000D+00  0.000000D+00  0.000000D+00
      8   0.000000D+00  0.000000D+00  0.000000D+00  0.000000D+00  0.000000D+00
                 6             7             8 
      1   0.000000D+00  0.000000D+00  0.000000D+00
      2   0.000000D+00  0.000000D+00  0.000000D+00
      3   0.000000D+00  0.000000D+00  0.000000D+00
      4   0.000000D+00  0.000000D+00  0.000000D+00
      5   0.000000D+00  0.000000D+00  0.000000D+00
      6   0.000000D+00  0.000000D+00  0.000000D+00
      7   0.000000D+00  0.000000D+00  0.000000D+00
      8   0.000000D+00  0.000000D+00  0.000000D+00
  
 P(g) (    8, 1, 1) (real):
                 1             2             3             4             5 
      1   0.100000D+01  0.000000D+00  0.000000D+00  0.000000D+00  0.000000D+00
      2   0.000000D+00  0.100000D+01  0.000000D+00  0.000000D+00  0.000000D+00
      3  -0.856534D+00 -0.893140D-01  0.000000D+00  0.000000D+00  0.000000D+00
      4  -0.295669D+01 -0.308306D+00  0.000000D+00  0.000000D+00  0.000000D+00
      5   0.691027D+00  0.720560D-01  0.000000D+00  0.000000D+00  0.000000D+00
      6   0.617629D-01 -0.592315D+00  0.000000D+00  0.000000D+00  0.000000D+00
      7  -0.317259D+00  0.304255D+01  0.000000D+00  0.000000D+00  0.000000D+00
      8  -0.612679D-01  0.587568D+00  0.000000D+00  0.000000D+00  0.000000D+00
                 6             7             8 
      1   0.000000D+00  0.000000D+00  0.000000D+00
      2   0.000000D+00  0.000000D+00  0.000000D+00
      3   0.000000D+00  0.000000D+00  0.000000D+00
      4   0.000000D+00  0.000000D+00  0.000000D+00
      5   0.000000D+00  0.000000D+00  0.000000D+00
      6   0.000000D+00  0.000000D+00  0.000000D+00
      7   0.000000D+00  0.000000D+00  0.000000D+00
      8   0.000000D+00  0.000000D+00  0.000000D+00
 P(g) (    8, 1, 1) (imaginary):
                 1             2             3             4             5 
      1   0.000000D+00  0.000000D+00  0.000000D+00  0.000000D+00  0.000000D+00
      2   0.000000D+00  0.000000D+00  0.000000D+00  0.000000D+00  0.000000D+00
      3   0.000000D+00  0.000000D+00  0.000000D+00  0.000000D+00  0.000000D+00
      4   0.000000D+00  0.000000D+00  0.000000D+00  0.000000D+00  0.000000D+00
      5   0.000000D+00  0.000000D+00  0.000000D+00  0.000000D+00  0.000000D+00
      6   0.000000D+00  0.000000D+00  0.000000D+00  0.000000D+00  0.000000D+00
      7   0.000000D+00  0.000000D+00  0.000000D+00  0.000000D+00  0.000000D+00
      8   0.000000D+00  0.000000D+00  0.000000D+00  0.000000D+00  0.000000D+00
                 6             7             8 
      1   0.000000D+00  0.000000D+00  0.000000D+00
      2   0.000000D+00  0.000000D+00  0.000000D+00
      3   0.000000D+00  0.000000D+00  0.000000D+00
      4   0.000000D+00  0.000000D+00  0.000000D+00
      5   0.000000D+00  0.000000D+00  0.000000D+00
      6   0.000000D+00  0.000000D+00  0.000000D+00
      7   0.000000D+00  0.000000D+00  0.000000D+00
      8   0.000000D+00  0.000000D+00  0.000000D+00
 
Start formgg
  
 P(g) ortho (real):
                 1             2             3             4             5 
      1   0.642873D+00  0.465916D+00 -0.663976D-01  0.907301D-01 -0.140516D-01
      2   0.465645D+00  0.337471D+00 -0.480930D-01  0.657174D-01  0.188794D-01
      3  -0.663976D-01 -0.481210D-01  0.685771D-02 -0.937083D-02  0.145129D-02
      4   0.906773D-01  0.657174D-01 -0.936537D-02  0.127975D-01  0.367648D-02
      5   0.140516D-01  0.101838D-01 -0.145129D-02  0.198314D-02  0.642873D+00
      6   0.188794D-01  0.136827D-01 -0.194991D-02  0.266449D-02 -0.465645D+00
      7  -0.145129D-02 -0.105181D-02  0.149893D-03 -0.204823D-03 -0.663976D-01
      8   0.367648D-02  0.266449D-02 -0.379716D-03  0.518869D-03 -0.906773D-01
                 6             7             8 
      1   0.101838D-01  0.145129D-02  0.198314D-02
      2  -0.136827D-01 -0.194991D-02 -0.266449D-02
      3  -0.105181D-02 -0.149893D-03 -0.204823D-03
      4  -0.266449D-02 -0.379716D-03 -0.518869D-03
      5  -0.465916D+00 -0.663976D-01 -0.907301D-01
      6   0.337471D+00  0.480930D-01  0.657174D-01
      7   0.481210D-01  0.685771D-02  0.937083D-02
      8   0.657174D-01  0.936537D-02  0.127975D-01
 P(g) ortho (imaginary):
                 1             2             3             4             5 
      1   0.000000D+00  0.000000D+00  0.000000D+00  0.000000D+00  0.000000D+00
      2   0.000000D+00  0.000000D+00  0.000000D+00  0.000000D+00  0.000000D+00
      3   0.000000D+00  0.000000D+00  0.000000D+00  0.000000D+00  0.000000D+00
      4   0.000000D+00  0.000000D+00  0.000000D+00  0.000000D+00  0.000000D+00
      5   0.000000D+00  0.000000D+00  0.000000D+00  0.000000D+00  0.000000D+00
      6   0.000000D+00  0.000000D+00  0.000000D+00  0.000000D+00  0.000000D+00
      7   0.000000D+00  0.000000D+00  0.000000D+00  0.000000D+00  0.000000D+00
      8   0.000000D+00  0.000000D+00  0.000000D+00  0.000000D+00  0.000000D+00
                 6             7             8 
      1   0.000000D+00  0.000000D+00  0.000000D+00
      2   0.000000D+00  0.000000D+00  0.000000D+00
      3   0.000000D+00  0.000000D+00  0.000000D+00
      4   0.000000D+00  0.000000D+00  0.000000D+00
      5   0.000000D+00  0.000000D+00  0.000000D+00
      6   0.000000D+00  0.000000D+00  0.000000D+00
      7   0.000000D+00  0.000000D+00  0.000000D+00
      8   0.000000D+00  0.000000D+00  0.000000D+00
  
 P(g) ortho (real):
                 1             2             3             4             5 
      1   0.646230D+00  0.468349D+00 -0.667443D-01  0.912039D-01 -0.723833D-01
      2   0.461134D+00  0.334203D+00 -0.476271D-01  0.650809D-01  0.972522D-01
      3  -0.667443D-01 -0.483723D-01  0.689352D-02 -0.941976D-02  0.747593D-02
      4   0.897989D-01  0.650809D-01 -0.927465D-02  0.126735D-01  0.189384D-01
      5   0.723833D-01  0.524591D-01 -0.747593D-02  0.102156D-01  0.646230D+00
      6   0.972522D-01  0.704826D-01 -0.100445D-01  0.137254D-01 -0.461134D+00
      7  -0.747593D-02 -0.541810D-02  0.772132D-03 -0.105509D-02 -0.667443D-01
      8   0.189384D-01  0.137254D-01 -0.195601D-02  0.267282D-02 -0.897989D-01
                 6             7             8 
      1   0.524591D-01  0.747593D-02  0.102156D-01
      2  -0.704826D-01 -0.100445D-01 -0.137254D-01
      3  -0.541810D-02 -0.772132D-03 -0.105509D-02
      4  -0.137254D-01 -0.195601D-02 -0.267282D-02
      5  -0.468349D+00 -0.667443D-01 -0.912039D-01
      6   0.334203D+00  0.476271D-01  0.650809D-01
      7   0.483723D-01  0.689352D-02  0.941976D-02
      8   0.650809D-01  0.927465D-02  0.126735D-01
 P(g) ortho (imaginary):
                 1             2             3             4             5 
      1   0.000000D+00  0.000000D+00  0.000000D+00  0.000000D+00  0.000000D+00
      2   0.000000D+00  0.000000D+00  0.000000D+00  0.000000D+00  0.000000D+00
      3   0.000000D+00  0.000000D+00  0.000000D+00  0.000000D+00  0.000000D+00
      4   0.000000D+00  0.000000D+00  0.000000D+00  0.000000D+00  0.000000D+00
      5   0.000000D+00  0.000000D+00  0.000000D+00  0.000000D+00  0.000000D+00
      6   0.000000D+00  0.000000D+00  0.000000D+00  0.000000D+00  0.000000D+00
      7   0.000000D+00  0.000000D+00  0.000000D+00  0.000000D+00  0.000000D+00
      8   0.000000D+00  0.000000D+00  0.000000D+00  0.000000D+00  0.000000D+00
                 6             7             8 
      1   0.000000D+00  0.000000D+00  0.000000D+00
      2   0.000000D+00  0.000000D+00  0.000000D+00
      3   0.000000D+00  0.000000D+00  0.000000D+00
      4   0.000000D+00  0.000000D+00  0.000000D+00
      5   0.000000D+00  0.000000D+00  0.000000D+00
      6   0.000000D+00  0.000000D+00  0.000000D+00
      7   0.000000D+00  0.000000D+00  0.000000D+00
      8   0.000000D+00  0.000000D+00  0.000000D+00
  
 P(g) ortho (real):
                 1             2             3             4             5 
      1   0.663058D+00  0.480545D+00 -0.684823D-01  0.935788D-01 -0.173704D+00
      2   0.438525D+00  0.317816D+00 -0.452919D-01  0.618899D-01  0.233384D+00
      3  -0.684823D-01 -0.496319D-01  0.707303D-02 -0.966506D-02  0.179406D-01
      4   0.853960D-01  0.618899D-01 -0.881991D-02  0.120521D-01  0.454479D-01
      5   0.173704D+00  0.125890D+00 -0.179406D-01  0.245152D-01  0.663058D+00
      6   0.233384D+00  0.169143D+00 -0.241045D-01  0.329379D-01 -0.438525D+00
      7  -0.179406D-01 -0.130022D-01  0.185295D-02 -0.253199D-02 -0.684823D-01
      8   0.454479D-01  0.329379D-01 -0.469398D-02  0.641416D-02 -0.853960D-01
                 6             7             8 
      1   0.125890D+00  0.179406D-01  0.245152D-01
      2  -0.169143D+00 -0.241045D-01 -0.329379D-01
      3  -0.130022D-01 -0.185295D-02 -0.253199D-02
      4  -0.329379D-01 -0.469398D-02 -0.641416D-02
      5  -0.480545D+00 -0.684823D-01 -0.935788D-01
      6   0.317816D+00  0.452919D-01  0.618899D-01
      7   0.496319D-01  0.707303D-02  0.966506D-02
      8   0.618899D-01  0.881991D-02  0.120521D-01
 P(g) ortho (imaginary):
                 1             2             3             4             5 
      1   0.000000D+00  0.000000D+00  0.000000D+00  0.000000D+00  0.000000D+00
      2   0.000000D+00  0.000000D+00  0.000000D+00  0.000000D+00  0.000000D+00
      3   0.000000D+00  0.000000D+00  0.000000D+00  0.000000D+00  0.000000D+00
      4   0.000000D+00  0.000000D+00  0.000000D+00  0.000000D+00  0.000000D+00
      5   0.000000D+00  0.000000D+00  0.000000D+00  0.000000D+00  0.000000D+00
      6   0.000000D+00  0.000000D+00  0.000000D+00  0.000000D+00  0.000000D+00
      7   0.000000D+00  0.000000D+00  0.000000D+00  0.000000D+00  0.000000D+00
      8   0.000000D+00  0.000000D+00  0.000000D+00  0.000000D+00  0.000000D+00
[...]
  
 Ngg (real):
                 1             2 
      1   0.119308D+01 -0.255916D+00
      2   0.255916D+00  0.119308D+01
 Ngg (imaginary):
                 1             2 
      1   0.000000D+00  0.000000D+00
      2   0.000000D+00  0.000000D+00
  
 Pgg (real):
                 1             2             3             4             5 
      1   0.100000D+01  0.000000D+00  0.000000D+00  0.000000D+00  0.000000D+00
      2   0.000000D+00  0.100000D+01  0.000000D+00  0.000000D+00  0.000000D+00
      3  -0.849580D-01 -0.396073D+00  0.000000D+00  0.000000D+00  0.000000D+00
      4  -0.647519D-02 -0.301872D-01  0.000000D+00  0.000000D+00  0.000000D+00
      5  -0.119358D+00 -0.556445D+00  0.000000D+00  0.000000D+00  0.000000D+00
      6   0.888959D-02 -0.190682D-02  0.000000D+00  0.000000D+00  0.000000D+00
      7  -0.682860D+00  0.146474D+00  0.000000D+00  0.000000D+00  0.000000D+00
      8   0.322431D-01 -0.691617D-02  0.000000D+00  0.000000D+00  0.000000D+00
                 6             7             8 
      1   0.000000D+00  0.000000D+00  0.000000D+00
      2   0.000000D+00  0.000000D+00  0.000000D+00
      3   0.000000D+00  0.000000D+00  0.000000D+00
      4   0.000000D+00  0.000000D+00  0.000000D+00
      5   0.000000D+00  0.000000D+00  0.000000D+00
      6   0.000000D+00  0.000000D+00  0.000000D+00
      7   0.000000D+00  0.000000D+00  0.000000D+00
      8   0.000000D+00  0.000000D+00  0.000000D+00
 Pgg (imaginary):
                 1             2             3             4             5 
      1   0.000000D+00  0.000000D+00  0.000000D+00  0.000000D+00  0.000000D+00
      2   0.000000D+00  0.000000D+00  0.000000D+00  0.000000D+00  0.000000D+00
      3   0.000000D+00  0.000000D+00  0.000000D+00  0.000000D+00  0.000000D+00
      4   0.000000D+00  0.000000D+00  0.000000D+00  0.000000D+00  0.000000D+00
      5   0.000000D+00  0.000000D+00  0.000000D+00  0.000000D+00  0.000000D+00
      6   0.000000D+00  0.000000D+00  0.000000D+00  0.000000D+00  0.000000D+00
      7   0.000000D+00  0.000000D+00  0.000000D+00  0.000000D+00  0.000000D+00
      8   0.000000D+00  0.000000D+00  0.000000D+00  0.000000D+00  0.000000D+00
                 6             7             8 
      1   0.000000D+00  0.000000D+00  0.000000D+00
      2   0.000000D+00  0.000000D+00  0.000000D+00
      3   0.000000D+00  0.000000D+00  0.000000D+00
      4   0.000000D+00  0.000000D+00  0.000000D+00
      5   0.000000D+00  0.000000D+00  0.000000D+00
      6   0.000000D+00  0.000000D+00  0.000000D+00
      7   0.000000D+00  0.000000D+00  0.000000D+00
      8   0.000000D+00  0.000000D+00  0.000000D+00
 xgg (0.6716266095462823,-3.7282766293460628E-017)
  
 Pgg1 j2s10 (real):
                 1             2             3             4 
      1   0.635622D-01  0.120986D+00  0.119409D-01  0.301944D-01
      2   0.120986D+00  0.231198D+00  0.301944D-01  0.715128D-01
      3   0.119409D-01  0.301944D-01  0.635622D-01  0.120986D+00
      4   0.301944D-01  0.715128D-01  0.120986D+00  0.231198D+00
 Pgg1 j2s10 (imaginary):
                 1             2             3             4 
      1   0.000000D+00  0.000000D+00  0.000000D+00  0.000000D+00
      2   0.000000D+00  0.000000D+00  0.000000D+00  0.000000D+00
      3   0.000000D+00  0.000000D+00  0.000000D+00  0.000000D+00
      4   0.000000D+00  0.000000D+00  0.000000D+00  0.000000D+00
 civec (0.9611205856336856,0.0000000000000000E+000)
  
 Ngg (real):
                 1             2 
      1   0.145593D+01 -0.560246D+00
      2   0.560246D+00  0.145593D+01
 Ngg (imaginary):
                 1             2 
      1   0.000000D+00  0.000000D+00
      2   0.000000D+00  0.000000D+00
  
 Pgg (real):
                 1             2             3             4             5 
      1   0.100000D+01  0.000000D+00  0.000000D+00  0.000000D+00  0.000000D+00
      2   0.000000D+00  0.100000D+01  0.000000D+00  0.000000D+00  0.000000D+00
      3  -0.249110D+00 -0.647370D+00  0.000000D+00  0.000000D+00  0.000000D+00
      4  -0.189863D-01 -0.493401D-01  0.000000D+00  0.000000D+00  0.000000D+00
      5  -0.349976D+00 -0.909493D+00  0.000000D+00  0.000000D+00  0.000000D+00
      6   0.145298D-01 -0.559111D-02  0.000000D+00  0.000000D+00  0.000000D+00
      7  -0.111611D+01  0.429485D+00  0.000000D+00  0.000000D+00  0.000000D+00
      8   0.527004D-01 -0.202793D-01  0.000000D+00  0.000000D+00  0.000000D+00
                 6             7             8 
      1   0.000000D+00  0.000000D+00  0.000000D+00
      2   0.000000D+00  0.000000D+00  0.000000D+00
      3   0.000000D+00  0.000000D+00  0.000000D+00
      4   0.000000D+00  0.000000D+00  0.000000D+00
      5   0.000000D+00  0.000000D+00  0.000000D+00
      6   0.000000D+00  0.000000D+00  0.000000D+00
      7   0.000000D+00  0.000000D+00  0.000000D+00
      8   0.000000D+00  0.000000D+00  0.000000D+00
 Pgg (imaginary):
                 1             2             3             4             5 
      1   0.000000D+00  0.000000D+00  0.000000D+00  0.000000D+00  0.000000D+00
      2   0.000000D+00  0.000000D+00  0.000000D+00  0.000000D+00  0.000000D+00
      3   0.000000D+00  0.000000D+00  0.000000D+00  0.000000D+00  0.000000D+00
      4   0.000000D+00  0.000000D+00  0.000000D+00  0.000000D+00  0.000000D+00
      5   0.000000D+00  0.000000D+00  0.000000D+00  0.000000D+00  0.000000D+00
      6   0.000000D+00  0.000000D+00  0.000000D+00  0.000000D+00  0.000000D+00
      7   0.000000D+00  0.000000D+00  0.000000D+00  0.000000D+00  0.000000D+00
      8   0.000000D+00  0.000000D+00  0.000000D+00  0.000000D+00  0.000000D+00
                 6             7             8 
      1   0.000000D+00  0.000000D+00  0.000000D+00
      2   0.000000D+00  0.000000D+00  0.000000D+00
      3   0.000000D+00  0.000000D+00  0.000000D+00
      4   0.000000D+00  0.000000D+00  0.000000D+00
      5   0.000000D+00  0.000000D+00  0.000000D+00
      6   0.000000D+00  0.000000D+00  0.000000D+00
      7   0.000000D+00  0.000000D+00  0.000000D+00
      8   0.000000D+00  0.000000D+00  0.000000D+00
 xgg (0.4109141107755879,6.8430946038964472E-017)
  
 Pgg1 j2s10 (real):
                 1             2             3             4 
      1   0.357894D-01  0.696399D-01  0.191859D-01  0.404377D-01
      2   0.696399D-01  0.135885D+00  0.404377D-01  0.845243D-01
      3   0.191859D-01  0.404377D-01  0.357894D-01  0.696399D-01
      4   0.404377D-01  0.845243D-01  0.696399D-01  0.135885D+00
 Pgg1 j2s10 (imaginary):
                 1             2             3             4 
      1   0.000000D+00  0.000000D+00  0.000000D+00  0.000000D+00
      2   0.000000D+00  0.000000D+00  0.000000D+00  0.000000D+00
      3   0.000000D+00  0.000000D+00  0.000000D+00  0.000000D+00
      4   0.000000D+00  0.000000D+00  0.000000D+00  0.000000D+00
 civec (0.9611205856336856,0.0000000000000000E+000)
  
 Ngg (real):
                 1             2 
      1   0.178336D+01 -0.131068D+01
      2   0.131068D+01  0.178336D+01
 Ngg (imaginary):
                 1             2 
      1   0.000000D+00  0.000000D+00
      2   0.000000D+00  0.000000D+00
  
 Pgg (real):
                 1             2             3             4             5 
      1   0.100000D+01  0.000000D+00  0.000000D+00  0.000000D+00  0.000000D+00
      2   0.000000D+00  0.100000D+01  0.000000D+00  0.000000D+00  0.000000D+00
      3  -0.677382D+00 -0.921673D+00  0.000000D+00  0.000000D+00  0.000000D+00
      4  -0.516276D-01 -0.702465D-01  0.000000D+00  0.000000D+00  0.000000D+00
      5  -0.951658D+00 -0.129486D+01  0.000000D+00  0.000000D+00  0.000000D+00
      6   0.206863D-01 -0.152034D-01  0.000000D+00  0.000000D+00  0.000000D+00
      7  -0.158903D+01  0.116786D+01  0.000000D+00  0.000000D+00  0.000000D+00
      8   0.750306D-01 -0.551436D-01  0.000000D+00  0.000000D+00  0.000000D+00
                 6             7             8 
      1   0.000000D+00  0.000000D+00  0.000000D+00
      2   0.000000D+00  0.000000D+00  0.000000D+00
      3   0.000000D+00  0.000000D+00  0.000000D+00
      4   0.000000D+00  0.000000D+00  0.000000D+00
      5   0.000000D+00  0.000000D+00  0.000000D+00
      6   0.000000D+00  0.000000D+00  0.000000D+00
      7   0.000000D+00  0.000000D+00  0.000000D+00
      8   0.000000D+00  0.000000D+00  0.000000D+00
 Pgg (imaginary):
                 1             2             3             4             5 
      1   0.000000D+00  0.000000D+00  0.000000D+00  0.000000D+00  0.000000D+00
      2   0.000000D+00  0.000000D+00  0.000000D+00  0.000000D+00  0.000000D+00
      3   0.000000D+00  0.000000D+00  0.000000D+00  0.000000D+00  0.000000D+00
      4   0.000000D+00  0.000000D+00  0.000000D+00  0.000000D+00  0.000000D+00
      5   0.000000D+00  0.000000D+00  0.000000D+00  0.000000D+00  0.000000D+00
      6   0.000000D+00  0.000000D+00  0.000000D+00  0.000000D+00  0.000000D+00
      7   0.000000D+00  0.000000D+00  0.000000D+00  0.000000D+00  0.000000D+00
      8   0.000000D+00  0.000000D+00  0.000000D+00  0.000000D+00  0.000000D+00
                 6             7             8 
      1   0.000000D+00  0.000000D+00  0.000000D+00
      2   0.000000D+00  0.000000D+00  0.000000D+00
      3   0.000000D+00  0.000000D+00  0.000000D+00
      4   0.000000D+00  0.000000D+00  0.000000D+00
      5   0.000000D+00  0.000000D+00  0.000000D+00
      6   0.000000D+00  0.000000D+00  0.000000D+00
      7   0.000000D+00  0.000000D+00  0.000000D+00
      8   0.000000D+00  0.000000D+00  0.000000D+00
 xgg (0.2041545632343017,0.0000000000000000E+000)
  
 Pgg1 j2s10 (real):
                 1             2             3             4 
      1   0.137640D-01  0.289195D-01  0.249316D-01  0.485612D-01
      2   0.289195D-01  0.602973D-01  0.485612D-01  0.948431D-01
      3   0.249316D-01  0.485612D-01  0.137640D-01  0.289195D-01
      4   0.485612D-01  0.948431D-01  0.289195D-01  0.602973D-01
 Pgg1 j2s10 (imaginary):
                 1             2             3             4 
      1   0.000000D+00  0.000000D+00  0.000000D+00  0.000000D+00
      2   0.000000D+00  0.000000D+00  0.000000D+00  0.000000D+00
      3   0.000000D+00  0.000000D+00  0.000000D+00  0.000000D+00
      4   0.000000D+00  0.000000D+00  0.000000D+00  0.000000D+00
 civec (0.9611205856336856,0.0000000000000000E+000)
  
 Ngg (real):
                 1             2 
      1   0.150386D+01 -0.268244D+01
      2   0.268244D+01  0.150386D+01
 Ngg (imaginary):
                 1             2 
      1   0.000000D+00  0.000000D+00
      2   0.000000D+00  0.000000D+00
  
 Pgg (real):
                 1             2             3             4             5 
      1   0.100000D+01  0.000000D+00  0.000000D+00  0.000000D+00  0.000000D+00
      2   0.000000D+00  0.100000D+01  0.000000D+00  0.000000D+00  0.000000D+00
      3  -0.146955D+01 -0.823880D+00  0.000000D+00  0.000000D+00  0.000000D+00
      4  -0.112004D+00 -0.627931D-01  0.000000D+00  0.000000D+00  0.000000D+00
      5  -0.206458D+01 -0.115747D+01  0.000000D+00  0.000000D+00  0.000000D+00
      6   0.184914D-01 -0.329831D-01  0.000000D+00  0.000000D+00  0.000000D+00
      7  -0.142043D+01  0.253362D+01  0.000000D+00  0.000000D+00  0.000000D+00
      8   0.670696D-01 -0.119632D+00  0.000000D+00  0.000000D+00  0.000000D+00
                 6             7             8 
      1   0.000000D+00  0.000000D+00  0.000000D+00
      2   0.000000D+00  0.000000D+00  0.000000D+00
      3   0.000000D+00  0.000000D+00  0.000000D+00
      4   0.000000D+00  0.000000D+00  0.000000D+00
      5   0.000000D+00  0.000000D+00  0.000000D+00
      6   0.000000D+00  0.000000D+00  0.000000D+00
      7   0.000000D+00  0.000000D+00  0.000000D+00
      8   0.000000D+00  0.000000D+00  0.000000D+00
 Pgg (imaginary):
                 1             2             3             4             5 
      1   0.000000D+00  0.000000D+00  0.000000D+00  0.000000D+00  0.000000D+00
      2   0.000000D+00  0.000000D+00  0.000000D+00  0.000000D+00  0.000000D+00
      3   0.000000D+00  0.000000D+00  0.000000D+00  0.000000D+00  0.000000D+00
      4   0.000000D+00  0.000000D+00  0.000000D+00  0.000000D+00  0.000000D+00
      5   0.000000D+00  0.000000D+00  0.000000D+00  0.000000D+00  0.000000D+00
      6   0.000000D+00  0.000000D+00  0.000000D+00  0.000000D+00  0.000000D+00
      7   0.000000D+00  0.000000D+00  0.000000D+00  0.000000D+00  0.000000D+00
      8   0.000000D+00  0.000000D+00  0.000000D+00  0.000000D+00  0.000000D+00
                 6             7             8 
      1   0.000000D+00  0.000000D+00  0.000000D+00
      2   0.000000D+00  0.000000D+00  0.000000D+00
      3   0.000000D+00  0.000000D+00  0.000000D+00
      4   0.000000D+00  0.000000D+00  0.000000D+00
      5   0.000000D+00  0.000000D+00  0.000000D+00
      6   0.000000D+00  0.000000D+00  0.000000D+00
      7   0.000000D+00  0.000000D+00  0.000000D+00
      8   0.000000D+00  0.000000D+00  0.000000D+00
 xgg (0.1057407955674703,0.0000000000000000E+000)
  
 Pgg1 j2s10 (real):
                 1             2             3             4 
      1   0.328034D-02  0.953737D-02  0.276665D-01  0.524278D-01
      2   0.953737D-02  0.243188D-01  0.524278D-01  0.997547D-01
      3   0.276665D-01  0.524278D-01  0.328034D-02  0.953737D-02
      4   0.524278D-01  0.997547D-01  0.953737D-02  0.243188D-01
 Pgg1 j2s10 (imaginary):
                 1             2             3             4 
      1   0.000000D+00  0.000000D+00  0.000000D+00  0.000000D+00
      2   0.000000D+00  0.000000D+00  0.000000D+00  0.000000D+00
      3   0.000000D+00  0.000000D+00  0.000000D+00  0.000000D+00
      4   0.000000D+00  0.000000D+00  0.000000D+00  0.000000D+00
 civec (0.9611205856336856,0.0000000000000000E+000)
  
 Ngg (real):
                 1             2 
      1   0.373752D+00 -0.344180D+01
      2   0.344180D+01  0.373752D+00
 Ngg (imaginary):
                 1             2 
      1   0.000000D+00  0.000000D+00
      2   0.000000D+00  0.000000D+00
  
 Pgg (real):
                 1             2             3             4             5 
      1   0.100000D+01  0.000000D+00  0.000000D+00  0.000000D+00  0.000000D+00
      2   0.000000D+00  0.100000D+01  0.000000D+00  0.000000D+00  0.000000D+00
      3  -0.190894D+01 -0.207295D+00  0.000000D+00  0.000000D+00  0.000000D+00
      4  -0.145492D+00 -0.157993D-01  0.000000D+00  0.000000D+00  0.000000D+00
      5  -0.268187D+01 -0.291230D+00  0.000000D+00  0.000000D+00  0.000000D+00
      6   0.465260D-02 -0.428447D-01  0.000000D+00  0.000000D+00  0.000000D+00
      7  -0.357393D+00  0.329115D+01  0.000000D+00  0.000000D+00  0.000000D+00
      8   0.168753D-01 -0.155401D+00  0.000000D+00  0.000000D+00  0.000000D+00
                 6             7             8 
      1   0.000000D+00  0.000000D+00  0.000000D+00
      2   0.000000D+00  0.000000D+00  0.000000D+00
      3   0.000000D+00  0.000000D+00  0.000000D+00
      4   0.000000D+00  0.000000D+00  0.000000D+00
      5   0.000000D+00  0.000000D+00  0.000000D+00
      6   0.000000D+00  0.000000D+00  0.000000D+00
      7   0.000000D+00  0.000000D+00  0.000000D+00
      8   0.000000D+00  0.000000D+00  0.000000D+00
 Pgg (imaginary):
                 1             2             3             4             5 
      1   0.000000D+00  0.000000D+00  0.000000D+00  0.000000D+00  0.000000D+00
      2   0.000000D+00  0.000000D+00  0.000000D+00  0.000000D+00  0.000000D+00
      3   0.000000D+00  0.000000D+00  0.000000D+00  0.000000D+00  0.000000D+00
      4   0.000000D+00  0.000000D+00  0.000000D+00  0.000000D+00  0.000000D+00
      5   0.000000D+00  0.000000D+00  0.000000D+00  0.000000D+00  0.000000D+00
      6   0.000000D+00  0.000000D+00  0.000000D+00  0.000000D+00  0.000000D+00
      7   0.000000D+00  0.000000D+00  0.000000D+00  0.000000D+00  0.000000D+00
      8   0.000000D+00  0.000000D+00  0.000000D+00  0.000000D+00  0.000000D+00
                 6             7             8 
      1   0.000000D+00  0.000000D+00  0.000000D+00
      2   0.000000D+00  0.000000D+00  0.000000D+00
      3   0.000000D+00  0.000000D+00  0.000000D+00
      4   0.000000D+00  0.000000D+00  0.000000D+00
      5   0.000000D+00  0.000000D+00  0.000000D+00
      6   0.000000D+00  0.000000D+00  0.000000D+00
      7   0.000000D+00  0.000000D+00  0.000000D+00
      8   0.000000D+00  0.000000D+00  0.000000D+00
 xgg (8.3432851371789310E-002,1.8525814520617814E-017)
  
 Pgg1 j2s10 (real):
                 1             2             3             4 
      1   0.903955D-03  0.514391D-02  0.282864D-01  0.533043D-01
      2   0.514391D-02  0.161634D-01  0.533043D-01  0.100868D+00
      3   0.282864D-01  0.533043D-01  0.903955D-03  0.514391D-02
      4   0.533043D-01  0.100868D+00  0.514391D-02  0.161634D-01
 Pgg1 j2s10 (imaginary):
                 1             2             3             4 
      1   0.000000D+00  0.000000D+00  0.000000D+00  0.000000D+00
      2   0.000000D+00  0.000000D+00  0.000000D+00  0.000000D+00
      3   0.000000D+00  0.000000D+00  0.000000D+00  0.000000D+00
      4   0.000000D+00  0.000000D+00  0.000000D+00  0.000000D+00
 civec (0.9611205856336856,0.0000000000000000E+000)
 xggint (1.000000000000000,-1.5172461328365756E-017)
  
 PHF density matrix (alpha, real):
                 1             2             3             4 
      1   0.648957D-01  0.124515D+00  0.203318D-01  0.461363D-01
      2   0.124515D+00  0.239776D+00  0.461363D-01  0.101922D+00
      3   0.203318D-01  0.461363D-01  0.648957D-01  0.124515D+00
      4   0.461363D-01  0.101922D+00  0.124515D+00  0.239776D+00
 PHF density matrix (alpha, imaginary):
                 1             2             3             4 
      1   0.000000D+00  0.000000D+00  0.000000D+00  0.000000D+00
      2   0.000000D+00  0.000000D+00  0.000000D+00  0.000000D+00
      3   0.000000D+00  0.000000D+00  0.000000D+00  0.000000D+00
      4   0.000000D+00  0.000000D+00  0.000000D+00  0.000000D+00
 PHF density matrix (beta, real):
                 1             2             3             4 
      1   0.648957D-01  0.124515D+00  0.203318D-01  0.461363D-01
      2   0.124515D+00  0.239776D+00  0.461363D-01  0.101922D+00
      3   0.203318D-01  0.461363D-01  0.648957D-01  0.124515D+00
      4   0.461363D-01  0.101922D+00  0.124515D+00  0.239776D+00
 PHF density matrix (beta, imaginary):
                 1             2             3             4 
      1   0.000000D+00  0.000000D+00  0.000000D+00  0.000000D+00
      2   0.000000D+00  0.000000D+00  0.000000D+00  0.000000D+00
      3   0.000000D+00  0.000000D+00  0.000000D+00  0.000000D+00
      4   0.000000D+00  0.000000D+00  0.000000D+00  0.000000D+00

 Natural occupations (alpha):
      orbital --                 1                2                3                4
   occupation --     7.6539326D-01    2.3460674D-01    0.0000000D+00    0.0000000D+00

 Natural occupations (beta):
      orbital --                 1                2                3                4
   occupation --     7.6539326D-01    2.3460674D-01    0.0000000D+00    0.0000000D+00
  
      S / S0 =             0.242196796129
  

 PHF SCF - quitting the program

 Leave Link  530 at Tue Jan 19 20:18:55 2021, MaxMem=  536870912 cpu:       0.4
 (Enter /share/apps/gaussian/G09C01Z/srwang-mod-2020/g09/l9999.exe)

 Test job not archived.
 1\1\GINC-XN01\SP\CUHF\3-21G\H2\SRWANG\19-Jan-2021\0\\#p uhf/3-21g nosy
 mm guess=mix scf=conver=4 # extralink=l530 iop(5/206=9, 5/207=4, 5/216
 =0, 5/221=213) pop=none\\title\\0,1\H,0,0.,0.,0.\H,0,0.,0.,2.\\Version
 =EM64L-G09RevC.01\HF=-1.009945\S2=0.\S2-1=0.\S2A=0.\RMSD=7.323e-09\PG=
 D*H [C*(H1.H1)]\\@


 YE HAVE SOWN MUCH, AND BRING IN LITTLE.
 YE EAT, BUT YE HAVE NOT ENOUGH.
 YE DRINK, BUT YE ARE NOT FILLED WITH DRINK.
 YE CLOTHE YOU, BUT THERE IS NONE WARM.
 AND HE THAT EARNETH WAGES EARNETH WAGES TO PUT
 IT INTO A BAG WITH HOLES.
                                     HAGGAI I,6
 Job cpu time:  0 days  0 hours  0 minutes  0.9 seconds.
 File lengths (MBytes):  RWF=      9 Int=      0 D2E=      0 Chk=      8 Scr=      1
 Normal termination of Gaussian 09 at Tue Jan 19 20:18:55 2021.
