#INFO: **** input file is /share/home/srwang/ExSCF/test/test_dm/test.py ****
#import phf
from pyscf import gto, scf, lib
#import scipy
#import numpy as np
import sys

from pyphf import util

lib.num_threads(4)

xyz = 'h2.xyz' #sys.argv[1]
fch = '../test_carlos/test_uhf.fchk' #sys.argv[2]
bas = xyz[:-3] + 'bas'


mf = util.guess_from_fchk(xyz, bas, fch)

mf2 = util.SUHF(mf)
mf2.cut_no = False
mf2.debug = False
mf2.diis_on = True
mf2.max_cycle = 15
mf2.kernel()
#INFO: ******************** input file end ********************


System: uname_result(system='Linux', node='xn01', release='3.10.0-1127.el7.x86_64', version='#1 SMP Tue Feb 18 16:39:12 EST 2020', machine='x86_64', processor='x86_64')  Threads 4
Python 3.7.4 (default, Aug 13 2019, 20:35:49) 
[GCC 7.3.0]
numpy 1.17.2  scipy 1.4.1
Date: Tue Jan 19 20:23:10 2021
PySCF version 1.7.5
PySCF path  /share/home/srwang/pyscf-1.7.5/pyscf

[CONFIG] conf_file None
[INPUT] verbose = 4
[INPUT] num. atoms = 2
[INPUT] num. electrons = 2
[INPUT] charge = 0
[INPUT] spin (= nelec alpha-beta = 2S) = 0
[INPUT] symmetry False subgroup None
[INPUT] Mole.unit = angstrom
[INPUT]  1 H      0.000000000000   0.000000000000   0.000000000000 AA    0.000000000000   0.000000000000   0.000000000000 Bohr
[INPUT]  2 H      0.000000000000   0.000000000000   2.000000000000 AA    0.000000000000   0.000000000000   3.779452249130 Bohr

nuclear repulsion = 0.26458860546
number of shells = 4
number of NR pGTOs = 6
number of NR cGTOs = 4
basis = h2.bas
ecp = {}
CPU time:         1.06


******** <class 'pyscf.scf.uhf.UHF'> ********
method = UHF
initial guess = minao
damping factor = 0
level_shift factor = 0
DIIS = <class 'pyscf.scf.diis.CDIIS'>
diis_start_cycle = 1
diis_space = 8
SCF conv_tol = 1e-09
SCF conv_tol_grad = None
SCF max_cycles = 1
direct_scf = True
direct_scf_tol = 1e-13
chkfile to save SCF result = /share/home/srwang/ExSCF/test/test_dm/tmp_rszvg2d
max_memory 4000 MB (current use 96 MB)
number electrons alpha = 1  beta = 1
Set gradient conv threshold to 3.16228e-05
init E= -0.644800894941739
  alpha nocc = 1  HOMO = -0.248574003043426  LUMO = -0.0900508471637463
  beta  nocc = 1  HOMO = -0.241945730776492  LUMO = -0.0916003506261902
cycle= 1 E= -0.90763782954924  delta_E= -0.263  |g|= 0.0146  |ddm|= 0.599
SCF not converged.
SCF energy = -0.90763782954924 after 1 cycles  <S^2> = 6.5933669e-07  2S+1 = 1.0000013


******** <class 'pyscf.scf.uhf.UHF'> ********
method = UHF
initial guess = minao
damping factor = 0
level_shift factor = 0
DIIS = <class 'pyscf.scf.diis.CDIIS'>
diis_start_cycle = 1
diis_space = 8
SCF conv_tol = 1e-09
SCF conv_tol_grad = None
SCF max_cycles = 1
direct_scf = True
direct_scf_tol = 1e-13
chkfile to save SCF result = /share/home/srwang/ExSCF/test/test_dm/tmp_rszvg2d
max_memory 4000 MB (current use 103 MB)
number electrons alpha = 1  beta = 1
Set gradient conv threshold to 3.16228e-05
init E= -0.99701150589175
  alpha nocc = 1  HOMO = -0.494329974228981  LUMO = 0.12017707328242
  beta  nocc = 1  HOMO = -0.49432997422898  LUMO = 0.120177073282419
cycle= 1 E= -0.997011506088653  delta_E= -1.97e-10  |g|= 2.87e-07  |ddm|= 1.01e-06
  alpha nocc = 1  HOMO = -0.494330047369919  LUMO = 0.120177149393592
  beta  nocc = 1  HOMO = -0.494330047369919  LUMO = 0.120177149393592
Extra cycle  E= -0.997011506088841  delta_E= -1.89e-13  |g|= 1.37e-07  |ddm|= 4.63e-07
converged SCF energy = -0.997011506088841  <S^2> = 0.91048229  2S+1 = 2.1545137

******** <class 'pyphf.util.SUHF'> ********
max_cycle = 15
verbose: normal
DIIS: <class 'pyscf.scf.diis.CDIIS'>
diis_start_cyc = 40
SVD: S^(-1/2)
[[-0.33060027  0.46012716 -0.85621857  0.83453548]
 [-0.39774552  0.36468655  0.7116764  -1.05293832]
 [-0.33060027 -0.46012716 -0.85621857 -0.83453548]
 [-0.39774552 -0.36468655  0.7116764   1.05293832]]
C (ortho)
[[-0.80171146 -0.5700944  -0.0923896  -0.15399763]
 [ 0.58103364 -0.7590258   0.10126792 -0.27572549]
 [ 0.08280266  0.16885249 -0.79177861 -0.58113612]
 [-0.11314752  0.26525656  0.59522735 -0.75002733]]
[[-0.80171146 -0.5700944  -0.0923896  -0.15399763]
 [-0.58103364  0.7590258  -0.10126792  0.27572549]
 [ 0.08280266  0.16885249 -0.79177861 -0.58113612]
 [ 0.11314752 -0.26525656 -0.59522735  0.75002733]]
grids:  [0.06237655 0.31939555 0.74529195 1.28265786 1.85893479 2.39630071
 2.8221971  3.07921611] 
weights:  [0.15900941 0.34931531 0.49276925 0.56970235 0.56970235 0.49276925
 0.34931531 0.15900941]
S = 0.0, Sz = 0.0
Wigner small d:  1
value : [1. 1. 1. 1. 1. 1. 1. 1.]
**** Start Cycle 1 ****
dm (ortho)
[[[ 0.64274127 -0.46582133 -0.06638384  0.09071167]
  [-0.46582133  0.33760009  0.04811113 -0.06574252]
  [-0.06638384  0.04811113  0.00685628 -0.00936892]
  [ 0.09071167 -0.06574252 -0.00936892  0.01280236]]

 [[ 0.64274127  0.46582133 -0.06638384 -0.09071167]
  [ 0.46582133  0.33760009 -0.04811113 -0.06574252]
  [-0.06638384 -0.04811113  0.00685628  0.00936892]
  [-0.09071167 -0.06574252  0.00936892  0.01280236]]]
Fock (ortho)
 (array([[-0.23888783,  0.32641291,  0.2163653 ,  0.02458362],
       [ 0.32641291,  0.0110684 ,  0.07806095,  0.33962986],
       [ 0.2163653 ,  0.07806095,  1.12201601,  0.05065258],
       [ 0.02458362,  0.33962986,  0.05065258,  1.1126125 ]]), array([[-0.23888783, -0.32641291,  0.2163653 , -0.02458362],
       [-0.32641291,  0.0110684 , -0.07806095,  0.33962986],
       [ 0.2163653 , -0.07806095,  1.12201601, -0.05065258],
       [-0.02458362,  0.33962986, -0.05065258,  1.1126125 ]]))
E(UHF) =    -1.261600
NO eigenvalue
[-1. -0.  0.  0.] [-1. -0.  0.  0.]
NO vec
[[ 0.80171146  0.          0.58640579  0.09224599 -0.06984022  0.          0.          0.        ]
 [-0.58103364  0.          0.79154066 -0.10256389 -0.1591978   0.          0.          0.        ]
 [-0.08280266  0.         -0.08271907  0.78164042 -0.6126496   0.          0.          0.        ]
 [ 0.11314752  0.         -0.15082833 -0.60828412 -0.77099862  0.          0.          0.        ]
 [ 0.          0.80171146  0.          0.          0.         -0.41545215 -0.01263213 -0.42953308]
 [ 0.          0.58103364  0.          0.          0.          0.63859217  0.20563029  0.46077775]
 [ 0.         -0.08280266  0.          0.          0.          0.6347972  -0.01635282 -0.76805522]
 [ 0.         -0.11314752  0.          0.          0.         -0.12896537  0.97841157 -0.11522314]]
dm(NO)
[[ 1.  0. -0.  0. -0.  0.  0.  0.]
 [ 0.  1.  0.  0.  0. -0.  0. -0.]
 [-0.  0. -0. -0.  0.  0.  0.  0.]
 [ 0.  0. -0.  0.  0.  0.  0.  0.]
 [-0.  0.  0.  0.  0.  0.  0.  0.]
 [ 0. -0.  0.  0.  0.  0. -0. -0.]
 [ 0.  0.  0.  0.  0. -0.  0. -0.]
 [ 0. -0.  0.  0.  0.  0.  0.  0.]]
D(g) (NO)
[[ 0.99951369  0.00932987 -0.          0.         -0.         -0.02405072 -0.00054716 -0.01751029]
 [-0.00932987  0.99951369 -0.02974739 -0.00057581  0.00032822  0.          0.          0.        ]
 [-0.          0.02974739  0.99951369  0.         -0.          0.00713441  0.00028494  0.00604192]
 [ 0.          0.00057581  0.          0.99951369 -0.          0.01468138 -0.01965134 -0.0192443 ]
 [-0.         -0.00032822 -0.         -0.          0.99951369 -0.01129217 -0.02420407  0.01609146]
 [ 0.02405072  0.         -0.00713441 -0.01468138  0.01129217  0.99951369  0.          0.        ]
 [ 0.00054716  0.         -0.00028494  0.01965134  0.02420407  0.          0.99951369  0.        ]
 [ 0.01751029  0.         -0.00604192  0.0192443  -0.01609146  0.          0.          0.99951369]]
...
N(g) (NO)
[[ 1.00039939 -0.00933813]
 [ 0.00933813  1.00039939]]
...
P(g) (NO)
[[ 1.          0.         -0.          0.         -0.         -0.          0.         -0.        ]
 [ 0.          1.         -0.          0.          0.         -0.          0.         -0.        ]
 [ 0.00027779  0.02975927 -0.          0.         -0.         -0.          0.         -0.        ]
 [ 0.00000538  0.00057604 -0.          0.         -0.         -0.          0.         -0.        ]
 [-0.00000306 -0.00032835  0.         -0.          0.          0.         -0.          0.        ]
 [ 0.02406033 -0.00022459 -0.          0.         -0.          0.         -0.          0.        ]
 [ 0.00054738 -0.00000511 -0.          0.         -0.          0.         -0.          0.        ]
 [ 0.01751728 -0.00016351 -0.          0.         -0.          0.         -0.          0.        ]]
...
Pg_ortho
[[ 0.64287243 -0.46591639 -0.06639738  0.09073018  0.01405166  0.01018382 -0.00145129 -0.00198315]
 [-0.4656451   0.33747237  0.04809293 -0.06571765  0.0188794   0.01368268 -0.00194991 -0.0026645 ]
 [-0.06639738  0.04812095  0.00685768 -0.00937083 -0.00145129 -0.00105181  0.00014989  0.00020482]
 [ 0.09067735 -0.06571765 -0.00936537  0.01279752 -0.00367648 -0.0026645   0.00037972  0.00051887]
 [-0.01405166  0.01018382  0.00145129 -0.00198315  0.64287243  0.46591639 -0.06639738 -0.09073018]
 [ 0.0188794  -0.01368268 -0.00194991  0.0026645   0.4656451   0.33747237 -0.04809293 -0.06571765]
 [ 0.00145129 -0.00105181 -0.00014989  0.00020482 -0.06639738 -0.04812095  0.00685768  0.00937083]
 [-0.00367648  0.0026645   0.00037972 -0.00051887 -0.09067735 -0.06571765  0.00936537  0.01279752]]
G(g) (NO)
[[ 0.27295471 -0.00158114  0.05287894  0.01244694 -0.00063832 -0.00058166 -0.00042143  0.00005675]
 [ 0.00158114  0.27295471 -0.00045416  0.00055022  0.00010073 -0.03765056  0.00586381 -0.03872424]
 [ 0.05280817 -0.01863686  0.87859336  0.01542719 -0.19216045 -0.0037606  -0.00330947  0.00228874]
 [ 0.01245097 -0.00133613  0.01542832  0.74699763 -0.04473054 -0.00077163 -0.00056174  0.00026447]
 [-0.00063343  0.00550954 -0.19215521 -0.04473062  0.88129387  0.00275405  0.00306367 -0.00226162]
 [-0.0127369  -0.03759241  0.00093023 -0.00224023 -0.00000317  0.74299601  0.07438858  0.05988527]
 [-0.0039878   0.00587165  0.00056831 -0.00324045 -0.0002669   0.07438451  0.79569936  0.1485369 ]
 [-0.01418949 -0.03868417  0.00188713 -0.00574134 -0.00031104  0.05988302  0.14853957  0.96818948]]
...
C(NO)
[[-1.          0.          0.          0.         -0.          0.          0.          0.        ]
 [ 0.         -1.          0.          0.          0.         -0.          0.          0.        ]
 [ 0.          0.         -0.98908197  0.00169793 -0.14735663  0.          0.          0.        ]
 [-0.          0.         -0.00410971 -0.99986252  0.01606405  0.          0.          0.        ]
 [ 0.          0.         -0.1473091   0.01649425  0.98895297  0.          0.          0.        ]
 [ 0.          0.          0.          0.          0.          0.86295088 -0.45214057 -0.22557635]
 [ 0.         -0.          0.          0.          0.         -0.0990111  -0.58908619  0.80198146]
 [ 0.          0.          0.          0.          0.          0.49549226  0.66973604  0.55311938]]
detC 0.9999999999999998
detNg [ 1.00088613  1.02356623  1.13725407  1.48340709  2.40735347  4.75722197  8.88562274 11.06157333]
xg [0.99911465 0.97697635 0.87931099 0.67412378 0.41539392 0.21020671 0.11254135 0.09040305]
ciS 1.0895177062942583
[[-0.76727003  0.         -0.05288309 -0.01244183  0.00063926  0.          0.          0.        ]
 [ 0.         -0.76727003  0.          0.          0.          0.0376559  -0.0058599   0.03872368]
 [-0.05288309  0.         -0.73320695 -0.0198446   0.02291511  0.          0.          0.        ]
 [-0.01244183  0.         -0.0198446   0.35223917  0.0470391   0.          0.          0.        ]
 [ 0.00063926  0.          0.02291511  0.0470391   0.37520494  0.          0.          0.        ]
 [ 0.          0.0376559   0.          0.          0.         -0.36357277 -0.02376196 -0.50128893]
 [ 0.         -0.0058599   0.          0.          0.         -0.02376196  0.41132076 -0.01953205]
 [ 0.          0.03872368  0.          0.          0.         -0.50128893 -0.01953205 -0.05351083]]
ciH -1.3881319385755901
S2 = -0.000000
X(g)
[[ 2.          0.          0.00027779  0.00000538 -0.00000306 -0.02406033 -0.00054738 -0.01751728]
 [-0.          2.         -0.02975927 -0.00057604  0.00032835 -0.00022459 -0.00000511 -0.00016351]
 [ 0.00027779  0.02975927  0.          0.          0.          0.          0.          0.        ]
 [ 0.00000538  0.00057604  0.          0.          0.          0.          0.          0.        ]
 [-0.00000306 -0.00032835  0.          0.          0.          0.          0.          0.        ]
 [ 0.02406033 -0.00022459  0.          0.          0.          0.          0.          0.        ]
 [ 0.00054738 -0.00000511  0.          0.          0.          0.          0.          0.        ]
 [ 0.01751728 -0.00016351  0.          0.          0.          0.          0.          0.        ]]
X(g) int
[[ 2.          0.          0.26196795  0.00507087 -0.0028904  -0.55598459 -0.01264873 -0.40478826]
 [-0.          2.         -0.68767553 -0.01331121  0.00758741 -0.21180068 -0.0048185  -0.15420289]
 [ 0.26196795  0.68767553  0.          0.          0.          0.          0.          0.        ]
 [ 0.00507087  0.01331121  0.          0.          0.          0.          0.          0.        ]
 [-0.0028904  -0.00758741  0.          0.          0.          0.          0.          0.        ]
 [ 0.55598459 -0.21180068  0.          0.          0.          0.          0.          0.        ]
 [ 0.01264873 -0.0048185   0.          0.          0.          0.          0.          0.        ]
 [ 0.40478826 -0.15420289  0.          0.          0.          0.          0.          0.        ]]
Hsp + Hph =  -1.2740792834813113
Feff (mod,ortho)
[[-0.23026009  0.32973626  0.22450689  0.03403136  0.          0.          0.          0.        ]
 [ 0.32973626  0.00171954  0.07117135  0.33413421  0.          0.          0.          0.        ]
 [ 0.22450689  0.07117135  1.12024221  0.0509516   0.          0.          0.          0.        ]
 [ 0.03403136  0.33413421  0.0509516   1.11510741  0.          0.          0.          0.        ]
 [ 0.          0.          0.          0.         -0.23026009 -0.32973626  0.22450689 -0.03403136]
 [ 0.          0.          0.          0.         -0.32973626  0.00171954 -0.07117135  0.33413421]
 [ 0.          0.          0.          0.          0.22450689 -0.07117135  1.12024221 -0.0509516 ]
 [ 0.          0.          0.          0.         -0.03403136  0.33413421 -0.0509516   1.11510741]]
E(SUHF) =     -1.00949068
e_a, e_b
[-0.49453698  0.12020927  1.09920194  1.28193486] [-0.49453698  0.12020927  1.09920194  1.28193486]
P_a, P_b
[[ 0.63348762 -0.46887119 -0.07012843  0.08615606]
 [-0.46887119  0.34703155  0.05190504 -0.06376777]
 [-0.07012843  0.05190504  0.00776337 -0.00953766]
 [ 0.08615606 -0.06376777 -0.00953766  0.01171746]] 
 [[ 0.63348762  0.46887119 -0.07012843 -0.08615606]
 [ 0.46887119  0.34703155 -0.05190504 -0.06376777]
 [-0.07012843 -0.05190504  0.00776337  0.00953766]
 [-0.08615606 -0.06376777  0.00953766  0.01171746]]
**** Start Cycle 2 ****
dm (ortho)
[[[ 0.63348762 -0.46887119 -0.07012843  0.08615606]
  [-0.46887119  0.34703155  0.05190504 -0.06376777]
  [-0.07012843  0.05190504  0.00776337 -0.00953766]
  [ 0.08615606 -0.06376777 -0.00953766  0.01171746]]

 [[ 0.63348762  0.46887119 -0.07012843 -0.08615606]
  [ 0.46887119  0.34703155 -0.05190504 -0.06376777]
  [-0.07012843 -0.05190504  0.00776337  0.00953766]
  [-0.08615606 -0.06376777  0.00953766  0.01171746]]]
Fock (ortho)
 (array([[-0.23630848,  0.32845629,  0.21732725,  0.02619002],
       [ 0.32845629,  0.008723  ,  0.07782624,  0.33901036],
       [ 0.21732725,  0.07782624,  1.12167964,  0.05091667],
       [ 0.02619002,  0.33901036,  0.05091667,  1.11270115]]), array([[-0.23630848, -0.32845629,  0.21732725, -0.02619002],
       [-0.32845629,  0.008723  , -0.07782624,  0.33901036],
       [ 0.21732725, -0.07782624,  1.12167964, -0.05091667],
       [-0.02619002,  0.33901036, -0.05091667,  1.11270115]]))
E(UHF) =    -1.261271
NO eigenvalue
[-1. -0.  0.  0.] [-1. -0.  0.  0.]
NO vec
[[ 0.79591935  0.         -0.58250929  0.15948547 -0.04194872  0.          0.          0.        ]
 [-0.58909384  0.         -0.78479233  0.11426073  0.15496431  0.          0.          0.        ]
 [-0.08810997  0.          0.15801877  0.95420203 -0.23825448  0.          0.          0.        ]
 [ 0.10824722  0.          0.14076223  0.2258481   0.95784193  0.          0.          0.        ]
 [ 0.          0.79591935  0.          0.          0.         -0.4278242   0.08621273 -0.4195786 ]
 [ 0.          0.58909384  0.          0.          0.          0.45699358  0.05961301  0.66375568]
 [ 0.         -0.08810997  0.          0.          0.         -0.77944562 -0.0432749   0.61873132]
 [ 0.         -0.10824722  0.          0.          0.         -0.0242457   0.99354966  0.02353187]]
dm(NO)
[[ 1.  0. -0.  0.  0.  0.  0.  0.]
 [ 0.  1.  0.  0.  0. -0.  0. -0.]
 [ 0.  0.  0.  0. -0.  0.  0.  0.]
 [ 0.  0.  0. -0. -0.  0.  0.  0.]
 [-0.  0. -0. -0.  0.  0.  0.  0.]
 [ 0. -0.  0.  0.  0.  0. -0.  0.]
 [ 0.  0.  0.  0.  0. -0. -0. -0.]
 [ 0. -0.  0.  0.  0.  0.  0. -0.]]
D(g) (NO)
[[ 0.99951369  0.00880932  0.         -0.          0.         -0.01695348  0.00451728 -0.02422731]
 [-0.00880932  0.99951369  0.02978331 -0.0026732   0.00077304 -0.          0.         -0.        ]
 [ 0.         -0.02978331  0.99951369 -0.         -0.         -0.00735966  0.00112298 -0.00547011]
 [-0.          0.0026732  -0.          0.99951369  0.         -0.02386264  0.00635076  0.01885443]
 [-0.         -0.00077304  0.          0.          0.99951369  0.0078347   0.03017274 -0.00013772]
 [ 0.01695348 -0.          0.00735966  0.02386264 -0.0078347   0.99951369 -0.         -0.        ]
 [-0.00451728  0.         -0.00112298 -0.00635076 -0.03017274 -0.          0.99951369 -0.        ]
 [ 0.02422731 -0.          0.00547011 -0.01885443  0.00013772 -0.         -0.          0.99951369]]
...
N(g) (NO)
[[ 1.00040884 -0.00881721]
 [ 0.00881721  1.00040884]]
...
P(g) (NO)
[[ 1.         -0.         -0.          0.          0.          0.         -0.          0.        ]
 [ 0.          1.          0.          0.         -0.         -0.          0.         -0.        ]
 [-0.00026261 -0.02979548  0.         -0.         -0.          0.         -0.          0.        ]
 [ 0.00002357  0.0026743  -0.          0.          0.         -0.          0.         -0.        ]
 [-0.00000682 -0.00077336  0.         -0.         -0.          0.         -0.          0.        ]
 [ 0.01696041 -0.00014948 -0.          0.          0.          0.         -0.          0.        ]
 [-0.00451913  0.00003983  0.         -0.         -0.         -0.          0.         -0.        ]
 [ 0.02423722 -0.00021362 -0.          0.          0.          0.         -0.          0.        ]]
...
Pg_ortho
[[ 0.63361259 -0.46896369 -0.07014227  0.08617305  0.01417938  0.01049476 -0.00156969 -0.00192843]
 [-0.46870585  0.34690918  0.05188674 -0.06374528  0.01875902  0.01388435 -0.00207666 -0.00255128]
 [-0.07014227  0.05191528  0.0077649  -0.00953954 -0.00156969 -0.00116179  0.00017377  0.00021348]
 [ 0.08612568 -0.06374528 -0.0095343   0.01171333 -0.00344701 -0.00255128  0.00038159  0.0004688 ]
 [-0.01417938  0.01049476  0.00156969 -0.00192843  0.63361259  0.46896369 -0.07014227 -0.08617305]
 [ 0.01875902 -0.01388435 -0.00207666  0.00255128  0.46870585  0.34690918 -0.05188674 -0.06374528]
 [ 0.00156969 -0.00116179 -0.00017377  0.00021348 -0.07014227 -0.05191528  0.0077649   0.00953954]
 [-0.00344701  0.00255128  0.00038159 -0.0004688  -0.08612568 -0.06374528  0.0095343   0.01171333]]
G(g) (NO)
[[ 0.2712254  -0.00145402 -0.04783935  0.00706104 -0.0124578   0.00004631 -0.00026878 -0.00055468]
 [ 0.00145402  0.2712254   0.00041395  0.00021557 -0.00040526 -0.03135812  0.01724236 -0.03482855]
 [-0.04777208  0.01843873  0.86293605 -0.16284822 -0.09885206 -0.00209166  0.00272187  0.00401433]
 [ 0.00705532 -0.00655937 -0.16284447  0.89740818  0.05727173  0.00199117 -0.00268477 -0.00333499]
 [-0.01246296 -0.00193507 -0.09884791  0.05727131  0.74825424  0.00102912 -0.00130017 -0.00118336]
 [-0.01433068 -0.03132118 -0.0022185  -0.00337103  0.00485892  0.99166553  0.11728224  0.09210064]
 [-0.00077549  0.01723866 -0.00038788 -0.00123557  0.00199601  0.11727909  0.74813235  0.07208525]
 [-0.01344571 -0.03477193 -0.00115987 -0.00163716  0.00218216  0.09210309  0.07208918  0.76880058]]
...
C(NO)
[[-0.99992465  0.          0.00722396  0.00100432  0.00987401  0.          0.          0.        ]
 [ 0.         -0.99992465  0.          0.          0.          0.00722396  0.00100432  0.00987401]
 [ 0.00817111  0.          0.99178287 -0.06698684  0.10868637  0.          0.          0.        ]
 [-0.0080157   0.          0.04337846 -0.62424964 -0.77997849  0.          0.          0.        ]
 [-0.0044353   0.          0.12013681  0.77834706 -0.61621695  0.          0.          0.        ]
 [ 0.          0.01017942  0.          0.          0.          0.4655901   0.62482779  0.62666776]
 [ 0.          0.00507951  0.          0.          0.         -0.27475422 -0.57112584  0.77349828]
 [ 0.          0.00461176  0.          0.          0.          0.84123944 -0.5323575  -0.0942891 ]]
detC 0.9998493097536175
detNg [ 1.00089559  1.02382355  1.13892124  1.49109452  2.44403725  4.95580591  9.70152678 12.39124302]
xg [0.99940639 0.97702524 0.87828852 0.67085046 0.40928241 0.20184436 0.10310763 0.08072648]
ciS 1.080132871291073
[[-0.76624202  0.          0.05155502 -0.01977003  0.00517803  0.          0.          0.        ]
 [ 0.         -0.76624202  0.          0.          0.          0.04294915 -0.00756537  0.03425963]
 [ 0.05155502  0.         -0.72364068  0.10452464 -0.03005976  0.          0.          0.        ]
 [-0.01977003  0.          0.10452464  0.31115436  0.02565227  0.          0.          0.        ]
 [ 0.00517803  0.         -0.03005976  0.02565227  0.40569547  0.          0.          0.        ]
 [ 0.          0.04294915  0.          0.          0.         -0.03215343  0.09671186 -0.48552794]
 [ 0.         -0.00756537  0.          0.          0.          0.09671186  0.38608758  0.140774  ]
 [ 0.          0.03425963  0.          0.          0.         -0.48552794  0.140774   -0.36072499]]
ciH -1.376621063042195
S2 = -0.000000
X(g)
[[ 2.         -0.         -0.00026261  0.00002357 -0.00000682 -0.01696041  0.00451913 -0.02423722]
 [ 0.          2.          0.02979548 -0.0026743   0.00077336 -0.00014948  0.00003983 -0.00021362]
 [-0.00026261 -0.02979548  0.          0.          0.          0.          0.          0.        ]
 [ 0.00002357  0.0026743   0.          0.          0.          0.          0.          0.        ]
 [-0.00000682 -0.00077336  0.          0.          0.          0.          0.          0.        ]
 [ 0.01696041 -0.00014948  0.          0.          0.          0.          0.          0.        ]
 [-0.00451913  0.00003983  0.          0.          0.          0.          0.          0.        ]
 [ 0.02423722 -0.00021362  0.          0.          0.          0.          0.          0.        ]]
X(g) int
[[ 2.         -0.         -0.24987752  0.02242778 -0.00648573 -0.39544089  0.10536589 -0.56510332]
 [-0.          2.          0.69469724 -0.06235263  0.01803131 -0.14223719  0.03789934 -0.20326353]
 [-0.24987752 -0.69469724  0.          0.          0.          0.          0.          0.        ]
 [ 0.02242778  0.06235263  0.          0.          0.          0.          0.          0.        ]
 [-0.00648573 -0.01803131  0.          0.          0.          0.          0.          0.        ]
 [ 0.39544089 -0.14223719  0.          0.          0.          0.          0.          0.        ]
 [-0.10536589  0.03789934  0.          0.          0.          0.          0.          0.        ]
 [ 0.56510332 -0.20326353  0.          0.          0.          0.          0.          0.        ]]
Hsp + Hph =  -1.274492332963381
Feff (mod,ortho)
[[-0.23176776  0.33076729  0.2234856   0.03674417  0.          0.          0.          0.        ]
 [ 0.33076729  0.00281462  0.07264031  0.33197016  0.          0.          0.          0.        ]
 [ 0.2234856   0.07264031  1.12026051  0.05065422  0.          0.          0.          0.        ]
 [ 0.03674417  0.33197016  0.05065422  1.11548795  0.          0.          0.          0.        ]
 [ 0.          0.          0.          0.         -0.23176776 -0.33076729  0.2234856  -0.03674417]
 [ 0.          0.          0.          0.         -0.33076729  0.00281462 -0.07264031  0.33197016]
 [ 0.          0.          0.          0.          0.2234856  -0.07264031  1.12026051 -0.05065422]
 [ 0.          0.          0.          0.         -0.03674417  0.33197016 -0.05065422  1.11548795]]
E(SUHF) =     -1.00990373
e_a, e_b
[-0.49504253  0.12109477  1.09866399  1.28207908] [-0.49504253  0.12109477  1.09866399  1.28207908]
P_a, P_b
[[ 0.63599294 -0.46857926 -0.06956331  0.08426353]
 [-0.46857926  0.34523422  0.05125202 -0.06208267]
 [-0.06956331  0.05125202  0.00760866 -0.00921653]
 [ 0.08426353 -0.06208267 -0.00921653  0.01116418]] 
 [[ 0.63599294  0.46857926 -0.06956331 -0.08426353]
 [ 0.46857926  0.34523422 -0.05125202 -0.06208267]
 [-0.06956331 -0.05125202  0.00760866  0.00921653]
 [-0.08426353 -0.06208267  0.00921653  0.01116418]]
**** Start Cycle 3 ****
dm (ortho)
[[[ 0.63599294 -0.46857926 -0.06956331  0.08426353]
  [-0.46857926  0.34523422  0.05125202 -0.06208267]
  [-0.06956331  0.05125202  0.00760866 -0.00921653]
  [ 0.08426353 -0.06208267 -0.00921653  0.01116418]]

 [[ 0.63599294  0.46857926 -0.06956331 -0.08426353]
  [ 0.46857926  0.34523422 -0.05125202 -0.06208267]
  [-0.06956331 -0.05125202  0.00760866  0.00921653]
  [-0.08426353 -0.06208267  0.00921653  0.01116418]]]
Fock (ortho)
 (array([[-0.23646331,  0.32868402,  0.21724495,  0.02713629],
       [ 0.32868402,  0.00964762,  0.07857163,  0.33875284],
       [ 0.21724495,  0.07857163,  1.12226208,  0.0510834 ],
       [ 0.02713629,  0.33875284,  0.0510834 ,  1.11325497]]), array([[-0.23646331, -0.32868402,  0.21724495, -0.02713629],
       [-0.32868402,  0.00964762, -0.07857163,  0.33875284],
       [ 0.21724495, -0.07857163,  1.12226208, -0.0510834 ],
       [-0.02713629,  0.33875284, -0.0510834 ,  1.11325497]]))
E(UHF) =    -1.261249
NO eigenvalue
[-1. -0.  0.  0.] [-1. -0.  0.  0.]
NO vec
[[ 0.79749165  0.          0.14353874  0.00371372  0.58599479  0.          0.          0.        ]
 [-0.58756635  0.         -0.03521644 -0.01140087  0.8083289   0.          0.          0.        ]
 [-0.08722763  0.          0.57353364  0.81407921 -0.02693582  0.          0.          0.        ]
 [ 0.1056607   0.         -0.80573916  0.58063006  0.04988946  0.          0.          0.        ]
 [ 0.          0.79749165  0.          0.          0.         -0.60036715 -0.059018    0.00912275]
 [ 0.          0.58756635  0.          0.          0.          0.78712356 -0.0391386   0.18349512]
 [ 0.         -0.08722763  0.          0.          0.         -0.01679681 -0.98600903  0.14105103]
 [ 0.         -0.1056607   0.          0.          0.         -0.14040535  0.1509014   0.9728057 ]]
dm(NO)
[[ 1.  0.  0. -0.  0.  0.  0.  0.]
 [ 0.  1.  0.  0.  0. -0. -0.  0.]
 [ 0.  0.  0. -0. -0.  0.  0.  0.]
 [ 0.  0.  0. -0.  0.  0.  0.  0.]
 [ 0.  0.  0.  0.  0.  0.  0.  0.]
 [ 0. -0.  0.  0.  0.  0. -0.  0.]
 [ 0. -0.  0.  0.  0. -0. -0. -0.]
 [ 0.  0.  0.  0.  0. -0.  0. -0.]]
D(g) (NO)
[[ 0.99951369  0.00895592 -0.         -0.          0.         -0.02976891  0.0024286  -0.00031359]
 [-0.00895592  0.99951369 -0.00401908  0.00424395 -0.02929199  0.         -0.          0.        ]
 [-0.          0.00401908  0.99951369  0.         -0.         -0.00032428 -0.02164706 -0.0220803 ]
 [ 0.         -0.00424395  0.          0.99951369  0.         -0.00331793 -0.02229115  0.02113002]
 [ 0.          0.02929199 -0.         -0.          0.99951369  0.00866552 -0.00100203  0.00618687]
 [ 0.02976891  0.          0.00032428  0.00331793 -0.00866552  0.99951369  0.          0.        ]
 [-0.0024286  -0.          0.02164706  0.02229115  0.00100203  0.          0.99951369  0.        ]
 [ 0.00031359  0.          0.0220803  -0.02113002 -0.00618687  0.          0.          0.99951369]]
...
N(g) (NO)
[[ 1.00040623 -0.00896392]
 [ 0.00896392  1.00040623]]
...
P(g) (NO)
[[ 1.         -0.          0.         -0.          0.          0.          0.         -0.        ]
 [ 0.          1.          0.         -0.          0.         -0.         -0.          0.        ]
 [ 0.00003603  0.00402071  0.         -0.          0.         -0.         -0.          0.        ]
 [-0.00003804 -0.00424567 -0.          0.         -0.          0.          0.         -0.        ]
 [ 0.00026257  0.02930389  0.         -0.          0.         -0.         -0.          0.        ]
 [ 0.02978101 -0.00026685  0.         -0.          0.          0.          0.         -0.        ]
 [-0.00242959  0.00002177 -0.          0.         -0.         -0.         -0.          0.        ]
 [ 0.00031372 -0.00000281  0.         -0.          0.          0.          0.         -0.        ]]
...
Pg_ortho
[[ 0.63611966 -0.46867262 -0.06957717  0.08428031  0.01414215  0.01041948 -0.00154683 -0.00187371]
 [-0.46841067  0.34511     0.05123358 -0.06206033  0.01881601  0.01386303 -0.00205805 -0.00249296]
 [-0.06957717  0.05126223  0.00761018 -0.00921837 -0.00154683 -0.00113966  0.00016919  0.00020494]
 [ 0.08423321 -0.06206033 -0.00921322  0.01116017 -0.00338364 -0.00249296  0.00037009  0.0004483 ]
 [-0.01414215  0.01041948  0.00154683 -0.00187371  0.63611966  0.46867262 -0.06957717 -0.08428031]
 [ 0.01881601 -0.01386303 -0.00205805  0.00249296  0.46841067  0.34511    -0.05123358 -0.06206033]
 [ 0.00154683 -0.00113966 -0.00016919  0.00020494 -0.06957717 -0.05126223  0.00761018  0.00921837]
 [-0.00338364  0.00249296  0.00037009 -0.0004483  -0.08423321 -0.06206033  0.00921322  0.01116017]]
G(g) (NO)
[[ 0.27182184 -0.00147423  0.01807052 -0.0083544   0.04661497 -0.0003693   0.00033055 -0.00039577]
 [ 0.00147423  0.27182184  0.00042838  0.0001448  -0.00044475 -0.04960901 -0.00000664  0.01040391]
 [ 0.01806793 -0.0021663   0.72604304  0.03079529 -0.01137134 -0.00039803  0.00028451 -0.00016177]
 [-0.00834688 -0.00270057  0.03079498  0.83493975  0.18025193 -0.00055455  0.00248092 -0.00293547]
 [ 0.04654663 -0.01937024 -0.01137385  0.18025709  0.9489249  -0.00149336  0.00418974 -0.00440933]
 [-0.01918578 -0.04954097 -0.00513985 -0.0018015   0.00233756  0.90972621  0.14585566  0.12942475]
 [-0.0030776  -0.00001326 -0.00319725 -0.00090043  0.00118591  0.14585222  0.8324473   0.05397633]
 [-0.00310268  0.01041163 -0.00250333 -0.00060095  0.00061349  0.12942016  0.05397677  0.76773419]]
...
C(NO)
[[-0.99993194  0.          0.00463109 -0.00122445  0.01063791  0.          0.          0.        ]
 [ 0.         -0.99993194  0.          0.          0.          0.00463109 -0.00122445  0.01063791]
 [ 0.00311891  0.         -0.17198546 -0.95053744  0.25863072  0.          0.          0.        ]
 [-0.00789055  0.          0.29801162 -0.30046127 -0.90600764  0.          0.          0.        ]
 [-0.00800769  0.         -0.93892951  0.07874074 -0.33488377  0.          0.          0.        ]
 [ 0.          0.00669862  0.          0.          0.          0.97412029  0.07262978  0.21393853]
 [ 0.          0.0054862   0.          0.          0.         -0.20257904  0.70029635  0.68448276]
 [ 0.          0.0078193   0.          0.          0.         -0.10014957 -0.71014677  0.69685041]]
detC 0.9998638885477484
detNg [ 1.00089298  1.02375256  1.13846091  1.48896622  2.43380792  4.89939543  9.46188882 11.99359147]
xg [0.99937985 0.97706449 0.87861802 0.67178977 0.41099064 0.20416239 0.10571592 0.08340056]
ciS 1.0827804137939077
[[-0.76652891  0.         -0.01362541 -0.00550846 -0.0531624   0.          0.          0.        ]
 [ 0.         -0.76652891  0.          0.          0.          0.05418985  0.01023569  0.00096223]
 [-0.01362541  0.          0.3560071  -0.02337953 -0.16213119  0.          0.          0.        ]
 [-0.00550846  0.         -0.02337953  0.32786939  0.15021966  0.          0.          0.        ]
 [-0.0531624   0.         -0.16213119  0.15021966 -0.69038045  0.          0.          0.        ]
 [ 0.          0.05418985  0.          0.          0.         -0.72931826  0.07514458 -0.00612107]
 [ 0.          0.01023569  0.          0.          0.          0.07514458  0.3125565   0.01389572]
 [ 0.          0.00096223  0.          0.          0.         -0.00612107  0.01389572  0.41025781]]
ciH -1.3800318304854027
S2 = -0.000000
X(g)
[[ 2.         -0.          0.00003603 -0.00003804  0.00026257 -0.02978101  0.00242959 -0.00031372]
 [ 0.          2.         -0.00402071  0.00424567 -0.02930389 -0.00026685  0.00002177 -0.00000281]
 [ 0.00003603  0.00402071  0.          0.          0.          0.          0.          0.        ]
 [-0.00003804 -0.00424567  0.          0.          0.          0.          0.          0.        ]
 [ 0.00026257  0.02930389  0.          0.          0.          0.          0.          0.        ]
 [ 0.02978101 -0.00026685  0.          0.          0.          0.          0.          0.        ]
 [-0.00242959  0.00002177  0.          0.          0.          0.          0.          0.        ]
 [ 0.00031372 -0.00000281  0.          0.          0.          0.          0.          0.        ]]
X(g) int
[[ 2.         -0.          0.03419579 -0.03610904  0.24922696 -0.69264349  0.05650715 -0.00729647]
 [ 0.          2.         -0.09351327  0.09874533 -0.68154672 -0.25328481  0.02066345 -0.00266816]
 [ 0.03419579  0.09351327  0.          0.          0.          0.          0.          0.        ]
 [-0.03610904 -0.09874533  0.          0.          0.          0.          0.          0.        ]
 [ 0.24922696  0.68154672  0.          0.          0.          0.          0.          0.        ]
 [ 0.69264349 -0.25328481  0.          0.          0.          0.          0.          0.        ]
 [-0.05650715  0.02066345  0.          0.          0.          0.          0.          0.        ]
 [ 0.00729647 -0.00266816  0.          0.          0.          0.          0.          0.        ]]
Hsp + Hph =  -1.274526037693985
Feff (mod,ortho)
[[-0.23107431  0.33133159  0.22366631  0.03846287  0.          0.          0.          0.        ]
 [ 0.33133159  0.00282105  0.07311671  0.3312846   0.          0.          0.          0.        ]
 [ 0.22366631  0.07311671  1.12079291  0.0507734   0.          0.          0.          0.        ]
 [ 0.03846287  0.3312846   0.0507734   1.11616172  0.          0.          0.          0.        ]
 [ 0.          0.          0.          0.         -0.23107431 -0.33133159  0.22366631 -0.03846287]
 [ 0.          0.          0.          0.         -0.33133159  0.00282105 -0.07311671  0.3312846 ]
 [ 0.          0.          0.          0.          0.22366631 -0.07311671  1.12079291 -0.0507734 ]
 [ 0.          0.          0.          0.         -0.03846287  0.3312846  -0.0507734   1.11616172]]
E(SUHF) =     -1.00993743
e_a, e_b
[-0.49472238  0.12148398  1.09880122  1.28313855] [-0.49472238  0.12148398  1.09880122  1.28313855]
P_a, P_b
[[ 0.63587176 -0.46878467 -0.06944056  0.08341346]
 [-0.46878467  0.34560281  0.05119376 -0.06149503]
 [-0.06944056  0.05119376  0.00758328 -0.00910919]
 [ 0.08341346 -0.06149503 -0.00910919  0.01094215]] 
 [[ 0.63587176  0.46878467 -0.06944056 -0.08341346]
 [ 0.46878467  0.34560281 -0.05119376 -0.06149503]
 [-0.06944056 -0.05119376  0.00758328  0.00910919]
 [-0.08341346 -0.06149503  0.00910919  0.01094215]]
**** Start Cycle 4 ****
dm (ortho)
[[[ 0.63587176 -0.46878467 -0.06944056  0.08341346]
  [-0.46878467  0.34560281  0.05119376 -0.06149503]
  [-0.06944056  0.05119376  0.00758328 -0.00910919]
  [ 0.08341346 -0.06149503 -0.00910919  0.01094215]]

 [[ 0.63587176  0.46878467 -0.06944056 -0.08341346]
  [ 0.46878467  0.34560281 -0.05119376 -0.06149503]
  [-0.06944056 -0.05119376  0.00758328  0.00910919]
  [-0.08341346 -0.06149503  0.00910919  0.01094215]]]
Fock (ortho)
 (array([[-0.23624042,  0.32898181,  0.21724107,  0.02755998],
       [ 0.32898181,  0.00973392,  0.07886435,  0.33864865],
       [ 0.21724107,  0.07886435,  1.12246259,  0.05117492],
       [ 0.02755998,  0.33864865,  0.05117492,  1.11346788]]), array([[-0.23624042, -0.32898181,  0.21724107, -0.02755998],
       [-0.32898181,  0.00973392, -0.07886435,  0.33864865],
       [ 0.21724107, -0.07886435,  1.12246259, -0.05117492],
       [-0.02755998,  0.33864865, -0.05117492,  1.11346788]]))
E(UHF) =    -1.261193
NO eigenvalue
[-1. -0. -0.  0.] [-1. -0.  0.  0.]
NO vec
[[ 0.79741568  0.         -0.60209184  0.02756585 -0.02921943  0.          0.          0.        ]
 [-0.58787993  0.         -0.78675407 -0.18796586 -0.00916867  0.          0.          0.        ]
 [-0.087082    0.         -0.11517387  0.72139309  0.67730622  0.          0.          0.        ]
 [ 0.10460475  0.          0.07237701 -0.66595868  0.73506357  0.          0.          0.        ]
 [ 0.          0.79741568  0.          0.          0.         -0.59805813  0.01553431 -0.07882508]
 [ 0.          0.58787993  0.          0.          0.          0.74006374 -0.04131185  0.32403115]
 [ 0.         -0.087082    0.          0.          0.         -0.20667508 -0.82078081  0.52537701]
 [ 0.         -0.10460475  0.          0.          0.         -0.22785422  0.56953567  0.7827959 ]]
dm(NO)
[[ 1.  0.  0. -0. -0.  0.  0.  0.]
 [ 0.  1.  0.  0.  0.  0.  0.  0.]
 [ 0.  0.  0. -0.  0.  0.  0.  0.]
 [-0.  0.  0.  0.  0.  0.  0.  0.]
 [ 0.  0.  0.  0. -0.  0.  0.  0.]
 [ 0.  0.  0.  0.  0.  0.  0. -0.]
 [ 0.  0.  0.  0.  0.  0. -0.  0.]
 [ 0.  0.  0.  0.  0.  0.  0. -0.]]
D(g) (NO)
[[ 0.99951369  0.00894678  0.         -0.          0.         -0.02862016  0.00523021 -0.00677345]
 [-0.00894678  0.99951369  0.02931771  0.00254698  0.00513159  0.          0.          0.        ]
 [ 0.         -0.02931771  0.99951369  0.          0.         -0.00669972  0.00495511 -0.00658983]
 [-0.         -0.00254698 -0.          0.99951369 -0.         -0.00476932 -0.03003566 -0.0064046 ]
 [-0.         -0.00513159  0.         -0.          0.99951369 -0.00925456 -0.00428302  0.02901842]
 [ 0.02862016  0.          0.00669972  0.00476932  0.00925456  0.99951369 -0.         -0.        ]
 [-0.00523021  0.         -0.00495511  0.03003566  0.00428302 -0.          0.99951369  0.        ]
 [ 0.00677345  0.          0.00658983  0.0064046  -0.02901842 -0.          0.          0.99951369]]
...
N(g) (NO)
[[ 1.0004064  -0.00895477]
 [ 0.00895477  1.0004064 ]]
...
P(g) (NO)
[[ 1.          0.          0.         -0.         -0.          0.          0.          0.        ]
 [-0.          1.         -0.          0.          0.          0.          0.          0.        ]
 [-0.00026253 -0.02932962 -0.          0.          0.         -0.         -0.         -0.        ]
 [-0.00002281 -0.00254801 -0.          0.          0.         -0.         -0.         -0.        ]
 [-0.00004595 -0.00513367 -0.          0.          0.         -0.         -0.         -0.        ]
 [ 0.02863179 -0.00025629  0.         -0.         -0.         -0.         -0.         -0.        ]
 [-0.00523233  0.00004684 -0.          0.          0.          0.          0.          0.        ]
 [ 0.0067762  -0.00006065  0.         -0.         -0.         -0.         -0.         -0.        ]]
...
Pg_ortho
[[ 0.63599838 -0.46887802 -0.06945438  0.08343007  0.01414527  0.01042834 -0.00154474 -0.00185557]
 [-0.46861621  0.34547861  0.05117537 -0.06147293  0.01881997  0.01387468 -0.00205524 -0.0024688 ]
 [-0.06945438  0.05120396  0.00758479 -0.009111   -0.00154474 -0.00113883  0.00016869  0.00020264]
 [ 0.08338349 -0.06147293 -0.00910592  0.01093822 -0.00334874 -0.0024688   0.0003657   0.00043929]
 [-0.01414527  0.01042834  0.00154474 -0.00185557  0.63599838  0.46887802 -0.06945438 -0.08343007]
 [ 0.01881997 -0.01387468 -0.00205524  0.0024688   0.46861621  0.34547861 -0.05117537 -0.06147293]
 [ 0.00154474 -0.00113883 -0.00016869  0.00020264 -0.06945438 -0.05120396  0.00758479  0.009111  ]
 [-0.00334874  0.0024688   0.0003657  -0.00043929 -0.08338349 -0.06147293  0.00910592  0.01093822]]
G(g) (NO)
[[ 0.27183991 -0.00146996 -0.04853572  0.00684889 -0.01242125 -0.00025445  0.00016663 -0.00055273]
 [ 0.00146996  0.27183991  0.0003505   0.00052143  0.00005726 -0.04955617  0.01005182  0.00024004]
 [-0.04846851  0.01956216  0.95403867  0.01376035 -0.18443576  0.00023409 -0.00207703  0.00605492]
 [ 0.0068609   0.00102907  0.01375897  0.74075883  0.01569278 -0.00022049  0.00004692  0.00003833]
 [-0.01241302 -0.00210031 -0.18443019  0.01569351  0.81581452  0.00031001  0.00094085 -0.0035594 ]
 [-0.01893022 -0.04949185 -0.00132415 -0.00591241 -0.00073214  0.92302291  0.17481913  0.08894581]
 [-0.00204618  0.01004192 -0.00039666 -0.00364239 -0.00015838  0.17481422  0.822987    0.03556412]
 [-0.00506044  0.00026225 -0.00011916 -0.00200333 -0.00010423  0.08894323  0.03556577  0.7646021 ]]
...
C(NO)
[[-0.99992169  0.          0.00465691 -0.00199302  0.01144344  0.          0.          0.        ]
 [ 0.         -0.99992169  0.          0.          0.          0.00465691 -0.00199302  0.01144344]
 [ 0.00784737  0.          0.94016691  0.11022706  0.32229583  0.          0.          0.        ]
 [ 0.00377049  0.          0.07211491 -0.98916215  0.12784153  0.          0.          0.        ]
 [-0.00898962  0.          0.33296237 -0.09697555 -0.93789711  0.          0.          0.        ]
 [ 0.          0.00657375  0.          0.          0.          0.92821929  0.2795756   0.24536343]
 [ 0.          0.00802826  0.          0.          0.         -0.32987674  0.31362183  0.89036972]
 [ 0.          0.006996    0.          0.          0.          0.17195521 -0.90745515  0.38328528]]
detC 0.9998433888412901
detNg [ 1.00089315  1.02375702  1.13848983  1.48909977  2.43444813  4.90290198  9.47659665 12.01782376]
xg [0.99942067 0.9771003  0.87863174 0.67175707 0.41089941 0.20402474 0.10555618 0.08323581]
ciS 1.0826564782004449
[[-0.76650983  0.          0.05502217 -0.00319465 -0.00306392  0.          0.          0.        ]
 [ 0.         -0.76650983  0.          0.          0.          0.05447711  0.00432219  0.00778431]
 [ 0.05502217  0.         -0.69867482 -0.07280104 -0.17854349  0.          0.          0.        ]
 [-0.00319465  0.         -0.07280104  0.35581659 -0.06104716  0.          0.          0.        ]
 [-0.00306392  0.         -0.17854349 -0.06104716  0.33633519  0.          0.          0.        ]
 [ 0.          0.05447711  0.          0.          0.         -0.65394978  0.16611486 -0.22739314]
 [ 0.          0.00432219  0.          0.          0.          0.16611486  0.3152825   0.08278173]
 [ 0.          0.00778431  0.          0.          0.         -0.22739314  0.08278173  0.33214424]]
ciH -1.3798803395538641
S2 = -0.000000
X(g)
[[ 2.          0.         -0.00026253 -0.00002281 -0.00004595 -0.02863179  0.00523233 -0.0067762 ]
 [-0.          2.          0.02932962  0.00254801  0.00513367 -0.00025629  0.00004684 -0.00006065]
 [-0.00026253 -0.02932962  0.          0.          0.          0.          0.          0.        ]
 [-0.00002281 -0.00254801  0.          0.          0.          0.          0.          0.        ]
 [-0.00004595 -0.00513367  0.          0.          0.          0.          0.          0.        ]
 [ 0.02863179 -0.00025629  0.          0.          0.          0.          0.          0.        ]
 [-0.00523233  0.00004684  0.          0.          0.          0.          0.          0.        ]
 [ 0.0067762  -0.00006065  0.          0.          0.          0.          0.          0.        ]]
X(g) int
[[ 2.          0.         -0.24922995 -0.02165187 -0.04362364 -0.66601862  0.12171196 -0.15762461]
 [-0.          2.          0.68225121  0.05927062  0.11941694 -0.2433001   0.04446202 -0.0575811 ]
 [-0.24922995 -0.68225121  0.          0.          0.          0.          0.          0.        ]
 [-0.02165187 -0.05927062  0.          0.          0.          0.          0.          0.        ]
 [-0.04362364 -0.11941694  0.          0.          0.          0.          0.          0.        ]
 [ 0.66601862 -0.2433001   0.          0.          0.          0.          0.          0.        ]
 [-0.12171196  0.04446202  0.          0.          0.          0.          0.          0.        ]
 [ 0.15762461 -0.0575811   0.          0.          0.          0.          0.          0.        ]]
Hsp + Hph =  -1.2745320120814823
Feff (mod,ortho)
[[-0.23096635  0.33162784  0.22364806  0.03917349  0.          0.          0.          0.        ]
 [ 0.33162784  0.00296595  0.07342734  0.33094396  0.          0.          0.          0.        ]
 [ 0.22364806  0.07342734  1.12100033  0.05082268  0.          0.          0.          0.        ]
 [ 0.03917349  0.33094396  0.05082268  1.11642404  0.          0.          0.          0.        ]
 [ 0.          0.          0.          0.         -0.23096635 -0.33162784  0.22364806 -0.03917349]
 [ 0.          0.          0.          0.         -0.33162784  0.00296595 -0.07342734  0.33094396]
 [ 0.          0.          0.          0.          0.22364806 -0.07342734  1.12100033 -0.05082268]
 [ 0.          0.          0.          0.         -0.03917349  0.33094396 -0.05082268  1.11642404]]
E(SUHF) =     -1.00994341
e_a, e_b
[-0.4946835   0.12173214  1.09880533  1.28357   ] [-0.4946835   0.12173214  1.09880533  1.28357   ]
P_a, P_b
[[ 0.6360273  -0.46882242 -0.06934615  0.08302543]
 [-0.46882242  0.34557395  0.05111578 -0.06119892]
 [-0.06934615  0.05111578  0.00756082 -0.00905228]
 [ 0.08302543 -0.06119892 -0.00905228  0.01083793]] 
 [[ 0.6360273   0.46882242 -0.06934615 -0.08302543]
 [ 0.46882242  0.34557395 -0.05111578 -0.06119892]
 [-0.06934615 -0.05111578  0.00756082  0.00905228]
 [-0.08302543 -0.06119892  0.00905228  0.01083793]]
**** Start Cycle 5 ****
dm (ortho)
[[[ 0.6360273  -0.46882242 -0.06934615  0.08302543]
  [-0.46882242  0.34557395  0.05111578 -0.06119892]
  [-0.06934615  0.05111578  0.00756082 -0.00905228]
  [ 0.08302543 -0.06119892 -0.00905228  0.01083793]]

 [[ 0.6360273   0.46882242 -0.06934615 -0.08302543]
  [ 0.46882242  0.34557395 -0.05111578 -0.06119892]
  [-0.06934615 -0.05111578  0.00756082  0.00905228]
  [-0.08302543 -0.06119892  0.00905228  0.01083793]]]
Fock (ortho)
 (array([[-0.23618545,  0.32908835,  0.21723017,  0.02775662],
       [ 0.32908835,  0.00983155,  0.07901208,  0.3385999 ],
       [ 0.21723017,  0.07901208,  1.12256859,  0.0512157 ],
       [ 0.02775662,  0.3385999 ,  0.0512157 ,  1.11357422]]), array([[-0.23618545, -0.32908835,  0.21723017, -0.02775662],
       [-0.32908835,  0.00983155, -0.07901208,  0.3385999 ],
       [ 0.21723017, -0.07901208,  1.12256859, -0.0512157 ],
       [-0.02775662,  0.3385999 , -0.0512157 ,  1.11357422]]))
E(UHF) =    -1.261172
NO eigenvalue
[-1. -0.  0.  0.] [-1. -0.  0.  0.]
NO vec
[[ 0.7975132   0.          0.54794952 -0.04882654  0.24766912  0.          0.          0.        ]
 [-0.58785538  0.          0.7976422   0.02342258  0.13283209  0.          0.          0.        ]
 [-0.08695299  0.         -0.22028837  0.4568583   0.85743379  0.          0.          0.        ]
 [ 0.1041054   0.          0.12243889  0.88788954 -0.43107185  0.          0.          0.        ]
 [ 0.          0.7975132   0.          0.          0.          0.58918514  0.11852212 -0.0527833 ]
 [ 0.          0.58785538  0.          0.          0.         -0.77853005  0.0123188   0.21946584]
 [ 0.         -0.08695299  0.          0.          0.          0.20861127 -0.01818997  0.97395567]
 [ 0.         -0.1041054   0.          0.          0.         -0.05686089  0.99270836  0.02142488]]
dm(NO)
[[ 1.  0. -0. -0.  0.  0.  0.  0.]
 [ 0.  1.  0.  0.  0.  0. -0.  0.]
 [-0.  0.  0. -0.  0.  0.  0.  0.]
 [ 0.  0. -0. -0. -0.  0.  0.  0.]
 [-0.  0.  0. -0.  0.  0.  0.  0.]
 [ 0.  0.  0.  0.  0. -0. -0.  0.]
 [ 0. -0.  0.  0.  0.  0.  0.  0.]
 [ 0.  0.  0.  0.  0.  0. -0. -0.]]
D(g) (NO)
[[ 0.99951369  0.00895508 -0.          0.         -0.          0.02817364  0.0059937  -0.00790705]
 [-0.00895508  0.99951369 -0.02844856  0.00490606 -0.00766876  0.         -0.          0.        ]
 [-0.          0.02844856  0.99951369  0.         -0.         -0.01094722  0.00624672 -0.00205171]
 [ 0.         -0.00490606  0.          0.99951369 -0.         -0.00006809  0.02705477  0.01470913]
 [-0.          0.00766876 -0.         -0.          0.99951369  0.00766766 -0.01286416  0.02625459]
 [-0.02817364  0.          0.01094722  0.00006809 -0.00766766  0.99951369  0.         -0.        ]
 [-0.0059937  -0.         -0.00624672 -0.02705477  0.01286416  0.          0.99951369  0.        ]
 [ 0.00790705  0.          0.00205171 -0.01470913 -0.02625459  0.          0.          0.99951369]]
...
N(g) (NO)
[[ 1.00040625 -0.00896308]
 [ 0.00896308  1.00040625]]
...
P(g) (NO)
[[ 1.          0.         -0.         -0.          0.          0.         -0.          0.        ]
 [-0.          1.          0.          0.         -0.          0.         -0.          0.        ]
 [ 0.00025499  0.02846011 -0.         -0.          0.          0.         -0.          0.        ]
 [-0.00004397 -0.00490805  0.          0.         -0.         -0.          0.         -0.        ]
 [ 0.00006874  0.00767188 -0.         -0.          0.          0.         -0.          0.        ]
 [-0.02818508  0.00025252  0.          0.         -0.          0.         -0.          0.        ]
 [-0.00599614  0.00005372  0.          0.         -0.          0.         -0.          0.        ]
 [ 0.00791026 -0.00007087 -0.         -0.          0.         -0.          0.         -0.        ]]
...
Pg_ortho
[[ 0.63615401 -0.46891583 -0.06935997  0.08304197  0.01414345  0.01042528 -0.00154206 -0.00184625]
 [-0.46865376  0.34544962  0.05109739 -0.0611769   0.01882538  0.01387638 -0.00205253 -0.00245742]
 [-0.06935997  0.05112597  0.00756233 -0.00905408 -0.00154206 -0.00113667  0.00016813  0.0002013 ]
 [ 0.08299556 -0.0611769  -0.00904902  0.01083404 -0.00333385 -0.00245742  0.00036349  0.00043519]
 [-0.01414345  0.01042528  0.00154206 -0.00184625  0.63615401  0.46891583 -0.06935997 -0.08304197]
 [ 0.01882538 -0.01387638 -0.00205253  0.00245742  0.46865376  0.34544962 -0.05109739 -0.0611769 ]
 [ 0.00154206 -0.00113667 -0.00016813  0.0002013  -0.06935997 -0.05112597  0.00756233  0.00905408]
 [-0.00333385  0.00245742  0.00036349 -0.00043519 -0.08299556 -0.0611769   0.00904902  0.01083404]]
G(g) (NO)
[[ 0.27189064 -0.00147033  0.04328511 -0.01494034  0.02150625  0.00034664 -0.0002512  -0.00046387]
 [ 0.00147033  0.27189064 -0.00052469 -0.00007552  0.00034268  0.04582724  0.0201455  -0.00730452]
 [ 0.04321779 -0.01827967  0.90560786  0.15202604  0.09973622  0.00109848 -0.00294125 -0.00466064]
 [-0.01493415 -0.001869    0.15202045  0.79433846  0.097822    0.00028705 -0.00212844 -0.00267625]
 [ 0.02149325 -0.00712956  0.09973603  0.09782354  0.81097982  0.00077085 -0.00175063 -0.00279037]
 [ 0.01967114  0.04576192 -0.00384719 -0.00104122  0.00564278  1.00890842 -0.12019194  0.09532827]
 [ 0.00032208  0.02013844  0.00068522  0.00056224 -0.00175768 -0.12018688  0.73239371 -0.01340699]
 [-0.00118852 -0.00728397 -0.00091056 -0.00039669  0.00148716  0.09532554 -0.01340614  0.76962401]]
...
C(NO)
[[-0.99991843  0.          0.00447201 -0.00239892  0.0117212   0.          0.          0.        ]
 [ 0.         -0.99991843  0.          0.          0.          0.00447201 -0.00239892  0.0117212 ]
 [-0.00793458  0.         -0.92253248  0.27744933 -0.2681282   0.          0.          0.        ]
 [-0.00987932  0.          0.32271758  0.17364853 -0.93037731  0.          0.          0.        ]
 [-0.00160676  0.         -0.21158257 -0.94491391 -0.24973573  0.          0.          0.        ]
 [ 0.         -0.00916443  0.          0.          0.         -0.87650829 -0.10692324 -0.46927246]
 [ 0.          0.00863813  0.          0.          0.         -0.32461233 -0.58868245  0.74027373]
 [ 0.         -0.00212978  0.          0.          0.          0.35544345 -0.80125816 -0.48129074]]
detC 0.9998368598398131
detNg [ 1.000893    1.02375297  1.13846357  1.48897851  2.43386681  4.89971786  9.46324018 11.995817  ]
xg [0.99943387 0.97711693 0.87866348 0.67182055 0.41100292 0.20415999 0.10570654 0.0833896 ]
ciS 1.0828234676138777
[[-0.7665247   0.         -0.04951896 -0.00128985 -0.02436204  0.          0.          0.        ]
 [ 0.         -0.7665247   0.          0.          0.         -0.05481603 -0.00647405  0.00076781]
 [-0.04951896  0.         -0.62455384  0.1860285  -0.2770574   0.          0.          0.        ]
 [-0.00128985  0.          0.1860285   0.36175866  0.01233605  0.          0.          0.        ]
 [-0.02436204  0.         -0.2770574   0.01233605  0.25628702  0.          0.          0.        ]
 [ 0.         -0.05481603  0.          0.          0.         -0.61848277 -0.22244847  0.25184166]
 [ 0.         -0.00647405  0.          0.          0.         -0.22244847  0.36379083  0.06076205]
 [ 0.          0.00076781  0.          0.          0.          0.25184166  0.06076205  0.24818378]]
ciH -1.380094497549928
S2 = -0.000000
X(g)
[[ 2.          0.          0.00025499 -0.00004397  0.00006874  0.02818508  0.00599614 -0.00791026]
 [-0.          2.         -0.02846011  0.00490805 -0.00767188  0.00025252  0.00005372 -0.00007087]
 [ 0.00025499  0.02846011  0.          0.          0.          0.          0.          0.        ]
 [-0.00004397 -0.00490805  0.          0.          0.          0.          0.          0.        ]
 [ 0.00006874  0.00767188  0.          0.          0.          0.          0.          0.        ]
 [-0.02818508  0.00025252  0.          0.          0.          0.          0.          0.        ]
 [-0.00599614  0.00005372  0.          0.          0.          0.          0.          0.        ]
 [ 0.00791026 -0.00007087  0.          0.          0.          0.          0.          0.        ]]
X(g) int
[[ 2.          0.          0.24203148 -0.0417392   0.06524344  0.65553502  0.13945954 -0.18397866]
 [-0.          2.         -0.66193178  0.11415252 -0.17843426  0.23969254  0.05099256 -0.06727072]
 [ 0.24203148  0.66193178  0.          0.          0.          0.          0.          0.        ]
 [-0.0417392  -0.11415252  0.          0.          0.          0.          0.          0.        ]
 [ 0.06524344  0.17843426  0.          0.          0.          0.          0.          0.        ]
 [-0.65553502  0.23969254  0.          0.          0.          0.          0.          0.        ]
 [-0.13945954  0.05099256  0.          0.          0.          0.          0.          0.        ]
 [ 0.18397866 -0.06727072  0.          0.          0.          0.          0.          0.        ]]
Hsp + Hph =  -1.2745332354045855
Feff (mod,ortho)
[[-0.23087991  0.33175904  0.2236578   0.03951338  0.          0.          0.          0.        ]
 [ 0.33175904  0.0030117   0.07355663  0.33079299  0.          0.          0.          0.        ]
 [ 0.2236578   0.07355663  1.12110391  0.05084841  0.          0.          0.          0.        ]
 [ 0.03951338  0.33079299  0.05084841  1.11655321  0.          0.          0.          0.        ]
 [ 0.          0.          0.          0.         -0.23087991 -0.33175904  0.2236578  -0.03951338]
 [ 0.          0.          0.          0.         -0.33175904  0.0030117  -0.07355663  0.33079299]
 [ 0.          0.          0.          0.          0.2236578  -0.07355663  1.12110391 -0.05084841]
 [ 0.          0.          0.          0.         -0.03951338  0.33079299 -0.05084841  1.11655321]]
E(SUHF) =     -1.00994463
e_a, e_b
[-0.49464731  0.12183683  1.09881681  1.28378259] [-0.49464731  0.12183683  1.09881681  1.28378259]
P_a, P_b
[[ 0.63606354 -0.46884894 -0.0693091   0.08284703]
 [-0.46884894  0.34559335  0.05108845 -0.06106739]
 [-0.0693091   0.05108845  0.00755231 -0.00902748]
 [ 0.08284703 -0.06106739 -0.00902748  0.01079079]] 
 [[ 0.63606354  0.46884894 -0.0693091  -0.08284703]
 [ 0.46884894  0.34559335 -0.05108845 -0.06106739]
 [-0.0693091  -0.05108845  0.00755231  0.00902748]
 [-0.08284703 -0.06106739  0.00902748  0.01079079]]
**** Start Cycle 6 ****
dm (ortho)
[[[ 0.63606354 -0.46884894 -0.0693091   0.08284703]
  [-0.46884894  0.34559335  0.05108845 -0.06106739]
  [-0.0693091   0.05108845  0.00755231 -0.00902748]
  [ 0.08284703 -0.06106739 -0.00902748  0.01079079]]

 [[ 0.63606354  0.46884894 -0.0693091  -0.08284703]
  [ 0.46884894  0.34559335 -0.05108845 -0.06106739]
  [-0.0693091  -0.05108845  0.00755231  0.00902748]
  [-0.08284703 -0.06106739  0.00902748  0.01079079]]]
Fock (ortho)
 (array([[-0.23615233,  0.32914213,  0.21722668,  0.02784648],
       [ 0.32914213,  0.00986679,  0.07907765,  0.33857766],
       [ 0.21722668,  0.07907765,  1.12261487,  0.05123463],
       [ 0.02784648,  0.33857766,  0.05123463,  1.11362148]]), array([[-0.23615233, -0.32914213,  0.21722668, -0.02784648],
       [-0.32914213,  0.00986679, -0.07907765,  0.33857766],
       [ 0.21722668, -0.07907765,  1.12261487, -0.05123463],
       [-0.02784648,  0.33857766, -0.05123463,  1.11362148]]))
E(UHF) =    -1.261161
NO eigenvalue
[-1. -0. -0.  0.] [-1. -0.  0.  0.]
NO vec
[[ 0.79753592  0.         -0.60252675 -0.02483336 -0.01677157  0.          0.          0.        ]
 [-0.58787189  0.         -0.78464787  0.0262136   0.19505697  0.          0.          0.        ]
 [-0.08690405  0.         -0.11621022  0.57325032 -0.80642851  0.          0.          0.        ]
 [ 0.10387874  0.          0.08822943  0.81858428  0.55798258  0.          0.          0.        ]
 [ 0.          0.79753592  0.          0.          0.         -0.06211097  0.02480973  0.59955247]
 [ 0.          0.58787189  0.          0.          0.         -0.0773195   0.12654717 -0.79524471]
 [ 0.         -0.08690405  0.          0.          0.         -0.99143234 -0.09604725  0.01686789]
 [ 0.         -0.10387874  0.          0.          0.         -0.08500492  0.98698795  0.08853334]]
dm(NO)
[[ 1.  0.  0. -0.  0.  0.  0.  0.]
 [ 0.  1.  0.  0.  0.  0. -0. -0.]
 [ 0.  0.  0.  0. -0.  0.  0.  0.]
 [ 0.  0.  0.  0. -0.  0.  0.  0.]
 [ 0.  0. -0. -0.  0.  0.  0.  0.]
 [ 0.  0.  0.  0.  0.  0. -0. -0.]
 [ 0. -0.  0.  0.  0.  0. -0.  0.]
 [ 0. -0.  0.  0.  0.  0. -0. -0.]]
D(g) (NO)
[[ 0.99951369  0.00895681  0.         -0.          0.          0.00228409  0.00175459  0.02973   ]
 [-0.00895681  0.99951369  0.02933952  0.00434216 -0.00353655  0.         -0.         -0.        ]
 [ 0.         -0.02933952  0.99951369 -0.          0.          0.00641772 -0.00049895  0.00837555]
 [-0.         -0.00434216 -0.          0.99951369 -0.         -0.01990758  0.02356126  0.0014471 ]
 [-0.          0.00353655  0.         -0.          0.99951369  0.02301471  0.02034534 -0.00403436]
 [-0.00228409  0.         -0.00641772  0.01990758 -0.02301471  0.99951369  0.         -0.        ]
 [-0.00175459 -0.          0.00049895 -0.02356126 -0.02034534  0.          0.99951369  0.        ]
 [-0.02973    -0.         -0.00837555 -0.0014471   0.00403436 -0.          0.          0.99951369]]
...
N(g) (NO)
[[ 1.00040622 -0.00896481]
 [ 0.00896481  1.00040622]]
...
P(g) (NO)
[[ 1.          0.          0.         -0.          0.          0.          0.         -0.        ]
 [-0.          1.         -0.          0.         -0.          0.         -0.         -0.        ]
 [-0.00026302 -0.02935143 -0.          0.         -0.         -0.          0.          0.        ]
 [-0.00003893 -0.00434392 -0.          0.         -0.         -0.          0.          0.        ]
 [ 0.0000317   0.00353799  0.         -0.          0.          0.         -0.         -0.        ]
 [-0.00228502  0.00002048 -0.          0.         -0.          0.         -0.         -0.        ]
 [-0.0017553   0.00001573 -0.          0.         -0.          0.         -0.         -0.        ]
 [-0.02974208  0.00026652 -0.          0.         -0.          0.         -0.         -0.        ]]
...
Pg_ortho
[[ 0.63619028 -0.46894236 -0.06932291  0.08286354  0.01414315  0.01042506 -0.00154112 -0.00184214]
 [-0.46868023  0.34546899  0.05107006 -0.06104542  0.01882725  0.01387776 -0.00205152 -0.00245224]
 [-0.06932291  0.05109863  0.00755382 -0.00902928 -0.00154112 -0.00113597  0.00016793  0.00020073]
 [ 0.08281722 -0.06104542 -0.00902423  0.01078691 -0.00332683 -0.00245224  0.00036251  0.00043332]
 [-0.01414315  0.01042506  0.00154112 -0.00184214  0.63619028  0.46894236 -0.06932291 -0.08286354]
 [ 0.01882725 -0.01387776 -0.00205152  0.00245224  0.46868023  0.34546899 -0.05107006 -0.06104542]
 [ 0.00154112 -0.00113597 -0.00016793  0.00020073 -0.06932291 -0.05109863  0.00755382  0.00902928]
 [-0.00332683  0.00245224  0.00036251 -0.00043332 -0.08281722 -0.06104542  0.00902423  0.01078691]]
G(g) (NO)
[[ 0.27190694 -0.00147011 -0.0487506  -0.01271571 -0.00456042  0.000412   -0.00028137  0.00038641]
 [ 0.00147011  0.27190694  0.00034587 -0.00001795 -0.00052752 -0.00248853  0.01288553  0.04885569]
 [-0.04868337  0.01953459  0.9498978  -0.18677767  0.00931739 -0.00519777  0.00323117 -0.00176298]
 [-0.01271011 -0.002484   -0.18677194  0.81494053 -0.02359624  0.00299433 -0.0021835   0.00057022]
 [-0.0045742  -0.00093098  0.00931798 -0.02359545  0.74623335 -0.00032065  0.00017623 -0.0002696 ]
 [-0.00236963 -0.00249652 -0.00047362  0.00018129  0.00279629  0.80526431  0.05798896 -0.11500135]
 [-0.00278203  0.0128881  -0.00014173  0.0003392   0.00308424  0.05798923  0.78014697 -0.15370359]
 [ 0.01937221  0.04878734  0.00122218 -0.00010675 -0.00596671 -0.11500368 -0.15370891  0.92566041]]
...
C(NO)
[[-0.99991654  0.          0.00441973 -0.00257635  0.01186381  0.          0.          0.        ]
 [ 0.         -0.99991654  0.          0.          0.          0.00441973 -0.00257635  0.01186381]
 [ 0.00754034  0.          0.94284615  0.12073688  0.31049458  0.          0.          0.        ]
 [-0.01001396  0.          0.30819016  0.03830535 -0.95050053  0.          0.          0.        ]
 [-0.00312815  0.         -0.12665082  0.99194187 -0.00105684  0.          0.          0.        ]
 [ 0.          0.00300898  0.          0.          0.         -0.16813609  0.84916056  0.50064712]
 [ 0.          0.01030387  0.          0.          0.         -0.19611417 -0.5265414   0.8271561 ]
 [ 0.         -0.00719012  0.          0.          0.         -0.96604863 -0.04091273 -0.25499901]]
detC 0.9998330785017345
detNg [ 1.00089297  1.02375213  1.1384581   1.48895323  2.43374564  4.89905445  9.46045992 11.99123846]
xg [0.99944146 0.97712513 0.87867435 0.67183704 0.41102649 0.20418918 0.1057384  0.08342207]
ciS 1.0828635294183513
[[-0.76652726  0.          0.05502476 -0.00384649  0.00237538  0.          0.          0.        ]
 [ 0.         -0.76652726  0.          0.          0.          0.00942814  0.00261449 -0.05433633]
 [ 0.05502476  0.         -0.70057487 -0.15307561  0.10789968  0.          0.          0.        ]
 [-0.00384649  0.         -0.15307561  0.35728572  0.06173747  0.          0.          0.        ]
 [ 0.00237538  0.          0.10789968  0.06173747  0.33678354  0.          0.          0.        ]
 [ 0.          0.00942814  0.          0.          0.          0.31238209 -0.0137508  -0.06862671]
 [ 0.          0.00261449  0.          0.          0.         -0.0137508   0.40679571 -0.07132404]
 [ 0.         -0.05433633  0.          0.          0.         -0.06862671 -0.07132404 -0.72568341]]
ciH -1.3801458355324683
S2 = 0.000000
X(g)
[[ 2.          0.         -0.00026302 -0.00003893  0.0000317   0.00228502  0.0017553   0.02974208]
 [-0.          2.          0.02935143  0.00434392 -0.00353799  0.00002048  0.00001573  0.00026652]
 [-0.00026302 -0.02935143  0.          0.          0.          0.          0.          0.        ]
 [-0.00003893 -0.00434392  0.          0.          0.          0.          0.          0.        ]
 [ 0.0000317   0.00353799  0.          0.          0.          0.          0.          0.        ]
 [-0.00228502  0.00002048  0.          0.          0.          0.          0.          0.        ]
 [-0.0017553   0.00001573  0.          0.          0.          0.          0.          0.        ]
 [-0.02974208  0.00026652  0.          0.          0.          0.          0.          0.        ]]
X(g) int
[[ 2.          0.         -0.24965235 -0.03694776  0.03009279  0.05314397  0.04082401  0.69172768]
 [-0.          2.          0.68264224  0.10102889 -0.08228487  0.01943554  0.01492994  0.25297503]
 [-0.24965235 -0.68264224  0.          0.          0.          0.          0.          0.        ]
 [-0.03694776 -0.10102889  0.          0.          0.          0.          0.          0.        ]
 [ 0.03009279  0.08228487  0.          0.          0.          0.          0.          0.        ]
 [-0.05314397  0.01943554  0.          0.          0.          0.          0.          0.        ]
 [-0.04082401  0.01492994  0.          0.          0.          0.          0.          0.        ]
 [-0.69172768  0.25297503  0.          0.          0.          0.          0.          0.        ]]
Hsp + Hph =  -1.2745334920216576
Feff (mod,ortho)
[[-0.23084662  0.3318197   0.2236593   0.0396671   0.          0.          0.          0.        ]
 [ 0.3318197   0.00303669  0.07361818  0.33072271  0.          0.          0.          0.        ]
 [ 0.2236593   0.07361818  1.12115     0.05085974  0.          0.          0.          0.        ]
 [ 0.0396671   0.33072271  0.05085974  1.11661073  0.          0.          0.          0.        ]
 [ 0.          0.          0.          0.         -0.23084662 -0.3318197   0.2236593  -0.0396671 ]
 [ 0.          0.          0.          0.         -0.3318197   0.00303669 -0.07361818  0.33072271]
 [ 0.          0.          0.          0.          0.2236593  -0.07361818  1.12115    -0.05085974]
 [ 0.          0.          0.          0.         -0.0396671   0.33072271 -0.05085974  1.11661073]]
E(SUHF) =     -1.00994489
e_a, e_b
[-0.4946335   0.12188633  1.09882037  1.28387761] [-0.4946335   0.12188633  1.09882037  1.28387761]
P_a, P_b
[[ 0.6360867  -0.46885933 -0.06929118  0.08276514]
 [-0.46885933  0.34559609  0.05107451 -0.06100616]
 [-0.06929118  0.05107451  0.00754813 -0.0090159 ]
 [ 0.08276514 -0.06100616 -0.0090159   0.01076908]] 
 [[ 0.6360867   0.46885933 -0.06929118 -0.08276514]
 [ 0.46885933  0.34559609 -0.05107451 -0.06100616]
 [-0.06929118 -0.05107451  0.00754813  0.0090159 ]
 [-0.08276514 -0.06100616  0.0090159   0.01076908]]
**** Start Cycle 7 ****
dm (ortho)
[[[ 0.6360867  -0.46885933 -0.06929118  0.08276514]
  [-0.46885933  0.34559609  0.05107451 -0.06100616]
  [-0.06929118  0.05107451  0.00754813 -0.0090159 ]
  [ 0.08276514 -0.06100616 -0.0090159   0.01076908]]

 [[ 0.6360867   0.46885933 -0.06929118 -0.08276514]
  [ 0.46885933  0.34559609 -0.05107451 -0.06100616]
  [-0.06929118 -0.05107451  0.00754813  0.0090159 ]
  [-0.08276514 -0.06100616  0.0090159   0.01076908]]]
Fock (ortho)
 (array([[-0.23613863,  0.32916581,  0.21722485,  0.02788777],
       [ 0.32916581,  0.00988473,  0.07910805,  0.33856741],
       [ 0.21722485,  0.07910805,  1.12263647,  0.05124326],
       [ 0.02788777,  0.33856741,  0.05124326,  1.11364339]]), array([[-0.23613863, -0.32916581,  0.21722485, -0.02788777],
       [-0.32916581,  0.00988473, -0.07910805,  0.33856741],
       [ 0.21722485, -0.07910805,  1.12263647, -0.05124326],
       [-0.02788777,  0.33856741, -0.05124326,  1.11364339]]))
E(UHF) =    -1.261156
NO eigenvalue
[-1. -0.  0.  0.] [-1. -0. -0.  0.]
NO vec
[[ 0.79755043  0.          0.04874933  0.08612786  0.59507882  0.          0.          0.        ]
 [-0.58787421  0.         -0.05717266 -0.075014    0.80343518  0.          0.          0.        ]
 [-0.08688     0.          0.988761    0.12032727  0.01802487  0.          0.          0.        ]
 [ 0.10377417  0.          0.12925352 -0.9861421  -0.00694336  0.          0.          0.        ]
 [ 0.          0.79755043  0.          0.          0.          0.02365197 -0.02675912 -0.60219419]
 [ 0.          0.58787421  0.          0.          0.          0.19133056  0.00231318  0.78599693]
 [ 0.         -0.08688     0.          0.          0.          0.73423136  0.66330191 -0.11570112]
 [ 0.         -0.10377417  0.          0.          0.          0.65095123 -0.74786976 -0.07863994]]
dm(NO)
[[ 1.  0.  0.  0. -0.  0.  0.  0.]
 [ 0.  1.  0.  0.  0. -0. -0. -0.]
 [ 0.  0.  0.  0.  0.  0.  0.  0.]
 [ 0.  0. -0. -0. -0.  0.  0.  0.]
 [-0.  0.  0.  0.  0.  0.  0.  0.]
 [ 0. -0.  0.  0.  0.  0. -0.  0.]
 [ 0.  0.  0.  0.  0.  0.  0.  0.]
 [ 0. -0.  0.  0.  0.  0.  0.  0.]]
D(g) (NO)
[[ 0.99951369  0.00895799  0.          0.          0.         -0.0028019  -0.00492504 -0.02932645]
 [-0.00895799  0.99951369  0.00293269 -0.00363205 -0.02950178 -0.         -0.         -0.        ]
 [ 0.         -0.00293269  0.99951369  0.         -0.          0.0249569   0.0173923  -0.00620107]
 [ 0.          0.00363205  0.          0.99951369 -0.         -0.01764651  0.02540936 -0.0014718 ]
 [ 0.          0.02950178 -0.         -0.          0.99951369  0.00550418  0.00009615  0.00846952]
 [ 0.0028019  -0.         -0.0249569   0.01764651 -0.00550418  0.99951369 -0.         -0.        ]
 [ 0.00492504 -0.         -0.0173923  -0.02540936 -0.00009615 -0.          0.99951369  0.        ]
 [ 0.02932645 -0.          0.00620107  0.0014718  -0.00846952 -0.          0.          0.99951369]]
...
N(g) (NO)
[[ 1.0004062  -0.00896599]
 [ 0.00896599  1.0004062 ]]
...
P(g) (NO)
[[ 1.          0.          0.          0.         -0.         -0.         -0.         -0.        ]
 [ 0.          1.          0.          0.         -0.         -0.         -0.         -0.        ]
 [-0.00002629 -0.00293388 -0.         -0.          0.          0.          0.          0.        ]
 [ 0.00003256  0.00363353  0.          0.         -0.         -0.         -0.         -0.        ]
 [ 0.00026451  0.02951376  0.          0.         -0.         -0.         -0.         -0.        ]
 [ 0.00280304 -0.00002512  0.          0.         -0.          0.          0.          0.        ]
 [ 0.00492704 -0.00004416  0.          0.         -0.          0.          0.          0.        ]
 [ 0.02933836 -0.00026294  0.          0.         -0.          0.          0.          0.        ]]
...
Pg_ortho
[[ 0.63621345 -0.46895277 -0.06930499  0.08278163  0.01414291  0.01042474 -0.00154064 -0.00184022]
 [-0.46869059  0.34547171  0.05105613 -0.0609842   0.01882823  0.01387828 -0.00205103 -0.00244986]
 [-0.06930499  0.05108469  0.00754964 -0.0090177  -0.00154064 -0.0011356   0.00016783  0.00020046]
 [ 0.08273535 -0.0609842  -0.00901266  0.0107652  -0.00332364 -0.00244986  0.00036206  0.00043246]
 [-0.01414291  0.01042474  0.00154064 -0.00184022  0.63621345  0.46895277 -0.06930499 -0.08278163]
 [ 0.01882823 -0.01387828 -0.00205103  0.00244986  0.46869059  0.34547171 -0.05105613 -0.0609842 ]
 [ 0.00154064 -0.0011356  -0.00016783  0.00020046 -0.06930499 -0.05108469  0.00754964  0.0090177 ]
 [-0.00332364  0.00244986  0.00036206 -0.00043246 -0.08273535 -0.0609842   0.00901266  0.0107652 ]]
G(g) (NO)
[[ 0.27191574 -0.00147008 -0.00087703  0.01705491  0.04761945 -0.00052348 -0.00004676 -0.00034927]
 [ 0.00147008  0.27191574  0.00034649  0.00033054 -0.00041097  0.00635637 -0.01243691 -0.04862274]
 [-0.00086903 -0.00269868  0.82520518 -0.03417396  0.14742897 -0.00332928 -0.00014796 -0.00050167]
 [ 0.01705359  0.00062703 -0.034174    0.73775403 -0.11045647  0.00193853 -0.00005547 -0.00004911]
 [ 0.04755106 -0.01952009  0.14743241 -0.11046116  0.94817882 -0.00614482 -0.00060401 -0.001265  ]
 [-0.00108279  0.00636895  0.0000172  -0.00007478 -0.00020731  0.74150793  0.01628346  0.01116173]
 [ 0.00222626 -0.01242927  0.00244964  0.00269953 -0.0007814   0.01628421  0.81698296 -0.1855855 ]
 [-0.01955969 -0.04855546 -0.00442231 -0.00413458  0.00206053  0.01116299 -0.18559114  0.95264713]]
...
C(NO)
[[-0.9999157   0.          0.00438954 -0.00265922  0.01192667  0.          0.          0.        ]
 [ 0.         -0.9999157   0.          0.          0.          0.00438954 -0.00265922  0.01192667]
 [-0.00505481  0.          0.2168439  -0.71623827 -0.66329173  0.          0.          0.        ]
 [ 0.0089076   0.         -0.23342655 -0.69780514  0.67712679  0.          0.          0.        ]
 [-0.00798051  0.         -0.94787736  0.00797854 -0.31843548  0.          0.          0.        ]
 [ 0.          0.00431828  0.          0.          0.          0.08304869 -0.99037351  0.11065521]
 [ 0.         -0.00958739  0.          0.          0.          0.32738852 -0.07779771 -0.94163281]
 [ 0.          0.00761705  0.          0.          0.          0.94122282  0.11445852  0.31771186]]
detC 0.9998314150264923
detNg [ 1.00089294  1.02375155  1.13845435  1.48893592  2.43366272  4.89860055  9.4585582  11.98810716]
xg [0.99944481 0.97712893 0.87868016 0.67184708 0.41104186 0.20420878 0.10576001 0.08344414]
ciS 1.0828889438300529
[[-0.76652914  0.         -0.00915801 -0.0037706  -0.05431792  0.          0.          0.        ]
 [ 0.         -0.76652914  0.          0.          0.         -0.00218316 -0.00379431  0.05503962]
 [-0.00915801  0.          0.30902196  0.00099206  0.09392346  0.          0.          0.        ]
 [-0.0037706   0.          0.00099206  0.39180898 -0.14607086  0.          0.          0.        ]
 [-0.05431792  0.          0.09392346 -0.14607086 -0.70733466  0.          0.          0.        ]
 [ 0.         -0.00218316  0.          0.          0.          0.35266033 -0.06184814 -0.08149004]
 [ 0.         -0.00379431  0.          0.          0.         -0.06184814  0.34027843 -0.17224927]
 [ 0.          0.05503962  0.          0.          0.         -0.08149004 -0.17224927 -0.69944248]]
ciH -1.380178285584329
S2 = 0.000000
X(g)
[[ 2.         -0.         -0.00002629  0.00003256  0.00026451 -0.00280304 -0.00492704 -0.02933836]
 [ 0.          2.          0.00293388 -0.00363353 -0.02951376 -0.00002512 -0.00004416 -0.00026294]
 [-0.00002629 -0.00293388  0.          0.          0.          0.          0.          0.        ]
 [ 0.00003256  0.00363353  0.          0.          0.          0.          0.          0.        ]
 [ 0.00026451  0.02951376  0.          0.          0.          0.          0.          0.        ]
 [ 0.00280304 -0.00002512  0.          0.          0.          0.          0.          0.        ]
 [ 0.00492704 -0.00004416  0.          0.          0.          0.          0.          0.        ]
 [ 0.02933836 -0.00026294  0.          0.          0.          0.          0.          0.        ]]
X(g) int
[[ 2.         -0.         -0.02495728  0.03090889  0.25106118 -0.06519043 -0.11458858 -0.68232455]
 [ 0.          2.          0.06823346 -0.08450521 -0.68640381 -0.02384425 -0.04191227 -0.24956914]
 [-0.02495728 -0.06823346  0.          0.          0.          0.          0.          0.        ]
 [ 0.03090889  0.08450521  0.          0.          0.          0.          0.          0.        ]
 [ 0.25106118  0.68640381  0.          0.          0.          0.          0.          0.        ]
 [ 0.06519043 -0.02384425  0.          0.          0.          0.          0.          0.        ]
 [ 0.11458858 -0.04191227  0.          0.          0.          0.          0.          0.        ]
 [ 0.68232455 -0.24956914  0.          0.          0.          0.          0.          0.        ]]
Hsp + Hph =  -1.2745335460742617
Feff (mod,ortho)
[[-0.23083026  0.33184733  0.22366053  0.03973809  0.          0.          0.          0.        ]
 [ 0.33184733  0.00304751  0.07364597  0.33069056  0.          0.          0.          0.        ]
 [ 0.22366053  0.07364597  1.12117136  0.05086499  0.          0.          0.          0.        ]
 [ 0.03973809  0.33069056  0.05086499  1.11663735  0.          0.          0.          0.        ]
 [ 0.          0.          0.          0.         -0.23083026 -0.33184733  0.22366053 -0.03973809]
 [ 0.          0.          0.          0.         -0.33184733  0.00304751 -0.07364597  0.33069056]
 [ 0.          0.          0.          0.          0.22366053 -0.07364597  1.12117136 -0.05086499]
 [ 0.          0.          0.          0.         -0.03973809  0.33069056 -0.05086499  1.11663735]]
E(SUHF) =     -1.00994494
e_a, e_b
[-0.49462658  0.12190871  1.09882228  1.28392155] [-0.49462658  0.12190871  1.09882228  1.28392155]
P_a, P_b
[[ 0.63609632 -0.46886436 -0.06928317  0.08272751]
 [-0.46886436  0.34559828  0.05106838 -0.06097816]
 [-0.06928317  0.05106838  0.00754628 -0.00901062]
 [ 0.08272751 -0.06097816 -0.00901062  0.01075913]] 
 [[ 0.63609632  0.46886436 -0.06928317 -0.08272751]
 [ 0.46886436  0.34559828 -0.05106838 -0.06097816]
 [-0.06928317 -0.05106838  0.00754628  0.00901062]
 [-0.08272751 -0.06097816  0.00901062  0.01075913]]
**** Start Cycle 8 ****
dm (ortho)
[[[ 0.63609632 -0.46886436 -0.06928317  0.08272751]
  [-0.46886436  0.34559828  0.05106838 -0.06097816]
  [-0.06928317  0.05106838  0.00754628 -0.00901062]
  [ 0.08272751 -0.06097816 -0.00901062  0.01075913]]

 [[ 0.63609632  0.46886436 -0.06928317 -0.08272751]
  [ 0.46886436  0.34559828 -0.05106838 -0.06097816]
  [-0.06928317 -0.05106838  0.00754628  0.00901062]
  [-0.08272751 -0.06097816  0.00901062  0.01075913]]]
Fock (ortho)
 (array([[-0.23613211,  0.32917682,  0.21722406,  0.02790672],
       [ 0.32917682,  0.00989269,  0.07912193,  0.3385627 ],
       [ 0.21722406,  0.07912193,  1.12264632,  0.05124723],
       [ 0.02790672,  0.3385627 ,  0.05124723,  1.11365339]]), array([[-0.23613211, -0.32917682,  0.21722406, -0.02790672],
       [-0.32917682,  0.00989269, -0.07912193,  0.3385627 ],
       [ 0.21722406, -0.07912193,  1.12264632, -0.05124723],
       [-0.02790672,  0.3385627 , -0.05124723,  1.11365339]]))
E(UHF) =    -1.261153
NO eigenvalue
[-1. -0.  0.  0.] [-1. -0.  0.  0.]
NO vec
[[-0.79755647  0.         -0.          0.          0.6032443   0.          0.          0.        ]
 [ 0.58787607  0.          0.00971066  0.22407271  0.77723796  0.          0.          0.        ]
 [ 0.0868693   0.         -0.79302493 -0.59192436  0.11485094  0.          0.          0.        ]
 [-0.10372621  0.         -0.60911178  0.77422024 -0.13713766  0.          0.          0.        ]
 [ 0.          0.79755647  0.          0.          0.         -0.04048253  0.00654891 -0.60184878]
 [ 0.          0.58787607  0.          0.          0.          0.27544433 -0.02313795  0.76026099]
 [ 0.         -0.0868693   0.          0.          0.          0.5645183  -0.80472289 -0.16184523]
 [ 0.         -0.10372621  0.          0.          0.          0.77705256  0.5931634  -0.18326861]]
dm(NO)
[[ 1.  0. -0.  0. -0.  0.  0.  0.]
 [ 0.  1.  0.  0.  0. -0. -0. -0.]
 [-0.  0.  0.  0.  0.  0.  0.  0.]
 [ 0.  0.  0. -0.  0.  0.  0.  0.]
 [-0.  0.  0. -0. -0.  0.  0.  0.]
 [ 0.  0.  0.  0.  0.  0. -0.  0.]
 [ 0. -0.  0.  0.  0. -0.  0. -0.]
 [ 0. -0.  0.  0.  0.  0. -0.  0.]]
D(g) (NO)
[[ 0.99951369 -0.00895848 -0.         -0.         -0.          0.00507204 -0.00468552  0.02905958]
 [ 0.00895848  0.99951369 -0.00429639 -0.00320689 -0.02938359  0.          0.         -0.        ]
 [-0.          0.00429639  0.99951369  0.         -0.         -0.02863599  0.00862646  0.00771351]
 [-0.          0.00320689  0.          0.99951369 -0.          0.01026481  0.02901254  0.00387494]
 [-0.          0.02938359 -0.          0.          0.99951369  0.00461316 -0.00585625  0.00730894]
 [-0.00507204 -0.          0.02863599 -0.01026481 -0.00461316  0.99951369  0.          0.        ]
 [ 0.00468552 -0.         -0.00862646 -0.02901254  0.00585625  0.          0.99951369 -0.        ]
 [-0.02905958 -0.         -0.00771351 -0.00387494 -0.00730894  0.          0.          0.99951369]]
...
N(g) (NO)
[[ 1.00040619  0.00896648]
 [-0.00896648  1.00040619]]
...
P(g) (NO)
[[ 1.          0.         -0.          0.         -0.         -0.         -0.         -0.        ]
 [-0.          1.          0.         -0.          0.         -0.         -0.         -0.        ]
 [-0.00003852  0.00429814  0.         -0.          0.         -0.         -0.         -0.        ]
 [-0.00002875  0.00320819  0.         -0.          0.         -0.         -0.         -0.        ]
 [-0.00026347  0.02939553  0.         -0.          0.         -0.         -0.         -0.        ]
[...]
 [ 0.03977063  0.33067577  0.05086738  1.11664951  0.          0.          0.          0.        ]
 [ 0.          0.          0.          0.         -0.23082295 -0.33186002  0.22366101 -0.03977063]
 [ 0.          0.          0.          0.         -0.33186002  0.0030526  -0.07365878  0.33067577]
 [ 0.          0.          0.          0.          0.22366101 -0.07365878  1.12118112 -0.05086738]
 [ 0.          0.          0.          0.         -0.03977063  0.33067577 -0.05086738  1.11664951]]
E(SUHF) =     -1.00994495
e_a, e_b
[-0.49462348  0.12191902  1.09882311  1.28394163] [-0.49462348  0.12191902  1.09882311  1.28394163]
P_a, P_b
[[ 0.63610094 -0.46886662 -0.06927947  0.08271023]
 [-0.46886662  0.34559909  0.05106553 -0.06096527]
 [-0.06927947  0.05106553  0.00754541 -0.00900819]
 [ 0.08271023 -0.06096527 -0.00900819  0.01075455]] 
 [[ 0.63610094  0.46886662 -0.06927947 -0.08271023]
 [ 0.46886662  0.34559909 -0.05106553 -0.06096527]
 [-0.06927947 -0.05106553  0.00754541  0.00900819]
 [-0.08271023 -0.06096527  0.00900819  0.01075455]]
**** Start Cycle 9 ****
dm (ortho)
[[[ 0.63610094 -0.46886662 -0.06927947  0.08271023]
  [-0.46886662  0.34559909  0.05106553 -0.06096527]
  [-0.06927947  0.05106553  0.00754541 -0.00900819]
  [ 0.08271023 -0.06096527 -0.00900819  0.01075455]]

 [[ 0.63610094  0.46886662 -0.06927947 -0.08271023]
  [ 0.46886662  0.34559909 -0.05106553 -0.06096527]
  [-0.06927947 -0.05106553  0.00754541  0.00900819]
  [-0.08271023 -0.06096527  0.00900819  0.01075455]]]
Fock (ortho)
 (array([[-0.23612917,  0.32918184,  0.21722369,  0.02791542],
       [ 0.32918184,  0.0098964 ,  0.07912832,  0.33856053],
       [ 0.21722369,  0.07912832,  1.12265085,  0.05124905],
       [ 0.02791542,  0.33856053,  0.05124905,  1.11365799]]), array([[-0.23612917, -0.32918184,  0.21722369, -0.02791542],
       [-0.32918184,  0.0098964 , -0.07912832,  0.33856053],
       [ 0.21722369, -0.07912832,  1.12265085, -0.05124905],
       [-0.02791542,  0.33856053, -0.05124905,  1.11365799]]))
E(UHF) =    -1.261152
NO eigenvalue
[-1. -0.  0.  0.] [-1. -0. -0.  0.]
NO vec
[[ 0.79755937  0.          0.59670863 -0.06920738  0.05521058  0.          0.          0.        ]
 [-0.58787676  0.          0.79409919  0.13356883  0.07724473  0.          0.          0.        ]
 [-0.08686435  0.          0.11517574 -0.6219731  -0.76963537  0.          0.          0.        ]
 [ 0.10370417  0.          0.00893478  0.76845245 -0.63138454  0.          0.          0.        ]
 [ 0.          0.79755937  0.          0.          0.          0.03616882  0.0153002  -0.60196078]
 [ 0.          0.58787676  0.          0.          0.         -0.24542799  0.0835814   0.76627682]
 [ 0.         -0.08686435  0.          0.          0.         -0.89949007 -0.38900257 -0.17902294]
 [ 0.         -0.10370417  0.          0.          0.         -0.35968673  0.91730968 -0.13569763]]
dm(NO)
[[ 1.  0.  0. -0. -0.  0.  0.  0.]
 [ 0.  1.  0.  0.  0.  0.  0. -0.]
 [ 0.  0. -0. -0.  0.  0.  0.  0.]
 [-0.  0.  0. -0. -0.  0.  0.  0.]
 [-0.  0. -0. -0. -0.  0.  0.  0.]
 [ 0.  0.  0.  0.  0.  0.  0. -0.]
 [ 0. -0.  0.  0.  0.  0.  0. -0.]
 [ 0. -0.  0.  0.  0.  0. -0.  0.]]
D(g) (NO)
[[ 0.99951369  0.00895871  0.         -0.         -0.          0.00667199  0.00286844 -0.02897225]
 [-0.00895871  0.99951369 -0.02905689  0.00007295 -0.00691566  0.          0.         -0.        ]
 [-0.          0.02905689  0.99951369  0.         -0.         -0.0087352   0.00121284  0.00709334]
 [-0.         -0.00007295  0.          0.99951369 -0.          0.00772632  0.02984119  0.00471119]
 [-0.          0.00691566 -0.         -0.          0.99951369  0.02814032 -0.00849693  0.00777759]
 [-0.00667199  0.          0.0087352  -0.00772632 -0.02814032  0.99951369  0.          0.        ]
 [-0.00286844 -0.         -0.00121284 -0.02984119  0.00849693  0.          0.99951369 -0.        ]
 [ 0.02897225 -0.         -0.00709334 -0.00471119 -0.00777759  0.         -0.          0.99951369]]
...
N(g) (NO)
[[ 1.00040618 -0.00896671]
 [ 0.00896671  1.00040618]]
...
P(g) (NO)
[[ 1.         -0.          0.         -0.         -0.         -0.         -0.          0.        ]
 [ 0.          1.          0.         -0.         -0.          0.          0.         -0.        ]
 [ 0.00026054  0.02906869  0.         -0.         -0.          0.          0.         -0.        ]
 [-0.00000065 -0.00007298 -0.          0.          0.         -0.         -0.          0.        ]
 [ 0.00006201  0.00691847  0.         -0.         -0.          0.          0.         -0.        ]
 [-0.0066747   0.00005983 -0.          0.          0.          0.          0.         -0.        ]
 [-0.0028696   0.00002572 -0.          0.          0.          0.          0.         -0.        ]
 [ 0.02898402 -0.00025979  0.         -0.         -0.         -0.         -0.          0.        ]]
...
Pg_ortho
[[ 0.63622771 -0.46896005 -0.06929328  0.08272671  0.01414277  0.01042456 -0.00154033 -0.00183894]
 [-0.46869785  0.34547469  0.05104715 -0.06094333  0.01882886  0.01387865 -0.0020507  -0.00244826]
 [-0.06929328  0.05107571  0.00754692 -0.00900999 -0.00154033 -0.00113537  0.00016776  0.00020028]
 [ 0.08268046 -0.06094333 -0.00900495  0.01075068 -0.0033215  -0.00244826  0.00036175  0.00043188]
 [-0.01414277  0.01042456  0.00154033 -0.00183894  0.63622771  0.46896005 -0.06929328 -0.08272671]
 [ 0.01882886 -0.01387865 -0.0020507   0.00244826  0.46869785  0.34547469 -0.05104715 -0.06094333]
 [ 0.00154033 -0.00113537 -0.00016776  0.00020028 -0.06929328 -0.05107571  0.00754692  0.00900999]
 [-0.0033215   0.00244826  0.00036175 -0.00043188 -0.08268046 -0.06094333  0.00900495  0.01075068]]
G(g) (NO)
[[ 0.27192139 -0.00147004  0.04724468 -0.01164967  0.0138392   0.00053654 -0.00013759 -0.00030228]
 [ 0.00147004  0.27192139 -0.00037583 -0.00048327 -0.00015291  0.00212214  0.01240837 -0.04899823]
 [ 0.04717741 -0.0196942   0.97668397  0.02539762 -0.17204113  0.00637777 -0.00157138 -0.00074004]
 [-0.01165616 -0.00007936  0.02539547  0.73357582  0.0171182   0.00013344 -0.00014705  0.00025948]
 [ 0.01382591  0.00094431 -0.17203573  0.0171187   0.80092269 -0.00315385  0.00105268 -0.00000089]
 [ 0.00189599  0.00210225  0.0002375   0.00066109  0.0001585   0.75287288  0.02241633  0.03361634]
 [-0.00303318  0.01240726  0.00049476  0.00360729  0.0006949   0.02241757  0.80942342  0.18568331]
 [-0.01938981 -0.0489323   0.00163828  0.00591139  0.00172256  0.03361697  0.18568897  0.94888618]]
...
C(NO)
[[-0.99991513  0.          0.00437046 -0.00271436  0.01196941  0.          0.          0.        ]
 [ 0.         -0.99991513  0.          0.          0.          0.00437046 -0.00271436  0.01196941]
 [-0.00846389  0.         -0.92110431 -0.06058836 -0.38447922  0.          0.          0.        ]
 [-0.00535718  0.          0.0368879   0.96978919 -0.24107987  0.          0.          0.        ]
 [ 0.00833057  0.         -0.38753973  0.236285    0.89101794  0.          0.          0.        ]
 [ 0.         -0.00157287  0.          0.          0.         -0.26337769  0.94780473  0.17971063]
 [ 0.          0.01075092  0.          0.          0.         -0.25428858 -0.2478816   0.9347601 ]
 [ 0.          0.00718882  0.          0.          0.          0.93056457  0.20053313  0.30624235]]
detC 0.9998302646750169
detNg [ 1.00089293  1.0237512   1.13845208  1.48892541  2.43361234  4.89832484  9.45740322 11.98620559]
xg [0.99944712 0.97713151 0.87868394 0.67185337 0.41105132 0.20422075 0.10577317 0.08345757]
ciS 1.0829046866558303
[[-0.76653025  0.         -0.05495365  0.00525494  0.00113362  0.          0.          0.        ]
 [ 0.         -0.76653025  0.          0.          0.         -0.00127701  0.00455073  0.0550133 ]
 [-0.05495365  0.         -0.67805447  0.02459756 -0.24145482  0.          0.          0.        ]
 [ 0.00525494  0.          0.02459756  0.37441802 -0.04243438  0.          0.          0.        ]
 [ 0.00113362  0.         -0.24145482 -0.04243438  0.29713383  0.          0.          0.        ]
 [ 0.         -0.00127701  0.          0.          0.          0.28392806 -0.05684481  0.21681486]
 [ 0.          0.00455073  0.          0.          0.         -0.05684481  0.38698775  0.09974243]
 [ 0.          0.0550133   0.          0.          0.          0.21681486  0.09974243 -0.67741842]]
ciH -1.3801983652871592
S2 = 0.000000
X(g)
[[ 2.         -0.          0.00026054 -0.00000065  0.00006201  0.0066747   0.0028696  -0.02898402]
 [ 0.          2.         -0.02906869  0.00007298 -0.00691847  0.00005983  0.00002572 -0.00025979]
 [ 0.00026054  0.02906869  0.          0.          0.          0.          0.          0.        ]
 [-0.00000065 -0.00007298  0.          0.          0.          0.          0.          0.        ]
 [ 0.00006201  0.00691847  0.          0.          0.          0.          0.          0.        ]
 [-0.0066747   0.00005983  0.          0.          0.          0.          0.          0.        ]
 [-0.0028696   0.00002572  0.          0.          0.          0.          0.          0.        ]
 [ 0.02898402 -0.00025979  0.          0.          0.          0.          0.          0.        ]]
X(g) int
[[ 2.         -0.          0.24729197 -0.00062086  0.05885654  0.15523202  0.06673772 -0.67407525]
 [ 0.          2.         -0.67604451  0.00169729 -0.16090148  0.0567827   0.02441216 -0.24657163]
 [ 0.24729197  0.67604451  0.          0.          0.          0.          0.          0.        ]
 [-0.00062086 -0.00169729  0.          0.          0.          0.          0.          0.        ]
 [ 0.05885654  0.16090148  0.          0.          0.          0.          0.          0.        ]
 [-0.15523202  0.0567827   0.          0.          0.          0.          0.          0.        ]
 [-0.06673772  0.02441216  0.          0.          0.          0.          0.          0.        ]
 [ 0.67407525 -0.24657163  0.          0.          0.          0.          0.          0.        ]]
Hsp + Hph =  -1.2745335598735066
Feff (mod,ortho)
[[-0.23081955  0.33186584  0.22366125  0.03978558  0.          0.          0.          0.        ]
 [ 0.33186584  0.00305492  0.07366466  0.33066897  0.          0.          0.          0.        ]
 [ 0.22366125  0.07366466  1.1211856   0.05086848  0.          0.          0.          0.        ]
 [ 0.03978558  0.33066897  0.05086848  1.1166551   0.          0.          0.          0.        ]
 [ 0.          0.          0.          0.         -0.23081955 -0.33186584  0.22366125 -0.03978558]
 [ 0.          0.          0.          0.         -0.33186584  0.00305492 -0.07366466  0.33066897]
 [ 0.          0.          0.          0.          0.22366125 -0.07366466  1.1211856  -0.05086848]
 [ 0.          0.          0.          0.         -0.03978558  0.33066897 -0.05086848  1.1166551 ]]
E(SUHF) =     -1.00994495
e_a, e_b
[-0.49462203  0.12192374  1.0988235   1.28395086] [-0.49462203  0.12192374  1.0988235   1.28395086]
P_a, P_b
[[ 0.63610304 -0.46886766 -0.06927778  0.08270229]
 [-0.46886766  0.34559949  0.05106423 -0.06095936]
 [-0.06927778  0.05106423  0.00754502 -0.00900708]
 [ 0.08270229 -0.06095936 -0.00900708  0.01075246]] 
 [[ 0.63610304  0.46886766 -0.06927778 -0.08270229]
 [ 0.46886766  0.34559949 -0.05106423 -0.06095936]
 [-0.06927778 -0.05106423  0.00754502  0.00900708]
 [-0.08270229 -0.06095936  0.00900708  0.01075246]]

***************
SUHF converged at cycle 8
Final E(SUHF) =     -1.00994495, delta E = -2.4033e-09
Ngg
[[ 1.00040618 -0.00896671]
 [ 0.00896671  1.00040618]]
Ngg
[[ 1.01072436 -0.04677032]
 [ 0.04677032  1.01072436]]
Ngg
[[ 1.06031699 -0.11907963]
 [ 0.11907963  1.06031699]]
Ngg
[[ 1.19307804 -0.25591052]
 [ 0.25591052  1.19307804]]
Ngg
[[ 1.45593498 -0.56023717]
 [ 0.56023717  1.45593498]]
Ngg
[[ 1.78338738 -1.3106694 ]
 [ 1.3106694   1.78338738]]
Ngg
[[ 1.5039147  -2.68246972]
 [ 2.68246972  1.5039147 ]]
Ngg
[[ 0.37376846 -3.44187489]
 [ 3.44187489  0.37376846]]
pgg
[[ 1.         -0.          0.         -0.         -0.         -0.         -0.          0.        ]
 [ 0.          1.          0.         -0.         -0.          0.          0.         -0.        ]
 [ 0.00026054  0.02906869  0.         -0.         -0.          0.          0.         -0.        ]
 [-0.00000065 -0.00007298 -0.          0.          0.         -0.         -0.          0.        ]
 [ 0.00006201  0.00691847  0.         -0.         -0.          0.          0.         -0.        ]
 [-0.0066747   0.00005983 -0.          0.          0.          0.          0.         -0.        ]
 [-0.0028696   0.00002572 -0.          0.          0.          0.          0.         -0.        ]
 [ 0.02898402 -0.00025979  0.         -0.         -0.         -0.         -0.          0.        ]]
pgg
[[ 1.         -0.          0.         -0.         -0.         -0.         -0.          0.        ]
 [ 0.          1.          0.         -0.         -0.          0.          0.         -0.        ]
 [ 0.00693026  0.14976565  0.         -0.         -0.          0.          0.         -0.        ]
 [-0.0000174  -0.000376   -0.          0.          0.         -0.         -0.          0.        ]
 [ 0.00164943  0.03564486  0.         -0.         -0.          0.          0.         -0.        ]
 [-0.0343889   0.00159131 -0.          0.          0.          0.          0.         -0.        ]
 [-0.01478456  0.00068414 -0.          0.          0.          0.          0.         -0.        ]
 [ 0.1493294  -0.00691008  0.         -0.         -0.         -0.         -0.          0.        ]]
pgg
[[ 1.         -0.          0.         -0.         -0.         -0.         -0.          0.        ]
 [ 0.          1.          0.         -0.         -0.          0.          0.         -0.        ]
 [ 0.04039836  0.35971788  0.         -0.         -0.          0.          0.         -0.        ]
 [-0.00010142 -0.00090311 -0.          0.          0.         -0.         -0.          0.        ]
 [ 0.00961498  0.08561439  0.         -0.         -0.          0.          0.         -0.        ]
 [-0.08259771  0.00927619 -0.          0.          0.          0.          0.         -0.        ]
 [-0.03551061  0.00398804 -0.          0.          0.          0.          0.         -0.        ]
 [ 0.35867005 -0.04028069  0.         -0.         -0.         -0.         -0.          0.        ]]
pgg
[[ 1.         -0.          0.         -0.         -0.         -0.         -0.          0.        ]
 [ 0.          1.          0.         -0.         -0.          0.          0.         -0.        ]
 [ 0.14266154  0.66510104  0.         -0.         -0.          0.          0.         -0.        ]
 [-0.00035817 -0.00166981 -0.          0.          0.         -0.         -0.          0.        ]
 [ 0.03395406  0.15829689  0.         -0.         -0.          0.          0.         -0.        ]
 [-0.1527192   0.03275766 -0.          0.          0.          0.          0.         -0.        ]
 [-0.06565741  0.01408325 -0.          0.          0.          0.          0.         -0.        ]
 [ 0.66316366 -0.14224598  0.         -0.         -0.         -0.         -0.          0.        ]]
pgg
[[ 1.         -0.          0.         -0.         -0.         -0.         -0.          0.        ]
 [ 0.          1.          0.         -0.         -0.          0.          0.         -0.        ]
 [ 0.41830786  1.08709147  0.         -0.         -0.          0.          0.         -0.        ]
 [-0.00105021 -0.00272927 -0.          0.          0.         -0.         -0.          0.        ]
 [ 0.09955906  0.25873241  0.         -0.         -0.          0.          0.         -0.        ]
 [-0.24961581  0.09605103 -0.          0.          0.          0.          0.         -0.        ]
 [-0.10731544  0.04129449 -0.          0.          0.          0.          0.         -0.        ]
 [ 1.08392486 -0.41708937  0.         -0.         -0.         -0.         -0.          0.        ]]
pgg
[[ 1.         -0.          0.         -0.         -0.         -0.         -0.          0.        ]
 [ 0.          1.          0.         -0.         -0.          0.          0.         -0.        ]
 [ 1.13747621  1.54772876  0.         -0.         -0.          0.          0.         -0.        ]
 [-0.00285577 -0.00388576 -0.          0.          0.         -0.         -0.          0.        ]
 [ 0.27072419  0.36836605  0.         -0.         -0.          0.          0.         -0.        ]
 [-0.35538645  0.26118506 -0.          0.          0.          0.          0.         -0.        ]
 [-0.1527886   0.11228932 -0.          0.          0.          0.          0.         -0.        ]
 [ 1.54322036 -1.13416284  0.         -0.         -0.         -0.         -0.          0.        ]]
pgg
[[ 1.         -0.          0.         -0.         -0.         -0.         -0.          0.        ]
 [ 0.          1.          0.         -0.         -0.          0.          0.         -0.        ]
 [ 2.46775099  1.3835336   0.         -0.         -0.          0.          0.         -0.        ]
 [-0.00619558 -0.00347352 -0.          0.          0.         -0.         -0.          0.        ]
 [ 0.58733527  0.3292869   0.         -0.         -0.          0.          0.         -0.        ]
 [-0.31768428  0.56664015 -0.          0.          0.          0.          0.         -0.        ]
 [-0.1365796   0.24361131 -0.          0.          0.          0.          0.         -0.        ]
 [ 1.37950349 -2.46056265  0.         -0.         -0.         -0.         -0.          0.        ]]
pgg
[[ 1.         -0.          0.         -0.         -0.         -0.         -0.          0.        ]
 [ 0.          1.          0.         -0.         -0.          0.          0.         -0.        ]
 [ 3.20561987  0.34811248  0.         -0.         -0.          0.          0.         -0.        ]
 [-0.00804809 -0.00087398 -0.          0.          0.         -0.         -0.          0.        ]
 [ 0.76295121  0.08285226  0.         -0.         -0.          0.          0.         -0.        ]
 [-0.07993291  0.73606816 -0.          0.          0.          0.          0.         -0.        ]
 [-0.03436495  0.31645221 -0.          0.          0.          0.          0.         -0.        ]
 [ 0.34709846 -3.19628217  0.         -0.         -0.         -0.         -0.          0.        ]]
xgg [0.9994471196022495, 0.9771315126130747, 0.8786839397523667, 0.6718533701706055, 0.41105131648522775, 0.20422074690346664, 0.10577317404275818, 0.08345756705358391]
[[0.0984705  0.18554117 0.00284726 0.01733415]
 [0.18554117 0.35105852 0.01733415 0.05517226]
 [0.00284726 0.01733415 0.0984705  0.18554117]
 [0.01733415 0.05517226 0.18554117 0.35105852]]
[[0.0960936  0.18114632 0.00346717 0.01821085]
 [0.18114632 0.34289972 0.01821085 0.05628643]
 [0.00346717 0.01821085 0.0960936  0.18114632]
 [0.01821085 0.05628643 0.18114632 0.34289972]]
[[0.08560768 0.161758   0.00620192 0.0220785 ]
 [0.161758   0.30690635 0.0220785  0.06120172]
 [0.00620192 0.0220785  0.08560768 0.161758  ]
 [0.0220785  0.06120172 0.161758   0.30690635]]
[[0.06357759 0.12102467 0.01194743 0.03020412]
 [0.12102467 0.23128714 0.03020412 0.07152834]
 [0.01194743 0.03020412 0.06357759 0.12102467]
 [0.03020412 0.07152834 0.12102467 0.23128714]]
[[0.03579884 0.06966216 0.01919221 0.04045009]
 [0.06966216 0.13593544 0.04045009 0.08454965]
 [0.01919221 0.04045009 0.03579884 0.06966216]
 [0.04045009 0.08454965 0.06966216 0.13593544]]
[[0.01376875 0.02892883 0.02493772 0.04857571]
 [0.02892883 0.06031623 0.04857571 0.09487628]
 [0.02493772 0.04857571 0.01376875 0.02892883]
 [0.04857571 0.09487628 0.02892883 0.06031623]]
[[0.00328283 0.00954051 0.02767247 0.05244336]
 [0.00954051 0.02432287 0.05244336 0.09979156]
 [0.02767247 0.05244336 0.00328283 0.00954051]
 [0.05244336 0.09979156 0.00954051 0.02432287]]
[[0.00090593 0.00514566 0.02829238 0.05332006]
 [0.00514566 0.01616407 0.05332006 0.10090574]
 [0.02829238 0.05332006 0.00090593 0.00514566]
 [0.05332006 0.10090574 0.00514566 0.01616407]]
xggint 0.9999999999999999
