#INFO: **** input file is /share/home/srwang/ExSCF/test/test_dm/test_eth.py ****
#import phf
from pyscf import gto, scf, lib
#import scipy
#import numpy as np
import sys

from pyphf import util

lib.num_threads(4)

xyz = 'eth.xyz' #sys.argv[1]
fch = 'eth_uhf.fch' #sys.argv[2]
bas = 'def2svp'


mf = util.guess_from_fchk(xyz, bas, fch)

mf2 = util.SUHF(mf)
#mf2.cut_no = False
#mf2.debug = False
mf2.diis_on = True
mf2.diis_start_cyc = 20
mf2.max_cycle = 100
mf2.tofch = True
mf2.oldfch = 'eth_uhf.fch'
mf2.kernel()
#INFO: ******************** input file end ********************


System: uname_result(system='Linux', node='xn01', release='3.10.0-1127.el7.x86_64', version='#1 SMP Tue Feb 18 16:39:12 EST 2020', machine='x86_64', processor='x86_64')  Threads 4
Python 3.7.4 (default, Aug 13 2019, 20:35:49) 
[GCC 7.3.0]
numpy 1.17.2  scipy 1.4.1
Date: Wed Jan 20 20:26:55 2021
PySCF version 1.7.5
PySCF path  /share/home/srwang/pyscf-1.7.5/pyscf

[CONFIG] conf_file None
[INPUT] verbose = 4
[INPUT] num. atoms = 6
[INPUT] num. electrons = 16
[INPUT] charge = 0
[INPUT] spin (= nelec alpha-beta = 2S) = 0
[INPUT] symmetry False subgroup None
[INPUT] Mole.unit = angstrom
[INPUT]  1 C      0.732363000000  -0.000012000000  -0.000020000000 AA    1.383965493765  -0.000022676713  -0.000037794522 Bohr
[INPUT]  2 H      1.301788000000  -0.654778000000   0.654835000000 AA    2.460022792245  -1.237351092390   1.237458806780 Bohr
[INPUT]  3 H      1.301802000000   0.654848000000  -0.654762000000 AA    2.460049248411   1.237483373219  -1.237320856772 Bohr
[INPUT]  4 C     -0.732363000000  -0.000012000000   0.000020000000 AA   -1.383965493765  -0.000022676713   0.000037794522 Bohr
[INPUT]  5 H     -1.301788000000  -0.654778000000  -0.654836000000 AA   -2.460022792245  -1.237351092390  -1.237460696506 Bohr
[INPUT]  6 H     -1.301802000000   0.654848000000   0.654762000000 AA   -2.460049248411   1.237483373219   1.237320856772 Bohr

nuclear repulsion = 31.6688662156725
number of shells = 24
number of NR pGTOs = 76
number of NR cGTOs = 48
basis = def2svp
ecp = {}
CPU time:         1.00


******** <class 'pyscf.scf.uhf.UHF'> ********
method = UHF
initial guess = minao
damping factor = 0
level_shift factor = 0
DIIS = <class 'pyscf.scf.diis.CDIIS'>
diis_start_cycle = 1
diis_space = 8
SCF conv_tol = 1e-09
SCF conv_tol_grad = None
SCF max_cycles = 1
direct_scf = True
direct_scf_tol = 1e-13
chkfile to save SCF result = /share/home/srwang/ExSCF/test/test_dm/tmpi1db7g_o
max_memory 4000 MB (current use 96 MB)
number electrons alpha = 8  beta = 8
Set gradient conv threshold to 3.16228e-05
init E= -77.8607482667638

WARN: alpha nocc = 8  HOMO -0.0699875702040908 >= LUMO -0.0699824119190831


WARN: beta  nocc = 8  HOMO -0.0727456599621122 >= LUMO -0.0727404784836756


WARN: system HOMO -0.0727456599621122 >= system LUMO -0.0727404784836756

cycle= 1 E= -77.7761494066781  delta_E= 0.0846  |g|= 0.176  |ddm|= 1.59
SCF not converged.
SCF energy = -77.7761494066781 after 1 cycles  <S^2> = 0.00022788862  2S+1 = 1.0004557


******** <class 'pyscf.scf.uhf.UHF'> ********
method = UHF
initial guess = minao
damping factor = 0
level_shift factor = 0
DIIS = <class 'pyscf.scf.diis.CDIIS'>
diis_start_cycle = 1
diis_space = 8
SCF conv_tol = 1e-09
SCF conv_tol_grad = None
SCF max_cycles = 1
direct_scf = True
direct_scf_tol = 1e-13
chkfile to save SCF result = /share/home/srwang/ExSCF/test/test_dm/tmpi1db7g_o
max_memory 4000 MB (current use 111 MB)
number electrons alpha = 8  beta = 8
Set gradient conv threshold to 3.16228e-05
init E= -77.9145240063808
  alpha nocc = 8  HOMO = -0.365487687087794  LUMO = 0.143722743506323
  beta  nocc = 8  HOMO = -0.365487672795129  LUMO = 0.143722752909897
cycle= 1 E= -77.9145239900241  delta_E= 1.64e-08  |g|= 6.49e-09  |ddm|= 3.03e-08
SCF not converged.
SCF energy = -77.9145239900241 after 1 cycles  <S^2> = 1.0342838  2S+1 = 2.2665249

******** <class 'pyphf.util.SUHF'> ********
max_cycle = 100
verbose: 4, normal
DIIS: <class 'pyscf.scf.diis.CDIIS'>
diis_start_cyc = 20
grids:  [0.06237655 0.31939555 0.74529195 1.28265786 1.85893479 2.39630071
 2.8221971  3.07921611] 
weights:  [0.15900941 0.34931531 0.49276925 0.56970235 0.56970235 0.49276925
 0.34931531 0.15900941]
S = 0.0, Sz = 0.0
Wigner small d:  1
value : [1. 1. 1. 1. 1. 1. 1. 1.]
time for Preparation before cyc: 0.006
**** Start Cycle 1 ****
time for NO, Ng: 0.014
time for Gg: 0.846
detC -1.0000000000000064
detNg [   1.001007    1.026833    1.158065    1.576686    2.856305    7.772599   40.894921 1064.375844]
xg [0.998994 0.973868 0.86351  0.634242 0.350103 0.128657 0.024453 0.00094 ]
ciS 0.9886459787798274
ciH -108.34633289825156
S2 = 0.000000
Hsp + Hph =  -109.59062720506995
e_a, e_b
 [-11.243112 -11.214182  -0.988433  -0.780787  -0.589409  -0.577018  -0.559992  -0.365495   0.143724   0.215133   0.227042   0.271158   0.273195   0.440799
   0.604323   0.66388    0.683871   0.705561   0.77512    0.79127    0.839698   0.850955   0.902737   0.930184   0.946081   0.99673    1.430545   1.494271
   1.749667   1.782745   1.871999   1.893912   1.904568   1.939941   2.134655   2.149968   2.194773   2.38998    2.410913   2.596771   2.628102   2.633627
   2.651839   3.036104   3.201709   3.262888   3.331524   3.336125] 
 [-11.243112 -11.214182  -0.988433  -0.780787  -0.589409  -0.577018  -0.559992  -0.365495   0.143724   0.215133   0.227042   0.271158   0.273195   0.440799
   0.604323   0.66388    0.683871   0.705561   0.77512    0.79127    0.839698   0.850955   0.902737   0.930184   0.946081   0.99673    1.430545   1.494271
   1.749667   1.782745   1.871999   1.893911   1.904568   1.939941   2.134655   2.149968   2.194773   2.38998    2.410913   2.596771   2.628102   2.633627
   2.651839   3.036104   3.201709   3.262888   3.331525   3.336124]
time for xg, H, S2, Yg, Feff: 0.027
**** Start Cycle 2 ****
time for NO, Ng: 0.014
time for Gg: 0.853
detC -0.9990216905627336
detNg [   1.001033    1.027522    1.162146    1.591777    2.90571     7.955288   41.978006 1093.286886]
xg [1.000926 0.975122 0.862163 0.62946  0.344824 0.125949 0.023869 0.000916]
ciS 0.9818882970085856
ciH -107.61115853609402
S2 = 0.000000
Hsp + Hph =  -109.59613111179904
e_a, e_b
 [-11.244856 -11.213141  -0.989471  -0.780008  -0.591006  -0.576234  -0.56054   -0.370103   0.146943   0.214778   0.227382   0.270674   0.273666   0.440722
   0.603939   0.664404   0.682153   0.704408   0.773615   0.792487   0.841581   0.850972   0.902652   0.928891   0.947042   0.996568   1.430314   1.493956
   1.748568   1.78326    1.871584   1.892923   1.905      1.939537   2.134758   2.149395   2.194179   2.389862   2.410417   2.595495   2.628865   2.6333
   2.651852   3.035832   3.201217   3.262612   3.330658   3.336211] 
 [-11.244856 -11.213141  -0.989471  -0.780008  -0.591006  -0.576234  -0.56054   -0.370103   0.146943   0.214778   0.227382   0.270674   0.273666   0.440722
   0.603939   0.664404   0.682153   0.704408   0.773615   0.792487   0.841581   0.850972   0.902652   0.928891   0.947042   0.996568   1.430314   1.493956
   1.748568   1.78326    1.871584   1.892923   1.905      1.939537   2.134758   2.149395   2.194179   2.389862   2.410417   2.595495   2.628865   2.6333
   2.651852   3.035832   3.201217   3.262612   3.330658   3.336211]
time for xg, H, S2, Yg, Feff: 0.025
 E(SUHF) =    -77.92726490, delta E = -0.00550391, MaxD(dm) = 0.00936298, RMSD(dm) =   0.052422
**** Start Cycle 3 ****
time for NO, Ng: 0.015
time for Gg: 0.849
detC 0.9967180427830679
detNg [   1.00106     1.028254    1.166501    1.608005    2.959359    8.155237   43.167873 1125.075401]
xg [1.005531 0.978938 0.862919 0.625991 0.34014  0.123429 0.023318 0.000895]
ciS 0.9772490985459901
ciH -107.10635886117075
S2 = 0.000000
Hsp + Hph =  -109.59985434678836
e_a, e_b
 [-11.24478  -11.210349  -0.989257  -0.778606  -0.591695  -0.575127  -0.560257  -0.37342    0.149892   0.214605   0.227789   0.27034    0.27435    0.440996
   0.604119   0.665057   0.681028   0.703514   0.772603   0.793928   0.843831   0.851528   0.902931   0.928204   0.948677   0.997206   1.430594   1.493979
   1.748004   1.784038   1.871644   1.892328   1.905652   1.93959    2.135365   2.149302   2.19422    2.390216   2.410584   2.595032   2.630138   2.633537
   2.652534   3.036174   3.201539   3.263026   3.330536   3.337132] 
 [-11.24478  -11.210349  -0.989257  -0.778606  -0.591695  -0.575127  -0.560257  -0.37342    0.149892   0.214605   0.227789   0.27034    0.27435    0.440996
   0.604119   0.665057   0.681028   0.703514   0.772603   0.793928   0.843831   0.851528   0.902931   0.928204   0.948677   0.997206   1.430594   1.493979
   1.748004   1.784038   1.871644   1.892327   1.905652   1.93959    2.135366   2.149302   2.194219   2.390216   2.410584   2.595031   2.630138   2.633537
   2.652534   3.036174   3.201539   3.263026   3.330537   3.337131]
time for xg, H, S2, Yg, Feff: 0.027
 E(SUHF) =    -77.93098813, delta E = -0.00372323, MaxD(dm) = 0.00693361, RMSD(dm) =  0.0447125
**** Start Cycle 4 ****
time for NO, Ng: 0.014
time for Gg: 0.857
detC -0.9937184850340446
detNg [   1.001087    1.02898     1.170836    1.624282    3.013705    8.359395   44.387424 1157.685173]
xg [1.011583 0.984162 0.864922 0.623465 0.336026 0.121143 0.022815 0.000875]
ciS 0.9741048992520897
ciH -106.7643097007522
S2 = 0.000000
Hsp + Hph =  -109.60247688182763
e_a, e_b
 [-11.245285 -11.208315  -0.98925   -0.777429  -0.592228  -0.574474  -0.560241  -0.376332   0.152028   0.214449   0.228093   0.269964   0.274982   0.441111
   0.604114   0.665512   0.67985    0.702589   0.771614   0.795044   0.84547    0.851938   0.90302    0.927339   0.950082   0.997548   1.430731   1.493858
   1.747392   1.784593   1.871564   1.891738   1.906121   1.93949    2.135824   2.149018   2.194017   2.390362   2.410537   2.594476   2.631021   2.633587
   2.652922   3.036296   3.201573   3.263218   3.330115   3.337795] 
 [-11.245284 -11.208315  -0.98925   -0.777429  -0.592228  -0.574474  -0.560241  -0.376332   0.152028   0.214449   0.228093   0.269964   0.274982   0.441111
   0.604114   0.665512   0.67985    0.702589   0.771614   0.795044   0.84547    0.851938   0.90302    0.927339   0.950082   0.997548   1.430731   1.493858
   1.747392   1.784593   1.871564   1.891738   1.906121   1.93949    2.135824   2.149018   2.194017   2.390362   2.410537   2.594476   2.631021   2.633587
   2.652922   3.036296   3.201573   3.263218   3.330116   3.337795]
time for xg, H, S2, Yg, Feff: 0.026
 E(SUHF) =    -77.93361067, delta E = -0.00262254, MaxD(dm) = 0.00586201, RMSD(dm) =  0.0385738
**** Start Cycle 5 ****
time for NO, Ng: 0.014
time for Gg: 0.849
detC -0.9904037963130428
detNg [   1.001113    1.029672    1.174988    1.639987    3.066642    8.559778   45.588815 1189.83614 ]
xg [1.018339 0.990094 0.867645 0.621634 0.332439 0.1191   0.022362 0.000857]
ciS 0.9720411217804587
ciH -106.5399657895229
S2 = 0.000000
Hsp + Hph =  -109.60438133972855
e_a, e_b
 [-11.24549  -11.20619   -0.989182  -0.776316  -0.592454  -0.573981  -0.560135  -0.37863    0.153771   0.214356   0.228375   0.269611   0.275614   0.441263
   0.60417    0.665899   0.678905   0.70181    0.770805   0.796039   0.846928   0.85241    0.903138   0.926566   0.951508   0.997961   1.430921   1.493778
   1.746913   1.785107   1.871557   1.891276   1.906555   1.939471   2.136331   2.14879    2.193928   2.390562   2.410573   2.594107   2.631844   2.633706
   2.653343   3.036493   3.201699   3.263494   3.329782   3.338551] 
 [-11.24549  -11.20619   -0.989182  -0.776315  -0.592454  -0.573981  -0.560135  -0.37863    0.153771   0.214356   0.228375   0.269611   0.275614   0.441263
   0.60417    0.665899   0.678905   0.70181    0.770805   0.796039   0.846928   0.85241    0.903138   0.926566   0.951508   0.997961   1.430921   1.493778
   1.746913   1.785107   1.871557   1.891275   1.906555   1.939471   2.136331   2.14879    2.193928   2.390562   2.410573   2.594106   2.631844   2.633706
   2.653343   3.036493   3.201699   3.263494   3.329782   3.338551]
time for xg, H, S2, Yg, Feff: 0.026
 E(SUHF) =    -77.93551512, delta E = -0.00190446, MaxD(dm) = 0.00543573, RMSD(dm) =  0.0335159
**** Start Cycle 6 ****
time for NO, Ng: 0.014
time for Gg: 0.861
detC 0.9870093000307564
detNg [   1.001137    1.030319    1.178873    1.654785    3.116961    8.751615   46.742921 1220.745823]
xg [1.025331 0.99629  0.870744 0.62032  0.329326 0.117292 0.02196  0.000841]
ciS 0.9707591369509382
ciH -106.40082708273081
S2 = 0.000000
Hsp + Hph =  -109.6057951274357
e_a, e_b
 [-11.245685 -11.204282  -0.989217  -0.775359  -0.592514  -0.573692  -0.560061  -0.380499   0.155139   0.214302   0.22862    0.269268   0.276204   0.441393
   0.604205   0.666195   0.678098   0.701138   0.770107   0.796873   0.848127   0.852858   0.903225   0.925812   0.952827   0.998314   1.431086   1.493688
   1.746491   1.785538   1.871549   1.890883   1.906917   1.93946    2.136804   2.148549   2.193851   2.390738   2.41059    2.593803   2.632522   2.633806
   2.65369    3.036664   3.201791   3.263743   3.329428   3.339258] 
 [-11.245685 -11.204282  -0.989217  -0.775359  -0.592514  -0.573692  -0.560061  -0.380499   0.155139   0.214302   0.22862    0.269268   0.276204   0.441393
   0.604205   0.666195   0.678098   0.701138   0.770107   0.796873   0.848127   0.852858   0.903225   0.925812   0.952827   0.998314   1.431086   1.493688
   1.746491   1.785538   1.871549   1.890883   1.906918   1.93946    2.136804   2.148549   2.193851   2.390737   2.41059    2.593803   2.632523   2.633806
   2.65369    3.036664   3.201791   3.263743   3.329428   3.339257]
time for xg, H, S2, Yg, Feff: 0.026
 E(SUHF) =    -77.93692891, delta E = -0.00141379, MaxD(dm) = 0.00497824, RMSD(dm) =  0.0292353
**** Start Cycle 7 ****
time for NO, Ng: 0.014
time for Gg: 0.858
detC -0.983681911439563
detNg [   1.001159    1.030912    1.18245     1.668497    3.16397     8.932014   47.831657 1249.925807]
xg [1.032256 1.002465 0.873993 0.619391 0.326632 0.115702 0.021606 0.000827]
ciS 0.9700410374607673
ciH -106.32315092426285
S2 = -0.000000
Hsp + Hph =  -109.60685869804043
e_a, e_b
 [-11.245783 -11.202507  -0.989308  -0.774527  -0.592439  -0.573532  -0.55998   -0.381989   0.156239   0.214282   0.228839   0.268947   0.276751   0.441522
   0.604247   0.666428   0.677441   0.70058    0.769524   0.797585   0.849145   0.853295   0.90331    0.925113   0.954055   0.998648   1.431246   1.49361
   1.746139   1.785913   1.871561   1.890563   1.907231   1.939476   2.137255   2.148329   2.193818   2.390914   2.410621   2.593581   2.633106   2.633912
   2.654004   3.036837   3.20189    3.263994   3.329103   3.339942] 
 [-11.245783 -11.202507  -0.989308  -0.774527  -0.592439  -0.573532  -0.55998   -0.381989   0.156239   0.214282   0.228839   0.268947   0.276751   0.441522
   0.604247   0.666428   0.677441   0.70058    0.769524   0.797585   0.849145   0.853295   0.90331    0.925113   0.954054   0.998648   1.431246   1.49361
   1.746138   1.785913   1.871561   1.890563   1.907232   1.939476   2.137255   2.148329   2.193818   2.390914   2.410621   2.593581   2.633107   2.633912
   2.654004   3.036837   3.20189    3.263994   3.329104   3.339941]
time for xg, H, S2, Yg, Feff: 0.026
 E(SUHF) =    -77.93799248, delta E = -0.00106357, MaxD(dm) = 0.00450453, RMSD(dm) =  0.0255232
**** Start Cycle 8 ****
time for NO, Ng: 0.014
time for Gg: 0.857
detC -0.9805136687632772
detNg [   1.001179    1.03145     1.185704    1.681042    3.207295    9.099277   48.844042 1277.077371]
xg [1.038917 1.008427 0.877236 0.618748 0.324305 0.11431  0.021295 0.000814]
ciS 0.9697236684075804
ciH -106.2891452207144
S2 = -0.000000
Hsp + Hph =  -109.60766317610437
e_a, e_b
 [-11.245833 -11.200905  -0.989452  -0.773816  -0.59228   -0.573477  -0.559905  -0.383186   0.157121   0.214284   0.229032   0.268651   0.277247   0.44164
   0.604286   0.666606   0.676898   0.700117   0.769033   0.798185   0.849999   0.853703   0.903385   0.924466   0.955168   0.998944   1.431388   1.493539
   1.745837   1.786234   1.87158    1.890298   1.907498   1.939502   2.13767    2.148122   2.193807   2.391079   2.41065    2.593412   2.633597   2.634012
   2.654276   3.036996   3.201979   3.26423    3.3288     3.340576] 
 [-11.245833 -11.200905  -0.989452  -0.773816  -0.59228   -0.573477  -0.559905  -0.383186   0.157121   0.214284   0.229032   0.268651   0.277247   0.44164
   0.604286   0.666606   0.676898   0.700117   0.769033   0.798185   0.849999   0.853703   0.903385   0.924466   0.955168   0.998944   1.431388   1.493538
   1.745837   1.786234   1.87158    1.890298   1.907498   1.939502   2.13767    2.148122   2.193807   2.391078   2.41065    2.593412   2.633597   2.634012
   2.654276   3.036996   3.201979   3.264229   3.3288     3.340576]
time for xg, H, S2, Yg, Feff: 0.026
 E(SUHF) =    -77.93879696, delta E = -0.000804478, MaxD(dm) = 0.00403328, RMSD(dm) =  0.0222517
**** Start Cycle 9 ****
time for NO, Ng: 0.014
time for Gg: 0.848
detC 0.9775609740721097
detNg [   1.001197    1.031933    1.188633    1.692393    3.246762    9.252478   49.773761 1302.026836]
xg [1.045184 1.014053 0.880369 0.618317 0.322301 0.113098 0.021024 0.000804]
ciS 0.9696841844408095
ciH -106.2854072202183
S2 = -0.000000
Hsp + Hph =  -109.6082713584838
e_a, e_b
 [-11.245839 -11.199466  -0.989625  -0.773206  -0.59207   -0.573493  -0.559835  -0.384145   0.157832   0.214302   0.229201   0.268383   0.277691   0.441747
   0.604322   0.666739   0.676454   0.699736   0.768623   0.79869    0.850717   0.854079   0.903454   0.923878   0.956166   0.999209   1.431515   1.493476
   1.745581   1.786508   1.871605   1.890079   1.907724   1.939536   2.138047   2.147934   2.193815   2.39123    2.410679   2.593287   2.634003   2.634113
   2.654511   3.037142   3.202061   3.264448   3.328523   3.341159] 
 [-11.245839 -11.199466  -0.989625  -0.773206  -0.59207   -0.573493  -0.559835  -0.384145   0.157832   0.214302   0.229201   0.268383   0.277691   0.441747
   0.604322   0.666739   0.676454   0.699736   0.768623   0.79869    0.850717   0.854079   0.903454   0.923878   0.956166   0.999209   1.431515   1.493475
   1.745581   1.786508   1.871604   1.890079   1.907724   1.939537   2.138047   2.147934   2.193814   2.39123    2.410679   2.593287   2.634004   2.634113
   2.654511   3.037142   3.202061   3.264448   3.328523   3.341158]
time for xg, H, S2, Yg, Feff: 0.026
 E(SUHF) =    -77.93940514, delta E = -0.000608182, MaxD(dm) = 0.00357712, RMSD(dm) =  0.0193435
**** Start Cycle 10 ****
time for NO, Ng: 0.014
time for Gg: 0.863
detC -0.9748558331544582
detNg [   1.001213    1.032364    1.191245    1.702564    3.282339    9.391256   50.617945 1324.693152]
xg [1.050975 1.019264 0.88332  0.618039 0.320579 0.112046 0.020788 0.000794]
ciS 0.9698297885243168
ciH -106.30181055687933
S2 = -0.000000
Hsp + Hph =  -109.60872909320213
e_a, e_b
 [-11.245817 -11.19819   -0.989814  -0.772685  -0.591835  -0.573559  -0.559771  -0.384916   0.158407   0.214329   0.229348   0.268142   0.278083   0.441842
   0.604356   0.666838   0.676088   0.699421   0.768282   0.799113   0.851319   0.854417   0.903517   0.923347   0.95705    0.99944    1.431624   1.493419
   1.745362   1.78674    1.87163    1.889898   1.907914   1.939572   2.138383   2.147763   2.193831   2.391366   2.410705   2.593193   2.634177   2.634369
   2.654713   3.037272   3.202133   3.264646   3.328272   3.341684] 
 [-11.245817 -11.19819   -0.989814  -0.772685  -0.591835  -0.573559  -0.559771  -0.384916   0.158407   0.214329   0.229348   0.268142   0.278083   0.441842
   0.604356   0.666838   0.676088   0.699421   0.768282   0.799113   0.851319   0.854417   0.903517   0.923347   0.95705    0.99944    1.431624   1.493419
   1.745362   1.78674    1.87163    1.889897   1.907915   1.939572   2.138383   2.147763   2.193831   2.391366   2.410705   2.593193   2.634177   2.634369
   2.654713   3.037272   3.202133   3.264646   3.328272   3.341683]
time for xg, H, S2, Yg, Feff: 0.026
 E(SUHF) =    -77.93986288, delta E = -0.000457735, MaxD(dm) =   0.003146, RMSD(dm) =  0.0167531
**** Start Cycle 11 ****
time for NO, Ng: 0.014
time for Gg: 0.861
detC 0.9724126420993562
detNg [   1.001227    1.032743    1.193555    1.711594    3.314099    9.515685   51.376448 1345.068793]
xg [1.056248 1.024016 0.886046 0.617871 0.319105 0.111137 0.020584 0.000786]
ciS 0.9700910928417986
ciH -106.33078376521418
S2 = -0.000000
Hsp + Hph =  -109.60907130249726
e_a, e_b
 [-11.245778 -11.197069  -0.990006  -0.772239  -0.591592  -0.573657  -0.559714  -0.385537   0.158873   0.214361   0.229474   0.267928   0.278427   0.441925
   0.604385   0.666909   0.675786   0.69916    0.767999   0.799466   0.851824   0.854717   0.903573   0.922873   0.957825   0.999641   1.431717   1.49337
   1.745174   1.786937   1.871654   1.889746   1.908073   1.939607   2.138679   2.14761    2.193853   2.391487   2.410728   2.593124   2.634253   2.634656
   2.654884   3.037386   3.202196   3.264822   3.328046   3.342152] 
 [-11.245778 -11.197069  -0.990006  -0.772239  -0.591592  -0.573657  -0.559714  -0.385537   0.158873   0.214361   0.229474   0.267928   0.278427   0.441925
   0.604385   0.666909   0.675786   0.69916    0.767999   0.799466   0.851824   0.854717   0.903573   0.922874   0.957825   0.999641   1.431717   1.49337
   1.745174   1.786937   1.871654   1.889746   1.908073   1.939607   2.138679   2.14761    2.193853   2.391487   2.410728   2.593124   2.634253   2.634656
   2.654884   3.037386   3.202196   3.264822   3.328047   3.342151]
time for xg, H, S2, Yg, Feff: 0.026
 E(SUHF) =    -77.94020509, delta E = -0.000342209, MaxD(dm) = 0.00274642, RMSD(dm) =  0.0144513
**** Start Cycle 12 ****
time for NO, Ng: 0.015
time for Gg: 0.856
detC -0.9702328292119685
detNg [   1.00124     1.033075    1.195581    1.719546    3.342196    9.626193   52.051357 1363.206591]
xg [1.060987 1.028291 0.888524 0.617781 0.317846 0.110355 0.020409 0.000779]
ciS 0.9704171241991517
ciH -106.3667661431051
S2 = -0.000000
Hsp + Hph =  -109.60932519702342
e_a, e_b
 [-11.245729 -11.196092  -0.990194  -0.771858  -0.591354  -0.573773  -0.559665  -0.38604    0.15925    0.214393   0.229581   0.267741   0.278724   0.441995
   0.604411   0.666959   0.675536   0.698945   0.767765   0.799759   0.852245   0.85498    0.903622   0.922455   0.958498   0.999815   1.431795   1.493326
   1.745013   1.787102   1.871676   1.889619   1.908205   1.939638   2.138937   2.147473   2.193875   2.391591   2.410747   2.593072   2.634316   2.634896
   2.655028   3.037483   3.202249   3.264977   3.327845   3.342563] 
 [-11.245729 -11.196092  -0.990194  -0.771858  -0.591354  -0.573773  -0.559665  -0.38604    0.15925    0.214393   0.229581   0.267741   0.278724   0.441995
   0.604411   0.666959   0.675536   0.698944   0.767765   0.799759   0.852245   0.85498    0.903622   0.922455   0.958498   0.999815   1.431795   1.493326
   1.745013   1.787102   1.871676   1.889619   1.908205   1.939638   2.138937   2.147473   2.193875   2.391591   2.410747   2.593072   2.634316   2.634896
   2.655028   3.037483   3.202249   3.264977   3.327845   3.342562]
time for xg, H, S2, Yg, Feff: 0.025
 E(SUHF) =    -77.94045898, delta E = -0.000253895, MaxD(dm) = 0.00238218, RMSD(dm) =  0.0124161
**** Start Cycle 13 ****
time for NO, Ng: 0.014
time for Gg: 0.858
detC -0.9683083910483928
detNg [   1.001251    1.033364    1.197346    1.726493    3.366849    9.723485   52.64653  1379.207568]
xg [1.065197 1.032094 0.890744 0.617743 0.316774 0.109686 0.020258 0.000773]
ciS 0.9707714509148349
ciH -106.40578510855708
S2 = -0.000000
Hsp + Hph =  -109.60951211356956
e_a, e_b
 [-11.245677 -11.195247  -0.99037   -0.771532  -0.591129  -0.573899  -0.559624  -0.386448   0.159557   0.214424   0.229672   0.267577   0.27898    0.442054
   0.604434   0.666994   0.675328   0.698765   0.767571   0.800003   0.852596   0.855207   0.903665   0.922087   0.959078   0.999962   1.431859   1.493287
   1.744875   1.78724    1.871695   1.889513   1.908314   1.939665   2.13916    2.147351   2.193897   2.39168    2.410761   2.593033   2.634369   2.635094
   2.655149   3.037566   3.202292   3.265111   3.327666   3.342921] 
 [-11.245677 -11.195247  -0.99037   -0.771532  -0.591129  -0.573899  -0.559624  -0.386448   0.159557   0.214424   0.229672   0.267577   0.27898    0.442054
   0.604434   0.666994   0.675328   0.698765   0.767571   0.800003   0.852596   0.855207   0.903665   0.922087   0.959078   0.999962   1.431859   1.493286
   1.744875   1.78724    1.871695   1.889512   1.908314   1.939665   2.13916    2.147351   2.193897   2.39168    2.410761   2.593033   2.634369   2.635094
   2.655149   3.037566   3.202292   3.265111   3.327667   3.342921]
time for xg, H, S2, Yg, Feff: 0.025
 E(SUHF) =    -77.94064590, delta E = -0.000186917, MaxD(dm) = 0.00205476, RMSD(dm) =  0.0106276
**** Start Cycle 14 ****
time for NO, Ng: 0.014
time for Gg: 0.853
detC -0.9666247912306081
detNg [   1.00126     1.033614    1.198873    1.732522    3.388319    9.808467   53.167146 1393.208724]
xg [1.068901 1.035442 0.892711 0.617739 0.315864 0.109115 0.02013  0.000768]
ciS 0.9711289751724915
ciH -106.44510582258351
S2 = -0.000000
Hsp + Hph =  -109.60964871187863
e_a, e_b
 [-11.245626 -11.194521  -0.990534  -0.771255  -0.590921  -0.574027  -0.559589  -0.38678    0.159806   0.214454   0.229749   0.267436   0.279199   0.442104
   0.604453   0.667017   0.675155   0.698616   0.767411   0.800204   0.852888   0.855401   0.903701   0.921767   0.959576   1.000088   1.431912   1.493252
   1.744757   1.787355   1.871711   1.889423   1.908403   1.939687   2.139351   2.147244   2.193916   2.391756   2.410773   2.593003   2.634413   2.635257
   2.655249   3.037635   3.202328   3.265226   3.327508   3.343232] 
 [-11.245625 -11.194521  -0.990534  -0.771254  -0.590921  -0.574027  -0.559589  -0.38678    0.159806   0.214454   0.229749   0.267436   0.279199   0.442104
   0.604453   0.667017   0.675155   0.698616   0.767411   0.800203   0.852888   0.855401   0.903701   0.921767   0.959575   1.000088   1.431912   1.493252
   1.744757   1.787355   1.871711   1.889423   1.908403   1.939687   2.139351   2.147244   2.193916   2.391756   2.410773   2.593003   2.634413   2.635257
   2.655249   3.037635   3.202328   3.265226   3.327509   3.343231]
time for xg, H, S2, Yg, Feff: 0.025
 E(SUHF) =    -77.94078250, delta E = -0.000136598, MaxD(dm) = 0.00176393, RMSD(dm) = 0.00906603
**** Start Cycle 15 ****
time for NO, Ng: 0.013
time for Gg: 0.852
detC -0.9651633580438826
detNg [   1.001268    1.033829    1.200187    1.737721    3.406893    9.882175   53.619258 1405.371007]
xg [1.072132 1.038364 0.894436 0.617758 0.315094 0.108629 0.020021 0.000764]
ciS 0.9714732608370694
ciH -106.48293918474846
S2 = -0.000000
Hsp + Hph =  -109.60974787200782
e_a, e_b
 [-11.245577 -11.1939    -0.990682  -0.771018  -0.590732  -0.574153  -0.559561  -0.387051   0.160009   0.21448    0.229813   0.267314   0.279385   0.442144
   0.604469   0.667031   0.67501    0.698492   0.76728    0.800369   0.853131   0.855566   0.903733   0.921489   0.959999   1.000194   1.431954   1.493222
   1.744655   1.787451   1.871725   1.889347   1.908476   1.939705   2.139513   2.14715    2.193933   2.39182    2.410781   2.592981   2.634449   2.63539
   2.655331   3.037693   3.202357   3.265324   3.32737    3.343498] 
 [-11.245577 -11.1939    -0.990682  -0.771018  -0.590732  -0.574153  -0.559561  -0.387051   0.160009   0.21448    0.229813   0.267314   0.279385   0.442144
   0.604469   0.667031   0.67501    0.698491   0.76728    0.800369   0.853131   0.855566   0.903733   0.921489   0.959999   1.000194   1.431954   1.493222
   1.744655   1.787451   1.871725   1.889347   1.908476   1.939705   2.139513   2.14715    2.193932   2.39182    2.410781   2.59298    2.634449   2.63539
   2.655331   3.037693   3.202357   3.265324   3.327371   3.343497]
time for xg, H, S2, Yg, Feff: 0.026
 E(SUHF) =    -77.94088166, delta E = -9.91601e-05, MaxD(dm) = 0.00150816, RMSD(dm) = 0.00771097
**** Start Cycle 16 ****
time for NO, Ng: 0.014
time for Gg: 0.859
detC -0.9639032185146209
detNg [   1.001275    1.034012    1.201311    1.742181    3.422867    9.945708   54.009381 1415.868297]
xg [1.074929 1.040896 0.895937 0.617789 0.314444 0.108217 0.019928 0.00076 ]
ciS 0.9717943185180598
ciH -106.51819977748184
S2 = -0.000000
Hsp + Hph =  -109.60981943166433
e_a, e_b
 [-11.245533 -11.193372  -0.990816  -0.770817  -0.590563  -0.574273  -0.559539  -0.387273   0.160173   0.214504   0.229867   0.267209   0.279542   0.442178
   0.604482   0.667039   0.674888   0.698388   0.767172   0.800505   0.853331   0.855705   0.903759   0.921249   0.960359   1.000283   1.431987   1.493195
   1.744568   1.787529   1.871735   1.889283   1.908535   1.93972    2.139651   2.147068   2.193946   2.391873   2.410787   2.592963   2.634479   2.635499
   2.655399   3.037741   3.20238    3.265406   3.327249   3.343725] 
 [-11.245532 -11.193372  -0.990816  -0.770817  -0.590563  -0.574273  -0.559539  -0.387273   0.160174   0.214504   0.229867   0.267209   0.279542   0.442178
   0.604482   0.667039   0.674888   0.698387   0.767172   0.800505   0.853331   0.855705   0.903759   0.92125    0.960358   1.000283   1.431987   1.493195
   1.744568   1.787529   1.871735   1.889283   1.908536   1.93972    2.139651   2.147068   2.193946   2.391873   2.410787   2.592963   2.634479   2.635499
   2.655399   3.037741   3.20238    3.265406   3.32725    3.343725]
time for xg, H, S2, Yg, Feff: 0.026
 E(SUHF) =    -77.94095322, delta E = -7.15597e-05, MaxD(dm) = 0.00128513, RMSD(dm) = 0.00654176
**** Start Cycle 17 ****
time for NO, Ng: 0.014
time for Gg: 0.859
detC 0.9628227880457708
detNg [   1.001281    1.034169    1.20227     1.745988    3.436537   10.000177   54.344151 1424.878055]
xg [1.077337 1.043076 0.897233 0.617826 0.313896 0.10787  0.01985  0.000757]
ciS 0.9720868121571603
ciH -106.55030989851095
S2 = -0.000000
Hsp + Hph =  -109.60987081191327
e_a, e_b
 [-11.245493 -11.192925  -0.990934  -0.770646  -0.590414  -0.574384  -0.559522  -0.387455   0.160307   0.214524   0.229911   0.26712    0.279675   0.442205
   0.604492   0.667042   0.674786   0.698301   0.767083   0.800617   0.853497   0.855822   0.903781   0.921044   0.960662   1.000357   1.432014   1.493171
   1.744493   1.787594   1.871743   1.889229   1.908584   1.939731   2.139766   2.146996   2.193957   2.391918   2.41079    2.59295    2.634503   2.635588
   2.655454   3.03778    3.202398   3.265476   3.327144   3.343918] 
 [-11.245493 -11.192925  -0.990934  -0.770646  -0.590414  -0.574385  -0.559522  -0.387455   0.160307   0.214525   0.229911   0.267121   0.279675   0.442205
   0.604492   0.667042   0.674786   0.6983     0.767083   0.800617   0.853497   0.855822   0.903781   0.921044   0.960662   1.000357   1.432014   1.493171
   1.744493   1.787595   1.871743   1.889229   1.908584   1.939731   2.139767   2.146996   2.193957   2.391918   2.410791   2.59295    2.634503   2.635588
   2.655454   3.03778    3.202398   3.265476   3.327145   3.343918]
time for xg, H, S2, Yg, Feff: 0.026
 E(SUHF) =    -77.94100460, delta E = -5.13802e-05, MaxD(dm) = 0.00109199, RMSD(dm) = 0.00553794
**** Start Cycle 18 ****
time for NO, Ng: 0.014
time for Gg: 0.846
detC 0.9619008531634952
detNg [   1.001285    1.034301    1.203083    1.749225    3.448184   10.046659   54.630054 1432.574011]
xg [1.079398 1.044942 0.898346 0.617865 0.313436 0.107577 0.019784 0.000754]
ciS 0.9723486457509509
ciH -106.57904516292075
S2 = -0.000000
Hsp + Hph =  -109.60990754567165
e_a, e_b
 [-11.245459 -11.192548  -0.991039  -0.770501  -0.590283  -0.574488  -0.559508  -0.387604   0.160416   0.214542   0.229948   0.267045   0.279786   0.442227
   0.604501   0.667043   0.6747     0.698228   0.767011   0.800708   0.853634   0.855919   0.903799   0.920868   0.960918   1.000419   1.432034   1.493151
   1.744429   1.787648   1.87175    1.889183   1.908622   1.939739   2.139864   2.146934   2.193966   2.391954   2.410793   2.592939   2.634522   2.63566
   2.6555     3.037811   3.202412   3.265534   3.327053   3.344082] 
 [-11.245459 -11.192548  -0.991039  -0.770501  -0.590283  -0.574488  -0.559508  -0.387604   0.160416   0.214542   0.229948   0.267045   0.279786   0.442227
   0.604501   0.667043   0.6747     0.698228   0.767011   0.800708   0.853634   0.855919   0.903799   0.920869   0.960918   1.000419   1.432034   1.493151
   1.744429   1.787648   1.87175    1.889183   1.908623   1.939739   2.139864   2.146934   2.193966   2.391954   2.410793   2.592939   2.634522   2.63566
   2.6555     3.037811   3.202412   3.265534   3.327053   3.344081]
time for xg, H, S2, Yg, Feff: 0.024
 E(SUHF) =    -77.94104133, delta E = -3.67338e-05, MaxD(dm) = 0.000925718, RMSD(dm) = 0.00467984
**** Start Cycle 19 ****
time for NO, Ng: 0.013
time for Gg: 0.853
detC -0.9611173033496782
detNg [   1.00129     1.034413    1.203772    1.751969    3.45807    10.086169   54.873233 1439.120918]
xg [1.081154 1.046533 0.899297 0.617904 0.31305  0.10733  0.019728 0.000752]
ciS 0.9725798827659285
ciH -106.60441648255656
S2 = -0.000000
Hsp + Hph =  -109.6099337150418
e_a, e_b
 [-11.245429 -11.19223   -0.991131  -0.770379  -0.590169  -0.574581  -0.559498  -0.387727   0.160505   0.214558   0.229979   0.266981   0.279879   0.442245
   0.604508   0.667042   0.674628   0.698167   0.766951   0.800783   0.853746   0.856      0.903814   0.920719   0.961133   1.000471   1.43205    1.493133
   1.744374   1.787692   1.871754   1.889144   1.908654   1.939746   2.139945   2.146881   2.193973   2.391984   2.410793   2.592931   2.634537   2.635718
   2.655536   3.037837   3.202422   3.265582   3.326974   3.34422 ] 
 [-11.245429 -11.19223   -0.991131  -0.770379  -0.590169  -0.574581  -0.559498  -0.387727   0.160505   0.214558   0.229979   0.266981   0.279879   0.442245
   0.604508   0.667042   0.674628   0.698167   0.766951   0.800783   0.853746   0.856      0.903814   0.920719   0.961133   1.00047    1.43205    1.493133
   1.744374   1.787692   1.871754   1.889143   1.908654   1.939746   2.139945   2.146881   2.193973   2.391984   2.410793   2.592931   2.634537   2.635718
   2.655536   3.037837   3.202423   3.265582   3.326975   3.344219]
time for xg, H, S2, Yg, Feff: 0.026
 E(SUHF) =    -77.94106750, delta E = -2.61694e-05, MaxD(dm) = 0.000783272, RMSD(dm) = 0.00394897
**** Start Cycle 20 ****
time for NO, Ng: 0.014
time for Gg: 0.850
detC -0.9604535782029097
detNg [   1.001293    1.034508    1.204353    1.754287    3.466435   10.119641   55.079365 1444.671164]
xg [1.082645 1.047884 0.900105 0.61794  0.312726 0.107123 0.019682 0.00075 ]
ciS 0.9727819447355845
ciH -106.62658256503268
S2 = -0.000000
Hsp + Hph =  -109.60995230438334
e_a, e_b
 [-11.245404 -11.191963  -0.991211  -0.770275  -0.59007   -0.574666  -0.559491  -0.387829   0.160577   0.214571   0.230003   0.266927   0.279957   0.442259
   0.604514   0.66704    0.674567   0.698116   0.766902   0.800844   0.853839   0.856067   0.903827   0.920592   0.961314   1.000513   1.432062   1.493117
   1.744328   1.787728   1.871757   1.889111   1.908679   1.93975    2.140013   2.146835   2.193978   2.392009   2.410793   2.592924   2.634549   2.635765
   2.655566   3.037858   3.20243    3.265622   3.326906   3.344336] 
 [-11.245404 -11.191963  -0.991211  -0.770275  -0.59007   -0.574666  -0.559491  -0.387829   0.160577   0.214571   0.230003   0.266927   0.279957   0.442259
   0.604514   0.66704    0.674567   0.698116   0.766902   0.800844   0.853839   0.856067   0.903827   0.920592   0.961314   1.000513   1.432062   1.493117
   1.744328   1.787728   1.871757   1.88911    1.908679   1.93975    2.140013   2.146835   2.193978   2.392009   2.410793   2.592924   2.634549   2.635765
   2.655566   3.037858   3.202431   3.265622   3.326907   3.344335]
time for xg, H, S2, Yg, Feff: 0.025
 E(SUHF) =    -77.94108609, delta E = -1.85893e-05, MaxD(dm) = 0.000661721, RMSD(dm) = 0.00332837
**** Start Cycle 21 ****
time for NO, Ng: 0.014
time for Gg: 0.859
detC -0.9598928965500791
detNg [   1.001296    1.034588    1.204843    1.756241    3.473496   10.147919   55.253596 1449.362934]
xg [1.083907 1.049028 0.900791 0.617974 0.312455 0.106949 0.019642 0.000749]
ciS 0.9729570353129169
ciH -106.64578705285106
S2 = -0.000000
Hsp + Hph =  -109.6099654786424
F(mod,ortho) updated with CDIIS
e_a, e_b
 [-11.245383 -11.19174   -0.991281  -0.770188  -0.589985  -0.574741  -0.559486  -0.387912   0.160635   0.214582   0.230024   0.266881   0.280022   0.44227
   0.604518   0.667037   0.674515   0.698073   0.766861   0.800894   0.853916   0.856122   0.903837   0.920484   0.961465   1.000549   1.432072   1.493104
   1.744288   1.787757   1.87176    1.889083   1.908699   1.939753   2.14007    2.146795   2.193982   2.392029   2.410792   2.592919   2.634559   2.635803
   2.65559    3.037874   3.202436   3.265655   3.326847   3.344433] 
 [-11.245383 -11.19174   -0.991281  -0.770188  -0.589985  -0.574741  -0.559486  -0.387912   0.160635   0.214582   0.230024   0.266881   0.280022   0.44227
   0.604518   0.667037   0.674515   0.698073   0.766861   0.800894   0.853916   0.856122   0.903837   0.920484   0.961465   1.000549   1.432072   1.493104
   1.744288   1.787757   1.87176    1.889082   1.9087     1.939753   2.14007    2.146795   2.193982   2.392029   2.410793   2.592919   2.634559   2.635803
   2.65559    3.037874   3.202437   3.265655   3.326848   3.344433]
time for xg, H, S2, Yg, Feff: 0.026
 E(SUHF) =    -77.94109926, delta E = -1.31743e-05, MaxD(dm) = 0.000558338, RMSD(dm) = 0.00280273
**** Start Cycle 22 ****
time for NO, Ng: 0.014
time for Gg: 0.857
detC -0.959420327751822
detNg [   1.001299    1.034655    1.205254    1.757886    3.479443   10.171755   55.400513 1453.319551]
xg [1.084972 1.049994 0.901371 0.618004 0.312228 0.106804 0.01961  0.000748]
ciS 0.9731077399450802
ciH -106.66231485128283
S2 = -0.000000
Hsp + Hph =  -109.6099747981684
F(mod,ortho) updated with CDIIS
e_a, e_b
 [-11.245275 -11.190582  -0.99166   -0.769741  -0.589544  -0.575168  -0.559477  -0.388342   0.160931   0.214642   0.230131   0.266647   0.280362   0.442328
   0.60454    0.667012   0.674247   0.697852   0.766657   0.801146   0.854305   0.856409   0.903895   0.919929   0.962256   1.000739   1.432113   1.493031
   1.744078   1.787906   1.871769   1.888935   1.9088     1.939765   2.140362   2.146585   2.194      2.392132   2.410785   2.592893   2.634605   2.635992
   2.65571    3.037958   3.202463   3.265825   3.326537   3.34494 ] 
 [-11.245275 -11.190582  -0.99166   -0.769741  -0.589544  -0.575168  -0.559477  -0.388342   0.160931   0.214643   0.230131   0.266647   0.280362   0.442328
   0.60454    0.667012   0.674247   0.697852   0.766657   0.801146   0.854305   0.856409   0.903895   0.919929   0.962256   1.000739   1.432113   1.493031
   1.744078   1.787906   1.871769   1.888935   1.9088     1.939765   2.140362   2.146585   2.193999   2.392132   2.410785   2.592893   2.634605   2.635992
   2.65571    3.037958   3.202463   3.265825   3.326538   3.344939]
time for xg, H, S2, Yg, Feff: 0.026
 E(SUHF) =    -77.94110858, delta E = -9.31953e-06, MaxD(dm) = 0.00291013, RMSD(dm) =   0.014594
**** Start Cycle 23 ****
time for NO, Ng: 0.014
time for Gg: 0.853
detC 0.9569197290983609
detNg [   1.001312    1.035007    1.20742     1.766556    3.510888   10.298098   56.180161 1474.321804]
xg [1.090636 1.05513  0.904463 0.61819  0.311051 0.106045 0.019439 0.000741]
ciS 0.973946463692279
ciH -106.75426891620918
S2 = -0.000000
Hsp + Hph =  -109.60999695147362
F(mod,ortho) updated with CDIIS
e_a, e_b
 [-11.245254 -11.190661  -0.991628  -0.769706  -0.589465  -0.575144  -0.559421  -0.38827    0.160872   0.214624   0.230097   0.266642   0.280302   0.442298
   0.604535   0.666997   0.674264   0.697866   0.766689   0.801098   0.854244   0.856344   0.903855   0.919909   0.962129   1.000673   1.432089   1.493029
   1.744083   1.787878   1.871756   1.888939   1.90877    1.939745   2.140326   2.146585   2.193981   2.392106   2.410772   2.5929     2.634586   2.635943
   2.65568    3.037932   3.202448   3.265795   3.326538   3.344896] 
 [-11.245254 -11.190661  -0.991628  -0.769706  -0.589465  -0.575144  -0.559421  -0.38827    0.160872   0.214624   0.230097   0.266642   0.280302   0.442298
   0.604535   0.666997   0.674264   0.697865   0.766689   0.801098   0.854244   0.856344   0.903855   0.919909   0.962129   1.000673   1.432089   1.493029
   1.744083   1.787878   1.871756   1.888938   1.90877    1.939745   2.140326   2.146585   2.193981   2.392106   2.410772   2.5929     2.634586   2.635944
   2.65568    3.037932   3.202448   3.265795   3.326538   3.344896]
time for xg, H, S2, Yg, Feff: 0.025
 E(SUHF) =    -77.94113074, delta E = -2.21533e-05, MaxD(dm) = 0.00029931, RMSD(dm) = 0.00164091
**** Start Cycle 24 ****
time for NO, Ng: 0.013
time for Gg: 0.859
detC -0.9572065174128954
detNg [   1.00131     1.034966    1.207167    1.76554     3.507191   10.283201   56.088107 1471.841246]
xg [1.089984 1.054539 0.90411  0.618175 0.311193 0.106135 0.019459 0.000742]
ciS 0.9738588233192884
ciH -106.74466263568985
S2 = -0.000000
Hsp + Hph =  -109.60999693144707
F(mod,ortho) updated with CDIIS
e_a, e_b
 [-11.245269 -11.190649  -0.991653  -0.769716  -0.589478  -0.575178  -0.559446  -0.388286   0.160877   0.21463    0.230103   0.266642   0.280316   0.442302
   0.604534   0.666996   0.674255   0.69786    0.766683   0.801104   0.85425    0.856354   0.903863   0.919908   0.962161   1.000686   1.432088   1.493025
   1.744077   1.787881   1.871755   1.888934   1.908772   1.939745   2.140332   2.146578   2.193981   2.392109   2.41077    2.592897   2.634586   2.635946
   2.655681   3.037933   3.202445   3.265798   3.326527   3.344906] 
 [-11.245269 -11.190649  -0.991653  -0.769716  -0.589478  -0.575179  -0.559446  -0.388286   0.160877   0.21463    0.230103   0.266642   0.280316   0.442302
   0.604534   0.666996   0.674255   0.69786    0.766684   0.801104   0.85425    0.856354   0.903863   0.919908   0.962161   1.000686   1.432088   1.493025
   1.744077   1.787881   1.871755   1.888934   1.908773   1.939745   2.140332   2.146578   2.193981   2.392109   2.41077    2.592897   2.634586   2.635946
   2.655681   3.037933   3.202445   3.265798   3.326527   3.344905]
time for xg, H, S2, Yg, Feff: 0.026
 E(SUHF) =    -77.94113072, delta E = 2.00265e-08, MaxD(dm) = 8.62615e-05, RMSD(dm) = 0.000430214
**** Start Cycle 25 ****
time for NO, Ng: 0.014
time for Gg: 0.851
detC 0.9571299585838201
detNg [   1.001311    1.034976    1.207233    1.765806    3.508158   10.28709    56.112126 1472.488388]
xg [1.090158 1.054697 0.904205 0.61818  0.311157 0.106112 0.019454 0.000741]
ciS 0.9738848105060549
ciH -106.74751118868338
S2 = -0.000000
Hsp + Hph =  -109.60999703159419
F(mod,ortho) updated with CDIIS
e_a, e_b
 [-11.24527  -11.190633  -0.991663  -0.769719  -0.589482  -0.575196  -0.559457  -0.388294   0.160884   0.214633   0.230107   0.266643   0.280325   0.442306
   0.604536   0.666997   0.674251   0.697859   0.766681   0.80111    0.854257   0.856363   0.90387    0.919909   0.962184   1.000698   1.43209    1.493026
   1.744075   1.787885   1.871757   1.888933   1.908776   1.939747   2.140338   2.146577   2.193985   2.392113   2.410772   2.592898   2.634588   2.635951
   2.655685   3.037937   3.202448   3.265803   3.326524   3.344916] 
 [-11.24527  -11.190633  -0.991663  -0.769718  -0.589482  -0.575196  -0.559457  -0.388294   0.160884   0.214633   0.230107   0.266643   0.280325   0.442306
   0.604536   0.666997   0.674251   0.697859   0.766681   0.80111    0.854257   0.856363   0.90387    0.91991    0.962184   1.000698   1.43209    1.493026
   1.744075   1.787885   1.871757   1.888933   1.908776   1.939747   2.140338   2.146577   2.193985   2.392113   2.410772   2.592898   2.634589   2.635952
   2.655685   3.037937   3.202448   3.265803   3.326525   3.344915]
time for xg, H, S2, Yg, Feff: 0.025
 E(SUHF) =    -77.94113082, delta E = -1.00147e-07, MaxD(dm) = 5.52048e-05, RMSD(dm) = 0.000272171
**** Start Cycle 26 ****
time for NO, Ng: 0.013
time for Gg: 0.856
detC 0.9570810943148693
detNg [   1.001311    1.034983    1.207276    1.765976    3.508777   10.289583   56.127522 1472.903201]
xg [1.090269 1.054798 0.904266 0.618184 0.311133 0.106097 0.01945  0.000741]
ciS 0.9739010843394161
ciH -106.74929500563654
S2 = -0.000000
Hsp + Hph =  -109.6099970748499
F(mod,ortho) updated with CDIIS
e_a, e_b
 [-11.245291 -11.190612  -0.991699  -0.769729  -0.589498  -0.575248  -0.559493  -0.388324   0.160897   0.214641   0.230116   0.266642   0.280346   0.442312
   0.604535   0.666997   0.674236   0.69785    0.766671   0.80112    0.854268   0.856379   0.903883   0.919908   0.962233   1.000718   1.432089   1.493021
   1.744065   1.78789    1.871756   1.888926   1.908781   1.939747   2.140348   2.146567   2.193985   2.392117   2.41077    2.592894   2.634588   2.635957
   2.655688   3.037939   3.202445   3.265808   3.326508   3.344931] 
 [-11.245291 -11.190612  -0.991699  -0.769729  -0.589498  -0.575248  -0.559493  -0.388324   0.160897   0.214641   0.230116   0.266642   0.280346   0.442312
   0.604535   0.666997   0.674236   0.69785    0.766671   0.80112    0.854268   0.85638    0.903883   0.919908   0.962233   1.000718   1.432089   1.493021
   1.744065   1.78789    1.871756   1.888926   1.908781   1.939747   2.140349   2.146567   2.193985   2.392117   2.41077    2.592894   2.634588   2.635957
   2.655688   3.037939   3.202445   3.265808   3.326509   3.344931]
time for xg, H, S2, Yg, Feff: 0.026
 E(SUHF) =    -77.94113086, delta E = -4.32557e-08, MaxD(dm) = 0.000145279, RMSD(dm) = 0.000706554
**** Start Cycle 27 ****
time for NO, Ng: 0.014
time for Gg: 0.856
detC -0.9569549743257894
detNg [   1.001311    1.035001    1.207385    1.766416    3.510377   10.296024   56.167306 1473.975134]
xg [1.090556 1.055058 0.904422 0.618193 0.311074 0.106059 0.019442 0.000741]
ciS 0.9739429601180205
ciH -106.75388504922348
S2 = -0.000000
Hsp + Hph =  -109.60999711552641
F(mod,ortho) updated with CDIIS
e_a, e_b
 [-11.245289 -11.190612  -0.991698  -0.769729  -0.589498  -0.575246  -0.559491  -0.388324   0.160897   0.214641   0.230116   0.266642   0.280345   0.442312
   0.604535   0.666996   0.674236   0.69785    0.766671   0.80112    0.854268   0.856379   0.903882   0.919908   0.962232   1.000718   1.432089   1.493021
   1.744065   1.787889   1.871755   1.888926   1.90878    1.939747   2.140348   2.146567   2.193985   2.392116   2.41077    2.592894   2.634588   2.635957
   2.655688   3.037939   3.202445   3.265808   3.326509   3.344931] 
 [-11.245289 -11.190612  -0.991698  -0.769729  -0.589498  -0.575246  -0.559491  -0.388324   0.160897   0.214641   0.230116   0.266642   0.280345   0.442312
   0.604535   0.666996   0.674236   0.69785    0.766671   0.80112    0.854268   0.856379   0.903882   0.919908   0.962232   1.000718   1.432089   1.493021
   1.744065   1.787889   1.871755   1.888925   1.908781   1.939747   2.140348   2.146567   2.193985   2.392116   2.41077    2.592894   2.634588   2.635957
   2.655688   3.037939   3.202445   3.265808   3.326509   3.34493 ]
time for xg, H, S2, Yg, Feff: 0.025
 E(SUHF) =    -77.94113090, delta E = -4.06765e-08, MaxD(dm) = 4.4249e-06, RMSD(dm) = 2.03149e-05
**** Start Cycle 28 ****
time for NO, Ng: 0.013
time for Gg: 0.854
detC -0.9569576941052531
detNg [   1.001311    1.035001    1.207383    1.766407    3.510343   10.295884   56.16644  1473.9518  ]
xg [1.090549 1.055052 0.904419 0.618193 0.311075 0.10606  0.019442 0.000741]
ciS 0.9739420809740196
ciH -106.75378868655638
S2 = -0.000000
Hsp + Hph =  -109.60999711583884
F(mod,ortho) updated with CDIIS
e_a, e_b
 [-11.245288 -11.190614  -0.991695  -0.769728  -0.589497  -0.575242  -0.559489  -0.388322   0.160896   0.21464    0.230115   0.266642   0.280343   0.442311
   0.604535   0.666996   0.674236   0.69785    0.766671   0.80112    0.854267   0.856378   0.903881   0.919908   0.962228   1.000716   1.432089   1.493021
   1.744065   1.787889   1.871755   1.888926   1.90878    1.939747   2.140347   2.146568   2.193985   2.392116   2.41077    2.592894   2.634588   2.635956
   2.655688   3.037939   3.202445   3.265807   3.32651    3.344929] 
 [-11.245288 -11.190614  -0.991695  -0.769728  -0.589497  -0.575242  -0.559489  -0.388322   0.160896   0.21464    0.230115   0.266642   0.280343   0.442311
   0.604535   0.666996   0.674236   0.69785    0.766671   0.80112    0.854267   0.856378   0.903881   0.919908   0.962228   1.000716   1.432089   1.493021
   1.744065   1.787889   1.871755   1.888926   1.908781   1.939747   2.140347   2.146568   2.193985   2.392116   2.41077    2.592894   2.634588   2.635956
   2.655687   3.037939   3.202445   3.265807   3.326511   3.344929]
time for xg, H, S2, Yg, Feff: 0.026
 E(SUHF) =    -77.94113090, delta E = -3.12426e-10, MaxD(dm) = 9.21084e-06, RMSD(dm) = 5.15501e-05
**** Start Cycle 29 ****
time for NO, Ng: 0.014
time for Gg: 0.861
detC -0.956966699847453
detNg [   1.001311    1.034999    1.207375    1.766375    3.510228   10.295421   56.163579 1473.874698]
xg [1.090529 1.055034 0.904407 0.618192 0.311079 0.106063 0.019442 0.000741]
ciS 0.9739391767477263
ciH -106.75347035471879
S2 = -0.000000
Hsp + Hph =  -109.60999711624754
F(mod,ortho) updated with CDIIS
e_a, e_b
 [-11.245288 -11.190615  -0.991694  -0.769728  -0.589497  -0.575241  -0.559489  -0.388322   0.160896   0.21464    0.230115   0.266642   0.280343   0.442311
   0.604535   0.666996   0.674237   0.69785    0.766671   0.80112    0.854267   0.856378   0.903881   0.919908   0.962227   1.000715   1.432089   1.493021
   1.744066   1.787889   1.871755   1.888926   1.90878    1.939747   2.140347   2.146568   2.193985   2.392116   2.41077    2.592894   2.634588   2.635956
   2.655687   3.037939   3.202445   3.265807   3.32651    3.344929] 
 [-11.245288 -11.190615  -0.991694  -0.769728  -0.589497  -0.575241  -0.559489  -0.388322   0.160896   0.21464    0.230115   0.266642   0.280343   0.442311
   0.604535   0.666996   0.674237   0.69785    0.766671   0.80112    0.854267   0.856378   0.903881   0.919908   0.962227   1.000715   1.432089   1.493021
   1.744066   1.787889   1.871755   1.888926   1.908781   1.939747   2.140347   2.146568   2.193985   2.392116   2.41077    2.592894   2.634588   2.635956
   2.655687   3.037939   3.202445   3.265807   3.326511   3.344928]
time for xg, H, S2, Yg, Feff: 0.027
 E(SUHF) =    -77.94113090, delta E = -4.08704e-10, MaxD(dm) = 1.80465e-06, RMSD(dm) = 1.12388e-05
**** Start Cycle 30 ****
time for NO, Ng: 0.014
time for Gg: 0.853
detC 0.9569683999925108
detNg [   1.001311    1.034999    1.207374    1.766369    3.510206   10.295334   56.163038 1473.86013 ]
xg [1.090525 1.05503  0.904405 0.618192 0.31108  0.106063 0.019443 0.000741]
ciS 0.9739386265812778
ciH -106.75341005099271
S2 = -0.000000
Hsp + Hph =  -109.60999711626474
F(mod,ortho) updated with CDIIS
e_a, e_b
 [-11.245288 -11.190615  -0.991694  -0.769728  -0.589497  -0.575241  -0.559489  -0.388321   0.160896   0.21464    0.230115   0.266642   0.280343   0.442311
   0.604535   0.666996   0.674237   0.69785    0.766671   0.80112    0.854267   0.856378   0.903881   0.919908   0.962227   1.000715   1.432089   1.493021
   1.744066   1.787889   1.871755   1.888926   1.90878    1.939747   2.140347   2.146568   2.193985   2.392116   2.41077    2.592894   2.634588   2.635956
   2.655687   3.037939   3.202445   3.265807   3.32651    3.344929] 
 [-11.245288 -11.190615  -0.991694  -0.769728  -0.589497  -0.575241  -0.559489  -0.388321   0.160896   0.21464    0.230115   0.266642   0.280343   0.442311
   0.604535   0.666996   0.674237   0.69785    0.766671   0.80112    0.854267   0.856378   0.903881   0.919908   0.962227   1.000715   1.432089   1.493021
   1.744066   1.787889   1.871755   1.888926   1.908781   1.939747   2.140347   2.146568   2.193985   2.392116   2.41077    2.592894   2.634588   2.635956
   2.655687   3.037939   3.202445   3.265807   3.326511   3.344928]
time for xg, H, S2, Yg, Feff: 0.026
 E(SUHF) =    -77.94113090, delta E = -1.71951e-11, MaxD(dm) = 1.91273e-07, RMSD(dm) = 1.30642e-06
**** Start Cycle 31 ****
time for NO, Ng: 0.013
time for Gg: 0.854
detC -0.9569685199623928
detNg [   1.001311    1.034999    1.207374    1.766369    3.510204   10.295328   56.163003 1473.859178]
xg [1.090525 1.05503  0.904405 0.618192 0.31108  0.106063 0.019443 0.000741]
ciS 0.9739385727129163
ciH -106.75340414648215
S2 = -0.000000
Hsp + Hph =  -109.60999711626515
F(mod,ortho) updated with CDIIS
e_a, e_b
 [-11.245288 -11.190615  -0.991694  -0.769728  -0.589497  -0.575241  -0.559489  -0.388321   0.160896   0.21464    0.230115   0.266642   0.280343   0.442311
   0.604535   0.666996   0.674237   0.69785    0.766671   0.80112    0.854267   0.856378   0.903881   0.919908   0.962227   1.000715   1.432089   1.493021
   1.744066   1.787889   1.871755   1.888926   1.90878    1.939747   2.140347   2.146568   2.193985   2.392116   2.41077    2.592894   2.634588   2.635956
   2.655687   3.037939   3.202445   3.265807   3.32651    3.344929] 
 [-11.245288 -11.190615  -0.991694  -0.769728  -0.589497  -0.575241  -0.559489  -0.388321   0.160896   0.21464    0.230115   0.266642   0.280343   0.442311
   0.604535   0.666996   0.674237   0.69785    0.766671   0.80112    0.854267   0.856378   0.903881   0.919908   0.962227   1.000715   1.432089   1.493021
   1.744066   1.787889   1.871755   1.888926   1.908781   1.939747   2.140347   2.146568   2.193985   2.392116   2.41077    2.592894   2.634588   2.635956
   2.655687   3.037939   3.202445   3.265807   3.326511   3.344928]
time for xg, H, S2, Yg, Feff: 0.026
 E(SUHF) =    -77.94113090, delta E = -4.12115e-13, MaxD(dm) = 4.90928e-08, RMSD(dm) = 3.70335e-07
**** Start Cycle 32 ****
time for NO, Ng: 0.014
time for Gg: 0.856
detC -0.9569685210526655
detNg [   1.001311    1.034999    1.207374    1.766369    3.510204   10.295328   56.163003 1473.859188]
xg [1.090525 1.05503  0.904405 0.618192 0.31108  0.106063 0.019443 0.000741]
ciS 0.9739385686560973
ciH -106.75340370181426
S2 = -0.000000
Hsp + Hph =  -109.60999711626519
F(mod,ortho) updated with CDIIS
e_a, e_b
 [-11.245288 -11.190615  -0.991694  -0.769728  -0.589497  -0.575241  -0.559489  -0.388321   0.160896   0.21464    0.230115   0.266642   0.280343   0.442311
   0.604535   0.666996   0.674237   0.69785    0.766671   0.80112    0.854267   0.856378   0.903881   0.919908   0.962227   1.000715   1.432089   1.493021
   1.744066   1.787889   1.871755   1.888926   1.90878    1.939747   2.140347   2.146568   2.193985   2.392116   2.41077    2.592894   2.634588   2.635956
   2.655687   3.037939   3.202445   3.265807   3.32651    3.344929] 
 [-11.245288 -11.190615  -0.991694  -0.769728  -0.589497  -0.575241  -0.559489  -0.388321   0.160896   0.21464    0.230115   0.266642   0.280343   0.442311
   0.604535   0.666996   0.674237   0.69785    0.766671   0.80112    0.854267   0.856378   0.903881   0.919908   0.962227   1.000715   1.432089   1.493021
   1.744066   1.787889   1.871755   1.888926   1.908781   1.939747   2.140347   2.146568   2.193985   2.392116   2.41077    2.592894   2.634588   2.635956
   2.655687   3.037939   3.202445   3.265807   3.326511   3.344928]
time for xg, H, S2, Yg, Feff: 0.026
 E(SUHF) =    -77.94113090, delta E = -4.26326e-14, MaxD(dm) = 2.03315e-08, RMSD(dm) = 1.19107e-07
**** Start Cycle 33 ****
time for NO, Ng: 0.015
time for Gg: 0.857
detC 0.9569685227447589
detNg [   1.001311    1.034999    1.207374    1.766369    3.510204   10.295328   56.163003 1473.859173]
xg [1.090525 1.05503  0.904405 0.618192 0.31108  0.106063 0.019443 0.000741]
ciS 0.9739385681509556
ciH -106.75340364644575
S2 = -0.000000
Hsp + Hph =  -109.60999711626522
F(mod,ortho) updated with CDIIS
e_a, e_b
 [-11.245288 -11.190615  -0.991694  -0.769728  -0.589497  -0.575241  -0.559489  -0.388321   0.160896   0.21464    0.230115   0.266642   0.280343   0.442311
   0.604535   0.666996   0.674237   0.69785    0.766671   0.80112    0.854267   0.856378   0.903881   0.919908   0.962227   1.000715   1.432089   1.493021
   1.744066   1.787889   1.871755   1.888926   1.90878    1.939747   2.140347   2.146568   2.193985   2.392116   2.41077    2.592894   2.634588   2.635956
   2.655687   3.037939   3.202445   3.265807   3.32651    3.344929] 
 [-11.245288 -11.190615  -0.991694  -0.769728  -0.589497  -0.575241  -0.559489  -0.388321   0.160896   0.21464    0.230115   0.266642   0.280343   0.442311
   0.604535   0.666996   0.674237   0.69785    0.766671   0.80112    0.854267   0.856378   0.903881   0.919908   0.962227   1.000715   1.432089   1.493021
   1.744066   1.787889   1.871755   1.888926   1.908781   1.939747   2.140347   2.146568   2.193985   2.392116   2.41077    2.592894   2.634588   2.635956
   2.655687   3.037939   3.202445   3.265807   3.326511   3.344928]
time for xg, H, S2, Yg, Feff: 0.027

***************
SUHF converged at cycle 32
Final E(SUHF) =    -77.94113090, delta E = -2.84217e-14, MaxD(dm) = 4.5489e-09, RMSD(dm) = 3.45084e-08
time for cyc: 29.531
******* suhf density *****
Clebsch-Gordan coeff: < 0 0 0 0 | 0 0 > = 1
Clebsch-Gordan coeff: < 0 0 1 0 | 0 0 > = 0
xggint 0.9999999999999998
SUHF DM alpha
 [[ 1.043724 -0.087752 -0.071304 ... -0.000157 -0.000371 -0.000371]
 [-0.087752  0.246477  0.09673  ...  0.000924  0.000659  0.000659]
 [-0.071304  0.09673   0.048672 ...  0.000007  0.000522  0.000522]
 ...
 [-0.000157  0.000924  0.000007 ...  0.000294 -0.000271 -0.000271]
 [-0.000371  0.000659  0.000522 ... -0.000271  0.000425  0.000303]
 [-0.000371  0.000659  0.000522 ... -0.000271  0.000303  0.000425]] 
SUHF DM beta
 [[ 1.043724 -0.087752 -0.071304 ... -0.000157 -0.000371 -0.000371]
 [-0.087752  0.246477  0.09673  ...  0.000924  0.000659  0.000659]
 [-0.071304  0.09673   0.048672 ...  0.000007  0.000522  0.000522]
 ...
 [-0.000157  0.000924  0.000007 ...  0.000294 -0.000271 -0.000271]
 [-0.000371  0.000659  0.000522 ... -0.000271  0.000425  0.000303]
 [-0.000371  0.000659  0.000522 ... -0.000271  0.000303  0.000425]]
SUHF natural orbitals alpha
 [[-0.704279 -0.702727 -0.044775 ...  0.011386  0.086059 -0.1362  ]
 [-0.016796 -0.021694  0.077099 ... -0.122273 -0.515378  0.759231]
 [ 0.015462  0.022302  0.047425 ...  0.85523   0.675707 -0.040899]
 ...
 [ 0.000366 -0.000755  0.002547 ... -0.349653 -0.112128  0.240802]
 [-0.000678  0.000872 -0.010865 ... -0.005464  0.437331  0.072299]
 [-0.000678  0.000872 -0.010864 ...  0.237679  0.069128 -0.08735 ]] 
SUHF NO occ alpha
 [ 0.999999  0.999999  0.994246  0.993644  0.993644  0.993641  0.990826  0.50002   0.49998   0.009174  0.006359  0.006356  0.006356  0.005754  0.000001
  0.000001  0.        0.        0.        0.        0.        0.        0.        0.        0.        0.        0.        0.        0.        0.
  0.        0.        0.       -0.       -0.       -0.       -0.       -0.       -0.       -0.       -0.       -0.       -0.       -0.       -0.
 -0.       -0.       -0.      ]
SUHF natural orbitals beta
 [[-0.704279 -0.702727 -0.044775 ...  0.011386  0.086059 -0.1362  ]
 [-0.016796 -0.021694  0.077099 ... -0.122273 -0.515378  0.759231]
 [ 0.015462  0.022302  0.047425 ...  0.85523   0.675707 -0.040899]
 ...
 [ 0.000366 -0.000755  0.002547 ... -0.349653 -0.112128  0.240802]
 [-0.000678  0.000872 -0.010865 ... -0.005464  0.437331  0.072299]
 [-0.000678  0.000872 -0.010864 ...  0.237679  0.069128 -0.08735 ]] 
SUHF NO occ beta
 [ 0.999999  0.999999  0.994246  0.993644  0.993644  0.993641  0.990826  0.50002   0.49998   0.009174  0.006359  0.006356  0.006356  0.005754  0.000001
  0.000001  0.        0.        0.        0.        0.        0.        0.        0.        0.        0.        0.        0.        0.        0.
  0.        0.        0.       -0.       -0.       -0.       -0.       -0.       -0.       -0.       -0.       -0.       -0.       -0.       -0.
 -0.       -0.       -0.      ]
time for dm: 14.735
time tot: 44.273
