title                                                                   
Stability UHF                                                         CC-pVDZ             
Number of atoms                            I                2
Info1-9                                    I   N=           9
          12          11           0           0           0         110
           7           1           2
Charge                                     I                0
Multiplicity                               I                1
Number of electrons                        I               14
Number of alpha electrons                  I                7
Number of beta electrons                   I                7
Number of basis functions                  I               28
Number of independent functions            I               28
Number of point charges in /Mol/           I                0
Number of translation vectors              I                0
Atomic numbers                             I   N=           2
           7           7
Nuclear charges                            R   N=           2
  7.00000000E+00  7.00000000E+00
Current cartesian coordinates              R   N=           6
  0.00000000E+00  0.00000000E+00  1.22832199E+00  1.50426059E-16  0.00000000E+00
 -1.22832199E+00
Force Field                                I                0
Int Atom Types                             I   N=           2
           0           0
MM charges                                 R   N=           2
  0.00000000E+00  0.00000000E+00
Integer atomic weights                     I   N=           2
          14          14
Real atomic weights                        R   N=           2
  1.40030740E+01  1.40030740E+01
Atom fragment info                         I   N=           2
           0           0
Atom residue num                           I   N=           2
           0           0
Nuclear spins                              I   N=           2
           2           2
Nuclear ZEff                               R   N=           2
 -4.55000000E+00 -4.55000000E+00
Nuclear QMom                               R   N=           2
  2.04400000E+00  2.04400000E+00
Nuclear GFac                               R   N=           2
  4.03761000E-01  4.03761000E-01
MicOpt                                     I   N=           2
          -1          -1
Number of contracted shells                I               12
Number of primitive shells                 I               40
Pure/Cartesian d shells                    I                0
Pure/Cartesian f shells                    I                0
Highest angular momentum                   I                2
Largest degree of contraction              I                7
Shell types                                I   N=          12
           0           0           0           1           1          -2
           0           0           0           1           1          -2
Number of primitives per shell             I   N=          12
           7           7           1           3           1           1
           7           7           1           3           1           1
Shell to atom map                          I   N=          12
           1           1           1           1           1           1
           2           2           2           2           2           2
Primitive exponents                        R   N=          40
  9.04600000E+03  1.35700000E+03  3.09300000E+02  8.77300000E+01  2.85600000E+01
  1.02100000E+01  3.83800000E+00  9.04600000E+03  3.09300000E+02  8.77300000E+01
  2.85600000E+01  1.02100000E+01  3.83800000E+00  7.46600000E-01  2.24800000E-01
  1.35500000E+01  2.91700000E+00  7.97300000E-01  2.18500000E-01  8.17000000E-01
  9.04600000E+03  1.35700000E+03  3.09300000E+02  8.77300000E+01  2.85600000E+01
  1.02100000E+01  3.83800000E+00  9.04600000E+03  3.09300000E+02  8.77300000E+01
  2.85600000E+01  1.02100000E+01  3.83800000E+00  7.46600000E-01  2.24800000E-01
  1.35500000E+01  2.91700000E+00  7.97300000E-01  2.18500000E-01  8.17000000E-01
Contraction coefficients                   R   N=          40
  7.01708743E-04  5.40299880E-03  2.74729510E-02  1.03514580E-01  2.79586579E-01
  4.51317241E-01  2.80626875E-01  7.77446797E-06  3.00742072E-04 -2.80016549E-03
 -9.89708505E-03 -1.14331114E-01 -1.18162383E-01  1.09786885E+00  1.00000000E+00
  5.89056768E-02  3.20461107E-01  7.53042062E-01  1.00000000E+00  1.00000000E+00
  7.01708743E-04  5.40299880E-03  2.74729510E-02  1.03514580E-01  2.79586579E-01
  4.51317241E-01  2.80626875E-01  7.77446797E-06  3.00742072E-04 -2.80016549E-03
 -9.89708505E-03 -1.14331114E-01 -1.18162383E-01  1.09786885E+00  1.00000000E+00
  5.89056768E-02  3.20461107E-01  7.53042062E-01  1.00000000E+00  1.00000000E+00
Coordinates of each shell                  R   N=          36
  0.00000000E+00  0.00000000E+00  1.22832199E+00  0.00000000E+00  0.00000000E+00
  1.22832199E+00  0.00000000E+00  0.00000000E+00  1.22832199E+00  0.00000000E+00
  0.00000000E+00  1.22832199E+00  0.00000000E+00  0.00000000E+00  1.22832199E+00
  0.00000000E+00  0.00000000E+00  1.22832199E+00  1.50426059E-16  0.00000000E+00
 -1.22832199E+00  1.50426059E-16  0.00000000E+00 -1.22832199E+00  1.50426059E-16
  0.00000000E+00 -1.22832199E+00  1.50426059E-16  0.00000000E+00 -1.22832199E+00
  1.50426059E-16  0.00000000E+00 -1.22832199E+00  1.50426059E-16  0.00000000E+00
 -1.22832199E+00
Constraint Structure                       R   N=           6
  0.00000000E+00  0.00000000E+00  1.22832199E+00  1.50426059E-16  0.00000000E+00
 -1.22832199E+00
Num ILSW                                   I              100
ILSW                                       I   N=         100
           1           0           0           0           2           1
           0           0           0           0           0          -1
           0           0           0           0           0           0
           0           0           0           0           0           0
           1           0           0           0           0           0
           0           0      100000           0          -1           0
           0           0           0           0           0           0
           0           0           0           1           0           0
           0           0           1           0           0           0
           0           0           4          40           0           0
           0           0           0           0           0           0
           0           0           0           0           0           0
           0           0           0           0           0           0
           0           0           0           0           0           0
           0           0           0           0           0           0
           0           0           0           0           0           0
           0           0           0           0
Num RLSW                                   I               40
RLSW                                       R   N=          40
  1.00000000E+00  1.00000000E+00  1.00000000E+00  1.00000000E+00  1.00000000E+00
  0.00000000E+00  0.00000000E+00  1.00000000E+00  0.00000000E+00  0.00000000E+00
  0.00000000E+00  0.00000000E+00  1.00000000E+00  0.00000000E+00  0.00000000E+00
  0.00000000E+00  0.00000000E+00  1.00000000E+00  0.00000000E+00  0.00000000E+00
  0.00000000E+00  0.00000000E+00  1.00000000E+00  0.00000000E+00  0.00000000E+00
  0.00000000E+00  0.00000000E+00  1.00000000E+00  0.00000000E+00  0.00000000E+00
  0.00000000E+00  0.00000000E+00  1.00000000E+00  0.00000000E+00  0.00000000E+00
  0.00000000E+00  0.00000000E+00  0.00000000E+00  1.00000000E+00  1.00000000E+00
MxBond                                     I                1
NBond                                      I   N=           2
           1           1
IBond                                      I   N=           2
           2           1
RBond                                      R   N=           2
  1.00000000E+00  1.00000000E+00
Virial Ratio                               R      2.004545963942753E+00
SCF Energy                                 R     -1.088799179299420E+02
Total Energy                               R     -1.088799179299420E+02
S**2                                       R      1.033422383499848E+00
S**2 after annihilation                    R      1.502339525322467E+00
RMS Density                                R      8.115634931128895E-10
External E-field                           R   N=          35
  0.00000000E+00  0.00000000E+00  0.00000000E+00  0.00000000E+00  0.00000000E+00
  0.00000000E+00  0.00000000E+00  0.00000000E+00  0.00000000E+00  0.00000000E+00
  0.00000000E+00  0.00000000E+00  0.00000000E+00  0.00000000E+00  0.00000000E+00
  0.00000000E+00  0.00000000E+00  0.00000000E+00  0.00000000E+00  0.00000000E+00
  0.00000000E+00  0.00000000E+00  0.00000000E+00  0.00000000E+00  0.00000000E+00
  0.00000000E+00  0.00000000E+00  0.00000000E+00  0.00000000E+00  0.00000000E+00
  0.00000000E+00  0.00000000E+00  0.00000000E+00  0.00000000E+00  0.00000000E+00
IOpCl                                      I                1
IROHF                                      I                0
Alpha Orbital Energies                     R   N=          28
 -1.57157779E+01 -1.56659255E+01 -1.33743499E+00 -8.08894150E-01 -5.89237371E-01
 -5.89237367E-01 -5.73352338E-01  1.43722187E-01  1.43722190E-01  4.87709066E-01
  8.95100291E-01  8.95100292E-01  9.06570310E-01  9.48581577E-01  9.95196518E-01
  1.06299518E+00  1.06299518E+00  1.50430909E+00  1.74252408E+00  1.74252408E+00
  1.82607582E+00  1.82607582E+00  2.20205636E+00  2.20205636E+00  2.56209138E+00
  2.77925034E+00  2.77925034E+00  3.08441028E+00
Beta Orbital Energies                      R   N=          28
 -1.57157779E+01 -1.56659255E+01 -1.33743499E+00 -8.08894150E-01 -5.89237371E-01
 -5.89237367E-01 -5.73352338E-01  1.43722187E-01  1.43722190E-01  4.87709066E-01
  8.95100291E-01  8.95100292E-01  9.06570310E-01  9.48581577E-01  9.95196518E-01
  1.06299518E+00  1.06299518E+00  1.50430909E+00  1.74252408E+00  1.74252408E+00
  1.82607582E+00  1.82607582E+00  2.20205636E+00  2.20205636E+00  2.56209138E+00
  2.77925034E+00  2.77925034E+00  3.08441028E+00
Alpha MO coefficients                      R   N=         784
  9.96890099E-01  1.69953797E-02 -4.87044559E-03  8.57581073E-18  2.62701330E-17
 -2.11575346E-03  1.26788294E-16  2.48305141E-16  1.80065344E-03 -4.12842093E-05
 -3.33653708E-16 -6.27813203E-16 -1.54159130E-11 -3.29124819E-16  1.15411766E-02
 -1.44394555E-04  2.07206694E-03 -1.91670332E-17 -2.66908193E-17 -1.43651018E-04
 -1.20631938E-16 -2.47029340E-16  7.80510280E-04 -6.40433666E-04 -3.23762718E-16
 -6.57843236E-16  1.13307530E-12 -5.31130227E-16 -1.16413226E-02 -3.98084823E-04
  9.73499061E-04 -1.10712693E-17  1.00599000E-17  2.61538094E-04 -1.66987036E-16
  5.41961338E-17 -2.11520262E-04 -6.08266889E-04  3.79228790E-16 -1.56224336E-16
  2.84082638E-13 -6.31454525E-17  9.97707170E-01  1.24610873E-02 -3.06972312E-03
  1.86321465E-17 -1.03750215E-17  1.84049740E-03  1.59144968E-16 -5.83509191E-17
 -9.91422873E-04  9.97663941E-04  3.82634844E-16 -1.69679857E-16  1.20750579E-11
 -2.55013221E-16 -1.78915650E-01  4.12776960E-01  3.45379311E-01 -2.23696310E-16
 -7.01349482E-17 -1.63706120E-01 -4.53243865E-16 -1.92937298E-17 -5.94150790E-02
  1.44711383E-02  1.63783386E-16 -2.45435034E-16 -2.96529268E-10 -4.94260314E-16
 -1.15197959E-01  2.47057378E-01  1.41794400E-01  3.64091994E-17 -3.56557718E-17
  1.65438482E-01  4.12278979E-16 -1.20387324E-17  2.61813071E-02  3.42802592E-02
  3.24177837E-16 -1.07158180E-16  2.17635048E-10 -5.50697448E-17  1.29159801E-01
 -3.06327348E-01 -4.13659892E-01  1.55311378E-16  8.21894896E-17 -2.82787739E-01
 -4.86698976E-16  3.35828619E-17 -1.27608783E-01  3.35351714E-02  6.74642028E-17
 -1.12362306E-16  3.34785702E-10 -4.38485317E-17 -1.58606386E-01  3.56617093E-01
  4.26805562E-01 -3.14670510E-16  1.71944139E-16 -5.81237365E-02  4.39856328E-16
 -1.28579144E-17 -4.61955771E-02  9.73997485E-03  1.00989861E-16 -3.21436287E-17
  3.14634731E-10 -8.90366355E-17  3.31967426E-17 -2.96769372E-16  1.16645861E-15
  8.57925677E-08  6.11035863E-01 -2.04706367E-15  5.71932359E-08  4.07344346E-01
 -2.29109155E-15  3.15063710E-16 -5.32595081E-09 -3.79327335E-02  4.17506604E-17
  1.78807492E-16  4.46842245E-16 -5.75787915E-16 -3.67468597E-15  2.55534862E-08
  1.81998227E-01  1.86505776E-15  1.61081903E-08  1.14726497E-01 -2.19702573E-16
 -7.10759988E-17  4.61414026E-09  3.28630455E-02 -9.07020462E-18 -5.57465240E-17
  6.39860411E-18 -1.06590697E-15  5.71072690E-15  6.11035859E-01 -8.57925702E-08
 -4.27034597E-15  4.07344346E-01 -5.71932359E-08 -6.95852566E-15  1.02356351E-15
 -3.79327337E-02  5.32595025E-09 -1.12849224E-16 -1.07002647E-16  8.91440334E-16
 -5.28643414E-16 -1.05482335E-14  1.81998232E-01 -2.55534827E-08  3.45676999E-15
  1.14726501E-01 -1.61081861E-08 -2.91498446E-15 -5.68197463E-16  3.28630458E-02
 -4.61413992E-09  4.50580212E-17 -2.80769087E-16  2.93676905E-02 -3.61136673E-02
 -2.21803217E-01 -5.34223667E-15 -2.69223542E-15 -4.28541765E-01 -3.57954341E-15
 -1.82625949E-15 -2.14258446E-01  3.11905023E-02  3.37799952E-16  4.76562055E-16
  9.29262844E-11 -3.49342658E-16  8.16791493E-02 -1.61804994E-01 -3.62699868E-01
 -1.37546164E-15 -9.00028356E-16  4.48155541E-01 -8.11040832E-16 -4.51588133E-16
  2.68514473E-01  2.15105504E-02 -3.32840700E-16  3.77860778E-17 -2.09844354E-10
  3.08832297E-19 -7.70629728E-17 -3.61758952E-16  3.54893841E-15 -2.96819364E-01
 -4.62871296E-08  1.23980583E-17 -3.62977528E-01 -5.66040832E-08 -2.60843752E-15
  3.99480891E-16 -2.73055686E-02 -4.25813337E-09 -3.50349744E-17  5.69917169E-17
  1.41958507E-16  1.25972891E-16 -3.58818749E-15  4.76353746E-01  7.42843979E-08
 -5.06151777E-16  7.06153968E-01  1.10120310E-07 -2.68034805E-15 -2.76796149E-16
  5.99283482E-03  9.34545177E-10 -1.10548958E-17  6.03621312E-17  2.12791943E-17
  1.08770229E-16 -8.69477753E-16  4.62871295E-08 -2.96819360E-01 -2.88933559E-17
  5.66040827E-08 -3.62977524E-01  6.50461652E-16  4.04958325E-17  4.25813348E-09
 -2.73055689E-02  1.43025626E-18 -2.32518368E-17  8.31244923E-18 -1.05627682E-16
  6.99373772E-16 -7.42843987E-08  4.76353746E-01  9.25420145E-18 -1.10120312E-07
  7.06153971E-01  7.14087167E-16  1.01172801E-17 -9.34545295E-10  5.99283502E-03
 -1.84964186E-17  1.95753709E-16  1.01984591E-01 -1.99232258E-01 -1.86644557E+00
  1.47031952E-15  3.89265613E-16  2.83223453E-01 -6.17958235E-16  2.57652042E-16
  1.64477192E+00  5.49453761E-03  2.72451028E-16  9.04526055E-17  3.32554197E-10
 -1.79096227E-17 -1.13474551E-01  1.80033221E-01  1.93284833E+00  1.26864535E-15
  3.54130256E-16  3.09188898E-01  6.59387697E-16 -4.71487995E-16  1.64085773E+00
  1.67830829E-02 -2.82239684E-17  2.15458051E-16  2.86238398E-10 -1.01951461E-16
 -9.75891364E-17 -1.15442124E-15  2.65969611E-16 -4.27601616E-07 -8.95291937E-01
  4.81709633E-15  5.10351992E-07  1.06855074E+00 -6.87585491E-15 -6.69922786E-16
  3.40277589E-08  7.12457013E-02  4.26214677E-17  5.59138271E-17 -1.99819585E-16
 -9.24367868E-16 -1.33980842E-15 -1.60605503E-07 -3.36268162E-01 -2.60570968E-15
  2.80849355E-08  5.88028921E-02  4.23562716E-15 -9.63453876E-16 -3.39810302E-08
 -7.11478635E-02 -8.65440205E-17  1.04680474E-15  1.36229337E-16  2.06079649E-15
  3.41439708E-15 -8.95291936E-01  4.27601620E-07 -4.06107532E-16  1.06855074E+00
 -5.10352002E-07  9.85507958E-16  1.75267937E-15  7.12457017E-02 -3.40277575E-08
  4.96593771E-17 -1.68791797E-16  2.09315070E-17  2.88823092E-15 -4.50179587E-15
 -3.36268168E-01  1.60605493E-07  7.14054877E-15  5.88029001E-02 -2.80849195E-08
 -1.03235523E-14  2.27016223E-16 -7.11478639E-02  3.39810300E-08  3.31763457E-17
  4.12557863E-18  1.80137599E-02  1.65980130E-01 -1.14477536E-01  4.21650079E-15
 -5.46850810E-15 -7.15438888E-01 -4.08705440E-15  5.94982810E-15  1.08367461E+00
  9.18883781E-02 -4.58628353E-16  8.32944422E-16  8.71584286E-11  1.04690274E-15
  2.40809002E-02  1.56186022E-01  2.70790927E-01  5.60710648E-15 -4.11812288E-15
  3.76527220E-01 -4.42223273E-15  2.60633667E-15 -5.58761657E-01  1.45161076E-01
  3.45869291E-16 -4.07750520E-16 -2.29971846E-10  1.10202636E-15  7.97316848E-03
 -3.03752971E-01 -6.81116277E-01 -4.16426962E-15 -4.06359563E-16 -6.14150231E-01
  4.38254705E-15  9.66921748E-16  9.99514546E-01 -2.02013135E-01  3.44822121E-16
  2.55295287E-16 -1.52685329E-10 -2.17373705E-16 -1.07663418E-03 -1.12436370E-01
  9.46407374E-01 -4.52811482E-15  2.10635764E-15 -8.22117936E-01  3.65450603E-15
 -2.28166705E-15  1.31330702E+00  1.08024483E-01 -2.53706210E-16  5.61483379E-16
 -6.63324915E-11  2.89529200E-16  3.40603541E-02 -1.11292389E+00  1.33845511E+00
  4.04643415E-15 -1.62338268E-15 -6.56913683E-02 -8.41784007E-15  3.10877403E-15
 -1.91938949E-01 -5.71528611E-02  6.26620313E-16 -2.46292007E-16  1.43503826E-10
  6.08708978E-16  4.34302441E-02 -9.98918397E-01  5.45465129E-01 -1.31979633E-14
  4.72176484E-15  2.99359383E-01  1.52701497E-14 -5.46668177E-15 -4.59487785E-01
 -1.16728679E-01 -6.14320543E-16  1.21671770E-16  1.38104919E-11  4.46514943E-16
 -3.48829259E-16  1.74856753E-14 -1.91127908E-14  3.29487265E-01  1.23925086E-07
  2.12296428E-17 -6.59521879E-01 -2.48056039E-07  4.99067322E-15  1.76687084E-15
  5.83981677E-02  2.19644245E-08 -3.28823757E-17  4.25196649E-17 -5.70916747E-16
  1.44289785E-14 -7.34851093E-15 -9.93771364E-01 -3.73772271E-07 -9.49333194E-17
  1.16653760E+00  4.38752233E-07  1.15826668E-15  2.00540517E-15 -3.04487365E-02
 -1.14522253E-08 -3.40966974E-16 -9.54763303E-16  1.92044345E-16 -6.18999831E-15
  2.84046689E-15 -1.23925078E-07  3.29487260E-01 -3.16031184E-17  2.48056030E-07
 -6.59521873E-01  7.57623655E-16 -1.02599413E-15 -2.19644265E-08  5.83981684E-02
 -1.39066399E-16  1.48782114E-17  1.24646519E-16 -6.22799791E-15  7.04525547E-15
  3.73772273E-07 -9.93771366E-01 -1.10737769E-15 -4.38752235E-07  1.16653760E+00
  3.65677802E-15 -6.06171960E-16  1.14522260E-08 -3.04487370E-02  2.38428868E-16
 -3.29021221E-16  1.89401147E-02  1.35777807E+00 -3.95421638E+00 -1.13288179E-16
 -6.32532009E-16 -1.00946117E-01  1.10419581E-15  2.17989280E-16  1.93996344E+00
 -7.84257971E-02  9.33002893E-16 -1.69445265E-15 -2.01483296E-10 -1.05102246E-16
 -1.34814943E-02 -1.47491101E+00  4.04949545E+00  9.14029397E-16 -1.37562905E-16
 -9.57464987E-02 -3.55802645E-16 -3.94433415E-16  1.93717028E+00  5.02334211E-02
 -6.91427598E-16  2.94508552E-15 -1.71860550E-10 -6.64667924E-17  1.60561645E-16
  5.86777018E-15 -1.84646328E-14 -3.21306136E-07  1.63696848E-01 -1.32369946E-16
  4.00081012E-08 -2.03830523E-02  9.21059494E-15 -6.32631761E-16 -1.26664091E-06
  6.45319534E-01 -9.01188669E-16  1.45555764E-14 -1.04382686E-16 -6.14504032E-15
  1.84327719E-14 -3.80369307E-07  1.93787949E-01 -2.77709767E-16 -6.20311703E-09
  3.16032163E-03  9.49748352E-15  3.77037296E-16  1.13737552E-06 -5.79462290E-01
  1.79558534E-16  1.05347332E-14  2.31757048E-18 -1.92944127E-15  2.95309656E-15
  1.63696848E-01  3.21306136E-07  1.02720905E-15 -2.03830521E-02 -4.00081043E-08
 -1.61563627E-15 -1.09778811E-15  6.45319534E-01  1.26664091E-06  1.45307458E-15
  2.70076154E-14  8.41709700E-18  1.42530172E-15 -3.07331220E-15  1.93787949E-01
  3.80369305E-07 -2.26101212E-16  3.16032136E-03  6.20312009E-09 -3.15407268E-16
  1.25451929E-15 -5.79462291E-01 -1.13737552E-06  3.31519914E-15  1.20658479E-14
 -1.37987865E-10  6.28261856E-10  5.19635670E-10 -3.09545547E-16  1.00678257E-16
 -2.99836209E-10  1.90798057E-16  1.42363450E-16 -4.28997944E-10  3.77556256E-10
 -3.13588065E-15  9.36744339E-17  8.14315766E-01  6.00251411E-06  1.23509022E-10
 -5.36660825E-10 -6.10801117E-10 -9.87537820E-16  1.38297949E-16 -4.78751942E-10
  3.57593225E-17 -1.66117108E-16 -3.24284477E-10 -1.81595686E-10  8.73525821E-16
 -8.44077058E-16  5.15332138E-01  3.79863507E-06  6.20571331E-16 -3.51577809E-15
 -5.20276799E-15 -5.09518782E-15 -1.89666334E-15  2.78159131E-15  6.10218120E-16
 -1.62386970E-16  2.82780806E-15 -2.34410411E-15 -2.05460439E-14 -1.25924658E-14
 -6.00251411E-06  8.14315766E-01 -8.90414937E-16  4.24096713E-15  4.14746045E-15
 -7.24513999E-15 -4.27501066E-15  3.09509075E-15  3.34671158E-16 -7.60626964E-16
  2.89098081E-15  1.67944730E-15  1.80608453E-14  1.14901215E-14 -3.79863507E-06
  5.15332138E-01  5.18133429E-11  6.98894271E-10 -3.27879855E-10 -2.18104441E-16
 -4.85710273E-16 -8.00122710E-10 -1.42538015E-16  1.27129876E-15  6.83597403E-10
 -9.62977634E-10 -2.19517381E-15 -2.08443606E-15 -5.86654908E-01  2.70402310E-07
  7.60960477E-11  6.26650579E-10 -5.55413326E-10 -1.01432370E-15  2.41808819E-16
  7.40559431E-10  3.36822064E-16 -1.26150528E-15 -8.24039671E-10 -1.05939529E-09
  7.65976552E-16 -1.03506618E-15  8.61224092E-01 -3.96957358E-07  7.33781627E-17
  1.23047482E-15 -5.31335095E-16  9.74797904E-16  1.51987359E-15 -1.45503287E-16
 -1.47979106E-15 -3.23334559E-15 -3.13756957E-16 -1.41271385E-15  1.44591919E-15
 -1.02160390E-15 -2.70402310E-07 -5.86654908E-01 -8.99011591E-18  1.14296949E-15
 -1.19230924E-15 -8.32722388E-17  2.34140628E-16  1.66749217E-15  1.65796009E-15
  6.55582561E-16 -1.24505954E-15 -1.34923341E-15 -5.10132074E-15  1.27787691E-15
  3.96957358E-07  8.61224092E-01 -9.30503981E-03 -5.34900717E-01  3.47012919E-01
 -2.35942105E-16 -1.30817393E-16  3.71307466E-01 -7.94087016E-16 -1.00716247E-15
 -4.52432384E-01  7.34385331E-01  2.37206216E-15  2.76353124E-15 -1.00376307E-09
 -9.60088017E-16  4.04424056E-03 -5.63882842E-01  1.49903928E-01  2.47487619E-16
  1.27228222E-16 -4.32042986E-01  6.14767614E-16  1.01139818E-15  3.34598138E-01
  6.44401396E-01  2.96167556E-15  2.73458662E-15  1.19942012E-09  1.30109546E-15
  2.87837347E-17  4.46071890E-16  3.22879614E-15  8.74236369E-06 -3.78276060E-02
 -2.83294328E-16  8.24673436E-05 -3.56830521E-01 -1.71209122E-15 -2.87102713E-15
 -2.08541232E-04  9.02343559E-01 -7.97785678E-16  3.34358780E-16  8.68985326E-18
  3.69377259E-15 -6.03300147E-15 -9.11593312E-06  3.94440153E-02  3.15799571E-15
 -8.20693671E-05  3.55108504E-01 -4.53008511E-15 -1.50746564E-15 -2.19062008E-04
  9.47866233E-01  2.03160765E-15 -7.89529350E-16 -1.03282915E-16  1.73391109E-15
 -2.27181294E-15 -3.78276060E-02 -8.74236368E-06 -3.17966660E-16 -3.56830521E-01
 -8.24673436E-05  2.48506050E-15 -3.10595327E-15  9.02343560E-01  2.08541232E-04
  5.89967952E-16 -1.39379355E-15 -1.67687550E-16  1.50033851E-15  1.77967164E-15
  3.94440153E-02  9.11593312E-06  1.47902332E-15  3.55108504E-01  8.20693671E-05
 -3.78629232E-16 -8.33608662E-16  9.47866232E-01  2.19062008E-04  1.11440250E-15
  2.45245184E-15  8.44232894E-02  1.68169286E-01 -2.73702286E+00  1.09071376E-16
  6.78671181E-17  5.66771508E-01  5.22043775E-16  2.91243628E-16  1.58469748E+00
 -1.13114119E+00 -1.50011484E-15 -7.42247933E-16  1.70932385E-10  8.91065912E-17
 -8.25221219E-02 -2.16153249E-01  2.75356133E+00  3.35681856E-17  4.67834950E-19
  5.50442205E-01 -1.47982489E-16 -2.28986445E-16  1.60642456E+00  1.18897036E+00
 -2.08983472E-16 -5.33455954E-16  2.29627111E-10 -9.40743378E-17
Beta MO coefficients                       R   N=         784
  1.15411766E-02 -1.44394555E-04  2.07206694E-03 -7.47651994E-18 -1.12212240E-19
  1.43651018E-04 -9.55730853E-17 -2.91028982E-17 -7.80510280E-04 -6.40433666E-04
  2.06512337E-16  4.63139628E-17  1.13184960E-12  6.97526903E-16  9.96890099E-01
  1.69953797E-02 -4.87044559E-03  8.74723416E-18  1.88615539E-18  2.11575346E-03
  8.84597548E-17  2.44290087E-17 -1.80065344E-03 -4.12842093E-05  2.04705847E-16
  5.60068847E-17 -1.54164759E-11  2.22855990E-16  9.97707170E-01  1.24610873E-02
 -3.06972312E-03 -2.29700198E-17  1.34611965E-17 -1.84049740E-03 -1.65651345E-16
  1.26957962E-16  9.91422873E-04  9.97663941E-04  4.56495184E-16 -3.25999386E-16
  1.20739267E-11  2.43253599E-16 -1.16413226E-02 -3.98084823E-04  9.73499061E-04
  1.78000649E-17 -1.58040045E-17 -2.61538094E-04  1.73552763E-16 -1.25524951E-16
  2.11520262E-04 -6.08266889E-04  4.22463194E-16 -3.15533042E-16  2.84663401E-13
 -1.74662146E-16 -1.15197959E-01  2.47057378E-01  1.41794400E-01 -1.79525600E-16
 -6.69174930E-17 -1.65438482E-01 -6.60559987E-16 -2.19471760E-16 -2.61813071E-02
  3.42802592E-02  7.38241845E-16  2.91962786E-16  2.17635616E-10  4.30054902E-16
 -1.78915650E-01  4.12776960E-01  3.45379311E-01  9.01817729E-17  2.64403276E-17
  1.63706120E-01  5.45560931E-16  1.61470272E-16  5.94150790E-02  1.44711383E-02
  5.42615219E-16  1.87517726E-16 -2.96529074E-10  4.55764400E-16 -1.58606386E-01
  3.56617093E-01  4.26805562E-01  2.15533690E-16  1.75833612E-16  5.81237365E-02
 -1.07684589E-16 -3.03997400E-17  4.61955771E-02  9.73997485E-03  1.07270759E-16
  1.37354797E-16  3.14634748E-10  5.37263099E-17  1.29159801E-01 -3.06327348E-01
 -4.13659892E-01  4.03161976E-17 -1.17592366E-17  2.82787739E-01  2.62835016E-16
  1.31349930E-17  1.27608783E-01  3.35351714E-02 -1.03602717E-16 -1.29402353E-16
  3.34784813E-10  3.19301268E-16  4.19679625E-17 -2.38551798E-16  6.61161886E-16
  9.74128931E-08  1.81998227E-01 -4.49941693E-16  6.14063136E-08  1.14726497E-01
 -8.63258707E-16  1.86512508E-16 -1.75896454E-08 -3.28630455E-02  3.58286212E-17
  3.25930697E-16  4.57304524E-17  9.71792476E-17 -1.14701753E-15  3.27051368E-07
  6.11035863E-01  3.40551817E-16  2.18027344E-07  4.07344346E-01 -4.84495250E-16
 -9.60861252E-17  2.03031499E-08  3.79327335E-02 -6.44238891E-18  1.86534973E-16
 -3.28418546E-16 -4.08792986E-16  7.15773875E-15  1.81998232E-01 -9.74128905E-08
  5.10390904E-16  1.14726501E-01 -6.14063114E-08 -3.89898534E-15  7.20849058E-16
 -3.28630458E-02  1.75896450E-08 -9.17460098E-17  2.20770440E-16  9.23585393E-17
  8.88955717E-16 -5.99561032E-15  6.11035859E-01 -3.27051369E-07 -1.31146014E-15
  4.07344346E-01 -2.18027344E-07 -4.94006405E-15 -7.20224669E-16  3.79327337E-02
 -2.03031494E-08  1.61458509E-17  8.72821048E-18 -8.16791493E-02  1.61804994E-01
  3.62699868E-01  1.26652493E-16  3.40553133E-16  4.48155541E-01  4.34495333E-17
  8.99231318E-17  2.68514473E-01 -2.15105504E-02  1.99697696E-16  3.34101388E-16
  2.09843454E-10 -2.47238234E-16 -2.93676905E-02  3.61136673E-02  2.21803217E-01
 -1.38977565E-15  5.10845470E-16 -4.28541765E-01 -1.06148226E-15  3.53472118E-16
 -2.14258446E-01 -3.11905023E-02  6.90210057E-17  4.19467387E-16 -9.29268307E-11
 -3.13020399E-16 -2.14485619E-16 -4.01337025E-16  6.63113506E-15  4.76353746E-01
 -2.73779908E-08 -5.78781269E-16  7.06153968E-01 -4.05855463E-08 -5.27917859E-15
  4.71222069E-16 -5.99283482E-03  3.44432852E-10 -5.08686145E-17 -2.03188533E-16
  1.48164313E-16  7.97782487E-16 -6.88982873E-15 -2.96819364E-01  1.70594176E-08
  2.69997211E-16 -3.62977528E-01  2.08617980E-08 -4.99622902E-15 -5.20210604E-16
  2.73055686E-02 -1.56936217E-09  4.51513068E-17 -8.68320559E-17 -7.38632693E-17
 -2.04668306E-16  2.62754184E-15  2.73779916E-08  4.76353746E-01 -1.77696437E-16
  4.05855472E-08  7.06153971E-01 -2.14412748E-15  1.80983912E-16 -3.44432563E-10
 -5.99283502E-03  2.33496822E-17  3.45342285E-17  5.49868148E-17  3.38881842E-16
 -2.75427302E-15 -1.70594188E-08 -2.96819360E-01  1.12462326E-16 -2.08617975E-08
 -3.62977524E-01 -2.04653352E-15 -1.38130999E-16  1.56936232E-09  2.73055689E-02
  4.58489439E-18  6.43647244E-17 -1.13474551E-01  1.80033221E-01  1.93284833E+00
 -1.46521883E-15 -8.55740595E-16 -3.09188898E-01 -1.18820336E-15  1.05372865E-16
 -1.64085773E+00  1.67830829E-02 -2.74579381E-16 -7.14797843E-17  2.86234486E-10
  2.25569634E-16  1.01984591E-01 -1.99232258E-01 -1.86644557E+00 -1.14196155E-15
  1.37753503E-16 -2.83223453E-01  9.96866514E-16 -9.00901779E-18 -1.64477192E+00
  5.49453761E-03  7.86132973E-17 -2.18528131E-16  3.32550348E-10  2.39179217E-16
 -1.69580532E-16 -1.19247252E-15 -2.03019793E-15 -8.81163790E-08 -3.36268162E-01
  2.91193976E-15  1.54088278E-08  5.88028921E-02 -4.05111750E-15 -1.08588075E-15
  1.86437277E-08  7.11478635E-02 -3.85170050E-18 -1.11300260E-15 -1.45249140E-16
 -1.11145494E-15  8.45068738E-16 -2.34604075E-07 -8.95291937E-01 -5.22292054E-15
  2.80005157E-07  1.06855074E+00  8.04505781E-15 -7.03965200E-16 -1.86693653E-08
 -7.12457013E-02  1.38764801E-17 -8.26644910E-16  1.56288698E-16 -9.83098056E-17
  3.67242172E-15 -3.36268168E-01  8.81163803E-08  1.23083781E-15  5.88029001E-02
 -1.54088309E-08 -1.18797300E-15  8.79269174E-16  7.11478639E-02 -1.86437269E-08
  2.38367091E-17 -1.14876766E-16 -1.57483032E-17  1.58400693E-15 -3.67597092E-15
 -8.95291936E-01  2.34604076E-07  4.31676766E-15  1.06855074E+00 -2.80005155E-07
 -6.30629052E-15 -2.41997298E-16 -7.12457017E-02  1.86693648E-08 -5.86556140E-17
 -3.81508208E-16 -2.40809002E-02 -1.56186022E-01 -2.70790927E-01 -1.95176091E-15
  7.46720001E-15  3.76527220E-01  1.39988142E-15 -5.93790643E-15 -5.58761657E-01
 -1.45161076E-01 -2.39846505E-16 -1.51482422E-15  2.29974241E-10  1.20902633E-15
 -1.80137599E-02 -1.65980130E-01  1.14477536E-01 -3.04325659E-15  4.95380834E-15
 -7.15438888E-01  3.25329784E-15 -4.91462885E-15  1.08367461E+00 -9.18883781E-02
 -6.37221888E-16  4.58059258E-16 -8.71589327E-11  3.63516198E-15  1.07663418E-03
  1.12436370E-01 -9.46407374E-01 -2.44217374E-15  7.30932724E-15 -8.22117936E-01
  2.79364209E-15 -8.26998420E-15  1.31330702E+00 -1.08024483E-01  3.18382609E-16
 -6.81187011E-17  6.63342868E-11 -6.99954568E-17 -7.97316848E-03  3.03752971E-01
  6.81116277E-01 -1.60340111E-15 -2.47082639E-15 -6.14150231E-01  1.32436324E-15
  4.80222483E-15  9.99514546E-01  2.02013135E-01 -9.42744444E-17  4.36073528E-16
  1.52689835E-10 -8.62161216E-16  4.34302441E-02 -9.98918397E-01  5.45465129E-01
  2.71314421E-15  4.57624665E-15 -2.99359383E-01 -3.01936735E-15 -5.35349876E-15
  4.59487785E-01 -1.16728679E-01 -9.97311214E-17 -4.79102323E-16  1.38158553E-11
 -1.88919957E-16  3.40603541E-02 -1.11292389E+00  1.33845511E+00 -1.46520480E-15
 -1.68067647E-15  6.56913683E-02  2.48904890E-15  3.09458855E-15  1.91938949E-01
 -5.71528611E-02 -8.72231867E-17  5.48516946E-16  1.43501361E-10 -5.27099991E-16
  1.52230236E-16 -7.92055606E-16 -1.54963208E-15 -9.93771364E-01  1.66860153E-07