tilte                                                                   
SP        UHF                                                         Gen                 
Number of atoms                            I                2
Info1-9                                    I   N=           9
          12          12           0           0           0         110
           1           1           2
Charge                                     I                0
Multiplicity                               I                1
Number of electrons                        I               14
Number of alpha electrons                  I                7
Number of beta electrons                   I                7
Number of basis functions                  I               28
Number of independent functions            I               28
Number of point charges in /Mol/           I                0
Number of translation vectors              I                0
Atomic numbers                             I   N=           2
           7           7
Nuclear charges                            R   N=           2
  7.00000000E+00  7.00000000E+00
Current cartesian coordinates              R   N=           6
  0.00000000E+00  0.00000000E+00  0.00000000E+00  0.00000000E+00  0.00000000E+00
  1.70075352E+00
Force Field                                I                0
Int Atom Types                             I   N=           2
           0           0
MM charges                                 R   N=           2
  0.00000000E+00  0.00000000E+00
Integer atomic weights                     I   N=           2
          14          14
Real atomic weights                        R   N=           2
  1.40030740E+01  1.40030740E+01
Atom fragment info                         I   N=           2
           0           0
Atom residue num                           I   N=           2
           0           0
Nuclear spins                              I   N=           2
           2           2
Nuclear ZEff                               R   N=           2
 -4.55000000E+00 -4.55000000E+00
Nuclear QMom                               R   N=           2
  2.04400000E+00  2.04400000E+00
Nuclear GFac                               R   N=           2
  4.03761000E-01  4.03761000E-01
MicOpt                                     I   N=           2
          -1          -1
Number of contracted shells                I               12
Number of primitive shells                 I               40
Pure/Cartesian d shells                    I                0
Pure/Cartesian f shells                    I                0
Highest angular momentum                   I                2
Largest degree of contraction              I                7
Shell types                                I   N=          12
           0           0           0           1           1          -2
           0           0           0           1           1          -2
Number of primitives per shell             I   N=          12
           7           7           1           3           1           1
           7           7           1           3           1           1
Shell to atom map                          I   N=          12
           1           1           1           1           1           1
           2           2           2           2           2           2
Primitive exponents                        R   N=          40
  9.04600000E+03  1.35700000E+03  3.09300000E+02  8.77300000E+01  2.85600000E+01
  1.02100000E+01  3.83800000E+00  9.04600000E+03  3.09300000E+02  8.77300000E+01
  2.85600000E+01  1.02100000E+01  3.83800000E+00  7.46600000E-01  2.24800000E-01
  1.35500000E+01  2.91700000E+00  7.97300000E-01  2.18500000E-01  8.17000000E-01
  9.04600000E+03  1.35700000E+03  3.09300000E+02  8.77300000E+01  2.85600000E+01
  1.02100000E+01  3.83800000E+00  9.04600000E+03  3.09300000E+02  8.77300000E+01
  2.85600000E+01  1.02100000E+01  3.83800000E+00  7.46600000E-01  2.24800000E-01
  1.35500000E+01  2.91700000E+00  7.97300000E-01  2.18500000E-01  8.17000000E-01
Contraction coefficients                   R   N=          40
  7.01708742E-04  5.40299879E-03  2.74729510E-02  1.03514580E-01  2.79586579E-01
  4.51317240E-01  2.80626875E-01  7.77446800E-06  3.00742073E-04 -2.80016550E-03
 -9.89708509E-03 -1.14331115E-01 -1.18162384E-01  1.09786885E+00  1.00000000E+00
  5.89056768E-02  3.20461107E-01  7.53042062E-01  1.00000000E+00  1.00000000E+00
  7.01708742E-04  5.40299879E-03  2.74729510E-02  1.03514580E-01  2.79586579E-01
  4.51317240E-01  2.80626875E-01  7.77446800E-06  3.00742073E-04 -2.80016550E-03
 -9.89708509E-03 -1.14331115E-01 -1.18162384E-01  1.09786885E+00  1.00000000E+00
  5.89056768E-02  3.20461107E-01  7.53042062E-01  1.00000000E+00  1.00000000E+00
Coordinates of each shell                  R   N=          36
  0.00000000E+00  0.00000000E+00  0.00000000E+00  0.00000000E+00  0.00000000E+00
  0.00000000E+00  0.00000000E+00  0.00000000E+00  0.00000000E+00  0.00000000E+00
  0.00000000E+00  0.00000000E+00  0.00000000E+00  0.00000000E+00  0.00000000E+00
  0.00000000E+00  0.00000000E+00  0.00000000E+00  0.00000000E+00  0.00000000E+00
  1.70075352E+00  0.00000000E+00  0.00000000E+00  1.70075352E+00  0.00000000E+00
  0.00000000E+00  1.70075352E+00  0.00000000E+00  0.00000000E+00  1.70075352E+00
  0.00000000E+00  0.00000000E+00  1.70075352E+00  0.00000000E+00  0.00000000E+00
  1.70075352E+00
Constraint Structure                       R   N=           6
  0.00000000E+00  0.00000000E+00  0.00000000E+00  0.00000000E+00  0.00000000E+00
  1.70075352E+00
Num ILSW                                   I              100
ILSW                                       I   N=         100
           1           0           0           0           2           0
           0           0           0           0           0          -1
           0           0           0           0           0           0
           0           0           0           0           0           0
           1           1           0           0           0           0
           0           0      100000           0          -1           0
           0           0           0           0           0           0
           0           0           0           1           0           0
           0           0           1           0           0           0
           0           0           4          40           0           0
           0           0           0           0           0           0
           0           0           0           0           0           0
           0           0           0           0           0           0
           0           0           0           0           0           0
           0           0           0           0           0           0
           0           0           0           0           0           0
           0           0           0           0
Num RLSW                                   I               40
RLSW                                       R   N=          40
  1.00000000E+00  1.00000000E+00  1.00000000E+00  1.00000000E+00  1.00000000E+00
  0.00000000E+00  0.00000000E+00  1.00000000E+00  0.00000000E+00  0.00000000E+00
  0.00000000E+00  0.00000000E+00  1.00000000E+00  0.00000000E+00  0.00000000E+00
  0.00000000E+00  0.00000000E+00  1.00000000E+00  0.00000000E+00  0.00000000E+00
  0.00000000E+00  0.00000000E+00  1.00000000E+00  0.00000000E+00  0.00000000E+00
  0.00000000E+00  0.00000000E+00  1.00000000E+00  0.00000000E+00  0.00000000E+00
  0.00000000E+00  0.00000000E+00  1.00000000E+00  0.00000000E+00  0.00000000E+00
  0.00000000E+00  0.00000000E+00  0.00000000E+00  1.00000000E+00  1.00000000E+00
MxBond                                     I                1
NBond                                      I   N=           2
           1           1
IBond                                      I   N=           2
           2           1
RBond                                      R   N=           2
  3.00000000E+00  3.00000000E+00
Virial Ratio                               R      1.981250877002993E+00
SCF Energy                                 R     -1.087199534626113E+02
Total Energy                               R     -1.087199534626113E+02
S**2                                       R      2.122925609081880E-01
S**2 after annihilation                    R      5.264310044335888E-02
RMS Density                                R      4.697050972527333E-03
External E-field                           R   N=          35
  0.00000000E+00  0.00000000E+00  0.00000000E+00  0.00000000E+00  0.00000000E+00
  0.00000000E+00  0.00000000E+00  0.00000000E+00  0.00000000E+00  0.00000000E+00
  0.00000000E+00  0.00000000E+00  0.00000000E+00  0.00000000E+00  0.00000000E+00
  0.00000000E+00  0.00000000E+00  0.00000000E+00  0.00000000E+00  0.00000000E+00
  0.00000000E+00  0.00000000E+00  0.00000000E+00  0.00000000E+00  0.00000000E+00
  0.00000000E+00  0.00000000E+00  0.00000000E+00  0.00000000E+00  0.00000000E+00
  0.00000000E+00  0.00000000E+00  0.00000000E+00  0.00000000E+00  0.00000000E+00
IOpCl                                      I                1
IROHF                                      I                0
Alpha Orbital Energies                     R   N=          28
 -1.55842059E+01 -1.55451486E+01 -1.58551235E+00 -6.99589206E-01 -6.94777054E-01
 -6.94777053E-01 -6.03951949E-01  3.13413857E-01  3.13413857E-01  6.29974261E-01
  7.65883003E-01  8.13956792E-01  8.13956792E-01  1.03868989E+00  1.13867571E+00
  1.13867571E+00  1.45769205E+00  1.72378661E+00  1.72378661E+00  1.96659135E+00
  2.15191145E+00  2.15191145E+00  2.47391310E+00  2.47391310E+00  2.99345545E+00
  3.26180119E+00  3.26180119E+00  4.23727651E+00
Beta Orbital Energies                      R   N=          28
 -1.55842059E+01 -1.55451486E+01 -1.58551235E+00 -6.99589206E-01 -6.94777054E-01
 -6.94777053E-01 -6.03951949E-01  3.13413857E-01  3.13413857E-01  6.29974261E-01
  7.65883003E-01  8.13956792E-01  8.13956792E-01  1.03868989E+00  1.13867571E+00
  1.13867571E+00  1.45769205E+00  1.72378661E+00  1.72378661E+00  1.96659135E+00
  2.15191145E+00  2.15191145E+00  2.47391310E+00  2.47391310E+00  2.99345545E+00
  3.26180119E+00  3.26180119E+00  4.23727651E+00
Alpha MO coefficients                      R   N=         784
  9.78840032E-01  1.90221099E-02 -7.27127082E-03 -1.24329990E-17  1.55400600E-16
  4.90617090E-03  4.43207449E-17  1.50677501E-16 -2.38107281E-03  2.12609638E-03
  1.46095040E-16  3.34331497E-16 -6.64354723E-12  2.82009066E-16  1.83669827E-01
 -2.05169652E-04  4.85219062E-03 -7.99280081E-17 -1.59323874E-16  3.93558293E-04
 -1.56040750E-17 -1.48719267E-16 -1.41061673E-03  6.31206589E-04 -3.92971741E-18
  3.37343845E-16  2.33768433E-12 -1.39526873E-16 -1.86957535E-01 -6.52870144E-03
  4.95369595E-03 -2.11285783E-17 -2.66108740E-16 -1.94345216E-03 -1.20783469E-17
 -2.46071472E-16  1.33998520E-03 -2.01338499E-04 -1.47711835E-17 -5.43303272E-16
  1.03865255E-12  1.36866822E-16  9.80025889E-01  1.66565105E-02 -6.13462794E-03
  1.43094301E-18  2.72942280E-16 -4.96786984E-03  1.71840965E-17  2.46397063E-16
  1.76554944E-03  2.69445732E-03 -4.35283575E-17 -5.51766800E-16  4.94574831E-12
 -2.00728351E-17 -1.95802148E-01  3.54564446E-01  2.04533787E-01  3.30699184E-16
 -1.25547652E-17  2.59742575E-01  4.12740280E-16 -4.50903434E-17  3.51763926E-02
  2.90577242E-02  9.47855300E-16 -6.68791602E-17 -9.73015387E-11  1.07268558E-17
 -1.74812354E-01  2.87709789E-01  1.05580065E-01 -4.76282340E-16  4.19327476E-17
 -2.59851052E-01 -3.51855242E-16  3.44378022E-17 -1.38121774E-02  4.27392052E-02
  6.18076933E-16 -5.21684409E-17  1.09205447E-10  5.07772212E-17 -1.34727910E-01
  3.06320126E-01  5.44814596E-01  4.81471315E-15 -9.96817268E-15 -4.14848416E-01
  2.48459927E-15 -5.22057687E-15 -1.70921401E-01 -3.52931096E-02  3.84325068E-16
 -1.00717066E-15 -1.83777987E-10  3.20619714E-16  1.23963831E-01 -2.43623193E-01
 -3.24373504E-01  2.77861292E-15 -6.14969492E-15 -4.48682548E-02  1.02563743E-15
 -2.10032323E-15 -4.85433422E-02 -7.49666554E-03 -3.70371084E-16  7.64649668E-16
 -8.96716895E-11 -9.60925758E-18 -2.44245159E-15  5.68375965E-15  9.09543291E-15
 -5.06490993E-07  5.45662737E-01 -7.55439238E-15 -2.57893424E-07  2.77838764E-01
 -3.48161202E-15 -6.38668914E-16 -4.66471585E-08  5.02548246E-02  3.40139165E-18
  3.54879306E-17  2.23730612E-15 -4.49826896E-15 -5.02882417E-15 -3.09221574E-07
  3.33136602E-01 -7.46696061E-16 -1.21007807E-07  1.30366485E-01 -1.16013398E-15
 -1.24180669E-16  4.49959599E-08 -4.84759234E-02 -1.91952185E-17 -4.21732802E-17
  1.16817710E-15 -2.69018270E-15 -3.22755037E-15  5.45662736E-01  5.06490995E-07
  3.46271906E-15  2.77838763E-01  2.57893425E-07  1.95924190E-15  3.05450996E-16
  5.02548247E-02  4.66471584E-08  3.15963714E-18 -2.54216359E-17 -1.10927257E-15
  2.27723630E-15  1.71126289E-15  3.33136604E-01  3.09221571E-07  8.35955042E-16
  1.30366486E-01  1.21007805E-07  1.13231458E-15  8.78608029E-18 -4.84759234E-02
 -4.49959599E-08 -3.63829236E-18 -1.13006612E-17  6.49012463E-03 -1.42172075E-02
  2.46886607E-01 -4.67709172E-16  1.28676640E-17 -3.33137021E-01 -1.69767507E-16
  5.41812985E-17 -1.00352593E-01 -2.62397580E-02  2.90206140E-16  3.91004787E-16
 -2.92086613E-11 -1.59551984E-16 -8.93693910E-02  1.98704696E-01  4.32476708E-01
 -3.57703999E-16 -1.05956115E-16  4.98687804E-01 -5.47735698E-17 -9.11122522E-17
  2.72813121E-01 -2.57646751E-02 -2.25733488E-16  3.52853075E-16  1.35468599E-10
  1.41896441E-16 -1.51974071E-17  7.23282236E-17 -9.58267923E-16 -3.45508557E-01
 -2.71870624E-06 -4.65211013E-17 -8.54179917E-01 -6.72129308E-06 -5.24886717E-16
  4.19548169E-18  1.43179667E-02  1.12663913E-07 -1.20515532E-18  1.36599597E-17
 -5.34567518E-18  1.29264424E-17  9.49183957E-16  3.96598329E-01  3.12071680E-06
 -1.14535290E-17  1.00066753E+00  7.87396149E-06 -5.27714162E-16 -6.15834625E-19
 -2.99015477E-03 -2.35286585E-08 -4.20799321E-17  3.57823663E-17  1.61770560E-19
 -1.25208673E-17  1.65811405E-16  2.71870625E-06 -3.45508556E-01  4.25445129E-17
  6.72129309E-06 -8.54179915E-01  1.85178864E-16  2.09424878E-18 -1.12663911E-07
  1.43179668E-02 -1.66395236E-17  2.33346169E-17  1.13118431E-17  1.47865573E-17
 -3.45146233E-16 -3.12071680E-06  3.96598330E-01 -4.85835474E-17 -7.87396148E-06
  1.00066753E+00 -2.75244226E-18 -3.09713075E-18  2.35286574E-08 -2.99015490E-03
 -2.58693944E-17 -3.44777582E-17  8.54479632E-02 -1.57733152E-01 -7.17174012E+00
  1.04382015E-16  2.35047165E-17  6.76875424E-02  4.54473574E-16 -5.85159278E-18
 -3.66376310E+00 -6.71763963E-02  4.15507225E-16  6.02477048E-17  1.26423956E-10
 -1.94013515E-16 -8.96216511E-02  1.43064260E-01  7.23096293E+00 -2.11806879E-16
  1.93300000E-18  3.50011305E-02 -3.81983618E-16 -2.41445669E-17 -3.57290488E+00
  7.59786778E-02  2.14227907E-16  1.11727605E-16  9.88921766E-11  5.00638584E-18
  2.12900520E-02  3.19603729E-01  3.41417162E-01 -5.53334177E-17 -6.48552943E-16
  3.82609876E-01  7.56822142E-17  5.24092516E-16 -9.91936033E-01  1.34127876E-02
 -1.10921562E-16 -2.23358418E-16  3.13354883E-11  1.43681219E-16  3.08276326E-02
  2.93831074E-01 -2.60131727E-01  3.90259688E-18 -8.28695918E-16 -3.92366814E-01
  8.61592705E-17  9.90584148E-16  1.28309354E+00 -1.86722312E-03  9.72213058E-17
 -4.91534149E-17 -7.53133907E-11 -1.91624034E-17 -3.97330257E-17 -3.32963357E-16
 -5.30613611E-16  2.78805627E-06 -6.42572771E-01 -5.68855443E-16 -3.58901317E-06
  8.27172023E-01  1.22498010E-15 -1.49342626E-17  3.58740252E-07 -8.26800807E-02
  1.27974804E-17  1.40111421E-17 -3.66261231E-17 -3.11041978E-16  3.48013506E-16
  2.14809209E-06 -4.95078059E-01  4.96254409E-16 -1.68149816E-06  3.87540573E-01
 -1.68657656E-15 -1.27580400E-18 -4.62667256E-07  1.06632490E-01 -2.64365579E-17
  1.33751687E-16 -3.51896655E-18 -1.21939708E-16  2.40252208E-16 -6.42572770E-01
 -2.78805627E-06 -7.79383370E-17  8.27172020E-01  3.58901318E-06  2.68473764E-16
 -3.82071335E-18 -8.26800810E-02 -3.58740252E-07 -3.65256143E-17 -2.20477331E-17
  4.59624085E-19 -1.27964528E-16 -1.02101970E-16 -4.95078060E-01 -2.14809209E-06
  1.97702680E-17  3.87540577E-01  1.68149815E-06 -5.27305206E-17 -1.99890475E-18
  1.06632489E-01  4.62667257E-07 -3.56205353E-17 -1.67845480E-16  3.24010583E-02
 -1.07291973E+00  1.32471904E+00  1.28008584E-16 -4.87024930E-17  3.19735303E-01
 -1.91802512E-16  1.18101231E-16  4.95416465E-02 -4.31885711E-02  1.50557137E-17
 -1.31841614E-16  7.28879688E-11  3.39582915E-17  3.95540895E-02 -1.00799451E+00
  4.84295171E-01 -5.16198930E-17  1.38567110E-16 -3.02868285E-01  1.31050108E-16
 -6.36841001E-17  2.89175447E-01 -4.91554238E-02  2.71804673E-17  1.33959092E-16
 -2.03690594E-11  1.19966654E-16  7.98006977E-18  9.64813494E-17 -1.17642049E-15
  6.39768512E-01 -4.60693263E-06 -5.83736775E-17 -1.21316615E+00  8.73593279E-06
 -4.61259288E-16 -1.56842629E-17 -2.04491423E-01  1.47252982E-06 -2.83788132E-16
  1.34434832E-16 -1.82572921E-17  1.37630571E-16  9.61438790E-16 -8.23786309E-01
  5.93203319E-06  1.86391397E-18  1.34035162E+00 -9.65178736E-06 -4.95508213E-16
  4.12161094E-17 -1.53795444E-01  1.10747128E-06 -7.37273803E-16 -2.16256463E-17
 -2.95012579E-17 -1.99301093E-16 -3.17895691E-16  4.60693264E-06  6.39768510E-01
 -2.03346900E-16 -8.73593280E-06 -1.21316615E+00  2.68501900E-16 -3.34135330E-17
 -1.47252982E-06 -2.04491423E-01 -2.94320305E-16  9.83168232E-17  6.67867379E-18
 -3.36015425E-16  5.76407354E-16 -5.93203318E-06 -8.23786310E-01  1.88563602E-16
  9.65178735E-06  1.34035162E+00 -7.20352044E-16  2.75069029E-17 -1.10747128E-06
 -1.53795444E-01 -4.15571138E-16 -4.15909615E-16  5.98519044E-02  7.91477481E-01
 -5.94644578E+00  2.46598073E-16  1.32509204E-16 -6.03373312E-01  2.37176928E-16
  1.44501342E-16 -1.98846653E+00  2.10888861E-01  4.37873376E-16  4.94887986E-16
  3.27063754E-10  5.60000537E-16 -6.28968408E-02 -8.47626250E-01  5.99814919E+00
 -1.54112741E-16 -2.61575518E-16 -6.19607290E-01 -2.10252373E-16 -1.38694327E-16
 -1.99679501E+00 -2.04640791E-01  3.88108521E-16  3.07462486E-16  2.55455016E-10
 -5.37825407E-16 -1.23935873E-17 -4.08858934E-15  3.77351834E-14  2.48298670E-16
 -1.85114236E-16  1.60483722E-16  7.78498841E-16 -8.34047758E-17  1.47822777E-14
  1.33627321E-15 -6.68772544E-16  1.15272536E-16  2.04391978E-06  6.69088203E-01
  3.83145618E-17  4.54853515E-15 -3.82139583E-14 -1.66076032E-16 -2.84438604E-16
  3.51215604E-16 -3.25337333E-16  5.04648476E-16  1.46837751E-14 -1.31380717E-15
  7.75634933E-16 -1.76577341E-16  1.72822418E-06  5.65743540E-01 -1.82040252E-11
 -1.47386478E-09  1.37881053E-08  4.25684354E-16  4.66314130E-16 -4.14070609E-12
 -1.49899920E-15 -8.63702350E-16  5.38601653E-09  5.39274887E-10 -4.14088169E-16
 -2.91354248E-16  6.69088203E-01 -2.04391978E-06  7.80425959E-12  1.61773923E-09
 -1.39109019E-08 -9.41389222E-16 -4.79947378E-16  5.01471870E-11  1.84017593E-15
  9.48765653E-16  5.38108070E-09 -4.91283141E-10 -5.59619898E-16 -3.97485309E-17
  5.65743540E-01 -1.72822418E-06 -4.44724603E-02  1.07360928E+00 -8.17120789E+00
  8.98674973E-17 -6.16434779E-16  1.82949326E-01  1.01093578E-16 -2.40756256E-16
 -3.26153487E+00 -5.28379224E-01  1.94841473E-16 -5.19738760E-16  7.70098835E-10
 -3.37300518E-16  5.75146256E-02 -1.08155475E+00  8.17556544E+00 -9.16307460E-17
  2.43401303E-16  1.68064174E-01 -9.33108264E-17  3.25770451E-16 -3.22309298E+00
  4.89538542E-01  1.70183057E-16 -1.05049716E-15  6.82278785E-10 -2.64711570E-16
  4.00512218E-17 -9.30445878E-16  6.25662998E-15 -1.68267632E-05 -3.49600345E-01
  1.97839516E-16  5.11505206E-06  1.06272606E-01  2.01090731E-15  6.83451227E-17
  3.03806260E-05  6.31201452E-01 -1.09229536E-15 -8.30753281E-16 -1.38329564E-18
  5.66769347E-16 -5.46774451E-15 -1.91256971E-05 -3.97364023E-01 -4.65076540E-17
  5.49435260E-06  1.14153123E-01  2.65858999E-15 -3.55354437E-16 -2.92694846E-05
 -6.08115881E-01  1.38396209E-15  3.24142174E-16  1.89458076E-16  6.03782991E-16
  8.91699192E-17 -3.49600345E-01  1.68267632E-05  1.95416163E-16  1.06272606E-01
 -5.11505206E-06 -4.34152401E-16 -7.26238200E-16  6.31201452E-01 -3.03806260E-05
 -1.00519574E-15  1.57366226E-15  2.28096200E-16  5.70920438E-16 -4.77893385E-16
 -3.97364022E-01  1.91256971E-05 -1.62318550E-16  1.14153123E-01 -5.49435260E-06
  7.53123443E-16 -6.13398780E-16 -6.08115882E-01  2.92694846E-05  7.98212975E-16
 -3.69202871E-16 -1.00960545E-15 -1.43664385E-15 -3.03594999E-15 -7.42456011E-16
  3.03531282E-15 -1.85233954E-15 -1.79746813E-16  1.73602597E-15  2.10442571E-15
  4.28647165E-15  5.91538784E-16  4.89481505E-15  1.01898648E-05 -8.10071286E-01
 -9.58648528E-16 -3.78746218E-15  6.48593097E-15 -7.01733203E-16 -2.88467146E-15
  1.08472352E-15  8.44162033E-16 -1.60798067E-15 -5.15288410E-15  4.09186551E-15
 -1.15240457E-15  6.07001190E-15 -1.11366810E-05  8.85341041E-01  1.00329246E-10
  2.53390068E-10 -8.01105102E-11  4.45508788E-16  4.79053532E-16  1.24618896E-10
 -6.40863703E-16 -5.07461181E-16 -3.24763265E-10 -3.97326625E-10 -8.82196910E-16
 -1.26091075E-15 -8.10071286E-01 -1.01898648E-05  9.30159573E-11  3.13774469E-10
 -2.70144788E-10  2.86994825E-16  5.02041984E-16 -1.59313531E-10  4.56087070E-16
  3.01578061E-16  4.06294598E-10 -4.26335045E-10  3.62827960E-16  5.73458654E-16
  8.85341041E-01  1.11366810E-05 -1.79043755E-01 -9.03907702E-01  3.47189057E-01
 -7.07428412E-16 -6.69528086E-16 -1.98637627E-01 -5.26251243E-16 -4.62816102E-16
  7.37397199E-01  1.02533214E+00 -1.08671280E-15 -9.71303763E-16 -3.24065241E-10
 -5.71248444E-16 -1.74682988E-01 -9.52185467E-01  4.95878148E-01  5.40977570E-16
  4.71166210E-16  2.14945373E-01  5.86511002E-16  5.12131987E-16 -7.96323758E-01
  1.03791276E+00 -1.40464005E-15 -1.31391549E-15  3.49176520E-10  6.99121005E-16
 -7.64895728E-17 -3.41856357E-16 -1.55856722E-15 -1.61673175E-05  6.62202979E-01
  1.56424025E-16 -1.46578925E-05  6.00377897E-01 -2.47826160E-16  4.39030429E-16
 -3.27363955E-05  1.34086181E+00 -1.63216435E-16  3.54312105E-15 -1.06604407E-16
 -1.12959747E-15  2.14741294E-15  1.63807295E-05 -6.70944199E-01  2.02780701E-16
  1.45764416E-05 -5.97041722E-01 -1.43596842E-15  1.13262019E-15 -3.31220571E-05
  1.35665827E+00  2.36625196E-16 -3.83235906E-15  8.83085485E-19  4.35804686E-16
  2.35913402E-15  6.62202979E-01  1.61673175E-05  9.46834740E-16  6.00377897E-01
  1.46578925E-05  1.60246931E-15  1.65566041E-15  1.34086181E+00  3.27363955E-05
  2.15470997E-16 -1.47676035E-17 -1.24856932E-16 -2.26961204E-15 -1.86118660E-15
 -6.70944199E-01 -1.63807295E-05  1.44010631E-15 -5.97041722E-01 -1.45764416E-05
  5.06236384E-16  1.96414329E-16  1.35665827E+00  3.31220571E-05  2.90367559E-16
  2.31962890E-16  1.28957529E-01  1.68633718E+00  2.71443766E+00 -5.50531974E-16
  2.81273363E-18  1.72372707E+00 -5.66860410E-16  2.04294699E-17  1.19736370E+00
  1.12203447E+00 -1.20686340E-15  2.28700398E-17 -5.05419126E-12  3.22123227E-17
 -1.27439099E-01 -1.68480206E+00 -2.71412985E+00  4.90245627E-16 -2.68187971E-17
  1.72872250E+00  5.46139976E-16 -2.16847041E-17  1.19870520E+00 -1.12859708E+00
 -1.24298038E-15  2.43281254E-17 -6.49233427E-13 -4.36110077E-17
Beta MO coefficients                       R   N=         784
  1.83669827E-01 -2.05169652E-04  4.85219062E-03  1.02019681E-17  1.80801997E-16
 -3.93558293E-04  1.01493511E-17  1.78070762E-16  1.41061673E-03  6.31206589E-04
  1.00713914E-17  3.84092581E-16  2.33781834E-12  1.80159416E-16  9.78840032E-01
  1.90221099E-02 -7.27127082E-03 -8.11898287E-19 -1.76467539E-16 -4.90617090E-03
 -1.29074653E-17 -1.80822056E-16  2.38107281E-03  2.12609638E-03  2.77111916E-17
  3.81028115E-16 -6.64368679E-12 -5.55890304E-17  9.80025889E-01  1.66565105E-02
 -6.13462794E-03  1.27384352E-17 -4.11007032E-17  4.96786984E-03  9.11337347E-18
 -5.99351397E-17 -1.76554944E-03  2.69445732E-03  1.44554630E-17 -1.37271061E-16
  4.94581616E-12  1.78143789E-16 -1.86957535E-01 -6.52870144E-03  4.95369595E-03
 -6.56365346E-18  4.85988864E-17  1.94345216E-03 -1.07536518E-17  6.26023879E-17
 -1.33998520E-03 -2.01338499E-04  2.56976470E-17 -1.28581170E-16  1.03859815E-12
 -1.26246836E-16 -1.74812354E-01  2.87709789E-01  1.05580065E-01 -2.50252766E-17
  7.06586124E-17  2.59851052E-01 -1.29316908E-17  7.14322697E-17  1.38121774E-02
  4.27392052E-02  4.92710617E-17  1.43637290E-16  1.09205566E-10 -2.66109121E-16
 -1.95802148E-01  3.54564446E-01  2.04533787E-01 -5.98642637E-17 -8.38305016E-17
 -2.59742575E-01  2.77171089E-17 -6.08068369E-17 -3.51763926E-02  2.90577242E-02
 -1.53645426E-16  1.53407608E-16 -9.73025412E-11  7.79749135E-17  1.23963831E-01
 -2.43623193E-01 -3.24373504E-01  5.16830192E-15 -4.12796557E-15  4.48682548E-02
  1.98048906E-15 -1.57413429E-15  4.85433422E-02 -7.49666554E-03  7.96330713E-16
 -6.16009103E-16 -8.96719400E-11  1.52458694E-17 -1.34727910E-01  3.06320126E-01
  5.44814596E-01  8.51547452E-15 -6.71804719E-15  4.14848416E-01  4.38625358E-15
 -3.43928970E-15  1.70921401E-01 -3.52931096E-02 -7.68134176E-16  5.77133186E-16
 -1.83778618E-10 -1.98287762E-16  1.48704251E-15 -2.88938559E-15 -4.38832417E-15
 -7.38699718E-07  3.33136602E-01  3.92759952E-16 -2.89075668E-07  1.30366485E-01
  3.16117978E-16 -1.06529142E-16 -1.07490893E-07  4.84759234E-02 -1.85935242E-16
 -5.01123601E-17 -1.67362473E-15  3.67924104E-15  7.34096106E-15 -1.20995683E-06
  5.45662737E-01  5.17715288E-15 -6.16081852E-07  2.77838764E-01  1.93200355E-15
 -4.44552587E-16  1.11435442E-07 -5.02548246E-02  1.74627403E-17 -4.04907913E-17
 -1.85256915E-15  3.78704932E-15  5.09758717E-15  3.33136604E-01  7.38699714E-07
 -2.95676347E-16  1.30366486E-01  2.89075665E-07 -5.31646800E-16  7.58171996E-17
  4.84759234E-02  1.07490893E-07 -5.12766006E-17  2.54888646E-17  2.12857141E-15
 -4.70635861E-15 -9.01355574E-15  5.45662736E-01  1.20995683E-06 -6.55911624E-15
  2.77838763E-01  6.16081854E-07 -2.58267209E-15  5.04839849E-16 -5.02548247E-02
 -1.11435442E-07  8.12942212E-17 -1.35947699E-17  8.93693910E-02 -1.98704696E-01
 -4.32476708E-01  2.02950273E-16 -2.28823769E-17  4.98687804E-01  2.47525209E-16
 -5.91548428E-17  2.72813121E-01  2.57646751E-02 -4.97464338E-17  5.46894565E-17
 -1.35468794E-10  3.31337795E-16 -6.49012463E-03  1.42172075E-02 -2.46886607E-01
 -5.25743844E-16  2.34343264E-16 -3.33137021E-01 -4.68093558E-16  1.67246674E-16
 -1.00352593E-01  2.62397580E-02  2.85582526E-16 -1.49651599E-17  2.92084507E-11
 -4.54211825E-16 -3.20168528E-17 -4.93309438E-17 -6.45928376E-16  3.96598329E-01
  3.29168292E-06 -1.37410737E-16  1.00066753E+00  8.30533054E-06 -6.69949091E-16
  9.19077377E-18  2.99015477E-03  2.48176583E-08 -2.41262142E-17  8.74563067E-17
 -2.11156102E-17 -1.04353253E-16  1.11389409E-15 -3.45508557E-01 -2.86764852E-06
  1.12691290E-16 -8.54179917E-01 -7.08951407E-06 -2.93929680E-16  2.61080586E-17
 -1.43179667E-02 -1.18836120E-07 -3.65373994E-17  9.40094352E-17  3.18508503E-17
 -2.30917251E-17 -2.24092284E-16 -3.29168292E-06  3.96598330E-01  7.95817285E-17
 -8.30533054E-06  1.00066753E+00 -5.10345091E-17 -1.32741737E-17 -2.48176575E-08
  2.99015490E-03 -1.38821397E-17  1.12732219E-16  7.35380971E-18  1.41260654E-16
 -2.40107963E-17  2.86764852E-06 -3.45508556E-01 -4.84718689E-17  7.08951408E-06
 -8.54179915E-01 -1.16785712E-16 -2.43012935E-17  1.18836119E-07 -1.43179668E-02
  7.57759751E-18  7.59242255E-17 -8.96216511E-02  1.43064260E-01  7.23096293E+00
  1.62671154E-16  6.25236731E-17 -3.50011305E-02  2.81937004E-16  2.96000380E-16
  3.57290488E+00  7.59786778E-02  5.34952955E-17  1.79696768E-16  9.88882736E-11
 -1.14590215E-16  8.54479632E-02 -1.57733152E-01 -7.17174012E+00  6.47179805E-18
 -4.45718456E-17 -6.76875424E-02 -3.18579414E-16 -3.04894723E-16  3.66376310E+00
 -6.71763963E-02  2.37264899E-16  1.10211292E-16  1.26426118E-10  9.10647923E-17
 -3.08276326E-02 -2.93831074E-01  2.60131727E-01 -4.82974666E-17  2.75835046E-16
 -3.92366814E-01  1.55437029E-16 -2.09636088E-16  1.28309354E+00  1.86722312E-03
 -3.10639843E-17  1.74277179E-16  7.53137013E-11 -1.40633729E-17 -2.12900520E-02
 -3.19603729E-01 -3.41417162E-01  8.33640501E-17 -1.96237512E-16  3.82609876E-01
 -2.13126305E-16  1.16683369E-16 -9.91936033E-01 -1.34127876E-02 -5.43798960E-17
  1.34946749E-16 -3.13363511E-11  1.10153760E-16 -1.06525617E-17  8.94291574E-17
  6.01240531E-16 -1.81219630E-07 -4.95078059E-01 -5.12981887E-17  1.41856336E-07
  3.87540573E-01  3.95222545E-16  9.43803899E-18 -3.90320272E-08 -1.06632490E-01
  2.94683597E-17 -7.32846602E-19  3.30283403E-18  1.53175983E-16 -8.48031365E-16
 -2.35208969E-07 -6.42572771E-01  8.68242557E-17  3.02780147E-07  8.27172023E-01
  2.39026749E-16 -4.36055199E-18  3.02644268E-08  8.26800807E-02  4.70333753E-17
  1.05931530E-16  8.96389682E-19  3.07775812E-17 -4.19670129E-18 -4.95078060E-01
  1.81219630E-07 -1.13554694E-16  3.87540577E-01 -1.41856337E-07  1.45028684E-16
  1.77985490E-17 -1.06632489E-01  3.90320271E-08 -7.09243481E-17  1.45852117E-17
  9.51585738E-19 -4.53628175E-18 -7.69730070E-17 -6.42572770E-01  2.35208969E-07
 -5.38712408E-17  8.27172020E-01 -3.02780146E-07 -2.61173803E-18 -1.90334509E-17
  8.26800810E-02 -3.02644268E-08 -2.05368461E-17  1.03517741E-16  3.95540895E-02
 -1.00799451E+00  4.84295171E-01  3.53849390E-16 -5.21283795E-16  3.02868285E-01
 -5.99992211E-16  1.77436251E-16 -2.89175447E-01 -4.91554238E-02  2.55521554E-17
 -3.49287862E-16 -2.03732203E-11  4.76885006E-17  3.24010583E-02 -1.07291973E+00
  1.32471904E+00 -3.12035340E-16  1.50255600E-16 -3.19735303E-01  5.86102672E-16
  7.97999481E-17 -4.95416465E-02 -4.31885711E-02  6.00083140E-18 -4.96401630E-16
  7.28902567E-11  9.68757087E-17  3.68653305E-17 -3.69033887E-16 -1.19928152E-15
 -8.23786308E-01  1.83168089E-05  1.65905505E-16  1.34035162E+00 -2.98025887E-05
 -7.65737746E-16 -2.08625410E-17  1.53795444E-01 -3.41962682E-06  9.78766881E-17
 -7.46192020E-17 -3.38966062E-18 -4.77248194E-16  1.91031215E-15  6.39768512E-01
 -1.42251910E-05 -2.73178059E-16 -1.21316615E+00  2.69746319E-05 -5.30656567E-16
 -1.93832817E-17  2.04491423E-01 -4.54684702E-06 -3.33675220E-16 -2.51190369E-16
 -7.02836450E-18  2.70009752E-16 -2.31613809E-15 -1.83168089E-05 -8.23786310E-01