tilte
SP        UHF                                                         Gen
Number of atoms                            I                2
Info1-9                                    I   N=           9
          12          12           0           0           0         110
           1           1           2
Charge                                     I                0
Multiplicity                               I                1
Number of electrons                        I               14
Number of alpha electrons                  I                7
Number of beta electrons                   I                7
Number of basis functions                  I               28
Number of independent functions            I               28
Number of point charges in /Mol/           I                0
Number of translation vectors              I                0
Atomic numbers                             I   N=           2
           7           7
Nuclear charges                            R   N=           2
  7.00000000E+00  7.00000000E+00
Current cartesian coordinates              R   N=           6
  0.00000000E+00  0.00000000E+00  0.00000000E+00  0.00000000E+00  0.00000000E+00
  1.70075352E+00
Force Field                                I                0
Int Atom Types                             I   N=           2
           0           0
MM charges                                 R   N=           2
  0.00000000E+00  0.00000000E+00
Integer atomic weights                     I   N=           2
          14          14
Real atomic weights                        R   N=           2
  1.40030740E+01  1.40030740E+01
Atom fragment info                         I   N=           2
           0           0
Atom residue num                           I   N=           2
           0           0
Nuclear spins                              I   N=           2
           2           2
Nuclear ZEff                               R   N=           2
 -4.55000000E+00 -4.55000000E+00
Nuclear QMom                               R   N=           2
  2.04400000E+00  2.04400000E+00
Nuclear GFac                               R   N=           2
  4.03761000E-01  4.03761000E-01
MicOpt                                     I   N=           2
          -1          -1
Number of contracted shells                I               12
Number of primitive shells                 I               40
Pure/Cartesian d shells                    I                0
Pure/Cartesian f shells                    I                0
Highest angular momentum                   I                2
Largest degree of contraction              I                7
Shell types                                I   N=          12
           0           0           0           1           1          -2
           0           0           0           1           1          -2
Number of primitives per shell             I   N=          12
           7           7           1           3           1           1
           7           7           1           3           1           1
Shell to atom map                          I   N=          12
           1           1           1           1           1           1
           2           2           2           2           2           2
Primitive exponents                        R   N=          40
  9.04600000E+03  1.35700000E+03  3.09300000E+02  8.77300000E+01  2.85600000E+01
  1.02100000E+01  3.83800000E+00  9.04600000E+03  3.09300000E+02  8.77300000E+01
  2.85600000E+01  1.02100000E+01  3.83800000E+00  7.46600000E-01  2.24800000E-01
  1.35500000E+01  2.91700000E+00  7.97300000E-01  2.18500000E-01  8.17000000E-01
  9.04600000E+03  1.35700000E+03  3.09300000E+02  8.77300000E+01  2.85600000E+01
  1.02100000E+01  3.83800000E+00  9.04600000E+03  3.09300000E+02  8.77300000E+01
  2.85600000E+01  1.02100000E+01  3.83800000E+00  7.46600000E-01  2.24800000E-01
  1.35500000E+01  2.91700000E+00  7.97300000E-01  2.18500000E-01  8.17000000E-01
Contraction coefficients                   R   N=          40
  7.01708742E-04  5.40299879E-03  2.74729510E-02  1.03514580E-01  2.79586579E-01
  4.51317240E-01  2.80626875E-01  7.77446800E-06  3.00742073E-04 -2.80016550E-03
 -9.89708509E-03 -1.14331115E-01 -1.18162384E-01  1.09786885E+00  1.00000000E+00
  5.89056768E-02  3.20461107E-01  7.53042062E-01  1.00000000E+00  1.00000000E+00
  7.01708742E-04  5.40299879E-03  2.74729510E-02  1.03514580E-01  2.79586579E-01
  4.51317240E-01  2.80626875E-01  7.77446800E-06  3.00742073E-04 -2.80016550E-03
 -9.89708509E-03 -1.14331115E-01 -1.18162384E-01  1.09786885E+00  1.00000000E+00
  5.89056768E-02  3.20461107E-01  7.53042062E-01  1.00000000E+00  1.00000000E+00
Coordinates of each shell                  R   N=          36
  0.00000000E+00  0.00000000E+00  0.00000000E+00  0.00000000E+00  0.00000000E+00
  0.00000000E+00  0.00000000E+00  0.00000000E+00  0.00000000E+00  0.00000000E+00
  0.00000000E+00  0.00000000E+00  0.00000000E+00  0.00000000E+00  0.00000000E+00
  0.00000000E+00  0.00000000E+00  0.00000000E+00  0.00000000E+00  0.00000000E+00
  1.70075352E+00  0.00000000E+00  0.00000000E+00  1.70075352E+00  0.00000000E+00
  0.00000000E+00  1.70075352E+00  0.00000000E+00  0.00000000E+00  1.70075352E+00
  0.00000000E+00  0.00000000E+00  1.70075352E+00  0.00000000E+00  0.00000000E+00
  1.70075352E+00
Constraint Structure                       R   N=           6
  0.00000000E+00  0.00000000E+00  0.00000000E+00  0.00000000E+00  0.00000000E+00
  1.70075352E+00
Num ILSW                                   I              100
ILSW                                       I   N=         100
           1           0           0           0           2           0
           0           0           0           0           0          -1
           0           0           0           0           0           0
           0           0           0           0           0           0
           1           1           0           0           0           0
           0           0      100000           0          -1           0
           0           0           0           0           0           0
           0           0           0           1           0           0
           0           0           1           0           0           0
           0           0           4          40           0           0
           0           0           0           0           0           0
           0           0           0           0           0           0
           0           0           0           0           0           0
           0           0           0           0           0           0
           0           0           0           0           0           0
           0           0           0           0           0           0
           0           0           0           0
Num RLSW                                   I               40
RLSW                                       R   N=          40
  1.00000000E+00  1.00000000E+00  1.00000000E+00  1.00000000E+00  1.00000000E+00
  0.00000000E+00  0.00000000E+00  1.00000000E+00  0.00000000E+00  0.00000000E+00
  0.00000000E+00  0.00000000E+00  1.00000000E+00  0.00000000E+00  0.00000000E+00
  0.00000000E+00  0.00000000E+00  1.00000000E+00  0.00000000E+00  0.00000000E+00
  0.00000000E+00  0.00000000E+00  1.00000000E+00  0.00000000E+00  0.00000000E+00
  0.00000000E+00  0.00000000E+00  1.00000000E+00  0.00000000E+00  0.00000000E+00
  0.00000000E+00  0.00000000E+00  1.00000000E+00  0.00000000E+00  0.00000000E+00
  0.00000000E+00  0.00000000E+00  0.00000000E+00  1.00000000E+00  1.00000000E+00
MxBond                                     I                1
NBond                                      I   N=           2
           1           1
IBond                                      I   N=           2
           2           1
RBond                                      R   N=           2
  3.00000000E+00  3.00000000E+00
Virial Ratio                               R      1.981250877002993E+00
SCF Energy                                 R     -1.087199534626113E+02
Total Energy                               R     -1.087199534626113E+02
S**2                                       R      2.122925609081880E-01
S**2 after annihilation                    R      5.264310044335888E-02
RMS Density                                R      4.697050972527333E-03
External E-field                           R   N=          35
  0.00000000E+00  0.00000000E+00  0.00000000E+00  0.00000000E+00  0.00000000E+00
  0.00000000E+00  0.00000000E+00  0.00000000E+00  0.00000000E+00  0.00000000E+00
  0.00000000E+00  0.00000000E+00  0.00000000E+00  0.00000000E+00  0.00000000E+00
  0.00000000E+00  0.00000000E+00  0.00000000E+00  0.00000000E+00  0.00000000E+00
  0.00000000E+00  0.00000000E+00  0.00000000E+00  0.00000000E+00  0.00000000E+00
  0.00000000E+00  0.00000000E+00  0.00000000E+00  0.00000000E+00  0.00000000E+00
  0.00000000E+00  0.00000000E+00  0.00000000E+00  0.00000000E+00  0.00000000E+00
IOpCl                                      I                1
IROHF                                      I                0
Alpha Orbital Energies                     R   N=          28
 -1.56221053E+01 -1.55534893E+01 -1.60287647E+00 -7.17980985E-01 -7.17980985E-01
 -7.16608387E-01 -5.88061724E-01  3.05003116E-01  3.05003116E-01  6.30977711E-01
  7.57729196E-01  7.99142643E-01  7.99142643E-01  1.03246772E+00  1.12760698E+00
  1.12760698E+00  1.44848168E+00  1.70391968E+00  1.70391968E+00  1.94859892E+00
  2.13683021E+00  2.13683021E+00  2.45981508E+00  2.45981508E+00  2.97945828E+00
  3.24871520E+00  3.24871520E+00  4.21581552E+00
Beta Orbital Energies                      R   N=          28
 -1.56221053E+01 -1.55534893E+01 -1.60287647E+00 -7.17980985E-01 -7.17980985E-01
 -7.16608387E-01 -5.88061724E-01  3.05003116E-01  3.05003116E-01  6.30977711E-01
  7.57729196E-01  7.99142643E-01  7.99142643E-01  1.03246772E+00  1.12760698E+00
  1.12760698E+00  1.44848168E+00  1.70391968E+00  1.70391968E+00  1.94859892E+00
  2.13683021E+00  2.13683021E+00  2.45981508E+00  2.45981508E+00  2.97945828E+00
  3.24871520E+00  3.24871520E+00  4.21581552E+00
Alpha MO coefficients                      R   N=         784
  9.90973639E-01  2.65169645E-02 -1.85949608E-02  1.43925536E-16  7.95184085E-18
  6.50584111E-03  1.24172650E-16 -5.33822778E-17 -5.00973464E-03  1.35359186E-03
  2.73574254E-17  1.36387735E-18  4.33298178E-17  1.09849568E-16  1.00223789E-01
 -4.23988605E-03  1.29967335E-02 -7.55727400E-17 -8.59434451E-17  2.97418715E-03
  2.31662965E-17 -4.71399211E-17 -3.97821118E-03  4.04733695E-05  6.75907251E-18
 -1.14069251E-16 -7.39209275E-18  9.34221715E-17 -1.03469677E-01 -3.55443353E-03
 -1.05935617E-03 -7.46686320E-17 -1.03835108E-16  5.73131340E-04  9.47278722E-17
 -1.01221623E-16 -5.84123666E-04  5.76081279E-04 -4.11627797E-17 -5.08490662E-17
  4.36630423E-17 -3.67109647E-19  9.92289822E-01  9.61107180E-03  3.23735424E-03
  7.19134832E-18  1.01284294E-17 -3.59097339E-03 -2.90198328E-16  9.94247207E-17
 -5.37047683E-04  3.37178748E-03  1.79190753E-16 -1.66667655E-16  1.83767721E-17
 -2.47169470E-17  2.03375294E-01 -4.39312217E-01 -1.89578255E-01 -7.40941428E-16
 -5.92497470E-16 -3.02565047E-01  2.05810470E-16 -3.51152058E-17 -4.85597563E-02
 -1.41693816E-02  5.52146696E-17 -2.06347398E-16 -4.75392680E-16 -1.71236143E-16
  1.63803673E-01 -2.09036522E-01 -1.03003525E-01 -9.64527982E-17 -3.85804646E-16
  2.19492519E-01  2.56181326E-17 -1.19172428E-16  5.14335032E-03 -5.14847658E-02
 -1.10110716E-16 -1.29930648E-17  5.40460935E-16  1.78590567E-16  8.54637303E-16
 -2.21146140E-15 -2.55952539E-14 -6.33193446E-01  1.36470837E-01  3.52140897E-15
 -2.54629352E-01  5.48797230E-02 -8.38784365E-15  7.33872696E-16 -5.80996788E-02
  1.25221003E-02 -6.18679516E-16  1.16286133E-15 -1.09019492E-15 -1.58302122E-15
  2.58513491E-14 -2.14307072E-01  4.61891477E-02 -1.37113044E-15 -1.20552140E-01
  2.59823465E-02 -9.67842658E-15  1.03008077E-15  3.56737837E-02 -7.68869477E-03
  5.96602737E-16  3.22450297E-16  2.35474747E-15 -6.56334230E-15 -1.61801197E-14
 -1.36470837E-01 -6.33193446E-01  9.76969049E-15 -5.48797230E-02 -2.54629352E-01
 -8.75091262E-17  9.22302985E-16 -1.25221003E-02 -5.80996788E-02 -8.81341726E-16
  1.32340677E-16 -2.09535862E-15  3.63860606E-15  1.10381908E-14 -4.61891477E-02
 -2.14307072E-01 -1.72234919E-15 -2.59823465E-02 -1.20552140E-01 -4.21214974E-15
  1.68169126E-16  7.68869477E-03  3.56737837E-02  7.14531601E-16  1.74279940E-15
  1.28351746E-01 -3.40588464E-01 -5.32357878E-01  6.96996421E-15  1.13818116E-14
  5.30944698E-01  2.61025641E-15  3.54453972E-15  1.13050957E-01  7.85620569E-02
  1.56171579E-15 -6.94112294E-16 -3.05363156E-16 -6.11078193E-16 -1.14433680E-01
  1.54332998E-01  3.10133359E-01  1.67572123E-15  3.42321786E-15 -4.03567205E-02
  2.56589978E-15  1.84808640E-15  1.94410568E-02  2.87034817E-02  3.61515817E-16
 -1.50150387E-15 -1.75987399E-16 -1.09168160E-16  1.67063298E-02 -7.90320406E-02
  2.91945791E-01 -9.68498892E-16 -6.93990775E-16 -2.76979777E-01  6.00193986E-16
 -9.11277213E-16 -6.67611821E-03 -2.45356741E-02  1.87767685E-16  1.79926397E-16
 -5.13171395E-17 -2.09695212E-16 -1.05074323E-01  1.89902703E-01  4.11632315E-01
  1.53029365E-16 -6.48849080E-16  4.30116987E-01  5.58758887E-16  4.60373950E-18
  3.96802030E-01  1.77916920E-02  1.20065949E-15 -5.16534384E-16  2.92625421E-17
 -7.85772958E-16  8.63260627E-17 -1.31827893E-16  1.42349840E-14  7.11264212E-02
 -3.12835480E-01  1.29726017E-16  1.73830413E-01 -7.64558653E-01  8.64471501E-15
  6.77229958E-16 -3.80290225E-03  1.67263126E-02 -3.31349088E-16  3.68899466E-16
 -9.48240903E-17  2.70923715E-16 -1.54461589E-14 -9.01921910E-02  3.96692494E-01
  4.30434620E-16 -2.26661015E-01  9.96923597E-01  7.43888728E-15  2.18478521E-16
  1.44156131E-03 -6.34042198E-03  3.52092550E-16 -4.12724769E-16 -6.37663730E-18
  1.30013387E-16 -4.59500861E-15 -3.12835480E-01 -7.11264212E-02 -1.50022192E-16
 -7.64558653E-01 -1.73830413E-01 -2.38971018E-15 -9.69754626E-17  1.67263126E-02
  3.80290225E-03 -4.80102749E-16  4.86408594E-16  9.58904664E-17 -5.96901712E-17
  4.13283146E-15  3.96692494E-01  9.01921910E-02 -4.34631170E-16  9.96923597E-01
  2.26661015E-01 -2.78923827E-15  2.21805520E-16 -6.34042198E-03 -1.44156131E-03
  6.09306874E-16 -5.30433580E-16  7.80669226E-02 -1.78386100E-01 -7.07119232E+00
 -4.01049681E-15 -5.88963057E-15  5.03357501E-02  6.88870575E-15  6.49943265E-15
 -3.63628883E+00 -6.41001767E-02  3.00508229E-16 -4.37879976E-17 -2.41312977E-17
 -3.00139191E-16 -9.81296721E-02  1.26458427E-01  7.24059341E+00 -1.63811860E-15
  9.04117276E-16  4.94939477E-02 -3.15324669E-15  1.71202333E-15 -3.55223256E+00
  7.34860974E-02  6.84300646E-16  8.83863453E-16 -8.59426413E-17 -1.20861602E-16
  1.32649939E-02  3.50778801E-01  2.97672246E-01  1.61024577E-16  5.98817308E-16
  3.72509804E-01 -6.29898653E-16 -2.64297255E-15 -1.03087324E+00  1.21265254E-02
  7.04710640E-17 -2.03598801E-17  3.05081945E-17 -1.68849616E-16  3.85815756E-02
  3.00879782E-01 -2.58154691E-01 -1.26817071E-16  4.09315919E-16 -3.86905599E-01
  2.82807673E-16 -8.31388338E-17  1.23027959E+00  3.01792520E-03 -4.32561048E-17
 -3.06661826E-16  6.82110340E-17 -1.59439369E-17 -6.70525552E-16  5.96207648E-15
  3.99041451E-14 -3.29249750E-01 -5.66063845E-01 -1.04705393E-15  4.67622227E-01
  8.03961235E-01  2.25456362E-14  2.97521990E-16 -3.82781016E-02 -6.58097671E-02
 -4.35452216E-16  1.79058233E-16  8.00944329E-16 -3.88461600E-15 -4.17094573E-14
 -2.31299316E-01 -3.97662201E-01 -2.99029349E-15  1.37876115E-01  2.37044017E-01
  2.60589714E-14 -3.02166103E-16  5.45158367E-02  9.37265529E-02 -2.37702335E-16
  3.04895314E-17  7.50132496E-17  7.95281169E-17 -3.45612231E-15  5.66063845E-01
 -3.29249750E-01  5.28834610E-16 -8.03961235E-01  4.67622227E-01 -2.43908888E-15
  1.85992880E-16  6.58097671E-02 -3.82781016E-02 -7.34520057E-16 -4.95063147E-16
 -1.81635086E-16  1.05235662E-15  3.26165509E-15  3.97662201E-01 -2.31299316E-01
  7.93909725E-16 -2.37044017E-01  1.37876115E-01 -8.58917306E-16  2.98972371E-16
 -9.37265529E-02  5.45158367E-02 -5.04864065E-16  9.14184941E-18  2.41308865E-02
 -1.08094232E+00  1.83589200E+00  2.36430417E-15  6.19051101E-16  3.31072602E-01
 -3.59090598E-15 -2.53265884E-15  2.31991943E-01 -4.05720760E-02 -8.45125275E-16
 -4.72592875E-16  1.38556430E-17 -2.04523934E-16  4.96369159E-02 -9.83734400E-01
 -3.74555936E-02 -2.45612383E-15 -1.93627891E-15 -3.03090989E-01  4.63897104E-15
  3.84510897E-15  5.04909440E-01 -5.09860755E-02 -6.25429779E-16  2.69181557E-16
  4.85378907E-17 -8.37451174E-17  2.50535225E-17 -4.40369672E-15  1.77823037E-14
  1.79896684E-01  5.30677375E-01  1.61368733E-15 -3.82088190E-01 -1.12712227E+00
  2.81148349E-15  2.64731350E-16 -6.91238017E-02 -2.03908359E-01  4.04474276E-16
  1.02711486E-15 -4.91093425E-16  1.20120295E-14 -2.34849883E-14 -2.78686877E-01
 -8.22098645E-01  5.02279359E-15  4.33475882E-01  1.27871086E+00  1.24825033E-15
 -3.17662680E-16 -4.30483211E-02 -1.26988277E-01 -3.56160076E-16 -4.31454578E-16
  1.09235834E-17  2.12969317E-15 -1.12997550E-14  5.30677375E-01 -1.79896684E-01
 -1.23085697E-15 -1.12712227E+00  3.82088190E-01 -4.11290544E-15  2.22249410E-16
 -2.03908359E-01  6.91238017E-02 -3.23742967E-16 -1.85581451E-16 -2.85170826E-16
  3.02681722E-15  7.11803450E-15 -8.22098645E-01  2.78686877E-01  8.76422688E-16
  1.27871086E+00 -4.33475882E-01 -4.79288268E-15  1.95186524E-16 -1.26988277E-01
  4.30483211E-02  2.32284272E-16  1.52253000E-16 -5.81304922E-02 -7.49787282E-01
  5.76076217E+00 -2.47518108E-15 -6.17455829E-15  5.75689416E-01  5.22275688E-15
  1.19060784E-14  1.93604044E+00 -2.16395964E-01  5.66836867E-17  1.81912289E-15
  4.43988625E-17  1.24097292E-15  6.42533227E-02  8.51970660E-01 -5.85801311E+00
  1.62169081E-15  3.67175867E-15  6.56210382E-01 -2.05192140E-15 -8.93770744E-15
  1.91548884E+00  2.10170576E-01  9.47501567E-16  1.31682597E-15  5.23324763E-17
  4.86110714E-16  1.97206087E-17  6.31011715E-16 -9.80039181E-15  7.86278670E-16
 -6.54507308E-16 -2.72280471E-16 -8.59212028E-16  1.78856447E-15 -3.78268939E-15
 -3.46158988E-16 -4.59657663E-16 -5.76703325E-16  6.48955758E-01  2.28224661E-01
 -1.12369755E-16 -7.44737819E-16  1.00179855E-14  2.80574388E-16  2.62396873E-16
 -4.27315278E-16  5.14608093E-16 -7.69671795E-16 -3.51615805E-15  2.48652685E-16
 -1.15927596E-15  7.00660810E-16  5.13951521E-01  1.80746392E-01 -5.82772894E-17
 -6.22237154E-16  8.19992953E-15 -5.29782093E-16 -3.39961891E-16  5.53258362E-16
 -6.08067602E-18  3.29410342E-17  3.55835573E-15 -3.83029174E-16 -6.87807576E-16
  1.52362519E-16  2.28224661E-01 -6.48955758E-01  2.13091774E-16  8.82858148E-16
 -9.25571200E-15 -4.30743108E-16 -5.02527112E-16  7.72689760E-16 -2.33347131E-16
 -4.69882172E-17  2.18338625E-15  4.70023361E-16  8.93423856E-16  1.41468190E-15
  1.80746392E-01 -5.13951521E-01  3.27178127E-02 -1.06283638E+00  8.28468187E+00
  5.83485286E-16 -5.73774652E-15 -1.77618706E-01  4.02020202E-15  1.09055835E-14
  3.30752849E+00  5.29320812E-01 -4.48533315E-15  4.77694474E-15  2.35106905E-16
  9.43485611E-16 -6.58871773E-02  1.12268766E+00 -8.27477280E+00  5.44349656E-15
  1.26700600E-16 -1.65561781E-01 -2.23429949E-15 -6.92757593E-15  3.26438366E+00
 -4.72024262E-01  4.14816909E-15 -7.22974179E-16  4.75844322E-16 -1.10233422E-15
  2.99875165E-17 -1.01311613E-14  8.63934927E-14 -2.85588961E-01  1.84915952E-01
 -1.65622999E-15  8.29715598E-02 -5.37232425E-02  3.45526447E-14  4.65007379E-15
  5.32772102E-01 -3.44964526E-01 -1.30835372E-15 -3.87386644E-16 -5.11019377E-16
  1.12012543E-14 -8.58418232E-14 -3.44637014E-01  2.23148967E-01 -3.38525067E-16
  1.01634784E-01 -6.58074905E-02  3.40600029E-14 -3.91532698E-15 -5.06750155E-01
  3.28115580E-01  1.65860338E-16 -5.47935403E-16  1.06380804E-16  2.47020768E-16
  1.32286933E-15  1.84915952E-01  2.85588961E-01 -3.77094993E-16 -5.37232425E-02
 -8.29715598E-02  2.17661074E-16 -2.52736252E-16 -3.44964526E-01 -5.32772102E-01
  1.55150998E-14  1.09862367E-14  1.75088194E-16  8.90700253E-16 -1.84790785E-15
  2.23148967E-01  3.44637014E-01 -1.20529500E-17 -6.58074905E-02 -1.01634784E-01
  9.38160053E-16 -1.28770346E-16  3.28115580E-01  5.06750155E-01 -1.87334077E-14
 -1.08252521E-14 -4.14979059E-16 -1.90618077E-15 -7.80324691E-15 -3.86704733E-15
 -7.52591947E-15 -4.45832510E-16  1.36636785E-15  5.02985897E-15 -1.29010231E-15
  3.00001789E-15  1.10418547E-14  1.49202237E-14  6.54968889E-01  4.49088184E-01
 -4.46049671E-16 -4.45026407E-15  1.01968579E-14 -6.95050411E-15 -8.17010302E-15
  8.09459056E-16  9.97693430E-16 -1.24297130E-15 -5.91257926E-15  3.33153307E-15
 -5.63944151E-15 -9.28722873E-15 -7.40934038E-01 -5.08031340E-01 -7.31824532E-17
 -2.23582858E-15  1.61037390E-14 -1.20369066E-15  9.51454170E-16 -5.89377394E-16
 -1.74850282E-15 -2.75164604E-16  6.60895078E-15  6.49469299E-16 -7.59526980E-16
  2.11391754E-15  4.49088184E-01 -6.54968889E-01 -3.45109586E-17  2.00955961E-15
 -1.58475592E-14 -3.46830811E-16 -1.43953930E-15  5.61614383E-17  1.79187451E-15
  9.65027805E-16  6.23236029E-15 -1.75215306E-16 -1.89754484E-15  1.46030951E-15
 -5.08031340E-01  7.40934038E-01  1.83012486E-01  8.81814101E-01 -3.13368613E-01
 -1.42802092E-15 -5.61299084E-15  2.05413391E-01 -1.67417153E-15 -3.78969133E-15
 -7.21401933E-01 -1.02228958E+00 -2.53416133E-15 -1.07789037E-14  2.10963638E-15
  1.11165735E-15  1.70145611E-01  9.71242674E-01 -5.22159148E-01  1.05667086E-15
  6.09757851E-15 -2.11623651E-01  1.25962360E-15  4.14886762E-15  8.21574653E-01
 -1.03901383E+00 -2.16498970E-15 -1.12089768E-14 -2.42046384E-15 -1.53500913E-15
  2.04777897E-15  1.36440039E-14 -1.01765423E-14  2.17973420E-01  6.09503995E-01
  5.98294195E-15  2.02252083E-01  5.65543507E-01 -8.77298774E-15 -6.84459143E-15
  4.50384646E-01  1.25937943E+00 -2.48847605E-15  5.29414836E-16  1.17132711E-15
  3.81611436E-15  1.62912495E-15 -2.26588375E-01 -6.33593397E-01  2.01476427E-15
 -2.02393033E-01 -5.65937636E-01  5.15053362E-15 -1.15711785E-14  4.58278993E-01
  1.28145384E+00  2.94838033E-15  9.72835639E-16 -6.09834146E-16 -4.94863810E-15
  1.14407445E-14  6.09503995E-01 -2.17973420E-01 -2.91934518E-15  5.65543507E-01
 -2.02252083E-01  5.18462876E-15  1.17935479E-16  1.25937943E+00 -4.50384646E-01
  5.94381961E-16 -1.34154110E-15  1.10028986E-16  1.54144805E-15 -9.66087149E-15
 -6.33593397E-01  2.26588375E-01 -2.44973321E-15 -5.65937636E-01  2.02393033E-01
  2.78933767E-15  2.43742402E-15  1.28145384E+00 -4.58278993E-01  8.36135926E-16
  1.75998132E-15  1.30456737E-01  1.68212185E+00  2.74522014E+00  7.67978846E-16
 -2.78384329E-15  1.70461781E+00  6.54376950E-16 -6.18148353E-16  1.20680643E+00
  1.12174163E+00  1.00165729E-15 -4.69125170E-15  7.11785710E-17 -2.30793225E-16
 -1.26539317E-01 -1.68245577E+00 -2.73698296E+00 -1.65235211E-16  2.68872704E-15
  1.74079086E+00  4.80879080E-17  8.80872074E-16  1.21412180E+00 -1.13354631E+00
  8.58268922E-16 -4.47327134E-15  9.68054251E-17  3.77929388E-16
Beta MO coefficients                       R   N=         784
  1.00223789E-01 -4.23988605E-03  1.29967335E-02  5.82198160E-18  5.69426314E-17
 -2.97418715E-03 -1.05216333E-16 -6.95944635E-17  3.97821118E-03  4.04733696E-05
 -1.50891883E-16 -1.79061165E-17  2.10854544E-17  2.32217277E-17  9.90973639E-01
  2.65169645E-02 -1.85949608E-02  7.99522126E-17  2.49614081E-16 -6.50584111E-03
 -3.34718246E-16 -6.14154744E-17  5.00973464E-03  1.35359186E-03  8.95080265E-17
  2.89970223E-17  6.73489108E-17  4.42987364E-17 -9.92289822E-01 -9.61107180E-03
 -3.23735424E-03  2.30701414E-17 -5.86448731E-18 -3.59097339E-03 -1.84676751E-16
  1.03542123E-16 -5.37047683E-04 -3.37178748E-03  1.14270283E-16  6.56538074E-17
  6.94857179E-17  5.10916031E-17  1.03469677E-01  3.55443353E-03  1.05935617E-03
 -3.67143818E-18 -1.63401723E-16  5.73131339E-04 -1.48539006E-16 -1.06842073E-16
 -5.84123666E-04 -5.76081279E-04  1.08147915E-16 -1.05892782E-16  2.44445758E-17
  3.43512263E-17 -1.63803673E-01  2.09036522E-01  1.03003525E-01 -2.40977987E-16
  2.90195185E-16  2.19492519E-01  1.93451326E-16  9.66091258E-16  5.14335032E-03
  5.14847658E-02 -1.05782302E-17  1.87314431E-16 -5.12510134E-16 -2.03157872E-16
 -2.03375294E-01  4.39312217E-01  1.89578255E-01  3.58231168E-17  1.17797003E-17
 -3.02565047E-01  6.78397056E-17  2.50498009E-18 -4.85597563E-02  1.41693816E-02
 -3.02016020E-16  8.45904483E-17  6.31864001E-16  2.07611233E-16  4.20281615E-16
  4.12360676E-15 -2.86410234E-14 -2.19208732E-01  2.91384045E-03  3.63664908E-16
 -1.23309425E-01  1.63909524E-03 -1.40556280E-14 -1.93999320E-15 -3.64897192E-02
  4.85040987E-04 -1.45810230E-16 -5.53657336E-16 -1.16486278E-16  1.98445006E-15
  2.54478381E-14 -6.47675930E-01  8.60925706E-03  3.83695918E-16 -2.60453268E-01
  3.46208502E-03 -1.02020895E-14 -1.18933689E-15  5.94285423E-02 -7.89956170E-04
 -7.41639743E-16 -1.43304418E-15 -9.86195797E-16  8.32356707E-16  1.58897961E-15
  2.91384045E-03  2.19208732E-01 -2.59231565E-15  1.63909524E-03  1.23309425E-01
 -3.37249906E-15 -1.50742059E-16  4.85040987E-04  3.64897192E-02 -1.75562760E-16
 -7.14331873E-17  8.12998026E-16 -1.40002682E-15  3.84871919E-16  8.60925706E-03
  6.47675930E-01 -6.09716333E-16  3.46208502E-03  2.60453268E-01 -2.63682674E-15
 -2.05200695E-16 -7.89956170E-04 -5.94285423E-02 -1.37081050E-16  1.66516780E-15
  1.14433680E-01 -1.54332998E-01 -3.10133359E-01  4.77621980E-16  7.54931231E-16
 -4.03567205E-02 -8.33508734E-16  2.00901049E-15  1.94410568E-02 -2.87034817E-02
 -1.01986322E-15  7.67884618E-16 -1.66368235E-16  1.38894399E-16 -1.28351746E-01
  3.40588464E-01  5.32357878E-01  7.38619465E-16  3.17582934E-15  5.30944698E-01
  1.98094126E-16  3.63862940E-16  1.13050957E-01 -7.85620569E-02 -1.70971780E-15
  1.06988307E-15  4.78512152E-16  1.18735419E-15  1.05074323E-01 -1.89902703E-01
 -4.11632315E-01 -2.14428456E-16  5.38670951E-16  4.30116987E-01  6.06167425E-16
  1.71778249E-15  3.96802030E-01 -1.77916920E-02 -9.22381655E-16  1.46866191E-15
 -1.75448619E-16  2.23249700E-16 -1.67063298E-02  7.90320406E-02 -2.91945791E-01
  7.61977232E-16  3.25690233E-15 -2.76979777E-01 -1.24389773E-15  9.10126037E-16
 -6.67611821E-03  2.45356741E-02 -1.42393862E-16  5.10878760E-16  8.01220925E-17
 -9.49775258E-17  7.20955048E-17  2.37841971E-16  8.14202933E-15 -3.97360932E-01
  8.72000874E-02  2.43517212E-16 -9.98603443E-01  2.19141592E-01  4.15430687E-15
  2.32967416E-16 -6.35110578E-03  1.39373787E-03 -1.79383344E-16 -2.23023578E-18
 -5.80076989E-17  5.64185301E-17 -8.13517942E-15  3.13362617E-01 -6.87668198E-02
  6.82231556E-17  7.65846957E-01 -1.68063632E-01  4.91100846E-15 -1.63641303E-16
  1.67544969E-02 -3.67674191E-03 -1.23442354E-17  3.02649494E-17  4.01149252E-17
 -2.19533985E-16  1.62244716E-14 -8.72000874E-02 -3.97360932E-01  3.96880017E-17
 -2.19141592E-01 -9.98603443E-01  6.13620145E-15 -6.50662719E-16 -1.39373787E-03
 -6.35110578E-03  3.07459557E-17  5.76606447E-16  1.09567698E-16  2.70136547E-15
 -1.67169883E-14  6.87668198E-02  3.13362617E-01 -7.12838842E-17  1.68063632E-01
  7.65846957E-01  7.34863336E-15 -2.26298209E-15  3.67674191E-03  1.67544969E-02
  2.14767647E-16 -3.46056936E-16  9.81296721E-02 -1.26458427E-01 -7.24059341E+00
 -2.93626872E-15 -4.90151880E-15  4.94939477E-02 -1.25787055E-15  3.88192519E-15
 -3.55223256E+00 -7.34860974E-02 -1.00465553E-16  2.68100412E-17  1.28576452E-16
 -8.87869112E-17 -7.80669226E-02  1.78386100E-01  7.07119232E+00 -1.12798220E-15
  7.42226299E-16  5.03357501E-02  3.63738063E-15 -1.53738532E-15 -3.63628883E+00
  6.41001767E-02  2.96132386E-16  9.42186174E-16  7.68313650E-17  1.29737226E-16
 -3.85815756E-02 -3.00879782E-01  2.58154691E-01 -1.43135024E-15  1.99483052E-15
 -3.86905599E-01  1.86462143E-16 -1.28761663E-16  1.23027959E+00 -3.01792520E-03
 -4.54652704E-16  5.48294789E-16 -2.15680352E-16 -1.51473215E-16 -1.32649939E-02
 -3.50778801E-01 -2.97672246E-01 -2.69289112E-15  3.04409776E-15  3.72509804E-01
  3.15155037E-15 -5.90711980E-15 -1.03087324E+00 -1.21265254E-02  1.21186940E-16
 -1.30279884E-16 -1.78325183E-16 -5.12469383E-17  2.74161588E-16 -1.95317893E-15
 -1.54262927E-14  4.11280233E-01  2.06114457E-01  5.86876083E-16 -2.45161644E-01
 -1.22863573E-01 -8.91126657E-15 -8.63663890E-17  9.69362400E-02  4.85799192E-02
 -1.04804712E-16  3.37000880E-16 -4.34008639E-16  3.11043346E-15  1.37514842E-14
  5.85448829E-01  2.93399629E-01  1.00311219E-15 -8.31493070E-01 -4.16705519E-01
 -1.05325359E-14  7.10710137E-17 -6.80634375E-02 -3.41102182E-02 -9.66900867E-17
  5.45378694E-16 -4.03310143E-16 -1.33469182E-15  4.84542030E-15  2.06114457E-01
 -4.11280233E-01 -2.76285885E-15 -1.22863573E-01  2.45161644E-01  8.87709002E-15
  5.82306810E-17  4.85799192E-02 -9.69362400E-02 -5.99769226E-17  9.54801100E-17
  1.65442433E-16 -3.05474925E-15 -4.66494657E-15  2.93399629E-01 -5.85448829E-01
  1.83271183E-15 -4.16705519E-01  8.31493070E-01 -4.37145385E-15  2.40710633E-17
 -3.41102182E-02  6.80634375E-02 -1.63380382E-16 -3.88711309E-16 -4.96369159E-02
  9.83734400E-01  3.74555936E-02 -1.02216901E-15  5.87871239E-15 -3.03090989E-01
  2.35400562E-15 -9.10070752E-15  5.04909440E-01  5.09860755E-02  2.54696161E-16
 -1.30674412E-15 -1.89399106E-17  1.83785169E-16 -2.41308865E-02  1.08094232E+00
 -1.83589200E+00  1.31386361E-15 -4.06762459E-15  3.31072602E-01 -8.38939417E-16
  8.34073516E-15  2.31991943E-01  4.05720760E-02  2.48859508E-16 -1.54703187E-15
  3.41120972E-17  1.87061189E-16  8.30287830E-16 -1.49060220E-14  2.45055857E-14
  5.10561985E-01  7.02024940E-01  5.61436236E-15 -7.94139679E-01 -1.09194550E+00
  1.53699943E-15 -2.86635192E-16 -7.88657023E-02 -1.08440682E-01  4.58662712E-16
  4.84592260E-16 -1.78174170E-16  4.02027191E-15 -1.62832177E-14 -3.29575648E-01
 -4.53167943E-01  1.86759539E-15  6.99996022E-01  9.62497561E-01  2.07414422E-15
 -6.42943974E-16 -1.26636696E-01 -1.74126006E-01  2.65006254E-16 -5.83246118E-16
  6.26701678E-16 -8.62041465E-15  1.22017683E-16 -7.02024940E-01  5.10561985E-01
  2.84208261E-15  1.09194550E+00 -7.94139679E-01 -4.58598610E-15 -3.73955937E-16