tilte
SP        UHF                                                         Gen
Number of atoms                            I                2
Info1-9                                    I   N=           9
          12          12           0           0           0         110
           1           1           2
Charge                                     I                0
Multiplicity                               I                1
Number of electrons                        I               14
Number of alpha electrons                  I                7
Number of beta electrons                   I                7
Number of basis functions                  I               28
Number of independent functions            I               28
Number of point charges in /Mol/           I                0
Number of translation vectors              I                0
Atomic numbers                             I   N=           2
           7           7
Nuclear charges                            R   N=           2
  7.00000000E+00  7.00000000E+00
Current cartesian coordinates              R   N=           6
  0.00000000E+00  0.00000000E+00  0.00000000E+00  0.00000000E+00  0.00000000E+00
  1.70075352E+00
Force Field                                I                0
Int Atom Types                             I   N=           2
           0           0
MM charges                                 R   N=           2
  0.00000000E+00  0.00000000E+00
Integer atomic weights                     I   N=           2
          14          14
Real atomic weights                        R   N=           2
  1.40030740E+01  1.40030740E+01
Atom fragment info                         I   N=           2
           0           0
Atom residue num                           I   N=           2
           0           0
Nuclear spins                              I   N=           2
           2           2
Nuclear ZEff                               R   N=           2
 -4.55000000E+00 -4.55000000E+00
Nuclear QMom                               R   N=           2
  2.04400000E+00  2.04400000E+00
Nuclear GFac                               R   N=           2
  4.03761000E-01  4.03761000E-01
MicOpt                                     I   N=           2
          -1          -1
Number of contracted shells                I               12
Number of primitive shells                 I               40
Pure/Cartesian d shells                    I                0
Pure/Cartesian f shells                    I                0
Highest angular momentum                   I                2
Largest degree of contraction              I                7
Shell types                                I   N=          12
           0           0           0           1           1          -2
           0           0           0           1           1          -2
Number of primitives per shell             I   N=          12
           7           7           1           3           1           1
           7           7           1           3           1           1
Shell to atom map                          I   N=          12
           1           1           1           1           1           1
           2           2           2           2           2           2
Primitive exponents                        R   N=          40
  9.04600000E+03  1.35700000E+03  3.09300000E+02  8.77300000E+01  2.85600000E+01
  1.02100000E+01  3.83800000E+00  9.04600000E+03  3.09300000E+02  8.77300000E+01
  2.85600000E+01  1.02100000E+01  3.83800000E+00  7.46600000E-01  2.24800000E-01
  1.35500000E+01  2.91700000E+00  7.97300000E-01  2.18500000E-01  8.17000000E-01
  9.04600000E+03  1.35700000E+03  3.09300000E+02  8.77300000E+01  2.85600000E+01
  1.02100000E+01  3.83800000E+00  9.04600000E+03  3.09300000E+02  8.77300000E+01
  2.85600000E+01  1.02100000E+01  3.83800000E+00  7.46600000E-01  2.24800000E-01
  1.35500000E+01  2.91700000E+00  7.97300000E-01  2.18500000E-01  8.17000000E-01
Contraction coefficients                   R   N=          40
  7.01708742E-04  5.40299879E-03  2.74729510E-02  1.03514580E-01  2.79586579E-01
  4.51317240E-01  2.80626875E-01  7.77446800E-06  3.00742073E-04 -2.80016550E-03
 -9.89708509E-03 -1.14331115E-01 -1.18162384E-01  1.09786885E+00  1.00000000E+00
  5.89056768E-02  3.20461107E-01  7.53042062E-01  1.00000000E+00  1.00000000E+00
  7.01708742E-04  5.40299879E-03  2.74729510E-02  1.03514580E-01  2.79586579E-01
  4.51317240E-01  2.80626875E-01  7.77446800E-06  3.00742073E-04 -2.80016550E-03
 -9.89708509E-03 -1.14331115E-01 -1.18162384E-01  1.09786885E+00  1.00000000E+00
  5.89056768E-02  3.20461107E-01  7.53042062E-01  1.00000000E+00  1.00000000E+00
Coordinates of each shell                  R   N=          36
  0.00000000E+00  0.00000000E+00  0.00000000E+00  0.00000000E+00  0.00000000E+00
  0.00000000E+00  0.00000000E+00  0.00000000E+00  0.00000000E+00  0.00000000E+00
  0.00000000E+00  0.00000000E+00  0.00000000E+00  0.00000000E+00  0.00000000E+00
  0.00000000E+00  0.00000000E+00  0.00000000E+00  0.00000000E+00  0.00000000E+00
  1.70075352E+00  0.00000000E+00  0.00000000E+00  1.70075352E+00  0.00000000E+00
  0.00000000E+00  1.70075352E+00  0.00000000E+00  0.00000000E+00  1.70075352E+00
  0.00000000E+00  0.00000000E+00  1.70075352E+00  0.00000000E+00  0.00000000E+00
  1.70075352E+00
Constraint Structure                       R   N=           6
  0.00000000E+00  0.00000000E+00  0.00000000E+00  0.00000000E+00  0.00000000E+00
  1.70075352E+00
Num ILSW                                   I              100
ILSW                                       I   N=         100
           1           0           0           0           2           0
           0           0           0           0           0          -1
           0           0           0           0           0           0
           0           0           0           0           0           0
           1           1           0           0           0           0
           0           0      100000           0          -1           0
           0           0           0           0           0           0
           0           0           0           1           0           0
           0           0           1           0           0           0
           0           0           4          40           0           0
           0           0           0           0           0           0
           0           0           0           0           0           0
           0           0           0           0           0           0
           0           0           0           0           0           0
           0           0           0           0           0           0
           0           0           0           0           0           0
           0           0           0           0
Num RLSW                                   I               40
RLSW                                       R   N=          40
  1.00000000E+00  1.00000000E+00  1.00000000E+00  1.00000000E+00  1.00000000E+00
  0.00000000E+00  0.00000000E+00  1.00000000E+00  0.00000000E+00  0.00000000E+00
  0.00000000E+00  0.00000000E+00  1.00000000E+00  0.00000000E+00  0.00000000E+00
  0.00000000E+00  0.00000000E+00  1.00000000E+00  0.00000000E+00  0.00000000E+00
  0.00000000E+00  0.00000000E+00  1.00000000E+00  0.00000000E+00  0.00000000E+00
  0.00000000E+00  0.00000000E+00  1.00000000E+00  0.00000000E+00  0.00000000E+00
  0.00000000E+00  0.00000000E+00  1.00000000E+00  0.00000000E+00  0.00000000E+00
  0.00000000E+00  0.00000000E+00  0.00000000E+00  1.00000000E+00  1.00000000E+00
MxBond                                     I                1
NBond                                      I   N=           2
           1           1
IBond                                      I   N=           2
           2           1
RBond                                      R   N=           2
  3.00000000E+00  3.00000000E+00
Virial Ratio                               R      1.981250877002993E+00
SCF Energy                                 R     -1.087199534626113E+02
Total Energy                               R     -1.087199534626113E+02
S**2                                       R      2.122925609081880E-01
S**2 after annihilation                    R      5.264310044335888E-02
RMS Density                                R      4.697050972527333E-03
External E-field                           R   N=          35
  0.00000000E+00  0.00000000E+00  0.00000000E+00  0.00000000E+00  0.00000000E+00
  0.00000000E+00  0.00000000E+00  0.00000000E+00  0.00000000E+00  0.00000000E+00
  0.00000000E+00  0.00000000E+00  0.00000000E+00  0.00000000E+00  0.00000000E+00
  0.00000000E+00  0.00000000E+00  0.00000000E+00  0.00000000E+00  0.00000000E+00
  0.00000000E+00  0.00000000E+00  0.00000000E+00  0.00000000E+00  0.00000000E+00
  0.00000000E+00  0.00000000E+00  0.00000000E+00  0.00000000E+00  0.00000000E+00
  0.00000000E+00  0.00000000E+00  0.00000000E+00  0.00000000E+00  0.00000000E+00
IOpCl                                      I                1
IROHF                                      I                0
Alpha Orbital Energies                     R   N=          28
  9.99999594E-01  9.99999393E-01  9.99439284E-01  9.98360357E-01  9.98163484E-01
  9.85848798E-01  9.85848798E-01  1.41512020E-02  1.41512020E-02  1.83651562E-03
  1.63964267E-03  5.60716415E-04  6.07035893E-07  4.05966980E-07  1.37248172E-16
  6.26750832E-17  4.04574105E-17  1.51715803E-17  6.53626149E-18  2.48230252E-18
  1.06524012E-18  2.54151522E-19 -2.76186185E-19 -1.54933897E-17 -6.47456897E-17
 -7.66734478E-17 -1.52579278E-16 -1.88880068E-16
Beta Orbital Energies                      R   N=          28
  9.99999594E-01  9.99999393E-01  9.99439284E-01  9.98360357E-01  9.98163484E-01
  9.85848798E-01  9.85848798E-01  1.41512020E-02  1.41512020E-02  1.83651562E-03
  1.63964267E-03  5.60716415E-04  6.07035893E-07  4.05966980E-07  1.37248172E-16
  6.26750832E-17  4.04574105E-17  1.51715803E-17  6.53626149E-18  2.48230252E-18
  1.06524012E-18  2.54151522E-19 -2.76186185E-19 -1.54933897E-17 -6.47456897E-17
 -7.66734478E-17 -1.52579278E-16 -1.88880068E-16
Alpha MO coefficients                      R   N=         784
  7.11819842E-01 -5.13264027E-03 -1.02177029E-02  3.21059569E-16  9.68983610E-16
 -7.85497873E-03  1.91844816E-16  3.49769107E-16 -6.59340861E-04  2.55628261E-04
 -2.05838458E-16  9.07979903E-17  5.67891338E-17 -4.36727785E-18  7.11819851E-01
 -5.13264016E-03 -1.02177031E-02  4.45205173E-16  1.29707987E-15  7.85497861E-03
 -3.01764793E-16  5.56509893E-16  6.59340852E-04  2.55628284E-04  1.82790829E-16
 -3.42818178E-16  6.11714533E-17 -5.30170084E-18 -7.08801444E-01 -8.54432847E-03
  1.66858715E-02 -2.05284603E-14  2.81417859E-15 -9.23132919E-03 -9.02755634E-15
  1.18505322E-15 -7.18477059E-04 -1.79883363E-03 -2.26940593E-15  3.56935192E-16
 -4.16476304E-17 -1.15919325E-16  7.08801435E-01  8.54432853E-03 -1.66858713E-02
 -2.03139160E-14  2.93884368E-15 -9.23132929E-03 -9.39239379E-15  1.48224451E-15
 -7.18477067E-04  1.79883363E-03  2.17564269E-15 -5.74184454E-16 -4.94809444E-17
 -1.34972643E-16 -7.38610254E-02  1.45720259E-01 -1.61468866E-01  1.10231870E-14
 -2.15455354E-15  5.12001950E-01  4.83193755E-15  8.07328123E-17  1.60050082E-01
  4.71644260E-02  1.35464627E-15 -6.56211073E-17 -4.01967593E-17 -1.01416323E-16
 -7.38610254E-02  1.45720259E-01 -1.61468866E-01  1.06630652E-14 -2.51921486E-15
 -5.12001950E-01  4.16413838E-15 -1.61589460E-15 -1.60050082E-01  4.71644260E-02
 -1.02402200E-15  3.63082316E-16 -1.27672910E-17 -6.63185829E-17 -1.22406597E-01
  2.91560199E-01  3.95829436E-01  3.30616380E-14  1.33960051E-14 -2.46813849E-01
  1.51330784E-14  5.21112606E-15 -1.56241945E-01 -1.18886883E-02  3.53405286E-15
  1.03088652E-15 -1.11699484E-16  1.48065242E-16  1.22406597E-01 -2.91560199E-01
 -3.95829436E-01  3.21163605E-14  1.34648398E-14 -2.46813849E-01  1.34197605E-14
  5.88420752E-15 -1.56241945E-01  1.18886883E-02 -3.69577992E-15 -1.11138044E-15
 -5.40407748E-16 -2.64966491E-16  1.37856997E-01 -3.01835733E-01 -3.57092841E-01
  8.42591019E-15 -4.54954193E-15  1.09955732E-01  3.89949279E-15 -1.48699129E-15
  1.17958882E-01 -6.07684665E-03  8.90023298E-16 -5.37248085E-16  6.20261133E-17
 -5.62615039E-18  1.37856997E-01 -3.01835733E-01 -3.57092841E-01  8.38705552E-15
 -4.19677654E-15 -1.09955732E-01  2.92833718E-15 -2.05529796E-15 -1.17958882E-01
 -6.07684665E-03 -7.18020345E-16  4.20698189E-16 -7.51539787E-18  8.43729749E-19
  2.49949964E-14  2.31121947E-14 -8.00583528E-14 -4.50346956E-01  3.94660665E-02
 -6.04990958E-15 -1.99364885E-01  1.74713023E-02 -4.58533728E-14 -3.87025397E-15
 -4.98295783E-02  4.36680524E-03 -6.77337243E-16  4.50800281E-17 -2.31186051E-14
 -2.63550579E-14  5.87460539E-14 -4.50346956E-01  3.94660665E-02 -3.47256485E-14
 -1.99364885E-01  1.74713023E-02 -5.63733948E-14  4.82886409E-15  4.98295783E-02
 -4.36680524E-03 -3.73769731E-16 -1.51741819E-16 -5.18445925E-15  1.20660340E-14
  1.73526683E-14 -3.94660665E-02 -4.50346956E-01 -1.13140595E-14 -1.74713023E-02
 -1.99364885E-01 -7.11336546E-15 -9.12566662E-16 -4.36680524E-03 -4.98295783E-02
 -3.06798194E-16  4.62258766E-16  7.12375723E-15 -7.25828734E-15 -1.15150085E-14
 -3.94660665E-02 -4.50346956E-01 -7.11528709E-15 -1.74713023E-02 -1.99364885E-01
 -3.54070211E-15  4.08178020E-16  4.36680524E-03  4.98295783E-02  3.36453465E-16
  2.65562044E-16 -3.09731589E-15 -5.77164906E-14  2.77720995E-13 -1.80443299E-01
 -7.32964836E-01 -1.17481902E-14 -5.77563222E-02 -2.34607511E-01  1.10982642E-13
 -1.09975653E-14 -9.66038403E-03 -3.92407023E-02 -7.12766185E-16  6.30971607E-16
  2.47004836E-15  5.77171773E-14 -2.81547222E-13  1.80443299E-01  7.32964836E-01
 -6.32823248E-15  5.77563222E-02  2.34607511E-01  9.61469933E-14  1.09295603E-14
 -9.66038403E-03 -3.92407023E-02  2.23712970E-15  6.48034377E-15  2.00628159E-15
  2.92475848E-15  7.58067088E-14 -7.32964836E-01  1.80443299E-01  1.47888275E-14
 -2.34607511E-01  5.77563222E-02  1.56514448E-14 -7.22545846E-15 -3.92407023E-02
  9.66038403E-03 -8.95088237E-15  6.17542315E-15  2.78577802E-15 -5.68196065E-15
 -6.25669483E-14  7.32964836E-01 -1.80443299E-01 -1.05848886E-15  2.34607511E-01
 -5.77563222E-02  4.59327674E-14 -1.48364582E-14 -3.92407023E-02  9.66038403E-03
 -4.81445717E-15  4.89456211E-15  1.09235996E-01 -6.71627017E-01 -1.05472539E+00
 -1.79856023E-15  2.40102141E-14 -3.29163258E-02 -1.13029836E-14 -2.02652173E-14
 -1.00095544E+00  2.97065738E-01 -1.65049175E-14 -5.13617270E-15 -1.28824768E-14
  3.27214963E-15 -1.09235996E-01  6.71627017E-01  1.05472539E+00  1.65892550E-14
  1.51853430E-14 -3.29163258E-02 -4.90010647E-16 -1.54387237E-14 -1.00095544E+00
 -2.97065738E-01 -1.15673087E-14  4.30686669E-15 -2.07272254E-15  9.52116880E-15
  2.95526808E-02  7.06501161E-01 -6.89405602E-01 -3.40751790E-15  7.17635621E-15
 -3.77752471E-01 -7.71110090E-15  2.41618628E-14  6.08709767E-01 -3.81837753E-01
 -7.48067174E-15  2.82766678E-14  4.05246396E-15  4.12040820E-15  2.95526808E-02
  7.06501161E-01 -6.89405602E-01  1.74493022E-14 -2.07307803E-14  3.77752471E-01
 -9.47320779E-15 -1.34251559E-14 -6.08709767E-01 -3.81837753E-01 -1.36676114E-14
  2.13647270E-14  5.16930311E-15  5.73029003E-15  3.65807916E-02  8.28862242E-01
 -1.78586621E+00  9.50508468E-15  8.64400232E-15  1.34504493E+00  1.40897758E-14
 -1.25191076E-15 -1.16452309E+00  1.68361570E-01  2.98028216E-14 -4.91996351E-14
 -2.75588477E-14  4.64927881E-15 -3.65807916E-02 -8.28862242E-01  1.78586621E+00
 -4.60050211E-14  2.06033595E-14  1.34504493E+00  3.23356382E-14  4.18917465E-15
 -1.16452309E+00 -1.68361570E-01  5.06457630E-14  2.78701000E-14 -4.05672741E-14
  1.11039415E-14 -1.85449443E-02 -1.12739784E+00  7.21165482E-01  1.82518145E-11
 -4.48689335E-11 -4.72332007E-02 -1.62242738E-11  3.93174496E-11  7.63160710E-01
  1.28446730E-01 -1.07341203E-11  1.65488999E-11 -3.11250231E-12 -4.15330281E-12
 -1.85449443E-02 -1.12739784E+00  7.21165482E-01  1.89590536E-11 -4.17061322E-11
  4.72332007E-02 -1.34816122E-11  3.33803239E-11 -7.63160710E-01  1.28446730E-01
  7.90754225E-12 -1.84327821E-11 -2.80620580E-12 -3.24222750E-12  9.72802620E-02
  1.68266834E+00 -8.85016518E+00 -7.52876799E-11 -2.14720299E-10  2.36433771E-01
  2.04257312E-10  8.42664205E-11 -3.34893422E+00  3.57858569E-01  1.10284800E-10
 -4.50518499E-10 -6.06122426E-10  2.78671686E-10 -9.72802617E-02 -1.68266834E+00
  8.85016518E+00 -1.00789613E-10  4.98941154E-11  2.36433771E-01 -4.02850615E-11
  2.37225157E-10 -3.34893422E+00 -3.57858571E-01  7.68506235E-11 -8.86900622E-11
 -6.22442657E-10  3.29927036E-10 -7.87271192E-03 -7.50252591E-02 -7.81237356E-01
  3.17132118E-01  6.31778887E-01 -1.08098616E-01 -2.24744779E-01 -3.81248181E-01
 -3.45015417E-01 -1.01088865E-01 -1.37035704E-01 -2.50776655E-01  2.05269304E-02
  2.27643774E-02  7.87271011E-03  7.50252537E-02  7.81237356E-01  2.87107606E-01
  4.91270686E-01 -1.08098612E-01 -2.43384417E-01 -4.27731819E-01 -3.45015427E-01
  1.01088875E-01  1.98981753E-01  5.16710114E-01  3.14295269E-02  8.63543051E-03
 -1.08783346E-02 -1.03668209E-01 -1.07949616E+00 -5.08991100E-01  1.40051434E-01
 -1.49368228E-01  1.95388416E-01  8.90109338E-02 -4.76734531E-01 -1.39682322E-01
 -8.95116432E-01  2.02065466E-01  6.39443772E-02  2.87404954E-01  1.08783346E-02
  1.03668209E-01  1.07949616E+00  2.56235827E-01 -2.89317215E-01 -1.49368228E-01
  2.55201539E-01  1.78495646E-01 -4.76734531E-01  1.39682322E-01 -4.39498075E-01
  4.74429223E-01  5.08472237E-02  3.14163905E-01 -2.86907599E-02 -2.73416821E-01
 -2.84708702E+00  4.35397880E-03  1.97358296E-02 -3.93947063E-01 -6.99031294E-02
 -2.51171285E-02 -1.25735018E+00 -3.68401240E-01 -5.24117759E-01  1.93092833E-01
 -2.95105278E-01 -3.62198435E-01  2.86907599E-02  2.73416821E-01  2.84708702E+00
  1.54553700E-01 -1.06995825E-01 -3.93947063E-01  1.84143863E-01  2.72347192E-02
 -1.25735018E+00  3.68401240E-01  1.19669225E-01 -8.67377689E-03 -3.12545606E-01
 -3.45331920E-01 -7.02926102E-02 -6.69873579E-01 -6.97538785E+00 -1.10366762E-01
  1.14768203E-01 -9.65173714E-01  4.31876324E-01  1.39283721E-01 -3.08051882E+00
 -9.02586228E-01  5.72804870E-01  1.45496974E-01 -1.46531717E-02 -4.45108240E-02
  7.02926102E-02  6.69873579E-01  6.97538785E+00 -1.74866331E-01 -1.78724009E-01
 -9.65173714E-01 -3.81476800E-01  3.92325540E-02 -3.08051882E+00  9.02586228E-01
  1.50155532E-02  4.11720962E-01 -1.01648125E-02  1.09690307E-02  3.62232955E-02
  3.45200279E-01  3.59456755E+00 -9.99873053E-02  6.43494616E-01  4.97374796E-01
  3.29671507E-01 -2.28509738E-01  1.58745768E+00  4.65122117E-01  2.85982325E-01
  8.99846630E-01 -1.19328668E-01 -2.46921165E-01 -3.62232955E-02 -3.45200279E-01
 -3.59456755E+00 -1.09195346E-01 -5.81329162E-01  4.97374796E-01 -2.18008927E-01
  1.82122207E-01  1.58745768E+00 -4.65122117E-01  5.17178443E-02  9.38569435E-01
  3.02368450E-02 -4.45433309E-02 -1.74037072E-03 -1.65853616E-02 -1.72703231E-01
  1.65915815E-01 -6.85368155E-02 -2.38966810E-02 -7.90147085E-01  1.41770296E+00
 -7.62703903E-02 -2.23470809E-02 -1.42756542E-01  7.44296796E-01 -3.06505895E-02
 -1.38810369E-01  1.74037072E-03  1.65853616E-02  1.72703231E-01 -1.93506857E-01
  3.45521637E-02 -2.38966810E-02  8.01049759E-01 -1.38893927E+00 -7.62703903E-02
  2.23470809E-02 -1.82607827E-01  7.31094553E-01  3.99120979E-02  1.72502703E-01
 -1.55283694E-02 -1.47982047E-01 -1.54093580E+00  3.41138050E-01  2.07900218E-01
 -2.13216922E-01 -1.16717149E+00 -8.97842804E-01 -6.80518680E-01 -1.99390694E-01
 -7.65815795E-02 -1.52393134E-01 -2.57624805E-02 -1.04870323E-01  1.55283694E-02
  1.47982047E-01  1.54093580E+00 -4.12962093E-01 -2.06609299E-01 -2.13216922E-01
  1.24611388E+00  8.80649952E-01 -6.80518680E-01  1.99390694E-01 -6.20058335E-02
 -1.89567077E-01  1.51287980E-01  2.29033222E-01 -2.22253928E-03 -2.11803252E-02
 -2.20550546E-01 -2.51994200E-02 -4.01170546E-02 -3.05172406E-02  7.55727720E-02
  6.77777943E-02 -9.74010509E-02 -2.85383249E-02  1.38332381E-03 -2.48854655E-02
 -8.13261771E-01  2.43572845E-01  2.22253928E-03  2.11803252E-02  2.20550546E-01
 -4.95283552E-03  4.50288205E-02 -3.05172406E-02 -3.35095906E-02 -7.69096150E-02
 -9.74010509E-02  2.85383249E-02  2.83816630E-02 -3.46182657E-02  8.10946825E-01
 -2.31317128E-01  1.03173638E-03  9.83222755E-03  1.02382904E-01 -6.41902548E-02
 -1.33443502E-01  1.41665652E-02  3.63519808E-01 -4.12591619E-02  4.52150430E-02
  1.32479225E-02  1.20968180E-02 -2.41746795E-01 -2.17976119E-01 -7.67488109E-01
 -1.03173638E-03 -9.83222755E-03 -1.02382904E-01  1.55863382E-01  1.27849131E-01
  1.41665652E-02 -4.27557854E-01  4.28020095E-02  4.52150430E-02 -1.32479225E-02
  7.94211680E-02 -2.51389706E-01  2.08824716E-01  7.82776278E-01  1.19765287E-02
  1.14133763E-01  1.18847390E+00 -2.91192326E-01 -1.25185832E-01  1.64447310E-01
 -7.20090281E-01 -1.35092583E-02  5.24862030E-01  1.53783589E-01 -6.61151722E-01
 -4.44798377E-01 -1.28606759E-01 -1.81586837E-01 -1.19765287E-02 -1.14133763E-01
 -1.18847390E+00  3.87890097E-01  3.32952311E-02  1.64447310E-01  4.10390003E-01
  2.94333296E-01  5.24862030E-01 -1.53783589E-01 -1.15678634E+00 -5.34732610E-03
 -6.54687893E-02 -1.70213534E-01 -1.53248588E-02 -1.46042635E-01 -1.52074072E+00
 -2.07753916E-01  2.58812096E-01 -2.10422559E-01 -2.34012126E-01 -3.49552509E-01
 -6.71599989E-01 -1.96777535E-01 -3.88058446E-01  5.27754557E-01 -1.01060971E-01
  1.60721862E-01  1.53248589E-02  1.46042635E-01  1.52074072E+00  3.56031839E-01
  2.86159248E-02 -2.10422559E-01 -4.18497762E-02 -2.50373763E-01 -6.71599989E-01
  1.96777535E-01 -6.82314363E-01 -1.95177711E-01 -8.94567031E-02  1.64440095E-01
  1.38926975E-03  1.32394444E-02  1.37862214E-01 -6.05713330E-01  1.71030563E-01
  1.90757834E-02  3.67654105E-01 -2.49247155E-01  6.08836603E-02  1.78387983E-02
 -4.38471784E-02 -2.86502573E-01  1.26916185E-01 -1.86081580E-01 -1.38926970E-03
 -1.32394443E-02 -1.37862214E-01 -4.39860188E-01  4.73076234E-01  1.90757833E-02
  5.59722573E-01 -3.51467015E-01  6.08836605E-02 -1.78387986E-02 -3.50736107E-01
 -1.66294471E-01  9.03307743E-02 -1.37769355E-01 -1.79222589E-01 -5.18608613E-01
  3.93759287E-02 -1.69634728E-09 -3.14293794E-09 -3.81698473E-01  1.21175430E-09
  1.86094232E-09  9.72371805E-01  9.51153518E-01  7.41306425E-10  1.25117133E-09
 -9.73051239E-11 -1.05868971E-10 -1.79222589E-01 -5.18608617E-01  3.93759367E-02
 -1.54285421E-09 -2.42408863E-09  3.81698474E-01  1.30034956E-09  2.11913838E-09
 -9.72371807E-01  9.51153516E-01 -1.05401561E-09 -2.62370523E-09 -1.54692389E-10
 -3.53152411E-11  1.32228872E-02  1.26011293E-01  1.31215454E+00 -2.34441001E-02
  1.56522193E-02  1.81560809E-01  1.20034147E-01 -6.17171870E-02  5.79482726E-01
  1.69787349E-01  3.50634951E-01 -2.77416350E-01 -4.94439994E-01  2.33606993E-01
 -1.32228871E-02 -1.26011293E-01 -1.31215454E+00 -3.29275463E-01  1.77553891E-01
  1.81560809E-01  1.51419073E-01 -2.37962017E-02  5.79482726E-01 -1.69787349E-01
  1.50245158E-01 -1.98103547E-02 -5.05417706E-01  2.45579151E-01
Beta MO coefficients                       R   N=         784
  7.11819842E-01 -5.13264027E-03 -1.02177029E-02  3.21059569E-16  9.68983610E-16
 -7.85497873E-03  1.91844816E-16  3.49769107E-16 -6.59340861E-04  2.55628261E-04
 -2.05838458E-16  9.07979903E-17  5.67891338E-17 -4.36727785E-18  7.11819851E-01
 -5.13264016E-03 -1.02177031E-02  4.45205173E-16  1.29707987E-15  7.85497861E-03
 -3.01764793E-16  5.56509893E-16  6.59340852E-04  2.55628284E-04  1.82790829E-16
 -3.42818178E-16  6.11714533E-17 -5.30170084E-18 -7.08801444E-01 -8.54432847E-03
  1.66858715E-02 -2.05284603E-14  2.81417859E-15 -9.23132919E-03 -9.02755634E-15
  1.18505322E-15 -7.18477059E-04 -1.79883363E-03 -2.26940593E-15  3.56935192E-16
 -4.16476304E-17 -1.15919325E-16  7.08801435E-01  8.54432853E-03 -1.66858713E-02
 -2.03139160E-14  2.93884368E-15 -9.23132929E-03 -9.39239379E-15  1.48224451E-15
 -7.18477067E-04  1.79883363E-03  2.17564269E-15 -5.74184454E-16 -4.94809444E-17
 -1.34972643E-16 -7.38610254E-02  1.45720259E-01 -1.61468866E-01  1.10231870E-14
 -2.15455354E-15  5.12001950E-01  4.83193755E-15  8.07328123E-17  1.60050082E-01
  4.71644260E-02  1.35464627E-15 -6.56211073E-17 -4.01967593E-17 -1.01416323E-16
 -7.38610254E-02  1.45720259E-01 -1.61468866E-01  1.06630652E-14 -2.51921486E-15
 -5.12001950E-01  4.16413838E-15 -1.61589460E-15 -1.60050082E-01  4.71644260E-02
 -1.02402200E-15  3.63082316E-16 -1.27672910E-17 -6.63185829E-17 -1.22406597E-01
  2.91560199E-01  3.95829436E-01  3.30616380E-14  1.33960051E-14 -2.46813849E-01
  1.51330784E-14  5.21112606E-15 -1.56241945E-01 -1.18886883E-02  3.53405286E-15
  1.03088652E-15 -1.11699484E-16  1.48065242E-16  1.22406597E-01 -2.91560199E-01
 -3.95829436E-01  3.21163605E-14  1.34648398E-14 -2.46813849E-01  1.34197605E-14
  5.88420752E-15 -1.56241945E-01  1.18886883E-02 -3.69577992E-15 -1.11138044E-15
 -5.40407748E-16 -2.64966491E-16  1.37856997E-01 -3.01835733E-01 -3.57092841E-01
  8.42591019E-15 -4.54954193E-15  1.09955732E-01  3.89949279E-15 -1.48699129E-15
  1.17958882E-01 -6.07684665E-03  8.90023298E-16 -5.37248085E-16  6.20261133E-17
 -5.62615039E-18  1.37856997E-01 -3.01835733E-01 -3.57092841E-01  8.38705552E-15
 -4.19677654E-15 -1.09955732E-01  2.92833718E-15 -2.05529796E-15 -1.17958882E-01
 -6.07684665E-03 -7.18020345E-16  4.20698189E-16 -7.51539787E-18  8.43729749E-19
  2.49949964E-14  2.31121947E-14 -8.00583528E-14 -4.50346956E-01  3.94660665E-02
 -6.04990958E-15 -1.99364885E-01  1.74713023E-02 -4.58533728E-14 -3.87025397E-15
 -4.98295783E-02  4.36680524E-03 -6.77337243E-16  4.50800281E-17 -2.31186051E-14
 -2.63550579E-14  5.87460539E-14 -4.50346956E-01  3.94660665E-02 -3.47256485E-14
 -1.99364885E-01  1.74713023E-02 -5.63733948E-14  4.82886409E-15  4.98295783E-02
 -4.36680524E-03 -3.73769731E-16 -1.51741819E-16 -5.18445925E-15  1.20660340E-14
  1.73526683E-14 -3.94660665E-02 -4.50346956E-01 -1.13140595E-14 -1.74713023E-02
 -1.99364885E-01 -7.11336546E-15 -9.12566662E-16 -4.36680524E-03 -4.98295783E-02
 -3.06798194E-16  4.62258766E-16  7.12375723E-15 -7.25828734E-15 -1.15150085E-14
 -3.94660665E-02 -4.50346956E-01 -7.11528709E-15 -1.74713023E-02 -1.99364885E-01
 -3.54070211E-15  4.08178020E-16  4.36680524E-03  4.98295783E-02  3.36453465E-16
  2.65562044E-16 -3.09731589E-15 -5.77164906E-14  2.77720995E-13 -1.80443299E-01
 -7.32964836E-01 -1.17481902E-14 -5.77563222E-02 -2.34607511E-01  1.10982642E-13
 -1.09975653E-14 -9.66038403E-03 -3.92407023E-02 -7.12766185E-16  6.30971607E-16
  2.47004836E-15  5.77171773E-14 -2.81547222E-13  1.80443299E-01  7.32964836E-01
 -6.32823248E-15  5.77563222E-02  2.34607511E-01  9.61469933E-14  1.09295603E-14
 -9.66038403E-03 -3.92407023E-02  2.23712970E-15  6.48034377E-15  2.00628159E-15
  2.92475848E-15  7.58067088E-14 -7.32964836E-01  1.80443299E-01  1.47888275E-14
 -2.34607511E-01  5.77563222E-02  1.56514448E-14 -7.22545846E-15 -3.92407023E-02
  9.66038403E-03 -8.95088237E-15  6.17542315E-15  2.78577802E-15 -5.68196065E-15
 -6.25669483E-14  7.32964836E-01 -1.80443299E-01 -1.05848886E-15  2.34607511E-01
 -5.77563222E-02  4.59327674E-14 -1.48364582E-14 -3.92407023E-02  9.66038403E-03
 -4.81445717E-15  4.89456211E-15  1.09235996E-01 -6.71627017E-01 -1.05472539E+00
 -1.79856023E-15  2.40102141E-14 -3.29163258E-02 -1.13029836E-14 -2.02652173E-14
 -1.00095544E+00  2.97065738E-01 -1.65049175E-14 -5.13617270E-15 -1.28824768E-14
  3.27214963E-15 -1.09235996E-01  6.71627017E-01  1.05472539E+00  1.65892550E-14
  1.51853430E-14 -3.29163258E-02 -4.90010647E-16 -1.54387237E-14 -1.00095544E+00
 -2.97065738E-01 -1.15673087E-14  4.30686669E-15 -2.07272254E-15  9.52116880E-15
  2.95526808E-02  7.06501161E-01 -6.89405602E-01 -3.40751790E-15  7.17635621E-15
 -3.77752471E-01 -7.71110090E-15  2.41618628E-14  6.08709767E-01 -3.81837753E-01
 -7.48067174E-15  2.82766678E-14  4.05246396E-15  4.12040820E-15  2.95526808E-02
  7.06501161E-01 -6.89405602E-01  1.74493022E-14 -2.07307803E-14  3.77752471E-01
 -9.47320779E-15 -1.34251559E-14 -6.08709767E-01 -3.81837753E-01 -1.36676114E-14
  2.13647270E-14  5.16930311E-15  5.73029003E-15  3.65807916E-02  8.28862242E-01
 -1.78586621E+00  9.50508468E-15  8.64400232E-15  1.34504493E+00  1.40897758E-14
 -1.25191076E-15 -1.16452309E+00  1.68361570E-01  2.98028216E-14 -4.91996351E-14
 -2.75588477E-14  4.64927881E-15 -3.65807916E-02 -8.28862242E-01  1.78586621E+00
 -4.60050211E-14  2.06033595E-14  1.34504493E+00  3.23356382E-14  4.18917465E-15
 -1.16452309E+00 -1.68361570E-01  5.06457630E-14  2.78701000E-14 -4.05672741E-14
  1.11039415E-14 -1.85449443E-02 -1.12739784E+00  7.21165482E-01  1.82518145E-11
 -4.48689335E-11 -4.72332007E-02 -1.62242738E-11  3.93174496E-11  7.63160710E-01
  1.28446730E-01 -1.07341203E-11  1.65488999E-11 -3.11250231E-12 -4.15330281E-12
 -1.85449443E-02 -1.12739784E+00  7.21165482E-01  1.89590536E-11 -4.17061322E-11
  4.72332007E-02 -1.34816122E-11  3.33803239E-11 -7.63160710E-01  1.28446730E-01
  7.90754225E-12 -1.84327821E-11 -2.80620580E-12 -3.24222750E-12  9.72802620E-02
  1.68266834E+00 -8.85016518E+00 -7.52876799E-11 -2.14720299E-10  2.36433771E-01
  2.04257312E-10  8.42664205E-11 -3.34893422E+00  3.57858569E-01  1.10284800E-10
 -4.50518499E-10 -6.06122426E-10  2.78671686E-10 -9.72802617E-02 -1.68266834E+00
  8.85016518E+00 -1.00789613E-10  4.98941154E-11  2.36433771E-01 -4.02850615E-11
  2.37225157E-10 -3.34893422E+00 -3.57858571E-01  7.68506235E-11 -8.86900622E-11
 -6.22442657E-10  3.29927036E-10 -7.87271192E-03 -7.50252591E-02 -7.81237356E-01
  3.17132118E-01  6.31778887E-01 -1.08098616E-01 -2.24744779E-01 -3.81248181E-01
 -3.45015417E-01 -1.01088865E-01 -1.37035704E-01 -2.50776655E-01  2.05269304E-02
  2.27643774E-02  7.87271011E-03  7.50252537E-02  7.81237356E-01  2.87107606E-01
  4.91270686E-01 -1.08098612E-01 -2.43384417E-01 -4.27731819E-01 -3.45015427E-01
  1.01088875E-01  1.98981753E-01  5.16710114E-01  3.14295269E-02  8.63543051E-03
 -1.08783346E-02 -1.03668209E-01 -1.07949616E+00 -5.08991100E-01  1.40051434E-01
 -1.49368228E-01  1.95388416E-01  8.90109338E-02 -4.76734531E-01 -1.39682322E-01