 Entering Gaussian System, Link 0=g09
 Input=test2.gjf
 Output=test2.log
 Initial command:
 /share/home/srwang/g09/l1.exe /share/home/srwang/gauscr/Gau-428539.inp -scrdir=/share/home/srwang/gauscr/
 Entering Link 1 = /share/home/srwang/g09/l1.exe PID=    428540.
  
 Copyright (c) 1988,1990,1992,1993,1995,1998,2003,2009,2011,
            Gaussian, Inc.  All Rights Reserved.
  
 This is part of the Gaussian(R) 09 program.  It is based on
 the Gaussian(R) 03 system (copyright 2003, Gaussian, Inc.),
 the Gaussian(R) 98 system (copyright 1998, Gaussian, Inc.),
 the Gaussian(R) 94 system (copyright 1995, Gaussian, Inc.),
 the Gaussian 92(TM) system (copyright 1992, Gaussian, Inc.),
 the Gaussian 90(TM) system (copyright 1990, Gaussian, Inc.),
 the Gaussian 88(TM) system (copyright 1988, Gaussian, Inc.),
 the Gaussian 86(TM) system (copyright 1986, Carnegie Mellon
 University), and the Gaussian 82(TM) system (copyright 1983,
 Carnegie Mellon University). Gaussian is a federally registered
 trademark of Gaussian, Inc.
  
 This software contains proprietary and confidential information,
 including trade secrets, belonging to Gaussian, Inc.
  
 This software is provided under written license and may be
 used, copied, transmitted, or stored only in accord with that
 written license.
  
 The following legend is applicable only to US Government
 contracts under FAR:
  
                    RESTRICTED RIGHTS LEGEND
  
 Use, reproduction and disclosure by the US Government is
 subject to restrictions as set forth in subparagraphs (a)
 and (c) of the Commercial Computer Software - Restricted
 Rights clause in FAR 52.227-19.
  
 Gaussian, Inc.
 340 Quinnipiac St., Bldg. 40, Wallingford CT 06492
  
  
 ---------------------------------------------------------------
 Warning -- This program may not be used in any manner that
 competes with the business of Gaussian, Inc. or will provide
 assistance to any competitor of Gaussian, Inc.  The licensee
 of this program is prohibited from giving any competitor of
 Gaussian, Inc. access to this program.  By using this program,
 the user acknowledges that Gaussian, Inc. is engaged in the
 business of creating and licensing software in the field of
 computational chemistry and represents and warrants to the
 licensee that it is not a competitor of Gaussian, Inc. and that
 it will not use this program in any manner prohibited above.
 ---------------------------------------------------------------
  

 Cite this work as:
 Gaussian 09, Revision C.01,
 M. J. Frisch, G. W. Trucks, H. B. Schlegel, G. E. Scuseria, 
 M. A. Robb, J. R. Cheeseman, G. Scalmani, V. Barone, B. Mennucci, 
 G. A. Petersson, H. Nakatsuji, M. Caricato, X. Li, H. P. Hratchian, 
 A. F. Izmaylov, J. Bloino, G. Zheng, J. L. Sonnenberg, M. Hada, 
 M. Ehara, K. Toyota, R. Fukuda, J. Hasegawa, M. Ishida, T. Nakajima, 
 Y. Honda, O. Kitao, H. Nakai, T. Vreven, J. A. Montgomery, Jr., 
 J. E. Peralta, F. Ogliaro, M. Bearpark, J. J. Heyd, E. Brothers, 
 K. N. Kudin, V. N. Staroverov, T. Keith, R. Kobayashi, J. Normand, 
 K. Raghavachari, A. Rendell, J. C. Burant, S. S. Iyengar, J. Tomasi, 
 M. Cossi, N. Rega, J. M. Millam, M. Klene, J. E. Knox, J. B. Cross, 
 V. Bakken, C. Adamo, J. Jaramillo, R. Gomperts, R. E. Stratmann, 
 O. Yazyev, A. J. Austin, R. Cammi, C. Pomelli, J. W. Ochterski, 
 R. L. Martin, K. Morokuma, V. G. Zakrzewski, G. A. Voth, 
 P. Salvador, J. J. Dannenberg, S. Dapprich, A. D. Daniels, 
 O. Farkas, J. B. Foresman, J. V. Ortiz, J. Cioslowski, 
 and D. J. Fox, Gaussian, Inc., Wallingford CT, 2010.
 
 ******************************************
 Gaussian 09:  EM64L-G09RevC.01 23-Sep-2011
                28-Sep-2020 
 ******************************************
 %subst l530 .
 %subst l601 .
 %nproc=1
 Will use up to    1 processors via shared memory.
 %mem=40GB
 %oldchk=gauuhf.chk
 %chk=test.chk
 Copying data from "gauuhf.chk" to current chk file "test.chk".
 ----------------------------------------
 #p uhf/def2svp guess=read extralink=l530
 ----------------------------------------
 1/38=1/1;
 2/12=2,17=6,18=5,40=1/2;
 3/5=43,7=101,11=2,16=1,25=1,30=1,116=2/1,2,3;
 4/5=1/1;
 5/5=2,38=6/2,30;
 6/7=2,8=2,9=2,10=2,28=1/1;
 99/5=1,9=1/99;
 Leave Link    1 at Mon Sep 28 17:10:48 2020, MaxMem= 5368709120 cpu:       0.0
 (Enter /share/home/srwang/g09/l101.exe)
 -----
 title
 -----
 Charge =  0 Multiplicity = 1
 Symbolic Z-Matrix:
 H                     0.        0.        0. 
 H                     0.        0.        2. 
 
 NAtoms=      2 NQM=        0 NQMF=       0 NMMI=      2 NMMIF=      0
                NMic=       0 NMicF=      0.
                    Isotopes and Nuclear Properties:
 (Nuclear quadrupole moments (NQMom) in fm**2, nuclear magnetic moments (NMagM)
  in nuclear magnetons)

  Atom         1           2
 IAtWgt=           1           1
 AtmWgt=   1.0078250   1.0078250
 NucSpn=           1           1
 AtZEff=   0.0000000   0.0000000
 NQMom=    0.0000000   0.0000000
 NMagM=    2.7928460   2.7928460
 Leave Link  101 at Mon Sep 28 17:10:48 2020, MaxMem= 5368709120 cpu:       0.0
 (Enter /share/home/srwang/g09/l202.exe)
                          Input orientation:                          
 ---------------------------------------------------------------------
 Center     Atomic      Atomic             Coordinates (Angstroms)
 Number     Number       Type             X           Y           Z
 ---------------------------------------------------------------------
      1          1           0        0.000000    0.000000    0.000000
      2          1           0        0.000000    0.000000    2.000000
 ---------------------------------------------------------------------
 Stoichiometry    H2
 Framework group  D*H[C*(H.H)]
 Deg. of freedom     1
 Full point group                 D*H     NOp   8
 Largest Abelian subgroup         D2H     NOp   8
 Largest concise Abelian subgroup C2      NOp   2
                         Standard orientation:                         
 ---------------------------------------------------------------------
 Center     Atomic      Atomic             Coordinates (Angstroms)
 Number     Number       Type             X           Y           Z
 ---------------------------------------------------------------------
      1          1           0        0.000000    0.000000    1.000000
      2          1           0        0.000000    0.000000   -1.000000
 ---------------------------------------------------------------------
 Rotational constants (GHZ):      0.0000000    250.7275501    250.7275501
 Leave Link  202 at Mon Sep 28 17:10:48 2020, MaxMem= 5368709120 cpu:       0.0
 (Enter /share/home/srwang/g09/l301.exe)
 Standard basis: def2SVP (5D, 7F)
 Ernie: Thresh=  0.10000D-02 Tol=  0.10000D-05 Strict=F.
 There are     3 symmetry adapted basis functions of AG  symmetry.
 There are     0 symmetry adapted basis functions of B1G symmetry.
 There are     1 symmetry adapted basis functions of B2G symmetry.
 There are     1 symmetry adapted basis functions of B3G symmetry.
 There are     0 symmetry adapted basis functions of AU  symmetry.
 There are     3 symmetry adapted basis functions of B1U symmetry.
 There are     1 symmetry adapted basis functions of B2U symmetry.
 There are     1 symmetry adapted basis functions of B3U symmetry.
 Integral buffers will be    131072 words long.
 Raffenetti 2 integral format.
 Two-electron integral symmetry is turned on.
    10 basis functions,    14 primitive gaussians,    10 cartesian basis functions
     1 alpha electrons        1 beta electrons
       nuclear repulsion energy         0.2645886043 Hartrees.
 IExCor=    0 DFT=F Ex=HF Corr=None ExCW=0 ScaHFX=  1.000000
 ScaDFX=  1.000000  1.000000  1.000000  1.000000 ScalE2=  1.000000  1.000000
 IRadAn=      0 IRanWt=     -1 IRanGd=            0 ICorTp=0
 NAtoms=    2 NActive=    2 NUniq=    1 SFac= 4.00D+00 NAtFMM=   60 NAOKFM=F Big=F
 Leave Link  301 at Mon Sep 28 17:10:48 2020, MaxMem= 5368709120 cpu:       0.1
 (Enter /share/home/srwang/g09/l302.exe)
 NPDir=0 NMtPBC=     1 NCelOv=     1 NCel=       1 NClECP=     1 NCelD=      1
         NCelK=      1 NCelE2=     1 NClLst=     1 CellRange=     0.0.
 One-electron integrals computed using PRISM.
 One-electron integral symmetry used in STVInt
   8 Symmetry operations used in ECPInt.
 ECPInt:  NShTT=      21 NPrTT=      61 LenC2=      22 LenP2D=      60.
 LDataN:  DoStor=T MaxTD1= 2 Len=   12
 NBasis=    10 RedAO= T  NBF=     3     0     1     1     0     3     1     1
 NBsUse=    10 1.00D-06 NBFU=     3     0     1     1     0     3     1     1
 Leave Link  302 at Mon Sep 28 17:10:48 2020, MaxMem= 5368709120 cpu:       0.1
 (Enter /share/home/srwang/g09/l303.exe)
 DipDrv:  MaxL=1.
 Leave Link  303 at Mon Sep 28 17:10:48 2020, MaxMem= 5368709120 cpu:       0.0
 (Enter /share/home/srwang/g09/l401.exe)
 Initial guess read from the checkpoint file:  test.chk
 B after Tr=     0.000000    0.000000    1.889726
         Rot=    0.000000   -0.000000    1.000000   -0.000000 Ang= 180.00 deg.
 Guess basis will be translated and rotated to current coordinates.
 Initial guess orbital symmetries:
 Alpha Orbitals:
       Occupied  (?A)
       Virtual   (?A) (?A) (?A) (?A) (?B) (?B) (?B) (?B) (?A)
 Beta  Orbitals:
       Occupied  (?A)
       Virtual   (?A) (?A) (?A) (?A) (?B) (?B) (?B) (?B) (?A)
 Initial guess <Sx>= 0.0000 <Sy>= 0.0000 <Sz>= 0.0000 <S**2>= 0.9044 S= 0.5744
 Leave Link  401 at Mon Sep 28 17:10:48 2020, MaxMem= 5368709120 cpu:       0.1
 (Enter /share/home/srwang/g09/l502.exe)
 UHF open shell SCF:
 Requested convergence on RMS density matrix=1.00D-08 within 128 cycles.
 Requested convergence on MAX density matrix=1.00D-06.
 Requested convergence on             energy=1.00D-06.
 No special actions if energy rises.
 Using DIIS extrapolation, IDIIS=  1040.
 Integral symmetry usage will be decided dynamically.
 Keep R1 and R2 ints in memory in canonical form, NReq=822894.
 IEnd=       19793 IEndB=       19793 NGot=  5368709120 MDV=  5368703322
 LenX=  5368703322 LenY=  5368702440
 Symmetry not used in FoFDir.
 MinBra= 0 MaxBra= 1 Meth= 1.
 IRaf=       0 NMat=   1 IRICut=       1 DoRegI=T DoRafI=F ISym2E= 0 JSym2E=0.
 An orbital has undefined symmetry, so N**3 symmetry is turned off.

 Cycle   1  Pass 1  IDiag  1:
 Density matrix breaks symmetry, PCut= 1.00D-04
 Density matrix has no symmetry -- integrals replicated.
 E= -1.00277345982602    
 DIIS: error= 2.01D-10 at cycle   1 NSaved=   1.
 NSaved= 1 IEnMin= 1 EnMin= -1.00277345982602     IErMin= 1 ErrMin= 2.01D-10
 ErrMax= 2.01D-10 EMaxC= 1.00D-01 BMatC= 1.25D-18 BMatP= 1.25D-18
 IDIUse=1 WtCom= 1.00D+00 WtEn= 0.00D+00
 Coeff-Com:  0.100D+01
 Coeff:      0.100D+01
 Gap=     0.581 Goal=   None    Shift=    0.000
 Gap=     0.581 Goal=   None    Shift=    0.000
 RMSDP=6.43D-11 MaxDP=3.11D-10              OVMax= 6.62D-10

 Density matrix breaks symmetry, PCut= 1.00D-07
 Density matrix has no symmetry -- integrals replicated.
 SCF Done:  E(UHF) =  -1.00277345983     A.U. after    1 cycles
             Convg  =    0.6425D-10             -V/T =  2.0297
 <Sx>= 0.0000 <Sy>= 0.0000 <Sz>= 0.0000 <S**2>= 0.9044 S= 0.5744
 <L.S>= 0.000000000000E+00
 KE= 9.738423790070D-01 PE=-2.511561836083D+00 EE= 2.703573929553D-01
 Annihilation of the first spin contaminant:
 S**2 before annihilation     0.9044,   after     0.0000
 Leave Link  502 at Mon Sep 28 17:10:48 2020, MaxMem= 5368709120 cpu:       0.0
  
  +-------------------------------------------+
  |                                           |
  |  LINK 530 - Projected Hartree-Fock (PHF)  |
  |     Self-Consistent Field (SCF) Code      |
  |                                           |
  |                                           |
  |         the Scuseria group, v0.2, 07.2011 |
  +-------------------------------------------+
  
 (Enter ./l530.exe)

 PHF SCF was invoked with the following options:

   method selection:
 iprint =  0
 iphf   =  2, [ UHF + complex projection ]

   general options:
 maxcyc =    512

   accuracy requested:
 conv criterion (RMSDP, RMSDK) =     1.0000E-08
 requested integral accuracy   =     1.0000E-10

   use of symmetry:
 two-electron integral symmetry not used

   strategy options:
 level shifting is turned off
 istrat =      1, continue as usual if energy rises
 modified PHF effective Fock matrix used

   initial guess options:
 igues1 =  1, read GDV guess


 PHF SCF - preparing initial guess


 PHF SCF - starting SCF procedure

 Symmetry not used in FoFDir.
 MinBra= 0 MaxBra= 1 Meth= 1.
 IRaf=       1 NMat=   2 IRICut=       1 DoRegI=T DoRafI=F ISym2E= 0 JSym2E=0.
 End hffock
 End copy in hfdmdg
 Enter itype=2
 End vconjg1
 End zhpev1
 End vconjg2
 End zhpev2 
 End diag1 in hfdmdg
 End diag in hfdmdg
 End hfdmdg
 Start formgg
 Start erictr
 End erictr
 End formgg
 End mem in smt
 End tstcor in smt
 End fileio in smt
 End copy in smt
 End transform in smt
 End extract C in smt
 End det C in smt
 End C in smt
 End Smt
 End build CI

 *** SCF Done after    1 cycles ***

        E =      -1.002773459826    conv =           4.3515E-11
      Hsp =      -1.537719456925     Hph =       0.270357392804
   <S**2> =       0.904373763686

 **********************************


 PHF SCF - quitting the program

 Leave Link  530 at Mon Sep 28 17:10:48 2020, MaxMem= 5368709120 cpu:       0.1
 (Enter ./l601.exe)
 Copying SCF densities to generalized density rwf, IOpCl= 3 IROHF=0.
 End DenSto
 End Endif
 Operation on file out of range.
FileIO: IOper= 2 IFilNo(1)=  -571 Len=         110 IPos=           0 Q=   47087767789096


 dumping /fiocom/, unit = 1 NFiles =    75 SizExt =    524288 WInBlk =    131072
                   defal = T LstWrd =    10092544 FType=2 FMxFil=10000

 Number           0          0        501        502        503        507        508        512
 Base       9043968    9961472     917504    1441792    1835008    1966080    4456448    3145728
 End        9306112   10092544     918504    1445912    1835015    1966115    4456478    3145774
 End1       9306112   10092544    1048576    1572864    1966080    2097152    4587520    3276800
 Wr Pntr    8650752    9961472     917504    1441792    1835008    1966080    4456448    3145728
 Rd Pntr    8650952    9961472     917504    1445912    1835008    1966080    4456448    3145728
 Length      262144     131072       1000       4120          7         35         30         46

 Number         514        515        516        517        518        520        521        522
 Base       7208960    7471104    7340032    6029312    5636096    4980736    3276800    6291456
 End        7209015    7471324    7340087    6029332    5636151    4980746    3276835    6291476
 End1       7340032    7602176    7471104    6160384    5767168    5111808    3407872    6422528
 Wr Pntr    7209015    7471324    7340087    6029312    5636151    4980736    3276800    6291456
 Rd Pntr    7208960    7471104    7340032    6029312    5636096    4980736    3276800    6291456
 Length          55        220         55         20         55         10         35         20

 Number         523        524        525        526        527        528        529        530
 Base       6160384    5767168    5898240    7077888    8650752    9568256    9699328    8781824
 End        6160404    5767268    5898340    7077988    8650852    9568311    9699383    8781879
 End1       6291456    5898240    6029312    7208960    8781824    9699328    9830400    8912896
 Wr Pntr    6160384    5767268    5898340    7077988    8650852    9568311    9699383    8781879
 Rd Pntr    6160384    5767168    5898240    7077888    8650752    9568256    9699328    8781824
 Length          20        100        100        100        100         55         55         55

 Number         531        532        534        536        538        540        551        552
 Base       8912896    7864320    6422528    6684672    6815744    7995392    2621440    2359296
 End        8912951    7864375    6422583    6684727    6815799    7995492    2621478    2359316
 End1       9043968    7995392    6553600    6815744    6946816    8126464    2752512    2490368
 Wr Pntr    8912951    7864320    6422528    6684672    6815744    7995392    2621440    2359296
 Rd Pntr    8912896    7864320    6422528    6684672    6815744    7995392    2621440    2359296
 Length          55         55         55         55         55        100         38         20

 Number         559        561        562        563        564        565        571        577
 Base       3670016    2752512    2228224    7602176    7733248    4325376    9437184    4063232
 End        3670018    2752513    2234308    7602186    7733258    4325424    9437239    4063284
 End1       3801088    2883584    2359296    7733248    7864320    4456448    9568256    4194304
 Wr Pntr    3670016    2752512    2228224    7602176    7733248    4325376    9437184    4063232
 Rd Pntr    3670016    2752512    2228224    7602176    7733248    4325376    9437184    4063232
 Length           2          1       6084         10         10         48         55         52

 Number         579        580        581        582        583        584        598        603
 Base       2490368    3538944    4194304    3932160    3801088    4587520    1572864    5111808
 End        2490384    3539104    4194448    3932190    3801091    4587532    1572866    5112029
 End1       2621440    3670016    4325376    4063232    3932160    4718592    1703936    5242880
 Wr Pntr    2490368    3538944    4194304    3932160    3801088    4587520    1572864    5112029
 Rd Pntr    2490368    3538944    4194304    3932160    3801088    4587520    1572864    5111809
 Length          16        160        144         30          3         12          2        221

 Number         605        606        619        634        670        674        685        695
 Base       5242880    6553600    4718592    9306112    3407872    2097152    5505024    4849664
 End        5242881    6553620    4718933    9306598    3408012    2097202    5505124    4849754
 End1       5373952    6684672    4849664    9437184    3538944    2228224    5636096    4980736
 Wr Pntr    5242880    6553600    4718592    9306112    3407872    2097152    5505124    4849664
 Rd Pntr    5242880    6553600    4718592    9306112    3408012    2097152    5505024    4849664
 Length           1         20        341        486        140         50        100         90

 Number         698        739        761        801        802        803        804        805
 Base       3014656    5373952    2883584    6946816    8126464    8257536    8388608    8519680
 End        3014668    5374172    2883585    6947036    8126684    8257936    8388628    8520080
 End1       3145728    5505024    3014656    7077888    8257536    8388608    8519680    8650752
 Wr Pntr    3014656    5374172    2883584    6946816    8126464    8257536    8388608    8519680
 Rd Pntr    3014656    5373952    2883584    6946816    8126464    8257536    8388608    8519680
 Length          12        220          1        220        220        400         20        400

 Number         806        989        991        992        993        994        995        996
 Base       9830400    1048576    1310720    1179648     786432     131072     655360     393216
 End        9830404    1068576    1317282    1179657     786632     131102     655380     393416
 End1       9961472    1179648    1441792    1310720     917504     262144     786432     524288
 Wr Pntr    9830400    1048576    1310720    1179648     786432     131072     655360     393216
 Rd Pntr    9830400    1048576    1317282    1179657     786632     131102     655380     393416
 Length           4      20000       6562          9        200         30         20        200

 Number         997        998        999
 Base        524288     262144    1703936
 End         524398     262344    1806440
 End1        655360     393216    1835008
 Wr Pntr     524288     262144    1703936
 Rd Pntr     524393     262344    1706440
 Length         110        200     102504


 dumping /fiocom/, unit = 2 NFiles =    43 SizExt =         0 WInBlk =    131072
                   defal = F LstWrd =      262144 FType=2 FMxFil=10000

 Number           0          0          0          0          0          0        501        502
 Base        131586     131308     137387     131443     137302     169797     131862     132862
 End         131862     131310     137412     131463     137312     262144     132862     136982
 End1        131862     131310     137412     131463     137312     262144     132862     136982
 Wr Pntr     131586     131308     137387     131443     137302     169797     131862     132862
 Rd Pntr     131586     131308     137387     131443     137302     169797     131862     132862
 Length         276          2         25         20         10      92347       1000       4120

 Number         503        507        508        512        520        521        522        524
 Base        131310     131317     131072     131352     131398     131408     137312     131463
 End         131317     131352     131102     131398     131408     131443     137332     131563
 End1        131317     131352     131102     131398     131408     131443     137332     131563
 Wr Pntr     131310     131317     131072     131352     131398     131408     137312     131463
 Rd Pntr     131310     131317     131072     131352     131398     131408     137312     131463
 Length           7         35         30         46         10         35         20        100

 Number         526        528        530        532        534        536        538        552
 Base        136982     137082     137137     137192     137247     137332     169256     131563
 End         137082     137137     137192     137247     137302     137387     169311     131583
 End1        137082     137137     137192     137247     137302     137387     169311     131583
 Wr Pntr     136982     137082     137137     137192     137247     137332     169256     131563
 Rd Pntr     136982     137082     137137     137192     137247     137332     169256     131563
 Length         100         55         55         55         55         55         55         20

 Number         562        577        584        603        605        619        634        670
 Base        137412     143496     143548     143560     131583     143671     169311     144012
 End         143496     143548     143560     143671     131586     144012     169797     144152
 End1        143496     143548     143560     143671     131586     144012     169797     144152
 Wr Pntr     137412     143496     143548     143560     131583     143671     169311     144012
 Rd Pntr     137412     143496     143548     143560     131583     143671     169311     144012
 Length        6084         52         12        111          3        341        486        140

 Number         674        685        695        698        800        801        810        989
 Base        144152     144202     144302     144392     144404     131302     148820     148826
 End         144202     144302     144392     144404     148820     131308     148826     168826
 End1        144202     144302     144392     144404     148820     131308     148826     168826
 Wr Pntr     144152     144202     144302     144392     144404     131302     148820     148826
 Rd Pntr     144152     144202     144302     144392     144404     131302     148820     148826
 Length          50        100         90         12       4416          6          6      20000

 Number         993        997        998
 Base        168826     169026     131102
 End         169026     169256     131302
 End1        169026     169256     131302
 Wr Pntr     168826     169026     131102
 Rd Pntr     168826     169026     131102
 Length         200        230        200


 dumping /fiocom/, unit = 3 NFiles =     1 SizExt =    524288 WInBlk =    131072
                   defal = T LstWrd =      262144 FType=2 FMxFil=10000

 Number           0
 Base        131072
 End         262144
 End1        262144
 Wr Pntr     131072
 Rd Pntr     131072
 Length      131072
 Error termination in NtrErr:
 NtrErr Called from FileIO.
