 Entering Gaussian System, Link 0=g09
 Input=test.gjf
 Output=test.log
 Initial command:
 /share/home/srwang/g09/l1.exe /share/home/srwang/gauscr/Gau-4012.inp -scrdir=/share/home/srwang/gauscr/
 Entering Link 1 = /share/home/srwang/g09/l1.exe PID=      4013.
  
 Copyright (c) 1988,1990,1992,1993,1995,1998,2003,2009,2011,
            Gaussian, Inc.  All Rights Reserved.
  
 This is part of the Gaussian(R) 09 program.  It is based on
 the Gaussian(R) 03 system (copyright 2003, Gaussian, Inc.),
 the Gaussian(R) 98 system (copyright 1998, Gaussian, Inc.),
 the Gaussian(R) 94 system (copyright 1995, Gaussian, Inc.),
 the Gaussian 92(TM) system (copyright 1992, Gaussian, Inc.),
 the Gaussian 90(TM) system (copyright 1990, Gaussian, Inc.),
 the Gaussian 88(TM) system (copyright 1988, Gaussian, Inc.),
 the Gaussian 86(TM) system (copyright 1986, Carnegie Mellon
 University), and the Gaussian 82(TM) system (copyright 1983,
 Carnegie Mellon University). Gaussian is a federally registered
 trademark of Gaussian, Inc.
  
 This software contains proprietary and confidential information,
 including trade secrets, belonging to Gaussian, Inc.
  
 This software is provided under written license and may be
 used, copied, transmitted, or stored only in accord with that
 written license.
  
 The following legend is applicable only to US Government
 contracts under FAR:
  
                    RESTRICTED RIGHTS LEGEND
  
 Use, reproduction and disclosure by the US Government is
 subject to restrictions as set forth in subparagraphs (a)
 and (c) of the Commercial Computer Software - Restricted
 Rights clause in FAR 52.227-19.
  
 Gaussian, Inc.
 340 Quinnipiac St., Bldg. 40, Wallingford CT 06492
  
  
 ---------------------------------------------------------------
 Warning -- This program may not be used in any manner that
 competes with the business of Gaussian, Inc. or will provide
 assistance to any competitor of Gaussian, Inc.  The licensee
 of this program is prohibited from giving any competitor of
 Gaussian, Inc. access to this program.  By using this program,
 the user acknowledges that Gaussian, Inc. is engaged in the
 business of creating and licensing software in the field of
 computational chemistry and represents and warrants to the
 licensee that it is not a competitor of Gaussian, Inc. and that
 it will not use this program in any manner prohibited above.
 ---------------------------------------------------------------
  

 Cite this work as:
 Gaussian 09, Revision C.01,
 M. J. Frisch, G. W. Trucks, H. B. Schlegel, G. E. Scuseria, 
 M. A. Robb, J. R. Cheeseman, G. Scalmani, V. Barone, B. Mennucci, 
 G. A. Petersson, H. Nakatsuji, M. Caricato, X. Li, H. P. Hratchian, 
 A. F. Izmaylov, J. Bloino, G. Zheng, J. L. Sonnenberg, M. Hada, 
 M. Ehara, K. Toyota, R. Fukuda, J. Hasegawa, M. Ishida, T. Nakajima, 
 Y. Honda, O. Kitao, H. Nakai, T. Vreven, J. A. Montgomery, Jr., 
 J. E. Peralta, F. Ogliaro, M. Bearpark, J. J. Heyd, E. Brothers, 
 K. N. Kudin, V. N. Staroverov, T. Keith, R. Kobayashi, J. Normand, 
 K. Raghavachari, A. Rendell, J. C. Burant, S. S. Iyengar, J. Tomasi, 
 M. Cossi, N. Rega, J. M. Millam, M. Klene, J. E. Knox, J. B. Cross, 
 V. Bakken, C. Adamo, J. Jaramillo, R. Gomperts, R. E. Stratmann, 
 O. Yazyev, A. J. Austin, R. Cammi, C. Pomelli, J. W. Ochterski, 
 R. L. Martin, K. Morokuma, V. G. Zakrzewski, G. A. Voth, 
 P. Salvador, J. J. Dannenberg, S. Dapprich, A. D. Daniels, 
 O. Farkas, J. B. Foresman, J. V. Ortiz, J. Cioslowski, 
 and D. J. Fox, Gaussian, Inc., Wallingford CT, 2010.
 
 ******************************************
 Gaussian 09:  EM64L-G09RevC.01 23-Sep-2011
                 1-Oct-2020 
 ******************************************
 %subst l530 ../phf
 %nproc=1
 Will use up to    1 processors via shared memory.
 %mem=4GB
 %chk=test.chk
 ----------------------------------------------------------------------
 #p uhf/3-21g guess=mix scf=conver=4 extralink=l530 iop(5/206=9, 5/207=
 4, 5/216=1) pop=none
 ----------------------------------------------------------------------
 1/38=1/1;
 2/12=2,17=6,18=5,40=1/2;
 3/5=5,11=2,16=1,25=1,30=1,116=2/1,2,3;
 4/13=-1/1;
 5/5=2,6=4,38=5,206=9,207=4,216=1/2,30;
 99/5=1,9=1/99;
 Leave Link    1 at Thu Oct  1 14:20:08 2020, MaxMem=  536870912 cpu:       0.0
 (Enter /share/home/srwang/g09/l101.exe)
 -----
 title
 -----
 Charge =  0 Multiplicity = 1
 Symbolic Z-Matrix:
 H                     0.        0.        0. 
 H                     0.        0.        1. 
 
 NAtoms=      2 NQM=        0 NQMF=       0 NMMI=      2 NMMIF=      0
                NMic=       0 NMicF=      0.
                    Isotopes and Nuclear Properties:
 (Nuclear quadrupole moments (NQMom) in fm**2, nuclear magnetic moments (NMagM)
  in nuclear magnetons)

  Atom         1           2
 IAtWgt=           1           1
 AtmWgt=   1.0078250   1.0078250
 NucSpn=           1           1
 AtZEff=   0.0000000   0.0000000
 NQMom=    0.0000000   0.0000000
 NMagM=    2.7928460   2.7928460
 Leave Link  101 at Thu Oct  1 14:20:08 2020, MaxMem=  536870912 cpu:       0.0
 (Enter /share/home/srwang/g09/l202.exe)
                          Input orientation:                          
 ---------------------------------------------------------------------
 Center     Atomic      Atomic             Coordinates (Angstroms)
 Number     Number       Type             X           Y           Z
 ---------------------------------------------------------------------
      1          1           0        0.000000    0.000000    0.000000
      2          1           0        0.000000    0.000000    1.000000
 ---------------------------------------------------------------------
 Stoichiometry    H2
 Framework group  D*H[C*(H.H)]
 Deg. of freedom     1
 Full point group                 D*H     NOp   8
 Largest Abelian subgroup         D2H     NOp   8
 Largest concise Abelian subgroup C2      NOp   2
                         Standard orientation:                         
 ---------------------------------------------------------------------
 Center     Atomic      Atomic             Coordinates (Angstroms)
 Number     Number       Type             X           Y           Z
 ---------------------------------------------------------------------
      1          1           0        0.000000    0.000000    0.500000
      2          1           0        0.000000    0.000000   -0.500000
 ---------------------------------------------------------------------
 Rotational constants (GHZ):      0.0000000   1002.9102006   1002.9102006
 Leave Link  202 at Thu Oct  1 14:20:08 2020, MaxMem=  536870912 cpu:       0.0
 (Enter /share/home/srwang/g09/l301.exe)
 Standard basis: 3-21G (6D, 7F)
 Ernie: Thresh=  0.10000D-02 Tol=  0.10000D-05 Strict=F.
 There are     2 symmetry adapted basis functions of AG  symmetry.
 There are     0 symmetry adapted basis functions of B1G symmetry.
 There are     0 symmetry adapted basis functions of B2G symmetry.
 There are     0 symmetry adapted basis functions of B3G symmetry.
 There are     0 symmetry adapted basis functions of AU  symmetry.
 There are     2 symmetry adapted basis functions of B1U symmetry.
 There are     0 symmetry adapted basis functions of B2U symmetry.
 There are     0 symmetry adapted basis functions of B3U symmetry.
 Integral buffers will be    131072 words long.
 Raffenetti 2 integral format.
 Two-electron integral symmetry is turned on.
     4 basis functions,     6 primitive gaussians,     4 cartesian basis functions
     1 alpha electrons        1 beta electrons
       nuclear repulsion energy         0.5291772086 Hartrees.
 IExCor=    0 DFT=F Ex=HF Corr=None ExCW=0 ScaHFX=  1.000000
 ScaDFX=  1.000000  1.000000  1.000000  1.000000 ScalE2=  1.000000  1.000000
 IRadAn=      0 IRanWt=     -1 IRanGd=            0 ICorTp=0
 NAtoms=    2 NActive=    2 NUniq=    1 SFac= 4.00D+00 NAtFMM=   60 NAOKFM=F Big=F
 Leave Link  301 at Thu Oct  1 14:20:08 2020, MaxMem=  536870912 cpu:       0.0
 (Enter /share/home/srwang/g09/l302.exe)
 NPDir=0 NMtPBC=     1 NCelOv=     1 NCel=       1 NClECP=     1 NCelD=      1
         NCelK=      1 NCelE2=     1 NClLst=     1 CellRange=     0.0.
 One-electron integrals computed using PRISM.
 One-electron integral symmetry used in STVInt
 NBasis=     4 RedAO= T  NBF=     2     0     0     0     0     2     0     0
 NBsUse=     4 1.00D-06 NBFU=     2     0     0     0     0     2     0     0
 Leave Link  302 at Thu Oct  1 14:20:09 2020, MaxMem=  536870912 cpu:       0.0
 (Enter /share/home/srwang/g09/l303.exe)
 DipDrv:  MaxL=1.
 Leave Link  303 at Thu Oct  1 14:20:09 2020, MaxMem=  536870912 cpu:       0.0
 (Enter /share/home/srwang/g09/l401.exe)
 Harris functional with IExCor=  205 diagonalized for initial guess.
 ExpMin= 1.83D-01 ExpMax= 5.45D+00 ExpMxC= 5.45D+00 IAcc=1 IRadAn=         1 AccDes= 0.00D+00
 HarFok:  IExCor=  205 AccDes= 0.00D+00 IRadAn=         1 IDoV= 1
 ScaDFX=  1.000000  1.000000  1.000000  1.000000
 FoFCou: FMM=F IPFlag=           0 FMFlag=      100000 FMFlg1=           0
         NFxFlg=           0 DoJE=T BraDBF=F KetDBF=T FulRan=T
         Omega=  0.000000  0.000000  1.000000  0.000000  0.000000 ICntrl=     500 IOpCl=  0
         NMat0=    1 NMatS0=    1 NMatT0=    0 NMatD0=    1 NMtDS0=    0 NMtDT0=    0
         I1Cent=           4 NGrid=           0.
 Petite list used in FoFCou.
 Harris En= -1.14652745677542    
 Mixing orbitals, IMix= 1 IMixAn=  0 NRI=1 NE=    1 Coef=  7.07106781D-01  7.07106781D-01
 Mixing orbitals, IMix= 1 IMixAn=  0 NRI=1 NE=    1 Coef= -7.07106781D-01  7.07106781D-01
 Initial guess orbital symmetries:
 Alpha Orbitals:
       Occupied  (?A)
       Virtual   (?A) (SGG) (SGU)
 Beta  Orbitals:
       Occupied  (?A)
       Virtual   (?A) (SGG) (SGU)
 Initial guess <Sx>= 0.0000 <Sy>= 0.0000 <Sz>= 0.0000 <S**2>= 1.0000 S= 0.6180
 Leave Link  401 at Thu Oct  1 14:20:09 2020, MaxMem=  536870912 cpu:       0.1
 (Enter /share/home/srwang/g09/l502.exe)
 UHF open shell SCF:
 Requested convergence on RMS density matrix=1.00D-04 within 128 cycles.
 Requested convergence on MAX density matrix=1.00D-02.
 Requested convergence on             energy=1.00D-02.
 No special actions if energy rises.
 Using DIIS extrapolation, IDIIS=  1040.
 Integral symmetry usage will be decided dynamically.
 Keep R1 and R2 ints in memory in canonical form, NReq=819896.
 IEnd=       19765 IEndB=       19765 NGot=   536870912 MDV=   536868112
 LenX=   536868112 LenY=   536867230
 Symmetry not used in FoFDir.
 MinBra= 0 MaxBra= 0 Meth= 1.
 IRaf=       0 NMat=   1 IRICut=       1 DoRegI=T DoRafI=F ISym2E= 0 JSym2E=0.
 An orbital has undefined symmetry, so N**3 symmetry is turned off.

 Cycle   1  Pass 1  IDiag  1:
 Density matrix breaks symmetry, PCut= 1.00D-04
 Density matrix has no symmetry -- integrals replicated.
 E=-0.839079517920601    
 DIIS: error= 7.31D-02 at cycle   1 NSaved=   1.
 NSaved= 1 IEnMin= 1 EnMin=-0.839079517920601     IErMin= 1 ErrMin= 7.31D-02
 ErrMax= 7.31D-02 EMaxC= 1.00D-01 BMatC= 1.73D-01 BMatP= 1.73D-01
 IDIUse=3 WtCom= 2.69D-01 WtEn= 7.31D-01
 Coeff-Com:  0.100D+01
 Coeff-En:   0.100D+01
 Coeff:      0.100D+01
 Gap=     0.611 Goal=   None    Shift=    0.000
 Gap=     0.611 Goal=   None    Shift=    0.000
 GapD=    0.611 DampG=2.000 DampE=0.500 DampFc=1.0000 IDamp=-1.
 RMSDP=2.03D-01 MaxDP=4.54D-01              OVMax= 2.88D-01

 Cycle   2  Pass 1  IDiag  1:
 Density matrix breaks symmetry, PCut= 1.00D-07
 Density matrix has no symmetry -- integrals replicated.
 E= -1.01829467281621     Delta-E=       -0.179215154896 Rises=F Damp=F
 DIIS: error= 4.29D-02 at cycle   2 NSaved=   2.
 NSaved= 2 IEnMin= 2 EnMin= -1.01829467281621     IErMin= 2 ErrMin= 4.29D-02
 ErrMax= 4.29D-02 EMaxC= 1.00D-01 BMatC= 3.69D-02 BMatP= 1.73D-01
 IDIUse=3 WtCom= 5.71D-01 WtEn= 4.29D-01
 Coeff-Com: -0.618D+00 0.162D+01
 Coeff-En:   0.000D+00 0.100D+01
 Coeff:     -0.352D+00 0.135D+01
 Gap=     0.751 Goal=   None    Shift=    0.000
 Gap=     0.751 Goal=   None    Shift=    0.000
 RMSDP=7.96D-02 MaxDP=1.95D-01 DE=-1.79D-01 OVMax= 1.64D-01

 Cycle   3  Pass 1  IDiag  1:
 Density matrix breaks symmetry, PCut= 1.00D-07
 Density matrix has no symmetry -- integrals replicated.
 E= -1.06403916125185     Delta-E=       -0.045744488436 Rises=F Damp=F
 DIIS: error= 2.58D-02 at cycle   3 NSaved=   3.
 NSaved= 3 IEnMin= 3 EnMin= -1.06403916125185     IErMin= 3 ErrMin= 2.58D-02
 ErrMax= 2.58D-02 EMaxC= 1.00D-01 BMatC= 1.09D-02 BMatP= 3.69D-02
 IDIUse=3 WtCom= 7.42D-01 WtEn= 2.58D-01
 Coeff-Com:  0.769D+00-0.322D+01 0.345D+01
 Coeff-En:   0.000D+00 0.000D+00 0.100D+01
 Coeff:      0.571D+00-0.239D+01 0.282D+01
 Gap=     0.659 Goal=   None    Shift=    0.000
 Gap=     0.659 Goal=   None    Shift=    0.000
 RMSDP=6.65D-02 MaxDP=1.60D-01 DE=-4.57D-02 OVMax= 1.88D-01

 Cycle   4  Pass 1  IDiag  1:
 Density matrix breaks symmetry, PCut= 1.00D-07
 Density matrix has no symmetry -- integrals replicated.
 E= -1.08744585722023     Delta-E=       -0.023406695968 Rises=F Damp=F
 DIIS: error= 8.50D-03 at cycle   4 NSaved=   4.
 NSaved= 4 IEnMin= 4 EnMin= -1.08744585722023     IErMin= 4 ErrMin= 8.50D-03
 ErrMax= 8.50D-03 EMaxC= 1.00D-01 BMatC= 1.20D-03 BMatP= 1.09D-02
 IDIUse=3 WtCom= 9.15D-01 WtEn= 8.50D-02
 Coeff-Com: -0.127D+00 0.673D+00-0.136D+01 0.181D+01
 Coeff-En:   0.000D+00 0.000D+00 0.000D+00 0.100D+01
 Coeff:     -0.117D+00 0.616D+00-0.124D+01 0.174D+01
 Gap=     0.713 Goal=   None    Shift=    0.000
 Gap=     0.713 Goal=   None    Shift=    0.000
 RMSDP=2.71D-02 MaxDP=6.26D-02 DE=-2.34D-02 OVMax= 8.81D-02

 Cycle   5  Pass 1  IDiag  1:
 Density matrix breaks symmetry, PCut= 1.00D-07
 Density matrix has no symmetry -- integrals replicated.
 E= -1.09096749363238     Delta-E=       -0.003521636412 Rises=F Damp=F
 DIIS: error= 2.32D-03 at cycle   5 NSaved=   5.
 NSaved= 5 IEnMin= 5 EnMin= -1.09096749363238     IErMin= 5 ErrMin= 2.32D-03
 ErrMax= 2.32D-03 EMaxC= 1.00D-01 BMatC= 8.73D-05 BMatP= 1.20D-03
 IDIUse=3 WtCom= 9.77D-01 WtEn= 2.32D-02
 Coeff-Com:  0.197D-01-0.149D+00 0.256D+00-0.593D+00 0.147D+01
 Coeff-En:   0.000D+00 0.000D+00 0.000D+00 0.000D+00 0.100D+01
 Coeff:      0.193D-01-0.146D+00 0.250D+00-0.579D+00 0.145D+01
 Gap=     0.713 Goal=   None    Shift=    0.000
 Gap=     0.713 Goal=   None    Shift=    0.000
 RMSDP=1.03D-02 MaxDP=2.34D-02 DE=-3.52D-03 OVMax= 3.30D-02

 Cycle   6  Pass 1  IDiag  1:
 Density matrix breaks symmetry, PCut= 1.00D-07
 Density matrix has no symmetry -- integrals replicated.
 E= -1.09135427563503     Delta-E=       -0.000386782003 Rises=F Damp=F
 DIIS: error= 6.25D-04 at cycle   6 NSaved=   6.
 NSaved= 6 IEnMin= 6 EnMin= -1.09135427563503     IErMin= 6 ErrMin= 6.25D-04
 ErrMax= 6.25D-04 EMaxC= 1.00D-01 BMatC= 6.42D-06 BMatP= 8.73D-05
 IDIUse=3 WtCom= 9.94D-01 WtEn= 6.25D-03
 Coeff-Com:  0.615D-02-0.512D-01 0.852D-01-0.212D+00 0.368D+00 0.804D+00
 Coeff-En:   0.000D+00 0.000D+00 0.000D+00 0.000D+00 0.000D+00 0.100D+01
 Coeff:      0.611D-02-0.509D-01 0.847D-01-0.210D+00 0.366D+00 0.805D+00
 Gap=     0.713 Goal=   None    Shift=    0.000
 Gap=     0.713 Goal=   None    Shift=    0.000
 RMSDP=2.18D-03 MaxDP=4.80D-03 DE=-3.87D-04 OVMax= 6.97D-03

 Cycle   7  Pass 1  IDiag  1:
 Density matrix breaks symmetry, PCut= 1.00D-07
 Density matrix has no symmetry -- integrals replicated.
 E= -1.09137971156371     Delta-E=       -0.000025435929 Rises=F Damp=F
 DIIS: error= 2.78D-04 at cycle   7 NSaved=   7.
 NSaved= 7 IEnMin= 7 EnMin= -1.09137971156371     IErMin= 7 ErrMin= 2.78D-04
 ErrMax= 2.78D-04 EMaxC= 1.00D-01 BMatC= 1.28D-06 BMatP= 6.42D-06
 IDIUse=3 WtCom= 9.97D-01 WtEn= 2.78D-03
 Coeff-Com: -0.811D-04 0.316D-03-0.129D-02 0.243D-03 0.123D+00-0.146D+01
 Coeff-Com:  0.234D+01
 Coeff-En:   0.000D+00 0.000D+00 0.000D+00 0.000D+00 0.000D+00 0.000D+00
 Coeff-En:   0.100D+01
 Coeff:     -0.809D-04 0.315D-03-0.128D-02 0.242D-03 0.123D+00-0.146D+01
 Coeff:      0.233D+01
 Gap=     0.711 Goal=   None    Shift=    0.000
 Gap=     0.711 Goal=   None    Shift=    0.000
 RMSDP=1.73D-03 MaxDP=3.77D-03 DE=-2.54D-05 OVMax= 5.53D-03

 Cycle   8  Pass 1  IDiag  1:
 Density matrix breaks symmetry, PCut= 1.00D-07
 Density matrix has no symmetry -- integrals replicated.
 E= -1.09138608292170     Delta-E=       -0.000006371358 Rises=F Damp=F
 DIIS: error= 6.41D-06 at cycle   8 NSaved=   8.
 NSaved= 8 IEnMin= 8 EnMin= -1.09138608292170     IErMin= 8 ErrMin= 6.41D-06
 ErrMax= 6.41D-06 EMaxC= 1.00D-01 BMatC= 6.80D-10 BMatP= 1.28D-06
 IDIUse=1 WtCom= 1.00D+00 WtEn= 0.00D+00
 Large coefficients: NSaved=  8 BigCof=    0.00 CofMax=   10.00 Det=-3.85D-23
 Inversion failed.  Reducing to  7 matrices.
 Coeff-Com: -0.266D-05-0.113D-04 0.967D-04 0.154D-02-0.536D-01 0.836D-01
 Coeff-Com:  0.968D+00
 Coeff:     -0.266D-05-0.113D-04 0.967D-04 0.154D-02-0.536D-01 0.836D-01
 Coeff:      0.968D+00
 Gap=     0.711 Goal=   None    Shift=    0.000
 Gap=     0.711 Goal=   None    Shift=    0.000
 RMSDP=4.05D-05 MaxDP=8.79D-05 DE=-6.37D-06 OVMax= 1.29D-04

 Density matrix breaks symmetry, PCut= 1.00D-07
 Density matrix has no symmetry -- integrals replicated.
 SCF Done:  E(UHF) =  -1.09138608292     A.U. after    8 cycles
             Convg  =    0.4046D-04             -V/T =  2.1841
 <Sx>= 0.0000 <Sy>= 0.0000 <Sz>= 0.0000 <S**2>= 0.0000 S= 0.0000
 <L.S>= 0.000000000000E+00
 KE= 9.217395973321D-01 PE=-3.116997719585D+00 EE= 5.746948307411D-01
 Annihilation of the first spin contaminant:
 S**2 before annihilation     0.0000,   after    -0.0000
 Leave Link  502 at Thu Oct  1 14:20:09 2020, MaxMem=  536870912 cpu:       0.0
  
  +-------------------------------------------+
  |                                           |
  |  LINK 530 - Projected Hartree-Fock (PHF)  |
  |     Self-Consistent Field (SCF) Code      |
  |                                           |
  |                                           |
  |         the Scuseria group, v0.2, 07.2011 |
  +-------------------------------------------+
  
 (Enter ../phf/l530.exe)

 PHF SCF was invoked with the following options:

   method selection:
 iprint =  9
 iphf   =  4, [ UHF + spin projection ]

   general options:
 maxcyc =    512, S      =      0
 ngrda  =      1, ngrdb  =      8, ngrdg  =      1

   accuracy requested:
 conv criterion (RMSDP, RMSDK) =     1.0000E-08
 requested integral accuracy   =     1.0000E-10

   use of symmetry:
 two-electron integral symmetry not used

   strategy options:
 level shifting is turned off
 use of DIIS extrapolation is turned on
 mxscfc =     20, idisgo =      1
 istrat =      1, continue as usual if energy rises
 modified PHF effective Fock matrix used

   initial guess options:
 igues1 =  1, read GDV guess


 PHF SCF - preparing initial guess

  
 MO coefficients (alpha):
                 1             2             3             4 
      1   0.251709D+00 -0.149323D+00  0.883307D+00  0.950871D+00
      2   0.368856D+00 -0.117827D+01 -0.672400D+00 -0.112629D+01
      3   0.251707D+00  0.149323D+00  0.883304D+00 -0.950874D+00
      4   0.368853D+00  0.117827D+01 -0.672395D+00  0.112629D+01
 MO coefficients (beta):
                 1             2             3             4 
      1   0.251707D+00  0.149323D+00  0.883304D+00 -0.950874D+00
      2   0.368853D+00  0.117827D+01 -0.672395D+00  0.112629D+01
      3   0.251709D+00 -0.149323D+00  0.883307D+00  0.950871D+00
      4   0.368856D+00 -0.117827D+01 -0.672400D+00 -0.112629D+01
 After transformation 
  
 MO coefficients (alpha, real):
                 1             2             3             4 
      1   0.999691D+00  0.167343D-05  0.248398D-01  0.000000D+00
      2  -0.248398D-01  0.000000D+00  0.999691D+00 -0.161522D-05
      3   0.158277D-05 -0.808111D+00  0.000000D+00  0.589030D+00
      4   0.000000D+00 -0.589030D+00 -0.147239D-05 -0.808111D+00
 MO coefficients (alpha, imaginary):
                 1             2             3             4 
      1   0.000000D+00  0.000000D+00  0.000000D+00  0.000000D+00
      2   0.000000D+00  0.000000D+00  0.000000D+00  0.000000D+00
      3   0.000000D+00  0.000000D+00  0.000000D+00  0.000000D+00
      4   0.000000D+00  0.000000D+00  0.000000D+00  0.000000D+00
 MO coefficients (beta, real):
                 1             2             3             4 
      1   0.999691D+00  0.167343D-05  0.248398D-01  0.000000D+00
      2  -0.248398D-01  0.000000D+00  0.999691D+00 -0.161522D-05
      3  -0.158277D-05  0.808111D+00  0.000000D+00 -0.589030D+00
      4   0.000000D+00  0.589030D+00  0.147239D-05  0.808111D+00
 MO coefficients (beta, imaginary):
                 1             2             3             4 
      1   0.000000D+00  0.000000D+00  0.000000D+00  0.000000D+00
      2   0.000000D+00  0.000000D+00  0.000000D+00  0.000000D+00
      3   0.000000D+00  0.000000D+00  0.000000D+00  0.000000D+00
      4   0.000000D+00  0.000000D+00  0.000000D+00  0.000000D+00
  
 density matrix (alpha, real):
                1             2             3             4 
      1  0.999383D+00
      2 -0.248321D-01  0.617016D-03
      3  0.158228D-05  0.000000D+00  0.000000D+00
      4  0.000000D+00  0.000000D+00  0.000000D+00  0.000000D+00
 density matrix (alpha, imaginary):
                1             2             3             4 
      1  0.000000D+00
      2 -0.000000D+00  0.000000D+00
      3 -0.000000D+00 -0.000000D+00  0.000000D+00
      4 -0.000000D+00 -0.000000D+00 -0.000000D+00  0.000000D+00
 density matrix (beta, real):
                1             2             3             4 
      1  0.999383D+00
      2 -0.248321D-01  0.617016D-03
      3 -0.158228D-05  0.000000D+00  0.000000D+00
      4  0.000000D+00  0.000000D+00  0.000000D+00  0.000000D+00
 density matrix (beta, imaginary):
                1             2             3             4 
      1  0.000000D+00
      2 -0.000000D+00  0.000000D+00
      3 -0.000000D+00 -0.000000D+00  0.000000D+00
      4 -0.000000D+00 -0.000000D+00 -0.000000D+00  0.000000D+00

 PHF SCF - starting SCF procedure

  
 HF density matrix (alpha, real):
                1             2             3             4 
      1  0.999383D+00
      2 -0.248321D-01  0.617016D-03
      3  0.158228D-05  0.000000D+00  0.000000D+00
      4  0.000000D+00  0.000000D+00  0.000000D+00  0.000000D+00
 HF density matrix (alpha, imaginary):
                1             2             3             4 
      1  0.000000D+00
      2 -0.000000D+00  0.000000D+00
      3 -0.000000D+00 -0.000000D+00  0.000000D+00
      4 -0.000000D+00 -0.000000D+00 -0.000000D+00  0.000000D+00
 HF density matrix (beta, real):
                1             2             3             4 
      1  0.999383D+00
      2 -0.248321D-01  0.617016D-03
      3 -0.158228D-05  0.000000D+00  0.000000D+00
      4  0.000000D+00  0.000000D+00  0.000000D+00  0.000000D+00
 HF density matrix (beta, imaginary):
                1             2             3             4 
      1  0.000000D+00
      2 -0.000000D+00  0.000000D+00
      3 -0.000000D+00 -0.000000D+00  0.000000D+00
      4 -0.000000D+00 -0.000000D+00 -0.000000D+00  0.000000D+00
  
 Core Hamiltonian (real):
                 1             2             3             4 
      1  -0.110342D+01 -0.101535D+00  0.000000D+00  0.000000D+00
      2  -0.101535D+00  0.113644D+00  0.000000D+00  0.000000D+00
      3   0.000000D+00  0.000000D+00 -0.497866D+00 -0.349318D+00
      4   0.000000D+00  0.000000D+00 -0.349318D+00  0.127574D+00
 Core Hamiltonian (imaginary):
                 1             2             3             4 
      1   0.000000D+00  0.000000D+00  0.000000D+00  0.000000D+00
      2   0.000000D+00  0.000000D+00  0.000000D+00  0.000000D+00
      3   0.000000D+00  0.000000D+00  0.000000D+00  0.000000D+00
      4   0.000000D+00  0.000000D+00  0.000000D+00  0.000000D+00

 Enter FofDir, NBasis=   4 IHMeth= 1.
 Symmetry not used in FoFDir.
 MinBra= 0 MaxBra= 0 Meth= 1.
 IRaf=       1 NMat=   2 IRICut=       1 DoRegI=T DoRafI=F ISym2E= 0 JSym2E=0.
  NShlT=       4 NTypes=       1  LenT1=       9  LenC1=       6
  LenT2=       2  LenN2=      50  LenC2=      11 LenP2D=      23
 LenP2C=      23
 IType=       1 ShlT= 0 ShlC= 0 T1C1St=       1
   ISh=       1 C1NPrm=   1 C1ESt=       1 C1CSt=       1
     C1SMap=       2 C1AOS=       2 C1Cent=     2
     CentXYZ=      0.000000      0.000000      0.944863
     IPrm=       1 P1Exp= 1.83D-01 P1CMax= 2.00D-01
   ISh=       2 C1NPrm=   1 C1ESt=       2 C1CSt=       2
     C1SMap=       4 C1AOS=       4 C1Cent=     4
     CentXYZ=      0.000000      0.000000     -0.944863
     IPrm=       2 P1Exp= 1.83D-01 P1CMax= 2.00D-01
   ISh=       3 C1NPrm=   2 C1ESt=       3 C1CSt=       3
     C1SMap=       1 C1AOS=       1 C1Cent=     1
     CentXYZ=      0.000000      0.000000      0.944863
     IPrm=       3 P1Exp= 5.45D+00 P1CMax= 3.97D-01
     IPrm=       4 P1Exp= 8.25D-01 P1CMax= 5.58D-01
   ISh=       4 C1NPrm=   2 C1ESt=       5 C1CSt=       5
     C1SMap=       3 C1AOS=       3 C1Cent=     3
     CentXYZ=      0.000000      0.000000     -0.944863
     IPrm=       5 P1Exp= 5.45D+00 P1CMax= 3.97D-01
     IPrm=       6 P1Exp= 8.25D-01 P1CMax= 5.58D-01
 IJTC=   1 IType= 1 JType= 1 T2N2St=     1
   IJTN=   1 NPrm=     1     0 C2St=     1 PDSt=     1 PCSt=     1
   IJTN=   2 NPrm=     1     0 C2St=     1 PDSt=     1 PCSt=     1
    IJShl=     1 C2ShlIJ=     1     1 C2CelJ=     1 C2LocIJ=   1   1 C2FPrm=     1 C2KMax= 0.83D+00 0.83D+00
       C2CDif=      0.000000      0.000000      0.000000
       IJP=       1 A= 0.366383D+00 B= 0.366383D+00 U= 0.100000D+01
                    C= 0.100000D+01
         P2P=   0.000000D+00 0.000000D+00 0.944863D+00
         P2PMA= 0.000000D+00 0.000000D+00 0.000000D+00
         P2PMB=-0.000000D+00-0.000000D+00-0.000000D+00
    IJShl=     2 C2ShlIJ=     2     1 C2CelJ=     1 C2LocIJ=   1   1 C2FPrm=     1 C2KMax= 0.12D+01 0.12D+01
       C2CDif=      0.000000      0.000000     -1.889726
       IJP=       2 A= 0.366383D+00 B= 0.366383D+00 U= 0.144203D+01
                    C= 0.100000D+01
         P2P=   0.578562D-16 0.000000D+00-0.312573D-16
         P2PMA= 0.423951D-16 0.000000D+00-0.692364D+00
         P2PMB=-0.423951D-16-0.000000D+00 0.692364D+00
    IJShl=     3 C2ShlIJ=     2     2 C2CelJ=     1 C2LocIJ=   1   1 C2FPrm=     1 C2KMax= 0.83D+00 0.83D+00
       C2CDif=      0.000000      0.000000      0.000000
       IJP=       3 A= 0.366383D+00 B= 0.366383D+00 U= 0.100000D+01
                    C= 0.100000D+01
         P2P=   0.115712D-15 0.000000D+00-0.944863D+00
         P2PMA= 0.000000D+00 0.000000D+00 0.000000D+00
         P2PMB=-0.000000D+00-0.000000D+00-0.000000D+00
   IJTN=   3 NPrm=     2     0 C2St=     4 PDSt=     4 PCSt=     4
   IJTN=   4 NPrm=     2     0 C2St=     4 PDSt=     4 PCSt=     4
    IJShl=     4 C2ShlIJ=     3     1 C2CelJ=     1 C2LocIJ=   1   1 C2FPrm=     2 C2KMax= 0.13D+01 0.13D+01
       C2CDif=      0.000000      0.000000      0.000000
       IJP=       4 A= 0.108944D+02 B= 0.366383D+00 U= 0.660685D-01
                    C= 0.100000D+01
         P2P=   0.000000D+00 0.000000D+00 0.944863D+00
         P2PMA= 0.000000D+00 0.000000D+00 0.000000D+00
         P2PMB=-0.000000D+00-0.000000D+00-0.000000D+00
       IJP=       5 A= 0.164909D+01 B= 0.366383D+00 U= 0.122573D+01
                    C= 0.100000D+01
         P2P=   0.000000D+00 0.000000D+00 0.944863D+00
         P2PMA= 0.000000D+00 0.000000D+00 0.000000D+00
         P2PMB=-0.000000D+00-0.000000D+00-0.000000D+00
    IJShl=     5 C2ShlIJ=     3     2 C2CelJ=     1 C2LocIJ=   1   1 C2FPrm=     2 C2KMax= 0.77D+00 0.77D+00
       C2CDif=     -0.000000      0.000000      1.889726
       IJP=       6 A= 0.108944D+02 B= 0.366383D+00 U= 0.350855D-01
                    C= 0.100000D+01
         P2P=   0.376486D-17 0.000000D+00 0.883378D+00
         P2PMA=-0.126061D-14 0.000000D+00 0.205873D+02
         P2PMB= 0.423951D-16-0.000000D+00-0.692364D+00
       IJP=       7 A= 0.164909D+01 B= 0.366383D+00 U= 0.717679D+00
                    C= 0.100000D+01
         P2P=   0.210347D-16 0.000000D+00 0.601340D+00
         P2PMA=-0.190821D-15 0.000000D+00 0.311634D+01
         P2PMB= 0.423951D-16-0.000000D+00-0.692364D+00
    IJShl=     6 C2ShlIJ=     4     1 C2CelJ=     1 C2LocIJ=   1   1 C2FPrm=     2 C2KMax= 0.77D+00 0.77D+00
       C2CDif=      0.000000      0.000000     -1.889726
       IJP=       8 A= 0.108944D+02 B= 0.366383D+00 U= 0.350855D-01
                    C= 0.100000D+01
         P2P=   0.111947D-15 0.000000D+00-0.883378D+00
         P2PMA= 0.126061D-14 0.000000D+00-0.205873D+02
         P2PMB=-0.423951D-16-0.000000D+00 0.692364D+00
       IJP=       9 A= 0.164909D+01 B= 0.366383D+00 U= 0.717679D+00
                    C= 0.100000D+01
         P2P=   0.946776D-16 0.000000D+00-0.601340D+00
         P2PMA= 0.190821D-15 0.000000D+00-0.311634D+01
         P2PMB=-0.423951D-16-0.000000D+00 0.692364D+00
    IJShl=     7 C2ShlIJ=     4     2 C2CelJ=     1 C2LocIJ=   1   1 C2FPrm=     2 C2KMax= 0.13D+01 0.13D+01
       C2CDif=      0.000000      0.000000      0.000000
       IJP=      10 A= 0.108944D+02 B= 0.366383D+00 U= 0.660685D-01
                    C= 0.100000D+01
         P2P=   0.115712D-15 0.000000D+00-0.944863D+00
         P2PMA= 0.000000D+00 0.000000D+00 0.000000D+00
         P2PMB=-0.000000D+00-0.000000D+00-0.000000D+00
       IJP=      11 A= 0.164909D+01 B= 0.366383D+00 U= 0.122573D+01
                    C= 0.100000D+01
         P2P=   0.115712D-15 0.000000D+00-0.944863D+00
         P2PMA= 0.000000D+00 0.000000D+00 0.000000D+00
         P2PMB=-0.000000D+00-0.000000D+00-0.000000D+00
   IJTN=   5 NPrm=     4     0 C2St=     8 PDSt=    12 PCSt=    12
   IJTN=   6 NPrm=     4     0 C2St=     8 PDSt=    12 PCSt=    12
    IJShl=     8 C2ShlIJ=     3     3 C2CelJ=     1 C2LocIJ=   1   1 C2FPrm=     4 C2KMax= 0.11D+01 0.11D+01
       C2CDif=      0.000000      0.000000      0.000000
       IJP=      12 A= 0.108944D+02 B= 0.108944D+02 U= 0.244250D-01
                    C= 0.100000D+01
         P2P=   0.000000D+00 0.000000D+00 0.944863D+00
         P2PMA= 0.000000D+00 0.000000D+00 0.000000D+00
         P2PMB=-0.000000D+00-0.000000D+00-0.000000D+00
       IJP=      13 A= 0.108944D+02 B= 0.164909D+01 U= 0.785547D-01
                    C= 0.100000D+01
         P2P=   0.000000D+00 0.000000D+00 0.944863D+00
         P2PMA= 0.000000D+00 0.000000D+00 0.000000D+00
         P2PMB=-0.000000D+00-0.000000D+00-0.000000D+00
       IJP=      14 A= 0.164909D+01 B= 0.108944D+02 U= 0.785547D-01
                    C= 0.100000D+01
         P2P=   0.000000D+00 0.000000D+00 0.944863D+00
         P2PMA= 0.000000D+00 0.000000D+00 0.000000D+00
         P2PMB=-0.000000D+00-0.000000D+00-0.000000D+00
       IJP=      15 A= 0.164909D+01 B= 0.164909D+01 U= 0.818466D+00
                    C= 0.100000D+01
         P2P=   0.000000D+00 0.000000D+00 0.944863D+00
         P2PMA= 0.000000D+00 0.000000D+00 0.000000D+00
         P2PMB=-0.000000D+00-0.000000D+00-0.000000D+00
    IJShl=     9 C2ShlIJ=     4     3 C2CelJ=     1 C2LocIJ=   1   1 C2FPrm=     4 C2KMax= 0.51D+00 0.51D+00
       C2CDif=      0.000000      0.000000     -1.889726
       IJP=      16 A= 0.108944D+02 B= 0.108944D+02 U= 0.291654D-05
                    C= 0.100000D+01
         P2P=   0.578562D-16 0.000000D+00 0.446872D-17
         P2PMA= 0.126061D-14 0.000000D+00-0.205873D+02
         P2PMB=-0.126061D-14-0.000000D+00 0.205873D+02
       IJP=      17 A= 0.108944D+02 B= 0.164909D+01 U= 0.121770D-01
                    C= 0.100000D+01
         P2P=   0.100500D-15 0.000000D+00-0.696420D+00
         P2PMA= 0.126061D-14 0.000000D+00-0.205873D+02
         P2PMB=-0.190821D-15-0.000000D+00 0.311634D+01
       IJP=      18 A= 0.164909D+01 B= 0.108944D+02 U= 0.121770D-01
                    C= 0.100000D+01
         P2P=   0.152128D-16 0.000000D+00 0.696420D+00
         P2PMA= 0.190821D-15 0.000000D+00-0.311634D+01
         P2PMB=-0.126061D-14-0.000000D+00 0.205873D+02
       IJP=      19 A= 0.164909D+01 B= 0.164909D+01 U= 0.375524D+00
                    C= 0.100000D+01
         P2P=   0.578562D-16 0.000000D+00-0.293593D-16
         P2PMA= 0.190821D-15 0.000000D+00-0.311634D+01
         P2PMB=-0.190821D-15-0.000000D+00 0.311634D+01
    IJShl=    10 C2ShlIJ=     4     4 C2CelJ=     1 C2LocIJ=   1   1 C2FPrm=     4 C2KMax= 0.11D+01 0.11D+01
       C2CDif=      0.000000      0.000000      0.000000
       IJP=      20 A= 0.108944D+02 B= 0.108944D+02 U= 0.244250D-01
                    C= 0.100000D+01
         P2P=   0.115712D-15 0.000000D+00-0.944863D+00
         P2PMA= 0.000000D+00 0.000000D+00 0.000000D+00
         P2PMB=-0.000000D+00-0.000000D+00-0.000000D+00
       IJP=      21 A= 0.108944D+02 B= 0.164909D+01 U= 0.785547D-01
                    C= 0.100000D+01
         P2P=   0.115712D-15 0.000000D+00-0.944863D+00
         P2PMA= 0.000000D+00 0.000000D+00 0.000000D+00
         P2PMB=-0.000000D+00-0.000000D+00-0.000000D+00
       IJP=      22 A= 0.164909D+01 B= 0.108944D+02 U= 0.785547D-01
                    C= 0.100000D+01
         P2P=   0.115712D-15 0.000000D+00-0.944863D+00
         P2PMA= 0.000000D+00 0.000000D+00 0.000000D+00
         P2PMB=-0.000000D+00-0.000000D+00-0.000000D+00
       IJP=      23 A= 0.164909D+01 B= 0.164909D+01 U= 0.818466D+00
                    C= 0.100000D+01
         P2P=   0.115712D-15 0.000000D+00-0.944863D+00
         P2PMA= 0.000000D+00 0.000000D+00 0.000000D+00
         P2PMB=-0.000000D+00-0.000000D+00-0.000000D+00
 2e integrals                           
 The Coulomb operator will be used
 PrsmSu:  NPrtUS=   1 ThrOK=F IAlg=1 NPAlg=1 LenDen=           0.
 Prism:   IPart=     0 DynPar=F LinDyn=F Incr=           1.
 PRISM was handed   536868870 working-precision words and    10 shell-pairs
 PRISM will use Minimum- Mop paths
 [0] accuracy = 0.10D-09   Chebyshev Delta = 0.37D-02   Critical T = 23.77   # of points =   3192


           Zone         Bra Derivative Range     Ket Derivative Range
           ==========================================================
             1                 0 to 0                   0 to 0
           ==========================================================

 Test Interpolations for Gm(T), m = 0
                             Gm( 0) = 0.797884560803
                             Gm( 5) = 0.315732742358
                             Gm(10) = 0.223605066091
                             Gm(15) = 0.182574177947
                             Gm(20) = 0.158113882968

                             -------------------
                             The (ss|ss) Classes
 Not enough memory for any path:
 MxKBra=    4 MxKKet=    4 Memory=   536856014.
 After MaxDer, Avail=TTFFTTFFFFTTFFTFFFFFFFFFFFFFFTFFFFFFFFFFFFFFFFFFFF
 After MemPth, Avail=TTFFTTFFFFTTFFTFFFFFFFFFFFFFFTFFFFFFFFFFFFFFFFFFFF
 After MxKxxx, Avail=FFFFTTFFFFFFFFTFFFFFFFFFFFFFFTFFFFFFFFFFFFFFFFFFFF
 After UseAlp/DoOS, Avail=FFFFTTFFFFFFFFTFFFFFFFFFFFFFFTFFFFFFFFFFFFFFFFFFFF
                             -------------------

       Available PRISM Paths:  4  5 14 29

    No. of target [m0|n0]   =     1
    No. of locations needed =     1

       T1    T2    T3    T4    T5    T6    T7    T8    T9   T10   T11   T12
        0 99999 99999 99999     0     0     0     0     0     0     0     0
   C1   C2   C3   C4   C5   C6   C7   C8   C9  C10  C11  C12  C13  C14  C15  C16
99999999999999999999    1    1    1    1    1    1    1    1    1    1    1    1
    0    0    0    0    1    1    1    1    1    1    1    1    1    1    1    1

                   VR1     cost =       0
                   Bra-TRn cost =       0
                   Ket-TRn cost =       0

                   Space needed for drivers          =     156
                   Space needed for driver formation =     157

                   KBra   KKet   Path     Mops    Wds/S4    MaxCom 

                   C37 =       4
                   C38 =       4

  n0SL  n1SL  n2SL   mQP mQB mDP mDB mPA mAB mQC mCD mRA mRC
     1     1     1     1   0   0   0   0   1   0   1   0   0

                          --------------------------
                          Driver for Bra-Contraction
                             A         B         C
                          --------------------------
                             1         0         1
                          --------------------------

                          --------------------------
                          Driver for Ket-Contraction
                             A         B         C
                          --------------------------
                             1         0         1
                          --------------------------

                         ----------------------------
                          Where are the bras stored?
                           _    _
                           a    b    a    b     Row
                         ----------------------------
                           1    1    1    1       1
                         ----------------------------

                         ----------------------------
                          Where are the kets stored?
                           _    _
                           c    d    c    d     Col
                         ----------------------------
                           1    1    1    1       1
                         ----------------------------
 Prsmar:  KBra=    1 KKet=    1 PsmPth= 4 Kost=           0 NPerS4=        89 nW0=         1 nW1=         1 nW2=         1 nW0X=         0 NPS4B=        19 jEnd=     2634339 LenV=   536868870 MaxCom=       29454
                   LoadC4 grabbed a batch of    6 quartets for IPart=  0
 IPart=  0 LTot= 0 IJT=    1 KLT=    1 IJTN=       2 KLTN=       2 NShPair=           6.

  n0SL  n1SL  n2SL   mQP mQB mDP mDB mPA mAB mQC mCD mRA mRC
     1     1     1     1   0   0   0   0   1   0   1   0   0

                          --------------------------
                          Driver for Bra-Contraction
                             A         B         C
                          --------------------------
                             1         0         1
                          --------------------------

                          --------------------------
                          Driver for Ket-Contraction
                             A         B         C
                          --------------------------
                             1         0         1
                          --------------------------

                         ----------------------------
                          Where are the bras stored?
                           _    _
                           a    b    a    b     Row
                         ----------------------------
                           1    1    1    1       1
                         ----------------------------

                         ----------------------------
                          Where are the kets stored?
                           _    _
                           c    d    c    d     Col
                         ----------------------------
                           1    1    1    1       1
                         ----------------------------
 Prsmar:  KBra=    2 KKet=    1 PsmPth= 4 Kost=           1 NPerS4=        97 nW0=         2 nW1=         1 nW2=         2 nW0X=         0 NPS4B=        25 jEnd=     2634359 LenV=   536868870 MaxCom=       27025
                   LoadC4 grabbed a batch of   12 quartets for IPart=  0
 IPart=  0 LTot= 0 IJT=    1 KLT=    1 IJTN=       4 KLTN=       2 NShPair=          12.

  n0SL  n1SL  n2SL   mQP mQB mDP mDB mPA mAB mQC mCD mRA mRC
     1     1     1     1   0   0   0   0   1   0   1   0   0

                          --------------------------
                          Driver for Bra-Contraction
                             A         B         C
                          --------------------------
                             1         0         1
                          --------------------------

                          --------------------------
                          Driver for Ket-Contraction
                             A         B         C
                          --------------------------
                             1         0         1
                          --------------------------

                         ----------------------------
                          Where are the bras stored?
                           _    _
                           a    b    a    b     Row
                         ----------------------------
                           1    1    1    1       1
                         ----------------------------

                         ----------------------------
                          Where are the kets stored?
                           _    _
                           c    d    c    d     Col
                         ----------------------------
                           1    1    1    1       1
                         ----------------------------
 Prsmar:  KBra=    2 KKet=    2 PsmPth= 4 Kost=           3 NPerS4=       114 nW0=         4 nW1=         2 nW2=         4 nW0X=         0 NPS4B=        38 jEnd=     2634364 LenV=   536868870 MaxCom=       22995
                   LoadC4 grabbed a batch of   10 quartets for IPart=  0
 IPart=  0 LTot= 0 IJT=    1 KLT=    1 IJTN=       4 KLTN=       4 NShPair=          10.

  n0SL  n1SL  n2SL   mQP mQB mDP mDB mPA mAB mQC mCD mRA mRC
     1     1     1     1   0   0   0   0   1   0   1   0   0

                          --------------------------
                          Driver for Bra-Contraction
                             A         B         C
                          --------------------------
                             1         0         1
                          --------------------------

                          --------------------------
                          Driver for Ket-Contraction
                             A         B         C
                          --------------------------
                             1         0         1
                          --------------------------

                         ----------------------------
                          Where are the bras stored?
                           _    _
                           a    b    a    b     Row
                         ----------------------------
                           1    1    1    1       1
                         ----------------------------

                         ----------------------------
                          Where are the kets stored?
                           _    _
                           c    d    c    d     Col
                         ----------------------------
                           1    1    1    1       1
                         ----------------------------
 Prsmar:  KBra=    4 KKet=    1 PsmPth= 4 Kost=           3 NPerS4=       113 nW0=         4 nW1=         1 nW2=         4 nW0X=         0 NPS4B=        37 jEnd=     2634307 LenV=   536868870 MaxCom=       23198
                   LoadC4 grabbed a batch of    9 quartets for IPart=  0
 IPart=  0 LTot= 0 IJT=    1 KLT=    1 IJTN=       6 KLTN=       2 NShPair=           9.

  n0SL  n1SL  n2SL   mQP mQB mDP mDB mPA mAB mQC mCD mRA mRC
     1     1     1     1   0   0   0   0   1   0   1   0   0

                          --------------------------
                          Driver for Bra-Contraction
                             A         B         C
                          --------------------------
                             1         0         1
                          --------------------------

                          --------------------------
                          Driver for Ket-Contraction
                             A         B         C
                          --------------------------
                             1         0         1
                          --------------------------

                         ----------------------------
                          Where are the bras stored?
                           _    _
                           a    b    a    b     Row
                         ----------------------------
                           1    1    1    1       1
                         ----------------------------

                         ----------------------------
                          Where are the kets stored?
                           _    _
                           c    d    c    d     Col
                         ----------------------------
                           1    1    1    1       1
                         ----------------------------
 Prsmar:  KBra=    4 KKet=    2 PsmPth= 4 Kost=           7 NPerS4=       146 nW0=         8 nW1=         2 nW2=         8 nW0X=         0 NPS4B=        62 jEnd=     2634363 LenV=   536868870 MaxCom=       17955
                   LoadC4 grabbed a batch of   12 quartets for IPart=  0
 IPart=  0 LTot= 0 IJT=    1 KLT=    1 IJTN=       6 KLTN=       4 NShPair=          12.

  n0SL  n1SL  n2SL   mQP mQB mDP mDB mPA mAB mQC mCD mRA mRC
     1     1     1     1   0   0   0   0   1   0   1   0   0

                          --------------------------
                          Driver for Bra-Contraction
                             A         B         C
                          --------------------------
                             1         0         1
                          --------------------------

                          --------------------------
                          Driver for Ket-Contraction
                             A         B         C
                          --------------------------
                             1         0         1
                          --------------------------

                         ----------------------------
                          Where are the bras stored?
                           _    _
                           a    b    a    b     Row
                         ----------------------------
                           1    1    1    1       1
                         ----------------------------

                         ----------------------------
                          Where are the kets stored?
                           _    _
                           c    d    c    d     Col
                         ----------------------------
                           1    1    1    1       1
                         ----------------------------
 Prsmar:  KBra=    4 KKet=    4 PsmPth= 4 Kost=          15 NPerS4=       212 nW0=        16 nW1=         4 nW2=        16 nW0X=         0 NPS4B=       112 jEnd=     2634313 LenV=   536868870 MaxCom=       12365
                   LoadC4 grabbed a batch of    6 quartets for IPart=  0
 IPart=  0 LTot= 0 IJT=    1 KLT=    1 IJTN=       6 KLTN=       6 NShPair=           6.
 IPart=  0 NShTot=          55 NBatch=           6 AvBLen=         9.2
 PrSmSu:  NxtVal=              2.
  
 HF Fock matrix (alpha, real):
                1             2             3             4 
      1 -0.521953D+00
      2  0.394971D-01  0.106665D+01
      3 -0.121973D-05  0.000000D+00  0.573425D+00
      4  0.000000D+00  0.000000D+00 -0.528652D+00  0.913369D+00
 HF Fock matrix (alpha, imaginary):
                1             2             3             4 
      1  0.000000D+00
      2 -0.000000D+00  0.000000D+00
      3 -0.000000D+00 -0.000000D+00  0.000000D+00
      4 -0.000000D+00 -0.000000D+00 -0.000000D+00  0.000000D+00
 HF Fock matrix (beta, real):
                1             2             3             4 
      1 -0.521953D+00
      2  0.394971D-01  0.106665D+01
      3  0.121973D-05  0.000000D+00  0.573425D+00
      4  0.000000D+00  0.000000D+00 -0.528652D+00  0.913369D+00
 HF Fock matrix (beta, imaginary):
                1             2             3             4 
      1  0.000000D+00
      2 -0.000000D+00  0.000000D+00
      3 -0.000000D+00 -0.000000D+00  0.000000D+00
      4 -0.000000D+00 -0.000000D+00 -0.000000D+00  0.000000D+00
 End hffock
 End copy in hfdmdg
 Enter itype=2
 End vconjg1
 End zhpev1
 End vconjg2
 End zhpev2 
 End diag1 in hfdmdg
 End diag in hfdmdg
  
 density matrix (NO) (real):
                 1             2             3             4             5 
      1   0.100000D+01  0.000000D+00  0.000000D+00  0.000000D+00  0.000000D+00
      2   0.000000D+00  0.100000D+01  0.000000D+00  0.000000D+00  0.000000D+00
      3   0.000000D+00  0.000000D+00  0.000000D+00  0.000000D+00  0.000000D+00
      4   0.000000D+00  0.000000D+00  0.000000D+00  0.000000D+00  0.000000D+00
      5   0.000000D+00  0.000000D+00  0.000000D+00  0.000000D+00  0.000000D+00
      6   0.000000D+00  0.000000D+00  0.000000D+00  0.000000D+00  0.000000D+00
      7   0.000000D+00  0.000000D+00  0.000000D+00  0.000000D+00  0.000000D+00
      8   0.000000D+00  0.000000D+00  0.000000D+00  0.000000D+00  0.000000D+00
                 6             7             8 
      1   0.000000D+00  0.000000D+00  0.000000D+00
      2   0.000000D+00  0.000000D+00  0.000000D+00
      3   0.000000D+00  0.000000D+00  0.000000D+00
      4   0.000000D+00  0.000000D+00  0.000000D+00
      5   0.000000D+00  0.000000D+00  0.000000D+00
      6   0.000000D+00  0.000000D+00  0.000000D+00
      7   0.000000D+00  0.000000D+00  0.000000D+00
      8   0.000000D+00  0.000000D+00  0.000000D+00
 density matrix (NO) (imaginary):
                 1             2             3             4             5 
      1   0.000000D+00  0.000000D+00  0.000000D+00  0.000000D+00  0.000000D+00
      2   0.000000D+00  0.000000D+00  0.000000D+00  0.000000D+00  0.000000D+00
      3   0.000000D+00  0.000000D+00  0.000000D+00  0.000000D+00  0.000000D+00
      4   0.000000D+00  0.000000D+00  0.000000D+00  0.000000D+00  0.000000D+00
      5   0.000000D+00  0.000000D+00  0.000000D+00  0.000000D+00  0.000000D+00
      6   0.000000D+00  0.000000D+00  0.000000D+00  0.000000D+00  0.000000D+00
      7   0.000000D+00  0.000000D+00  0.000000D+00  0.000000D+00  0.000000D+00
      8   0.000000D+00  0.000000D+00  0.000000D+00  0.000000D+00  0.000000D+00
                 6             7             8 
      1   0.000000D+00  0.000000D+00  0.000000D+00
      2   0.000000D+00  0.000000D+00  0.000000D+00
      3   0.000000D+00  0.000000D+00  0.000000D+00
      4   0.000000D+00  0.000000D+00  0.000000D+00
      5   0.000000D+00  0.000000D+00  0.000000D+00
      6   0.000000D+00  0.000000D+00  0.000000D+00
      7   0.000000D+00  0.000000D+00  0.000000D+00
      8   0.000000D+00  0.000000D+00  0.000000D+00
 End hfdmdg
  
 N(g) (    1, 1, 1) (real):
                 1             2 
      1   0.999514D+00 -0.311832D-01
      2   0.311832D-01  0.999514D+00
 N(g) (    1, 1, 1) (imaginary):
                 1             2 
      1   0.000000D+00  0.000000D+00
      2   0.000000D+00  0.000000D+00
  
 N(g) (    2, 1, 1) (real):
                 1             2 
      1   0.987275D+00 -0.159020D+00
      2   0.159020D+00  0.987275D+00
 N(g) (    2, 1, 1) (imaginary):
                 1             2 
      1   0.000000D+00  0.000000D+00
      2   0.000000D+00  0.000000D+00
  
 N(g) (    3, 1, 1) (real):
                 1             2 
      1   0.931367D+00 -0.364081D+00
      2   0.364081D+00  0.931367D+00
 N(g) (    3, 1, 1) (imaginary):
                 1             2 
      1   0.000000D+00  0.000000D+00
      2   0.000000D+00  0.000000D+00
  
 N(g) (    4, 1, 1) (real):
                 1             2 
      1   0.801301D+00 -0.598261D+00
      2   0.598261D+00  0.801301D+00
 N(g) (    4, 1, 1) (imaginary):
                 1             2 
      1   0.000000D+00  0.000000D+00
      2   0.000000D+00  0.000000D+00
  
 N(g) (    5, 1, 1) (real):
                 1             2 
      1   0.598261D+00 -0.801301D+00
      2   0.801301D+00  0.598261D+00
 N(g) (    5, 1, 1) (imaginary):
                 1             2 
      1   0.000000D+00  0.000000D+00
      2   0.000000D+00  0.000000D+00
  
 N(g) (    6, 1, 1) (real):
                 1             2 
      1   0.364081D+00 -0.931367D+00
      2   0.931367D+00  0.364081D+00
 N(g) (    6, 1, 1) (imaginary):
                 1             2 
      1   0.000000D+00  0.000000D+00
      2   0.000000D+00  0.000000D+00
  
 N(g) (    7, 1, 1) (real):
                 1             2 
      1   0.159020D+00 -0.987275D+00
      2   0.987275D+00  0.159020D+00
 N(g) (    7, 1, 1) (imaginary):
                 1             2 
      1   0.000000D+00  0.000000D+00
      2   0.000000D+00  0.000000D+00
  
 N(g) (    8, 1, 1) (real):
                 1             2 
      1   0.311832D-01 -0.999514D+00
      2   0.999514D+00  0.311832D-01
 N(g) (    8, 1, 1) (imaginary):
                 1             2 
      1   0.000000D+00  0.000000D+00
      2   0.000000D+00  0.000000D+00
  
 P(g) (    1, 1, 1) (real):
                 1             2             3             4             5 
      1   0.100000D+01  0.000000D+00  0.000000D+00  0.000000D+00  0.000000D+00
      2   0.000000D+00  0.100000D+01  0.000000D+00  0.000000D+00  0.000000D+00
      3   0.000000D+00  0.000000D+00  0.000000D+00  0.000000D+00  0.000000D+00
      4   0.000000D+00  0.000000D+00  0.000000D+00  0.000000D+00  0.000000D+00
      5   0.000000D+00  0.000000D+00  0.000000D+00  0.000000D+00  0.000000D+00
      6   0.000000D+00  0.000000D+00  0.000000D+00  0.000000D+00  0.000000D+00
      7   0.000000D+00  0.000000D+00  0.000000D+00  0.000000D+00  0.000000D+00
      8   0.000000D+00  0.000000D+00  0.000000D+00  0.000000D+00  0.000000D+00
                 6             7             8 
      1   0.000000D+00  0.000000D+00  0.000000D+00
      2   0.000000D+00  0.000000D+00  0.000000D+00
      3   0.000000D+00  0.000000D+00  0.000000D+00
      4   0.000000D+00  0.000000D+00  0.000000D+00
      5   0.000000D+00  0.000000D+00  0.000000D+00
      6   0.000000D+00  0.000000D+00  0.000000D+00
      7   0.000000D+00  0.000000D+00  0.000000D+00
      8   0.000000D+00  0.000000D+00  0.000000D+00
 P(g) (    1, 1, 1) (imaginary):
                 1             2             3             4             5 
      1   0.000000D+00  0.000000D+00  0.000000D+00  0.000000D+00  0.000000D+00
      2   0.000000D+00  0.000000D+00  0.000000D+00  0.000000D+00  0.000000D+00
      3   0.000000D+00  0.000000D+00  0.000000D+00  0.000000D+00  0.000000D+00
      4   0.000000D+00  0.000000D+00  0.000000D+00  0.000000D+00  0.000000D+00
      5   0.000000D+00  0.000000D+00  0.000000D+00  0.000000D+00  0.000000D+00
      6   0.000000D+00  0.000000D+00  0.000000D+00  0.000000D+00  0.000000D+00
      7   0.000000D+00  0.000000D+00  0.000000D+00  0.000000D+00  0.000000D+00
      8   0.000000D+00  0.000000D+00  0.000000D+00  0.000000D+00  0.000000D+00
                 6             7             8 
      1   0.000000D+00  0.000000D+00  0.000000D+00
      2   0.000000D+00  0.000000D+00  0.000000D+00
      3   0.000000D+00  0.000000D+00  0.000000D+00
      4   0.000000D+00  0.000000D+00  0.000000D+00
      5   0.000000D+00  0.000000D+00  0.000000D+00
      6   0.000000D+00  0.000000D+00  0.000000D+00
      7   0.000000D+00  0.000000D+00  0.000000D+00
      8   0.000000D+00  0.000000D+00  0.000000D+00
  
 P(g) (    2, 1, 1) (real):
                 1             2             3             4             5 
      1   0.100000D+01  0.000000D+00  0.000000D+00  0.000000D+00  0.000000D+00
      2   0.000000D+00  0.100000D+01  0.000000D+00  0.000000D+00  0.000000D+00
      3   0.000000D+00  0.000000D+00  0.000000D+00  0.000000D+00  0.000000D+00
      4   0.000000D+00  0.000000D+00  0.000000D+00  0.000000D+00  0.000000D+00
      5   0.000000D+00  0.000000D+00  0.000000D+00  0.000000D+00  0.000000D+00
      6   0.000000D+00  0.000000D+00  0.000000D+00  0.000000D+00  0.000000D+00
      7   0.000000D+00  0.000000D+00  0.000000D+00  0.000000D+00  0.000000D+00
      8   0.000000D+00  0.000000D+00  0.000000D+00  0.000000D+00  0.000000D+00
                 6             7             8 
      1   0.000000D+00  0.000000D+00  0.000000D+00
      2   0.000000D+00  0.000000D+00  0.000000D+00
      3   0.000000D+00  0.000000D+00  0.000000D+00
      4   0.000000D+00  0.000000D+00  0.000000D+00
      5   0.000000D+00  0.000000D+00  0.000000D+00
      6   0.000000D+00  0.000000D+00  0.000000D+00
      7   0.000000D+00  0.000000D+00  0.000000D+00
      8   0.000000D+00  0.000000D+00  0.000000D+00
 P(g) (    2, 1, 1) (imaginary):
                 1             2             3             4             5 
      1   0.000000D+00  0.000000D+00  0.000000D+00  0.000000D+00  0.000000D+00
      2   0.000000D+00  0.000000D+00  0.000000D+00  0.000000D+00  0.000000D+00
      3   0.000000D+00  0.000000D+00  0.000000D+00  0.000000D+00  0.000000D+00
      4   0.000000D+00  0.000000D+00  0.000000D+00  0.000000D+00  0.000000D+00
      5   0.000000D+00  0.000000D+00  0.000000D+00  0.000000D+00  0.000000D+00
      6   0.000000D+00  0.000000D+00  0.000000D+00  0.000000D+00  0.000000D+00
      7   0.000000D+00  0.000000D+00  0.000000D+00  0.000000D+00  0.000000D+00
      8   0.000000D+00  0.000000D+00  0.000000D+00  0.000000D+00  0.000000D+00
                 6             7             8 
      1   0.000000D+00  0.000000D+00  0.000000D+00
      2   0.000000D+00  0.000000D+00  0.000000D+00
      3   0.000000D+00  0.000000D+00  0.000000D+00
      4   0.000000D+00  0.000000D+00  0.000000D+00
      5   0.000000D+00  0.000000D+00  0.000000D+00
      6   0.000000D+00  0.000000D+00  0.000000D+00
      7   0.000000D+00  0.000000D+00  0.000000D+00
      8   0.000000D+00  0.000000D+00  0.000000D+00
  
 P(g) (    3, 1, 1) (real):
                 1             2             3             4             5 
      1   0.100000D+01  0.000000D+00  0.000000D+00  0.000000D+00  0.000000D+00
      2   0.000000D+00  0.100000D+01  0.000000D+00  0.000000D+00  0.000000D+00
      3   0.000000D+00  0.000000D+00  0.000000D+00  0.000000D+00  0.000000D+00
      4   0.000000D+00  0.000000D+00  0.000000D+00  0.000000D+00  0.000000D+00
      5   0.000000D+00  0.107337D-05  0.000000D+00  0.000000D+00  0.000000D+00
      6   0.000000D+00  0.000000D+00  0.000000D+00  0.000000D+00  0.000000D+00
      7   0.000000D+00  0.000000D+00  0.000000D+00  0.000000D+00  0.000000D+00
      8   0.107339D-05  0.000000D+00  0.000000D+00  0.000000D+00  0.000000D+00
                 6             7             8 
      1   0.000000D+00  0.000000D+00  0.000000D+00
      2   0.000000D+00  0.000000D+00  0.000000D+00
      3   0.000000D+00  0.000000D+00  0.000000D+00
      4   0.000000D+00  0.000000D+00  0.000000D+00
      5   0.000000D+00  0.000000D+00  0.000000D+00
      6   0.000000D+00  0.000000D+00  0.000000D+00
      7   0.000000D+00  0.000000D+00  0.000000D+00
      8   0.000000D+00  0.000000D+00  0.000000D+00
 P(g) (    3, 1, 1) (imaginary):
                 1             2             3             4             5 
      1   0.000000D+00  0.000000D+00  0.000000D+00  0.000000D+00  0.000000D+00
      2   0.000000D+00  0.000000D+00  0.000000D+00  0.000000D+00  0.000000D+00
      3   0.000000D+00  0.000000D+00  0.000000D+00  0.000000D+00  0.000000D+00
      4   0.000000D+00  0.000000D+00  0.000000D+00  0.000000D+00  0.000000D+00
      5   0.000000D+00  0.000000D+00  0.000000D+00  0.000000D+00  0.000000D+00
      6   0.000000D+00  0.000000D+00  0.000000D+00  0.000000D+00  0.000000D+00
      7   0.000000D+00  0.000000D+00  0.000000D+00  0.000000D+00  0.000000D+00
      8   0.000000D+00  0.000000D+00  0.000000D+00  0.000000D+00  0.000000D+00
                 6             7             8 
      1   0.000000D+00  0.000000D+00  0.000000D+00
      2   0.000000D+00  0.000000D+00  0.000000D+00
      3   0.000000D+00  0.000000D+00  0.000000D+00
      4   0.000000D+00  0.000000D+00  0.000000D+00
      5   0.000000D+00  0.000000D+00  0.000000D+00
      6   0.000000D+00  0.000000D+00  0.000000D+00
      7   0.000000D+00  0.000000D+00  0.000000D+00
      8   0.000000D+00  0.000000D+00  0.000000D+00
  
 P(g) (    4, 1, 1) (real):
                 1             2             3             4             5 
      1   0.100000D+01  0.000000D+00  0.000000D+00  0.000000D+00  0.000000D+00
      2   0.000000D+00  0.100000D+01  0.000000D+00  0.000000D+00  0.000000D+00
      3   0.000000D+00  0.000000D+00  0.000000D+00  0.000000D+00  0.000000D+00
      4   0.000000D+00  0.000000D+00  0.000000D+00  0.000000D+00  0.000000D+00
      5   0.113295D-05  0.151746D-05  0.000000D+00  0.000000D+00  0.000000D+00
      6   0.000000D+00  0.000000D+00  0.000000D+00  0.000000D+00  0.000000D+00
      7   0.000000D+00  0.000000D+00  0.000000D+00  0.000000D+00  0.000000D+00
      8   0.151749D-05 -0.113298D-05  0.000000D+00  0.000000D+00  0.000000D+00
                 6             7             8 
      1   0.000000D+00  0.000000D+00  0.000000D+00
      2   0.000000D+00  0.000000D+00  0.000000D+00
      3   0.000000D+00  0.000000D+00  0.000000D+00
      4   0.000000D+00  0.000000D+00  0.000000D+00
      5   0.000000D+00  0.000000D+00  0.000000D+00
      6   0.000000D+00  0.000000D+00  0.000000D+00
      7   0.000000D+00  0.000000D+00  0.000000D+00
      8   0.000000D+00  0.000000D+00  0.000000D+00
 P(g) (    4, 1, 1) (imaginary):
                 1             2             3             4             5 
      1   0.000000D+00  0.000000D+00  0.000000D+00  0.000000D+00  0.000000D+00
      2   0.000000D+00  0.000000D+00  0.000000D+00  0.000000D+00  0.000000D+00
      3   0.000000D+00  0.000000D+00  0.000000D+00  0.000000D+00  0.000000D+00
      4   0.000000D+00  0.000000D+00  0.000000D+00  0.000000D+00  0.000000D+00
      5   0.000000D+00  0.000000D+00  0.000000D+00  0.000000D+00  0.000000D+00
      6   0.000000D+00  0.000000D+00  0.000000D+00  0.000000D+00  0.000000D+00
      7   0.000000D+00  0.000000D+00  0.000000D+00  0.000000D+00  0.000000D+00
      8   0.000000D+00  0.000000D+00  0.000000D+00  0.000000D+00  0.000000D+00
                 6             7             8 
      1   0.000000D+00  0.000000D+00  0.000000D+00
      2   0.000000D+00  0.000000D+00  0.000000D+00
      3   0.000000D+00  0.000000D+00  0.000000D+00
      4   0.000000D+00  0.000000D+00  0.000000D+00
      5   0.000000D+00  0.000000D+00  0.000000D+00
      6   0.000000D+00  0.000000D+00  0.000000D+00
      7   0.000000D+00  0.000000D+00  0.000000D+00
      8   0.000000D+00  0.000000D+00  0.000000D+00
  
 P(g) (    5, 1, 1) (real):
                 1             2             3             4             5 
      1   0.100000D+01  0.000000D+00  0.000000D+00  0.000000D+00  0.000000D+00
      2   0.000000D+00  0.100000D+01  0.000000D+00  0.000000D+00  0.000000D+00
      3   0.000000D+00  0.000000D+00  0.000000D+00  0.000000D+00  0.000000D+00
      4   0.000000D+00  0.000000D+00  0.000000D+00  0.000000D+00  0.000000D+00
      5   0.203246D-05  0.151746D-05  0.000000D+00  0.000000D+00  0.000000D+00
      6   0.000000D+00  0.000000D+00  0.000000D+00  0.000000D+00  0.000000D+00
      7   0.000000D+00  0.000000D+00  0.000000D+00  0.000000D+00  0.000000D+00
      8   0.151749D-05 -0.203250D-05  0.000000D+00  0.000000D+00  0.000000D+00
                 6             7             8 
      1   0.000000D+00  0.000000D+00  0.000000D+00
      2   0.000000D+00  0.000000D+00  0.000000D+00
      3   0.000000D+00  0.000000D+00  0.000000D+00
      4   0.000000D+00  0.000000D+00  0.000000D+00
      5   0.000000D+00  0.000000D+00  0.000000D+00
      6   0.000000D+00  0.000000D+00  0.000000D+00
      7   0.000000D+00  0.000000D+00  0.000000D+00
      8   0.000000D+00  0.000000D+00  0.000000D+00
 P(g) (    5, 1, 1) (imaginary):
                 1             2             3             4             5 
      1   0.000000D+00  0.000000D+00  0.000000D+00  0.000000D+00  0.000000D+00
      2   0.000000D+00  0.000000D+00  0.000000D+00  0.000000D+00  0.000000D+00
      3   0.000000D+00  0.000000D+00  0.000000D+00  0.000000D+00  0.000000D+00
      4   0.000000D+00  0.000000D+00  0.000000D+00  0.000000D+00  0.000000D+00
      5   0.000000D+00  0.000000D+00  0.000000D+00  0.000000D+00  0.000000D+00
      6   0.000000D+00  0.000000D+00  0.000000D+00  0.000000D+00  0.000000D+00
      7   0.000000D+00  0.000000D+00  0.000000D+00  0.000000D+00  0.000000D+00
      8   0.000000D+00  0.000000D+00  0.000000D+00  0.000000D+00  0.000000D+00
                 6             7             8 
      1   0.000000D+00  0.000000D+00  0.000000D+00
      2   0.000000D+00  0.000000D+00  0.000000D+00
      3   0.000000D+00  0.000000D+00  0.000000D+00
      4   0.000000D+00  0.000000D+00  0.000000D+00
      5   0.000000D+00  0.000000D+00  0.000000D+00
      6   0.000000D+00  0.000000D+00  0.000000D+00
      7   0.000000D+00  0.000000D+00  0.000000D+00
      8   0.000000D+00  0.000000D+00  0.000000D+00
  
 P(g) (    6, 1, 1) (real):
                 1             2             3             4             5 
      1   0.100000D+01  0.000000D+00  0.000000D+00  0.000000D+00  0.000000D+00
      2   0.000000D+00  0.100000D+01  0.000000D+00  0.000000D+00  0.000000D+00
      3   0.118284D-05  0.000000D+00  0.000000D+00  0.000000D+00  0.000000D+00
      4   0.000000D+00  0.000000D+00  0.000000D+00  0.000000D+00  0.000000D+00
      5   0.274582D-05  0.107337D-05  0.000000D+00  0.000000D+00  0.000000D+00
      6   0.000000D+00  0.118284D-05  0.000000D+00  0.000000D+00  0.000000D+00
      7   0.000000D+00  0.000000D+00  0.000000D+00  0.000000D+00  0.000000D+00
      8   0.107339D-05 -0.274588D-05  0.000000D+00  0.000000D+00  0.000000D+00
                 6             7             8 
      1   0.000000D+00  0.000000D+00  0.000000D+00
      2   0.000000D+00  0.000000D+00  0.000000D+00
      3   0.000000D+00  0.000000D+00  0.000000D+00
      4   0.000000D+00  0.000000D+00  0.000000D+00
      5   0.000000D+00  0.000000D+00  0.000000D+00
      6   0.000000D+00  0.000000D+00  0.000000D+00
      7   0.000000D+00  0.000000D+00  0.000000D+00
      8   0.000000D+00  0.000000D+00  0.000000D+00
 P(g) (    6, 1, 1) (imaginary):
                 1             2             3             4             5 
      1   0.000000D+00  0.000000D+00  0.000000D+00  0.000000D+00  0.000000D+00
      2   0.000000D+00  0.000000D+00  0.000000D+00  0.000000D+00  0.000000D+00
      3   0.000000D+00  0.000000D+00  0.000000D+00  0.000000D+00  0.000000D+00
      4   0.000000D+00  0.000000D+00  0.000000D+00  0.000000D+00  0.000000D+00
      5   0.000000D+00  0.000000D+00  0.000000D+00  0.000000D+00  0.000000D+00
      6   0.000000D+00  0.000000D+00  0.000000D+00  0.000000D+00  0.000000D+00
      7   0.000000D+00  0.000000D+00  0.000000D+00  0.000000D+00  0.000000D+00
      8   0.000000D+00  0.000000D+00  0.000000D+00  0.000000D+00  0.000000D+00
                 6             7             8 
      1   0.000000D+00  0.000000D+00  0.000000D+00
      2   0.000000D+00  0.000000D+00  0.000000D+00
      3   0.000000D+00  0.000000D+00  0.000000D+00
      4   0.000000D+00  0.000000D+00  0.000000D+00
      5   0.000000D+00  0.000000D+00  0.000000D+00
      6   0.000000D+00  0.000000D+00  0.000000D+00
      7   0.000000D+00  0.000000D+00  0.000000D+00
      8   0.000000D+00  0.000000D+00  0.000000D+00
  
 P(g) (    7, 1, 1) (real):
                 1             2             3             4             5 
      1   0.100000D+01  0.000000D+00  0.000000D+00  0.000000D+00  0.000000D+00
      2   0.000000D+00  0.100000D+01  0.000000D+00  0.000000D+00  0.000000D+00
      3   0.132911D-05  0.000000D+00  0.000000D+00  0.000000D+00  0.000000D+00
      4   0.000000D+00  0.000000D+00  0.000000D+00  0.000000D+00  0.000000D+00
      5   0.308536D-05  0.000000D+00  0.000000D+00  0.000000D+00  0.000000D+00
      6   0.000000D+00  0.132911D-05  0.000000D+00  0.000000D+00  0.000000D+00
      7   0.000000D+00  0.000000D+00  0.000000D+00  0.000000D+00  0.000000D+00
      8   0.000000D+00 -0.308543D-05  0.000000D+00  0.000000D+00  0.000000D+00
                 6             7             8 
      1   0.000000D+00  0.000000D+00  0.000000D+00
      2   0.000000D+00  0.000000D+00  0.000000D+00
      3   0.000000D+00  0.000000D+00  0.000000D+00
      4   0.000000D+00  0.000000D+00  0.000000D+00
      5   0.000000D+00  0.000000D+00  0.000000D+00
      6   0.000000D+00  0.000000D+00  0.000000D+00
      7   0.000000D+00  0.000000D+00  0.000000D+00
      8   0.000000D+00  0.000000D+00  0.000000D+00
 P(g) (    7, 1, 1) (imaginary):
                 1             2             3             4             5 
      1   0.000000D+00  0.000000D+00  0.000000D+00  0.000000D+00  0.000000D+00
      2   0.000000D+00  0.000000D+00  0.000000D+00  0.000000D+00  0.000000D+00
      3   0.000000D+00  0.000000D+00  0.000000D+00  0.000000D+00  0.000000D+00
      4   0.000000D+00  0.000000D+00  0.000000D+00  0.000000D+00  0.000000D+00
      5   0.000000D+00  0.000000D+00  0.000000D+00  0.000000D+00  0.000000D+00
      6   0.000000D+00  0.000000D+00  0.000000D+00  0.000000D+00  0.000000D+00
      7   0.000000D+00  0.000000D+00  0.000000D+00  0.000000D+00  0.000000D+00
      8   0.000000D+00  0.000000D+00  0.000000D+00  0.000000D+00  0.000000D+00
                 6             7             8 
      1   0.000000D+00  0.000000D+00  0.000000D+00
      2   0.000000D+00  0.000000D+00  0.000000D+00
      3   0.000000D+00  0.000000D+00  0.000000D+00
      4   0.000000D+00  0.000000D+00  0.000000D+00
      5   0.000000D+00  0.000000D+00  0.000000D+00
      6   0.000000D+00  0.000000D+00  0.000000D+00
      7   0.000000D+00  0.000000D+00  0.000000D+00
      8   0.000000D+00  0.000000D+00  0.000000D+00
  
 P(g) (    8, 1, 1) (real):
                 1             2             3             4             5 
      1   0.100000D+01  0.000000D+00  0.000000D+00  0.000000D+00  0.000000D+00
      2   0.000000D+00  0.100000D+01  0.000000D+00  0.000000D+00  0.000000D+00
      3   0.136226D-05  0.000000D+00  0.000000D+00  0.000000D+00  0.000000D+00
      4   0.000000D+00  0.000000D+00  0.000000D+00  0.000000D+00  0.000000D+00
      5   0.316233D-05  0.000000D+00  0.000000D+00  0.000000D+00  0.000000D+00
      6   0.000000D+00  0.136226D-05  0.000000D+00  0.000000D+00  0.000000D+00
      7   0.000000D+00  0.000000D+00  0.000000D+00  0.000000D+00  0.000000D+00
      8   0.000000D+00 -0.316240D-05  0.000000D+00  0.000000D+00  0.000000D+00
                 6             7             8 
      1   0.000000D+00  0.000000D+00  0.000000D+00
      2   0.000000D+00  0.000000D+00  0.000000D+00
      3   0.000000D+00  0.000000D+00  0.000000D+00
      4   0.000000D+00  0.000000D+00  0.000000D+00
      5   0.000000D+00  0.000000D+00  0.000000D+00
      6   0.000000D+00  0.000000D+00  0.000000D+00
      7   0.000000D+00  0.000000D+00  0.000000D+00
      8   0.000000D+00  0.000000D+00  0.000000D+00
 P(g) (    8, 1, 1) (imaginary):
                 1             2             3             4             5 
      1   0.000000D+00  0.000000D+00  0.000000D+00  0.000000D+00  0.000000D+00
      2   0.000000D+00  0.000000D+00  0.000000D+00  0.000000D+00  0.000000D+00
      3   0.000000D+00  0.000000D+00  0.000000D+00  0.000000D+00  0.000000D+00
      4   0.000000D+00  0.000000D+00  0.000000D+00  0.000000D+00  0.000000D+00
      5   0.000000D+00  0.000000D+00  0.000000D+00  0.000000D+00  0.000000D+00
      6   0.000000D+00  0.000000D+00  0.000000D+00  0.000000D+00  0.000000D+00
      7   0.000000D+00  0.000000D+00  0.000000D+00  0.000000D+00  0.000000D+00
      8   0.000000D+00  0.000000D+00  0.000000D+00  0.000000D+00  0.000000D+00
                 6             7             8 
      1   0.000000D+00  0.000000D+00  0.000000D+00
      2   0.000000D+00  0.000000D+00  0.000000D+00
      3   0.000000D+00  0.000000D+00  0.000000D+00
      4   0.000000D+00  0.000000D+00  0.000000D+00
      5   0.000000D+00  0.000000D+00  0.000000D+00
      6   0.000000D+00  0.000000D+00  0.000000D+00
      7   0.000000D+00  0.000000D+00  0.000000D+00
      8   0.000000D+00  0.000000D+00  0.000000D+00
 Start formgg
 Start erictr

 Enter FofDir, NBasis=   4 IHMeth= 1.
 Symmetry not used in FoFDir.
 MinBra= 0 MaxBra= 0 Meth= 1.
 IRaf=       1 NMat=  64 IRICut=       1 DoRegI=T DoRafI=F ISym2E= 0 JSym2E=0.
  NShlT=       4 NTypes=       1  LenT1=       9  LenC1=       6
  LenT2=       2  LenN2=      50  LenC2=      11 LenP2D=      23
 LenP2C=      23
 IType=       1 ShlT= 0 ShlC= 0 T1C1St=       1
   ISh=       1 C1NPrm=   1 C1ESt=       1 C1CSt=       1
     C1SMap=       2 C1AOS=       2 C1Cent=     2
     CentXYZ=      0.000000      0.000000      0.944863
     IPrm=       1 P1Exp= 1.83D-01 P1CMax= 2.00D-01
   ISh=       2 C1NPrm=   1 C1ESt=       2 C1CSt=       2
     C1SMap=       4 C1AOS=       4 C1Cent=     4
     CentXYZ=      0.000000      0.000000     -0.944863
     IPrm=       2 P1Exp= 1.83D-01 P1CMax= 2.00D-01
   ISh=       3 C1NPrm=   2 C1ESt=       3 C1CSt=       3
     C1SMap=       1 C1AOS=       1 C1Cent=     1
     CentXYZ=      0.000000      0.000000      0.944863
     IPrm=       3 P1Exp= 5.45D+00 P1CMax= 3.97D-01
     IPrm=       4 P1Exp= 8.25D-01 P1CMax= 5.58D-01
   ISh=       4 C1NPrm=   2 C1ESt=       5 C1CSt=       5
     C1SMap=       3 C1AOS=       3 C1Cent=     3
     CentXYZ=      0.000000      0.000000     -0.944863
     IPrm=       5 P1Exp= 5.45D+00 P1CMax= 3.97D-01
     IPrm=       6 P1Exp= 8.25D-01 P1CMax= 5.58D-01
 IJTC=   1 IType= 1 JType= 1 T2N2St=     1
   IJTN=   1 NPrm=     1     0 C2St=     1 PDSt=     1 PCSt=     1
   IJTN=   2 NPrm=     1     0 C2St=     1 PDSt=     1 PCSt=     1
    IJShl=     1 C2ShlIJ=     1     1 C2CelJ=     1 C2LocIJ=   1   1 C2FPrm=     1 C2KMax= 0.83D+00 0.83D+00
       C2CDif=      0.000000      0.000000      0.000000
       IJP=       1 A= 0.366383D+00 B= 0.366383D+00 U= 0.100000D+01
                    C= 0.100000D+01
         P2P=   0.000000D+00 0.000000D+00 0.944863D+00
         P2PMA= 0.000000D+00 0.000000D+00 0.000000D+00
         P2PMB=-0.000000D+00-0.000000D+00-0.000000D+00
    IJShl=     2 C2ShlIJ=     2     1 C2CelJ=     1 C2LocIJ=   1   1 C2FPrm=     1 C2KMax= 0.12D+01 0.12D+01
       C2CDif=      0.000000      0.000000     -1.889726
       IJP=       2 A= 0.366383D+00 B= 0.366383D+00 U= 0.144203D+01
                    C= 0.100000D+01
         P2P=   0.578562D-16 0.000000D+00-0.312573D-16
         P2PMA= 0.423951D-16 0.000000D+00-0.692364D+00
         P2PMB=-0.423951D-16-0.000000D+00 0.692364D+00
    IJShl=     3 C2ShlIJ=     2     2 C2CelJ=     1 C2LocIJ=   1   1 C2FPrm=     1 C2KMax= 0.83D+00 0.83D+00
       C2CDif=      0.000000      0.000000      0.000000
       IJP=       3 A= 0.366383D+00 B= 0.366383D+00 U= 0.100000D+01
                    C= 0.100000D+01
         P2P=   0.115712D-15 0.000000D+00-0.944863D+00
         P2PMA= 0.000000D+00 0.000000D+00 0.000000D+00
         P2PMB=-0.000000D+00-0.000000D+00-0.000000D+00
   IJTN=   3 NPrm=     2     0 C2St=     4 PDSt=     4 PCSt=     4
   IJTN=   4 NPrm=     2     0 C2St=     4 PDSt=     4 PCSt=     4
    IJShl=     4 C2ShlIJ=     3     1 C2CelJ=     1 C2LocIJ=   1   1 C2FPrm=     2 C2KMax= 0.13D+01 0.13D+01
       C2CDif=      0.000000      0.000000      0.000000
       IJP=       4 A= 0.108944D+02 B= 0.366383D+00 U= 0.660685D-01
                    C= 0.100000D+01
         P2P=   0.000000D+00 0.000000D+00 0.944863D+00
         P2PMA= 0.000000D+00 0.000000D+00 0.000000D+00
         P2PMB=-0.000000D+00-0.000000D+00-0.000000D+00
       IJP=       5 A= 0.164909D+01 B= 0.366383D+00 U= 0.122573D+01
                    C= 0.100000D+01
         P2P=   0.000000D+00 0.000000D+00 0.944863D+00
         P2PMA= 0.000000D+00 0.000000D+00 0.000000D+00
         P2PMB=-0.000000D+00-0.000000D+00-0.000000D+00
    IJShl=     5 C2ShlIJ=     3     2 C2CelJ=     1 C2LocIJ=   1   1 C2FPrm=     2 C2KMax= 0.77D+00 0.77D+00
       C2CDif=     -0.000000      0.000000      1.889726
       IJP=       6 A= 0.108944D+02 B= 0.366383D+00 U= 0.350855D-01
                    C= 0.100000D+01
         P2P=   0.376486D-17 0.000000D+00 0.883378D+00
         P2PMA=-0.126061D-14 0.000000D+00 0.205873D+02
         P2PMB= 0.423951D-16-0.000000D+00-0.692364D+00
       IJP=       7 A= 0.164909D+01 B= 0.366383D+00 U= 0.717679D+00
                    C= 0.100000D+01
         P2P=   0.210347D-16 0.000000D+00 0.601340D+00
         P2PMA=-0.190821D-15 0.000000D+00 0.311634D+01
         P2PMB= 0.423951D-16-0.000000D+00-0.692364D+00
    IJShl=     6 C2ShlIJ=     4     1 C2CelJ=     1 C2LocIJ=   1   1 C2FPrm=     2 C2KMax= 0.77D+00 0.77D+00
       C2CDif=      0.000000      0.000000     -1.889726
       IJP=       8 A= 0.108944D+02 B= 0.366383D+00 U= 0.350855D-01
                    C= 0.100000D+01
         P2P=   0.111947D-15 0.000000D+00-0.883378D+00
         P2PMA= 0.126061D-14 0.000000D+00-0.205873D+02
         P2PMB=-0.423951D-16-0.000000D+00 0.692364D+00
       IJP=       9 A= 0.164909D+01 B= 0.366383D+00 U= 0.717679D+00
                    C= 0.100000D+01
         P2P=   0.946776D-16 0.000000D+00-0.601340D+00
         P2PMA= 0.190821D-15 0.000000D+00-0.311634D+01
         P2PMB=-0.423951D-16-0.000000D+00 0.692364D+00
    IJShl=     7 C2ShlIJ=     4     2 C2CelJ=     1 C2LocIJ=   1   1 C2FPrm=     2 C2KMax= 0.13D+01 0.13D+01
       C2CDif=      0.000000      0.000000      0.000000
       IJP=      10 A= 0.108944D+02 B= 0.366383D+00 U= 0.660685D-01
                    C= 0.100000D+01
         P2P=   0.115712D-15 0.000000D+00-0.944863D+00
         P2PMA= 0.000000D+00 0.000000D+00 0.000000D+00
         P2PMB=-0.000000D+00-0.000000D+00-0.000000D+00
       IJP=      11 A= 0.164909D+01 B= 0.366383D+00 U= 0.122573D+01
                    C= 0.100000D+01
         P2P=   0.115712D-15 0.000000D+00-0.944863D+00
         P2PMA= 0.000000D+00 0.000000D+00 0.000000D+00
         P2PMB=-0.000000D+00-0.000000D+00-0.000000D+00
   IJTN=   5 NPrm=     4     0 C2St=     8 PDSt=    12 PCSt=    12
   IJTN=   6 NPrm=     4     0 C2St=     8 PDSt=    12 PCSt=    12
    IJShl=     8 C2ShlIJ=     3     3 C2CelJ=     1 C2LocIJ=   1   1 C2FPrm=     4 C2KMax= 0.11D+01 0.11D+01
       C2CDif=      0.000000      0.000000      0.000000
       IJP=      12 A= 0.108944D+02 B= 0.108944D+02 U= 0.244250D-01
                    C= 0.100000D+01
         P2P=   0.000000D+00 0.000000D+00 0.944863D+00
         P2PMA= 0.000000D+00 0.000000D+00 0.000000D+00
         P2PMB=-0.000000D+00-0.000000D+00-0.000000D+00
       IJP=      13 A= 0.108944D+02 B= 0.164909D+01 U= 0.785547D-01
                    C= 0.100000D+01
         P2P=   0.000000D+00 0.000000D+00 0.944863D+00
         P2PMA= 0.000000D+00 0.000000D+00 0.000000D+00
         P2PMB=-0.000000D+00-0.000000D+00-0.000000D+00
       IJP=      14 A= 0.164909D+01 B= 0.108944D+02 U= 0.785547D-01
                    C= 0.100000D+01
         P2P=   0.000000D+00 0.000000D+00 0.944863D+00
         P2PMA= 0.000000D+00 0.000000D+00 0.000000D+00
         P2PMB=-0.000000D+00-0.000000D+00-0.000000D+00
       IJP=      15 A= 0.164909D+01 B= 0.164909D+01 U= 0.818466D+00
                    C= 0.100000D+01
         P2P=   0.000000D+00 0.000000D+00 0.944863D+00
         P2PMA= 0.000000D+00 0.000000D+00 0.000000D+00
         P2PMB=-0.000000D+00-0.000000D+00-0.000000D+00
    IJShl=     9 C2ShlIJ=     4     3 C2CelJ=     1 C2LocIJ=   1   1 C2FPrm=     4 C2KMax= 0.51D+00 0.51D+00
       C2CDif=      0.000000      0.000000     -1.889726
       IJP=      16 A= 0.108944D+02 B= 0.108944D+02 U= 0.291654D-05
                    C= 0.100000D+01
         P2P=   0.578562D-16 0.000000D+00 0.446872D-17
         P2PMA= 0.126061D-14 0.000000D+00-0.205873D+02
         P2PMB=-0.126061D-14-0.000000D+00 0.205873D+02
       IJP=      17 A= 0.108944D+02 B= 0.164909D+01 U= 0.121770D-01
                    C= 0.100000D+01
         P2P=   0.100500D-15 0.000000D+00-0.696420D+00
         P2PMA= 0.126061D-14 0.000000D+00-0.205873D+02
         P2PMB=-0.190821D-15-0.000000D+00 0.311634D+01
       IJP=      18 A= 0.164909D+01 B= 0.108944D+02 U= 0.121770D-01
                    C= 0.100000D+01
         P2P=   0.152128D-16 0.000000D+00 0.696420D+00
         P2PMA= 0.190821D-15 0.000000D+00-0.311634D+01
         P2PMB=-0.126061D-14-0.000000D+00 0.205873D+02
[...]
      5   0.000000D+00  0.000000D+00  0.000000D+00
      6   0.000000D+00  0.000000D+00  0.000000D+00
      7   0.000000D+00  0.000000D+00  0.000000D+00
      8   0.000000D+00  0.000000D+00  0.000000D+00
  
 X(g) (    4, 1, 1) (real):
                 1             2             3             4             5 
      1   0.200000D+01  0.000000D+00  0.000000D+00  0.000000D+00  0.000000D+00
      2   0.000000D+00  0.200000D+01  0.000000D+00  0.000000D+00  0.000000D+00
      3   0.000000D+00  0.000000D+00  0.000000D+00  0.000000D+00  0.000000D+00
      4   0.000000D+00  0.000000D+00  0.000000D+00  0.000000D+00  0.000000D+00
      5   0.000000D+00  0.000000D+00  0.000000D+00  0.000000D+00  0.000000D+00
      6   0.000000D+00  0.000000D+00  0.000000D+00  0.000000D+00  0.000000D+00
      7   0.000000D+00  0.000000D+00  0.000000D+00  0.000000D+00  0.000000D+00
      8   0.000000D+00  0.000000D+00  0.000000D+00  0.000000D+00  0.000000D+00
                 6             7             8 
      1   0.000000D+00  0.000000D+00  0.000000D+00
      2   0.000000D+00  0.000000D+00  0.000000D+00
      3   0.000000D+00  0.000000D+00  0.000000D+00
      4   0.000000D+00  0.000000D+00  0.000000D+00
      5   0.000000D+00  0.000000D+00  0.000000D+00
      6   0.000000D+00  0.000000D+00  0.000000D+00
      7   0.000000D+00  0.000000D+00  0.000000D+00
      8   0.000000D+00  0.000000D+00  0.000000D+00
 X(g) (    4, 1, 1) (imaginary):
                 1             2             3             4             5 
      1   0.000000D+00  0.000000D+00  0.000000D+00  0.000000D+00  0.000000D+00
      2   0.000000D+00  0.000000D+00  0.000000D+00  0.000000D+00  0.000000D+00
      3   0.000000D+00  0.000000D+00  0.000000D+00  0.000000D+00  0.000000D+00
      4   0.000000D+00  0.000000D+00  0.000000D+00  0.000000D+00  0.000000D+00
      5   0.000000D+00  0.000000D+00  0.000000D+00  0.000000D+00  0.000000D+00
      6   0.000000D+00  0.000000D+00  0.000000D+00  0.000000D+00  0.000000D+00
      7   0.000000D+00  0.000000D+00  0.000000D+00  0.000000D+00  0.000000D+00
      8   0.000000D+00  0.000000D+00  0.000000D+00  0.000000D+00  0.000000D+00
                 6             7             8 
      1   0.000000D+00  0.000000D+00  0.000000D+00
      2   0.000000D+00  0.000000D+00  0.000000D+00
      3   0.000000D+00  0.000000D+00  0.000000D+00
      4   0.000000D+00  0.000000D+00  0.000000D+00
      5   0.000000D+00  0.000000D+00  0.000000D+00
      6   0.000000D+00  0.000000D+00  0.000000D+00
      7   0.000000D+00  0.000000D+00  0.000000D+00
      8   0.000000D+00  0.000000D+00  0.000000D+00
  
 X(g) (    5, 1, 1) (real):
                 1             2             3             4             5 
      1   0.200000D+01  0.000000D+00  0.000000D+00  0.000000D+00  0.000000D+00
      2   0.000000D+00  0.200000D+01  0.000000D+00  0.000000D+00  0.000000D+00
      3   0.000000D+00  0.000000D+00  0.000000D+00  0.000000D+00  0.000000D+00
      4   0.000000D+00  0.000000D+00  0.000000D+00  0.000000D+00  0.000000D+00
      5   0.000000D+00  0.000000D+00  0.000000D+00  0.000000D+00  0.000000D+00
      6   0.000000D+00  0.000000D+00  0.000000D+00  0.000000D+00  0.000000D+00
      7   0.000000D+00  0.000000D+00  0.000000D+00  0.000000D+00  0.000000D+00
      8   0.000000D+00  0.000000D+00  0.000000D+00  0.000000D+00  0.000000D+00
                 6             7             8 
      1   0.000000D+00  0.000000D+00  0.000000D+00
      2   0.000000D+00  0.000000D+00  0.000000D+00
      3   0.000000D+00  0.000000D+00  0.000000D+00
      4   0.000000D+00  0.000000D+00  0.000000D+00
      5   0.000000D+00  0.000000D+00  0.000000D+00
      6   0.000000D+00  0.000000D+00  0.000000D+00
      7   0.000000D+00  0.000000D+00  0.000000D+00
      8   0.000000D+00  0.000000D+00  0.000000D+00
 X(g) (    5, 1, 1) (imaginary):
                 1             2             3             4             5 
      1   0.000000D+00  0.000000D+00  0.000000D+00  0.000000D+00  0.000000D+00
      2   0.000000D+00  0.000000D+00  0.000000D+00  0.000000D+00  0.000000D+00
      3   0.000000D+00  0.000000D+00  0.000000D+00  0.000000D+00  0.000000D+00
      4   0.000000D+00  0.000000D+00  0.000000D+00  0.000000D+00  0.000000D+00
      5   0.000000D+00  0.000000D+00  0.000000D+00  0.000000D+00  0.000000D+00
      6   0.000000D+00  0.000000D+00  0.000000D+00  0.000000D+00  0.000000D+00
      7   0.000000D+00  0.000000D+00  0.000000D+00  0.000000D+00  0.000000D+00
      8   0.000000D+00  0.000000D+00  0.000000D+00  0.000000D+00  0.000000D+00
                 6             7             8 
      1   0.000000D+00  0.000000D+00  0.000000D+00
      2   0.000000D+00  0.000000D+00  0.000000D+00
      3   0.000000D+00  0.000000D+00  0.000000D+00
      4   0.000000D+00  0.000000D+00  0.000000D+00
      5   0.000000D+00  0.000000D+00  0.000000D+00
      6   0.000000D+00  0.000000D+00  0.000000D+00
      7   0.000000D+00  0.000000D+00  0.000000D+00
      8   0.000000D+00  0.000000D+00  0.000000D+00
  
 X(g) (    6, 1, 1) (real):
                 1             2             3             4             5 
      1   0.200000D+01  0.000000D+00  0.000000D+00  0.000000D+00  0.000000D+00
      2   0.000000D+00  0.200000D+01  0.000000D+00  0.000000D+00  0.000000D+00
      3   0.000000D+00  0.000000D+00  0.000000D+00  0.000000D+00  0.000000D+00
      4   0.000000D+00  0.000000D+00  0.000000D+00  0.000000D+00  0.000000D+00
      5   0.000000D+00  0.000000D+00  0.000000D+00  0.000000D+00  0.000000D+00
      6   0.000000D+00  0.000000D+00  0.000000D+00  0.000000D+00  0.000000D+00
      7   0.000000D+00  0.000000D+00  0.000000D+00  0.000000D+00  0.000000D+00
      8   0.000000D+00  0.000000D+00  0.000000D+00  0.000000D+00  0.000000D+00
                 6             7             8 
      1   0.000000D+00  0.000000D+00  0.000000D+00
      2   0.000000D+00  0.000000D+00  0.000000D+00
      3   0.000000D+00  0.000000D+00  0.000000D+00
      4   0.000000D+00  0.000000D+00  0.000000D+00
      5   0.000000D+00  0.000000D+00  0.000000D+00
      6   0.000000D+00  0.000000D+00  0.000000D+00
      7   0.000000D+00  0.000000D+00  0.000000D+00
      8   0.000000D+00  0.000000D+00  0.000000D+00
 X(g) (    6, 1, 1) (imaginary):
                 1             2             3             4             5 
      1   0.000000D+00  0.000000D+00  0.000000D+00  0.000000D+00  0.000000D+00
      2   0.000000D+00  0.000000D+00  0.000000D+00  0.000000D+00  0.000000D+00
      3   0.000000D+00  0.000000D+00  0.000000D+00  0.000000D+00  0.000000D+00
      4   0.000000D+00  0.000000D+00  0.000000D+00  0.000000D+00  0.000000D+00
      5   0.000000D+00  0.000000D+00  0.000000D+00  0.000000D+00  0.000000D+00
      6   0.000000D+00  0.000000D+00  0.000000D+00  0.000000D+00  0.000000D+00
      7   0.000000D+00  0.000000D+00  0.000000D+00  0.000000D+00  0.000000D+00
      8   0.000000D+00  0.000000D+00  0.000000D+00  0.000000D+00  0.000000D+00
                 6             7             8 
      1   0.000000D+00  0.000000D+00  0.000000D+00
      2   0.000000D+00  0.000000D+00  0.000000D+00
      3   0.000000D+00  0.000000D+00  0.000000D+00
      4   0.000000D+00  0.000000D+00  0.000000D+00
      5   0.000000D+00  0.000000D+00  0.000000D+00
      6   0.000000D+00  0.000000D+00  0.000000D+00
      7   0.000000D+00  0.000000D+00  0.000000D+00
      8   0.000000D+00  0.000000D+00  0.000000D+00
  
 X(g) (    7, 1, 1) (real):
                 1             2             3             4             5 
      1   0.200000D+01  0.000000D+00  0.000000D+00  0.000000D+00  0.000000D+00
      2   0.000000D+00  0.200000D+01  0.000000D+00  0.000000D+00  0.000000D+00
      3   0.000000D+00  0.000000D+00  0.000000D+00  0.000000D+00  0.000000D+00
      4   0.000000D+00  0.000000D+00  0.000000D+00  0.000000D+00  0.000000D+00
      5   0.000000D+00  0.000000D+00  0.000000D+00  0.000000D+00  0.000000D+00
      6   0.000000D+00  0.000000D+00  0.000000D+00  0.000000D+00  0.000000D+00
      7   0.000000D+00  0.000000D+00  0.000000D+00  0.000000D+00  0.000000D+00
      8   0.000000D+00  0.000000D+00  0.000000D+00  0.000000D+00  0.000000D+00
                 6             7             8 
      1   0.000000D+00  0.000000D+00  0.000000D+00
      2   0.000000D+00  0.000000D+00  0.000000D+00
      3   0.000000D+00  0.000000D+00  0.000000D+00
      4   0.000000D+00  0.000000D+00  0.000000D+00
      5   0.000000D+00  0.000000D+00  0.000000D+00
      6   0.000000D+00  0.000000D+00  0.000000D+00
      7   0.000000D+00  0.000000D+00  0.000000D+00
      8   0.000000D+00  0.000000D+00  0.000000D+00
 X(g) (    7, 1, 1) (imaginary):
                 1             2             3             4             5 
      1   0.000000D+00  0.000000D+00  0.000000D+00  0.000000D+00  0.000000D+00
      2   0.000000D+00  0.000000D+00  0.000000D+00  0.000000D+00  0.000000D+00
      3   0.000000D+00  0.000000D+00  0.000000D+00  0.000000D+00  0.000000D+00
      4   0.000000D+00  0.000000D+00  0.000000D+00  0.000000D+00  0.000000D+00
      5   0.000000D+00  0.000000D+00  0.000000D+00  0.000000D+00  0.000000D+00
      6   0.000000D+00  0.000000D+00  0.000000D+00  0.000000D+00  0.000000D+00
      7   0.000000D+00  0.000000D+00  0.000000D+00  0.000000D+00  0.000000D+00
      8   0.000000D+00  0.000000D+00  0.000000D+00  0.000000D+00  0.000000D+00
                 6             7             8 
      1   0.000000D+00  0.000000D+00  0.000000D+00
      2   0.000000D+00  0.000000D+00  0.000000D+00
      3   0.000000D+00  0.000000D+00  0.000000D+00
      4   0.000000D+00  0.000000D+00  0.000000D+00
      5   0.000000D+00  0.000000D+00  0.000000D+00
      6   0.000000D+00  0.000000D+00  0.000000D+00
      7   0.000000D+00  0.000000D+00  0.000000D+00
      8   0.000000D+00  0.000000D+00  0.000000D+00
  
 X(g) (    8, 1, 1) (real):
                 1             2             3             4             5 
      1   0.200000D+01  0.000000D+00  0.000000D+00  0.000000D+00  0.000000D+00
      2   0.000000D+00  0.200000D+01  0.000000D+00  0.000000D+00  0.000000D+00
      3   0.000000D+00  0.000000D+00  0.000000D+00  0.000000D+00  0.000000D+00
      4   0.000000D+00  0.000000D+00  0.000000D+00  0.000000D+00  0.000000D+00
      5   0.000000D+00  0.000000D+00  0.000000D+00  0.000000D+00  0.000000D+00
      6   0.000000D+00  0.000000D+00  0.000000D+00  0.000000D+00  0.000000D+00
      7   0.000000D+00  0.000000D+00  0.000000D+00  0.000000D+00  0.000000D+00
      8   0.000000D+00  0.000000D+00  0.000000D+00  0.000000D+00  0.000000D+00
                 6             7             8 
      1   0.000000D+00  0.000000D+00  0.000000D+00
      2   0.000000D+00  0.000000D+00  0.000000D+00
      3   0.000000D+00  0.000000D+00  0.000000D+00
      4   0.000000D+00  0.000000D+00  0.000000D+00
      5   0.000000D+00  0.000000D+00  0.000000D+00
      6   0.000000D+00  0.000000D+00  0.000000D+00
      7   0.000000D+00  0.000000D+00  0.000000D+00
      8   0.000000D+00  0.000000D+00  0.000000D+00
 X(g) (    8, 1, 1) (imaginary):
                 1             2             3             4             5 
      1   0.000000D+00  0.000000D+00  0.000000D+00  0.000000D+00  0.000000D+00
      2   0.000000D+00  0.000000D+00  0.000000D+00  0.000000D+00  0.000000D+00
      3   0.000000D+00  0.000000D+00  0.000000D+00  0.000000D+00  0.000000D+00
      4   0.000000D+00  0.000000D+00  0.000000D+00  0.000000D+00  0.000000D+00
      5   0.000000D+00  0.000000D+00  0.000000D+00  0.000000D+00  0.000000D+00
      6   0.000000D+00  0.000000D+00  0.000000D+00  0.000000D+00  0.000000D+00
      7   0.000000D+00  0.000000D+00  0.000000D+00  0.000000D+00  0.000000D+00
      8   0.000000D+00  0.000000D+00  0.000000D+00  0.000000D+00  0.000000D+00
                 6             7             8 
      1   0.000000D+00  0.000000D+00  0.000000D+00
      2   0.000000D+00  0.000000D+00  0.000000D+00
      3   0.000000D+00  0.000000D+00  0.000000D+00
      4   0.000000D+00  0.000000D+00  0.000000D+00
      5   0.000000D+00  0.000000D+00  0.000000D+00
      6   0.000000D+00  0.000000D+00  0.000000D+00
      7   0.000000D+00  0.000000D+00  0.000000D+00
      8   0.000000D+00  0.000000D+00  0.000000D+00
  
 Effective Fock (alpha, real):
                1             2             3             4 
      1  0.000000D+00
      2  0.000000D+00  0.000000D+00
      3  0.000000D+00  0.000000D+00  0.000000D+00
      4  0.000000D+00  0.000000D+00  0.000000D+00  0.000000D+00
 Effective Fock (alpha, imaginary):
                1             2             3             4 
      1  0.000000D+00
      2 -0.000000D+00  0.000000D+00
      3 -0.000000D+00 -0.000000D+00  0.000000D+00
      4 -0.000000D+00 -0.000000D+00 -0.000000D+00  0.000000D+00
 Effective Fock (beta, real):
                1             2             3             4 
      1  0.000000D+00
      2  0.000000D+00  0.000000D+00
      3  0.000000D+00  0.000000D+00  0.000000D+00
      4  0.000000D+00  0.000000D+00  0.000000D+00  0.000000D+00
 Effective Fock (beta, imaginary):
                1             2             3             4 
      1  0.000000D+00
      2 -0.000000D+00  0.000000D+00
      3 -0.000000D+00 -0.000000D+00  0.000000D+00
      4 -0.000000D+00 -0.000000D+00 -0.000000D+00  0.000000D+00
  
 Effective Fock (alpha, real):
                1             2             3             4 
      1 -0.521953D+00
      2  0.394971D-01  0.106665D+01
      3  0.000000D+00  0.000000D+00  0.573425D+00
      4  0.000000D+00  0.000000D+00 -0.528652D+00  0.913369D+00
 Effective Fock (alpha, imaginary):
                1             2             3             4 
      1  0.000000D+00
      2 -0.000000D+00  0.000000D+00
      3 -0.000000D+00 -0.000000D+00  0.000000D+00
      4 -0.000000D+00 -0.000000D+00 -0.000000D+00  0.000000D+00
 Effective Fock (beta, real):
                1             2             3             4 
      1 -0.521953D+00
      2  0.394971D-01  0.106665D+01
      3  0.000000D+00  0.000000D+00  0.573425D+00
      4  0.000000D+00  0.000000D+00 -0.528652D+00  0.913369D+00
 Effective Fock (beta, imaginary):
                1             2             3             4 
      1  0.000000D+00
      2 -0.000000D+00  0.000000D+00
      3 -0.000000D+00 -0.000000D+00  0.000000D+00
      4 -0.000000D+00 -0.000000D+00 -0.000000D+00  0.000000D+00
 Alpha error matrix at iteration for IMat=    4 (real):
                1             2             3             4 
      1  0.000000D+00
      2  0.000000D+00  0.000000D+00
      3  0.000000D+00  0.000000D+00  0.000000D+00
      4  0.000000D+00  0.000000D+00  0.000000D+00  0.000000D+00
 Alpha error matrix at iteration for IMat=    4 (imaginary):
                1             2             3             4 
      1  0.000000D+00
      2 -0.000000D+00  0.000000D+00
      3 -0.000000D+00 -0.000000D+00  0.000000D+00
      4 -0.000000D+00 -0.000000D+00 -0.000000D+00  0.000000D+00
 Beta error matrix at iteration for IMat=    4 (real):
                1             2             3             4 
      1  0.000000D+00
      2  0.000000D+00  0.000000D+00
      3  0.000000D+00  0.000000D+00  0.000000D+00
      4  0.000000D+00  0.000000D+00  0.000000D+00  0.000000D+00
 Beta error matrix at iteration for IMat=    4 (imaginary):
                1             2             3             4 
      1  0.000000D+00
      2 -0.000000D+00  0.000000D+00
      3 -0.000000D+00 -0.000000D+00  0.000000D+00
      4 -0.000000D+00 -0.000000D+00 -0.000000D+00  0.000000D+00
 DIIS: error= 2.26D-09 at cycle   4 NSaved=   4.
 B matrix at iteration          4
                 1             2             3             4             5 
      1   0.000000D+00 -0.100000D+01 -0.100000D+01 -0.100000D+01 -0.100000D+01
      2  -0.100000D+01 -0.321062D-12 -0.383224D-12 -0.321626D-13 -0.419814D-15
      3  -0.100000D+01 -0.383224D-12 -0.458747D-12 -0.375496D-13 -0.487256D-15
      4  -0.100000D+01 -0.321626D-13 -0.375496D-13 -0.380178D-14 -0.113214D-15
      5  -0.100000D+01 -0.419814D-15 -0.487256D-15 -0.113214D-15 -0.825520D-16
 NSaved= 4 IEnMin= 2 EnMin= -1.09138608633026     IErMin= 4 ErrMin= 2.26D-09
 ErrMax= 2.26D-09 EMaxC= 1.00D+00 BMatC= 8.26D-17 BMatP= 3.80D-15
 IDIUse=1 WtCom= 1.00D+00 WtEn= 0.00D+00
 Inv2:  IOpt= 1 Iter= 1 AM= 6.82D+10 Conv= 1.00D-12.
 Inv2:  IOpt= 1 Iter= 2 AM= 9.19D+01 Conv= 1.00D-12.
 Inv2:  IOpt= 1 Iter= 3 AM= 1.23D-07 Conv= 1.00D-12.
 Inv2:  IOpt= 1 Iter= 4 AM= 1.65D-16 Conv= 1.00D-12.
 Large coefficients: NSaved=  4 BigCof=   57.09 CofMax=   10.00 Det=-2.52D-20
 Inversion failed.  Reducing to  3 matrices.
 Inv2:  IOpt= 1 Iter= 1 AM= 1.84D+00 Conv= 1.00D-12.
 Inv2:  IOpt= 1 Iter= 2 AM= 3.12D-15 Conv= 1.00D-12.
 Coeff-Com: -0.114D-02 0.313D-02 0.998D+00
 Coeff-En:   0.000D+00 0.000D+00 0.000D+00
 Coeff:     -0.114D-02 0.313D-02 0.998D+00
 NewF-IndFok=    1        2        3
 NewF-Coef=  -1.14D-03 3.13D-03 9.98D-01
 Extrapolated FA at iteration for IMat=    4 (real):
                1             2             3             4 
      1 -0.521953D+00
      2  0.394971D-01  0.106665D+01
      3  0.000000D+00  0.000000D+00  0.573425D+00
      4  0.000000D+00  0.000000D+00 -0.528652D+00  0.913369D+00
 Extrapolated FA at iteration for IMat=    4 (imaginary):
                1             2             3             4 
      1  0.000000D+00
      2 -0.000000D+00  0.000000D+00
      3 -0.000000D+00 -0.000000D+00  0.000000D+00
      4 -0.000000D+00 -0.000000D+00 -0.000000D+00  0.000000D+00
 NewF-IndFok=    1        2        3
 NewF-Coef=  -1.14D-03 3.13D-03 9.98D-01
 Extrapolated FB at iteration for IMat=    4 (real):
                1             2             3             4 
      1 -0.521953D+00
      2  0.394971D-01  0.106665D+01
      3  0.000000D+00  0.000000D+00  0.573425D+00
      4  0.000000D+00  0.000000D+00 -0.528652D+00  0.913369D+00
 Extrapolated FB at iteration for IMat=    4 (imaginary):
                1             2             3             4 
      1  0.000000D+00
      2 -0.000000D+00  0.000000D+00
      3 -0.000000D+00 -0.000000D+00  0.000000D+00
      4 -0.000000D+00 -0.000000D+00 -0.000000D+00  0.000000D+00

 Fock eigenvalues (alpha):
      orbital --                 1                2                3                4
       energy --    -5.2293425D-01    1.8809245D-01    1.0676294D+00    1.2987016D+00

 Fock eigenvalues (beta):
      orbital --                 1                2                3                4
       energy --    -5.2293425D-01    1.8809245D-01    1.0676294D+00    1.2987016D+00

 *** cycle =    4 ***

        E =      -1.091386086329      DE =       0.000000000000
      Hsp =      -2.195258083218     Hph =       0.574694788299
   <S**2> =       0.000000000000
    RMSDP =       1.1915D-09        MaxP =       3.3410D-09

   E (HF) =      -1.091386086329

 ********************


 *** SCF Done after    4 cycles ***

        E =      -1.091386086329    conv =           1.1915E-09
      Hsp =      -2.195258083218     Hph =       0.574694788299
   <S**2> =       0.000000000000

 **********************************


 PHF SCF - quitting the program

 Leave Link  530 at Thu Oct  1 14:20:09 2020, MaxMem=  536870912 cpu:       0.1
 (Enter /share/home/srwang/g09/l9999.exe)

 Test job not archived.
 1\1\GINC-XHPC\SP\CUHF\3-21G\H2\SRWANG\01-Oct-2020\0\\#p uhf/3-21g gues
 s=mix scf=conver=4 extralink=l530 iop(5/206=9, 5/207=4, 5/216=1) pop=n
 one\\title\\0,1\H,0,0.,0.,0.\H,0,0.,0.,1.\\Version=EM64L-G09RevC.01\HF
 =-1.0913861\S2=0.\S2-1=0.\S2A=0.\RMSD=1.192e-09\PG=D*H [C*(H1.H1)]\\@


 Human beings, who are almost unique in having the
 ability to learn from the experience of others, are
 also remarkable for their apparent disinclination to do so.
                               -- Douglas Adams,
                                Last Chance to See
 Job cpu time:  0 days  0 hours  0 minutes  0.5 seconds.
 File lengths (MBytes):  RWF=     87 Int=      0 D2E=      0 Chk=      2 Scr=      2
 Normal termination of Gaussian 09 at Thu Oct  1 14:20:09 2020.
