title                                                                   
SP        UHF                                                         3-21G               
Number of atoms                            I                2
Info1-9                                    I   N=           9
          12          12           0           0           0         110
           1           1           2
Charge                                     I                0
Multiplicity                               I                1
Number of electrons                        I               14
Number of alpha electrons                  I                7
Number of beta electrons                   I                7
Number of basis functions                  I               18
Number of independent functions            I               18
Number of point charges in /Mol/           I                0
Number of translation vectors              I                0
Atomic numbers                             I   N=           2
           7           7
Nuclear charges                            R   N=           2
  7.00000000E+00  7.00000000E+00
Current cartesian coordinates              R   N=           6
  0.00000000E+00  0.00000000E+00  0.00000000E+00  0.00000000E+00  0.00000000E+00
  3.77945227E+00
Force Field                                I                0
Int Atom Types                             I   N=           2
           0           0
MM charges                                 R   N=           2
  0.00000000E+00  0.00000000E+00
Integer atomic weights                     I   N=           2
          14          14
Real atomic weights                        R   N=           2
  1.40030740E+01  1.40030740E+01
Atom fragment info                         I   N=           2
           0           0
Atom residue num                           I   N=           2
           0           0
Nuclear spins                              I   N=           2
           2           2
Nuclear ZEff                               R   N=           2
 -4.55000000E+00 -4.55000000E+00
Nuclear QMom                               R   N=           2
  2.04400000E+00  2.04400000E+00
Nuclear GFac                               R   N=           2
  4.03761000E-01  4.03761000E-01
MicOpt                                     I   N=           2
          -1          -1
Number of contracted shells                I                6
Number of primitive shells                 I               12
Pure/Cartesian d shells                    I                1
Pure/Cartesian f shells                    I                0
Highest angular momentum                   I                1
Largest degree of contraction              I                3
Shell types                                I   N=           6
           0          -1          -1           0          -1          -1
Number of primitives per shell             I   N=           6
           3           2           1           3           2           1
Shell to atom map                          I   N=           6
           1           1           1           2           2           2
Primitive exponents                        R   N=          12
  2.42766000E+02  3.64851000E+01  7.81449000E+00  5.42522000E+00  1.14915000E+00
  2.83205000E-01  2.42766000E+02  3.64851000E+01  7.81449000E+00  5.42522000E+00
  1.14915000E+00  2.83205000E-01
Contraction coefficients                   R   N=          12
  5.98657005E-02  3.52955003E-01  7.06513006E-01 -4.13300077E-01  1.22441727E+00
  1.00000000E+00  5.98657005E-02  3.52955003E-01  7.06513006E-01 -4.13300077E-01
  1.22441727E+00  1.00000000E+00
P(S=P) Contraction coefficients            R   N=          12
  0.00000000E+00  0.00000000E+00  0.00000000E+00  2.37972016E-01  8.58953059E-01
  1.00000000E+00  0.00000000E+00  0.00000000E+00  0.00000000E+00  2.37972016E-01
  8.58953059E-01  1.00000000E+00
Coordinates of each shell                  R   N=          18
  0.00000000E+00  0.00000000E+00  0.00000000E+00  0.00000000E+00  0.00000000E+00
  0.00000000E+00  0.00000000E+00  0.00000000E+00  0.00000000E+00  0.00000000E+00
  0.00000000E+00  3.77945227E+00  0.00000000E+00  0.00000000E+00  3.77945227E+00
  0.00000000E+00  0.00000000E+00  3.77945227E+00
Constraint Structure                       R   N=           6
  0.00000000E+00  0.00000000E+00  0.00000000E+00  0.00000000E+00  0.00000000E+00
  3.77945227E+00
Num ILSW                                   I              100
ILSW                                       I   N=         100
           1           1           0           0           2           0
           0           0           0           0           0          -1
           0           0           0           0           0           0
           0           0           0           0           0           0
           1           1           0           0           0           0
           0           0      100000           0          -1           0
           0           0           0           0           0           0
           0           0           0           1           0           0
           0           0           1           0           0           0
           0           0           4          40           0           0
           0           0           0           0           0           0
           0           0           0           0           0           0
           0           0           0           0           0           0
           0           0           0           0           0           0
           0           0           0           0           0           0
           0           0           0           0           0           0
           0           0           0           0
Num RLSW                                   I               40
RLSW                                       R   N=          40
  1.00000000E+00  1.00000000E+00  1.00000000E+00  1.00000000E+00  1.00000000E+00
  0.00000000E+00  0.00000000E+00  1.00000000E+00  0.00000000E+00  0.00000000E+00
  0.00000000E+00  0.00000000E+00  1.00000000E+00  0.00000000E+00  0.00000000E+00
  0.00000000E+00  0.00000000E+00  1.00000000E+00  0.00000000E+00  0.00000000E+00
  0.00000000E+00  0.00000000E+00  1.00000000E+00  0.00000000E+00  0.00000000E+00
  0.00000000E+00  0.00000000E+00  1.00000000E+00  0.00000000E+00  0.00000000E+00
  0.00000000E+00  0.00000000E+00  1.00000000E+00  0.00000000E+00  0.00000000E+00
  0.00000000E+00  0.00000000E+00  0.00000000E+00  1.00000000E+00  1.00000000E+00
MxBond                                     I                1
NBond                                      I   N=           2
           0           0
IBond                                      I   N=           2
           0           0
RBond                                      R   N=           2
  0.00000000E+00  0.00000000E+00
Virial Ratio                               R      2.007983470163042E+00
SCF Energy                                 R     -1.080297285339243E+02
Total Energy                               R     -1.080297285339243E+02
S**2                                       R      1.943813943591239E+00
S**2 after annihilation                    R      3.884474336056124E+00
RMS Density                                R      4.706882703906347E-05
External E-field                           R   N=          35
  0.00000000E+00  0.00000000E+00  0.00000000E+00  0.00000000E+00  0.00000000E+00
  0.00000000E+00  0.00000000E+00  0.00000000E+00  0.00000000E+00  0.00000000E+00
  0.00000000E+00  0.00000000E+00  0.00000000E+00  0.00000000E+00  0.00000000E+00
  0.00000000E+00  0.00000000E+00  0.00000000E+00  0.00000000E+00  0.00000000E+00
  0.00000000E+00  0.00000000E+00  0.00000000E+00  0.00000000E+00  0.00000000E+00
  0.00000000E+00  0.00000000E+00  0.00000000E+00  0.00000000E+00  0.00000000E+00
  0.00000000E+00  0.00000000E+00  0.00000000E+00  0.00000000E+00  0.00000000E+00
IOpCl                                      I                1
IROHF                                      I                0
Alpha Orbital Energies                     R   N=          18
 -1.56149095E+01 -1.56142593E+01 -1.03583969E+00 -9.09722406E-01 -5.30687942E-01
 -5.30543350E-01 -4.18404157E-01  1.00057178E-01  1.22421688E-01  1.22557877E-01
  1.24318396E+00  1.24320495E+00  1.42277813E+00  1.43447473E+00  1.44733500E+00
  1.44734656E+00  1.81489973E+00  2.29118120E+00
Beta Orbital Energies                      R   N=          18
 -1.56149095E+01 -1.56142593E+01 -1.03583969E+00 -9.09722406E-01 -5.30687942E-01
 -5.30543350E-01 -4.18404157E-01  1.00057178E-01  1.22421688E-01  1.22557877E-01
  1.24318396E+00  1.24320495E+00  1.42277813E+00  1.43447473E+00  1.44733500E+00
  1.44734656E+00  1.81489973E+00  2.29118120E+00
Alpha MO coefficients                      R   N=         324
 -6.91470741E-01 -6.46524649E-02 -2.19916641E-17  3.47443143E-17 -2.16147017E-03
  2.34397545E-02  9.70770669E-18 -7.77986896E-17  6.25892979E-03  7.02163058E-01
  6.55997674E-02 -2.32844410E-16  8.97204131E-16 -2.17314904E-03 -2.36908820E-02
  3.48339594E-16 -8.53229747E-16  6.24640351E-03  7.01732129E-01  6.22069618E-02
 -5.99145340E-16 -4.57530349E-16  7.70651237E-04 -1.65379146E-02  6.12592424E-16
  3.17894812E-16  7.65030666E-04  6.91033218E-01  6.12067920E-02 -3.05071736E-16
 -9.47724798E-16 -7.37429009E-04 -1.61759960E-02  1.65485752E-16  8.03559215E-16
 -8.61188230E-04 -1.68087631E-01  1.74529387E-01 -1.11275035E-16  2.14193459E-16
  3.65247592E-02  5.33098891E-01  6.47607829E-17  3.35009264E-16  3.82623777E-02
 -1.68114173E-01  1.74566725E-01 -2.07247752E-16  3.86646387E-16 -3.65605823E-02
  5.33178777E-01 -2.26214156E-16 -4.03690428E-16 -3.82952182E-02 -1.79236004E-01
  1.86912693E-01  2.42658814E-16  1.53730885E-16 -4.51169682E-02  5.94696587E-01
  1.65149295E-16 -1.20728071E-16 -3.28338739E-02  1.79211990E-01 -1.86899937E-01
  4.96365570E-16 -7.95343771E-16 -4.50648903E-02 -5.94603718E-01  3.40163522E-16
  5.23807232E-16 -3.28013653E-02  2.31704739E-16 -1.73183722E-16  2.31378286E-01
  1.95054412E-01  1.54326809E-15 -8.78705486E-16  2.51204387E-01  1.93768594E-01
  1.16802072E-15 -9.10356641E-18 -6.76565059E-17  3.34138337E-01 -3.30928294E-01
 -1.48275790E-15  1.34204310E-16  3.55356750E-01 -3.39473250E-01 -1.24949444E-15
  5.99919600E-18 -1.51949570E-18  3.30914752E-01  3.34116777E-01  6.19479820E-16
  3.21744123E-17  3.39485461E-01  3.55377261E-01  7.46047855E-17  9.03921665E-17
 -2.13151143E-16 -1.95067027E-01  2.31388039E-01  5.64056287E-16 -2.31706340E-16
 -1.93751329E-01  2.51198645E-01  3.98718279E-16  3.38332832E-02 -4.47973346E-02
 -1.18973012E-15 -2.98773116E-16  3.29384731E-01 -1.31846957E-01 -8.72092958E-16
 -4.47006246E-16  4.04957745E-01  3.38663985E-02 -4.48228976E-02 -1.08139295E-15
  1.39482158E-15 -3.29271286E-01 -1.31980312E-01 -1.42856611E-15  7.73874042E-16
 -4.04816871E-01 -4.51610901E-02  5.13016817E-02 -1.74606409E-15  1.46975053E-15
  3.87381937E-01  1.92348630E-01 -3.17259625E-15  2.12114486E-15  5.68472329E-01
  4.51383109E-02 -5.12913851E-02  8.76829127E-16  3.58769236E-16  3.87458398E-01
 -1.92249890E-01  1.45424260E-15  1.60761556E-17  5.68591851E-01  2.14135218E-16
 -2.99183649E-16 -2.22006554E-01  1.36070168E-01 -1.75600704E-15 -8.81504200E-16
 -3.29063041E-01  2.74165714E-01 -2.82331895E-15 -2.36030348E-16  2.48732821E-16
  2.78866781E-01  1.99100180E-01 -1.49264033E-15  1.03042582E-15  4.38446577E-01
  3.70734740E-01 -2.70725502E-15  1.28239182E-16 -1.51661587E-16 -1.99087985E-01
  2.78844580E-01 -1.36035343E-15 -5.49890475E-16 -3.70743710E-01  4.38467338E-01
 -2.10308513E-15 -1.28810247E-16  1.83259461E-16 -1.36071636E-01 -2.22004691E-01
 -9.60917747E-16  5.46716260E-16 -2.74170083E-01 -3.29059787E-01 -1.45713671E-15
  9.58817457E-17  2.02367522E-16  3.20803151E-01 -2.41225833E-01 -5.55629014E-15
 -5.23212829E-16 -2.08880144E-01  1.27481338E-01  4.63097752E-15  3.32291680E-16
 -1.61147428E-15  6.76248618E-01 -6.66798497E-01  3.20668948E-15  3.48242151E-16
 -6.46764490E-01  6.51763827E-01 -1.73243705E-15  3.21852694E-16 -2.52066800E-15
  6.66802312E-01  6.76229476E-01  5.97113868E-15  8.39393125E-16 -6.51739224E-01
 -6.46720727E-01 -7.18093561E-15 -1.46840836E-16  1.18698861E-15  2.41269234E-01
  3.20853789E-01  4.84743523E-15  3.80975825E-16 -1.27528083E-01 -2.08934450E-01
 -6.43445659E-15 -4.50215087E-02  2.70871061E-01 -1.42515701E-14  1.58783557E-14
 -7.14707658E-01 -3.93327651E-02  1.31662579E-14 -1.32486087E-14  9.12589000E-01
  4.50630991E-02 -2.70933146E-01  1.93872963E-14  1.17653670E-14 -7.12716538E-01
  3.91015420E-02 -1.65303547E-14 -6.85363644E-15  9.11037153E-01  1.66518132E-02
 -4.05829652E-02  2.05850708E-14  1.13033464E-15 -7.63179077E-01 -7.21048619E-02
 -2.26692113E-14 -4.11744994E-15  5.88657800E-01  1.65315878E-02 -3.98926539E-02
 -3.93650323E-14 -2.06610682E-14  7.65054151E-01 -7.21744964E-02  3.58317907E-14
  1.66448359E-14 -5.91040649E-01  1.51630823E-15 -5.46990207E-15 -3.98880678E-01
 -1.21998277E-01 -1.79452163E-14 -3.79170723E-15  4.38121589E-01  1.86529013E-01
  6.21606066E-15 -4.55237024E-16  6.94758616E-15  7.69162790E-01  6.39825414E-01
  4.86791816E-14 -6.35482463E-15 -7.04031124E-01 -5.58398999E-01 -4.57037548E-14
  7.95210241E-16 -3.27917361E-15 -6.39828231E-01  7.69207349E-01  5.58511884E-15
 -1.40470831E-15  5.58389479E-01 -7.04045241E-01 -9.73212134E-15 -8.60894492E-16
  7.44872522E-15  1.21955675E-01 -3.98828900E-01  1.77446831E-14 -4.13098304E-15
 -1.86497995E-01  4.38069749E-01 -1.97269232E-14 -8.08071442E-02  1.03766606E+00
  3.55854854E-15 -1.45020817E-15 -3.97540701E-02 -8.45821334E-01 -3.54283664E-15
  9.09084885E-16  1.08284916E-01 -8.08072347E-02  1.03771309E+00 -1.90985485E-15
 -9.08682665E-16  3.97818253E-02 -8.45876072E-01  2.08004902E-15  6.24527724E-16
 -1.08294110E-01  3.99168716E-02 -1.11910804E+00  1.10685858E-15 -9.94553932E-16
 -2.69796648E-01  1.21120374E+00 -1.30710952E-15  5.98798823E-16  6.07560224E-01
 -3.99121800E-02  1.11907000E+00 -5.40134687E-17 -1.35610029E-16 -2.69781763E-01
 -1.21118044E+00  1.82995327E-16  8.30560529E-17  6.07555901E-01
Beta MO coefficients                       R   N=         324
  7.02163059E-01  6.55997675E-02  1.12324539E-15  5.72210096E-16  2.17314905E-03
 -2.36908821E-02 -1.17200036E-15 -4.06000669E-16 -6.24640350E-03 -6.91470740E-01
 -6.46524649E-02 -4.69611796E-16 -7.58950768E-16  2.16147017E-03  2.34397545E-02
  5.54021675E-16  7.42899680E-16 -6.25892979E-03  6.91033217E-01  6.12067919E-02
 -8.17867896E-17 -9.94987459E-16  7.37429005E-04 -1.61759960E-02  8.37681531E-17
  8.32069016E-16  8.61188240E-04  7.01732130E-01  6.22069619E-02 -2.40828219E-16
  2.50276999E-16 -7.70651240E-04 -1.65379146E-02  1.60421695E-16 -3.08313147E-16
 -7.65030657E-04 -1.68114173E-01  1.74566725E-01 -3.48463144E-16  3.64505826E-16
  3.65605823E-02  5.33178777E-01 -4.72302211E-17 -2.54912034E-16  3.82952182E-02
 -1.68087631E-01  1.74529387E-01  7.18597269E-17 -1.83903997E-17 -3.65247592E-02
  5.33098891E-01  2.96248655E-16 -1.77079150E-16 -3.82623777E-02  1.79211990E-01
 -1.86899937E-01 -5.17255821E-16  4.32578400E-16  4.50648903E-02 -5.94603718E-01
  2.45691542E-16  3.71760671E-17  3.28013653E-02 -1.79236004E-01  1.86912693E-01
 -1.19230960E-16 -1.51988536E-16  4.51169682E-02  5.94696587E-01  5.24060124E-16
 -5.00414720E-16  3.28338739E-02  2.50990036E-17 -5.27681020E-17  3.34138338E-01
 -3.30928294E-01  2.94636715E-18 -1.65529007E-16  3.55356750E-01 -3.39473251E-01
  2.00014972E-16 -2.20269694E-17  2.46746095E-17  2.31378285E-01  1.95054411E-01
 -1.13484315E-16  1.29261081E-16  2.51204386E-01  1.93768593E-01 -1.83175819E-16
  8.71356912E-17 -9.71303327E-17 -1.95067027E-01  2.31388038E-01  4.32398535E-16
 -2.85052709E-16 -1.93751328E-01  2.51198644E-01  2.58923718E-16  5.86708966E-17
 -1.11352990E-16  3.30914753E-01  3.34116778E-01 -6.68176079E-16 -2.22709318E-16
  3.39485462E-01  3.55377261E-01 -7.43495036E-16 -3.38663985E-02  4.48228976E-02
  6.28961066E-16  7.19770582E-16 -3.29271286E-01  1.31980312E-01  4.65582000E-16
  1.02118164E-15 -4.04816871E-01 -3.38332832E-02  4.47973346E-02  6.54694788E-16
  1.58551341E-16  3.29384731E-01  1.31846957E-01  5.24445623E-16  3.97978734E-16
  4.04957745E-01 -4.51383109E-02  5.12913851E-02 -3.06294263E-15 -1.14726159E-15
  3.87458398E-01  1.92249890E-01 -3.08022347E-15 -3.97607767E-15  5.68591851E-01
  4.51610901E-02 -5.13016817E-02  1.20084877E-15 -5.04953139E-16  3.87381937E-01
 -1.92348630E-01  2.02347419E-15 -8.86356056E-16  5.68472329E-01 -3.19436129E-16
  4.00123241E-16  2.78866782E-01  1.99100181E-01  2.98003300E-15  1.34397698E-15
  4.38446577E-01  3.70734741E-01  4.83387121E-15  3.05449551E-16 -4.30483333E-16
 -2.22006553E-01  1.36070167E-01  2.75833712E-15 -1.33481371E-15 -3.29063040E-01
  2.74165712E-01  4.21801300E-15  4.56112416E-17 -3.21594892E-17 -1.36071635E-01
 -2.22004691E-01 -1.01879647E-15 -2.58243906E-16 -2.74170081E-01 -3.29059786E-01
 -1.25437076E-15 -1.75594034E-16 -2.66079143E-17 -1.99087986E-01  2.78844581E-01
 -5.40097522E-16  8.31432742E-16 -3.70743711E-01  4.38467339E-01 -2.54185384E-16
  5.01590369E-16 -1.57582933E-15  6.76248618E-01 -6.66798498E-01  4.11568921E-15
  4.48110445E-16 -6.46764490E-01  6.51763828E-01 -4.71665518E-15 -2.07559378E-16
 -4.30111087E-16  3.20803150E-01 -2.41225834E-01  2.74082355E-15  1.90378333E-15
 -2.08880143E-01  1.27481339E-01 -3.39009190E-15 -6.51527006E-17 -8.19227325E-17
  2.41269235E-01  3.20853788E-01 -7.76721972E-16  6.44332067E-17 -1.27528084E-01
 -2.08934449E-01  8.72489495E-16 -2.69975620E-17  1.52191360E-16  6.66802313E-01
  6.76229475E-01  6.11540574E-16 -2.76291212E-16 -6.51739225E-01 -6.46720727E-01
 -3.77134847E-16 -4.50630991E-02  2.70933146E-01 -4.55021732E-15 -4.63229507E-15
 -7.12716538E-01 -3.91015420E-02  4.65006155E-15  3.04392170E-15  9.11037153E-01
  4.50215087E-02 -2.70871061E-01  1.21466216E-14 -8.88346326E-15 -7.14707658E-01
  3.93327651E-02 -1.07549020E-14  6.78194115E-15  9.12589000E-01 -1.65315878E-02
  3.98926539E-02 -3.37369754E-14 -7.48422088E-14  7.65054151E-01  7.21744964E-02
  2.51323330E-14  7.43699881E-14 -5.91040649E-01 -1.66518132E-02  4.05829652E-02
 -3.58477282E-14  8.09768741E-14 -7.63179077E-01  7.21048619E-02  2.61765169E-14
 -7.85947575E-14  5.88657800E-01 -9.37467356E-16 -5.88551494E-16  7.69162789E-01
  6.39825419E-01  3.96321312E-14  8.04177358E-15 -7.04031122E-01 -5.58399003E-01
 -2.78266954E-14 -4.29470945E-16 -5.69903957E-15 -3.98880671E-01 -1.21998285E-01
 -5.19926083E-14  9.31070413E-15  4.38121584E-01  1.86529021E-01  4.32831998E-14
  1.13097842E-15 -7.81073917E-16  1.21955683E-01 -3.98828894E-01 -8.05572495E-14
 -7.61685859E-15 -1.86498002E-01  4.38069743E-01  6.60309573E-14  2.02068010E-15
 -7.37181403E-15 -6.39828236E-01  7.69207348E-01  6.40496587E-14 -5.08461372E-15
  5.58389484E-01 -7.04045239E-01 -4.55836166E-14 -8.08072347E-02  1.03771309E+00
  5.28359649E-15  2.78788743E-15 -3.97818253E-02 -8.45876072E-01 -5.09630768E-15
 -2.54273462E-15  1.08294110E-01 -8.08071442E-02  1.03766606E+00 -2.59775298E-15
 -6.21964496E-16  3.97540701E-02 -8.45821334E-01  2.85771728E-15  9.98153000E-16
 -1.08284916E-01 -3.99121800E-02  1.11907000E+00 -8.09465481E-16  9.59064914E-16
  2.69781763E-01 -1.21118044E+00  1.21721645E-15 -5.53234444E-16 -6.07555901E-01
  3.99168716E-02 -1.11910804E+00  1.84503656E-16  5.19446054E-17  2.69796648E-01
  1.21120374E+00 -2.48222849E-16 -3.86025313E-17 -6.07560224E-01
Total SCF Density                          R   N=         171
  2.06416957E+00  4.80023748E-02  1.50917131E-01  2.53477782E-16  1.36839691E-16
  3.12740058E-01 -6.53614619E-16  1.17416496E-18 -1.64803021E-05  3.12734204E-01
  3.02433180E-02 -3.32377274E-02 -1.69362168E-16  3.05455781E-16  2.23661533E-01
 -4.56950011E-01  4.15138157E-01  2.38363486E-16  1.16226267E-16 -1.01674547E-01
  1.31213992E+00 -3.23395861E-16 -3.02858377E-17  3.26996797E-01 -3.03039462E-06
  7.69180264E-17 -5.90003741E-17  3.42172019E-01  5.92315377E-16  5.87696616E-17
  1.82313728E-06  3.26998589E-01  1.53503875E-16 -4.26755204E-17  1.67520709E-05
  3.42182112E-01  1.87228442E-02 -3.59048706E-02 -4.75355762E-16 -1.39157944E-16
  2.72412766E-01 -1.04766373E-01 -1.90759144E-16 -3.33181455E-16  3.33031519E-01
 -6.64502973E-03  4.60149868E-04 -1.10264809E-15 -1.51809442E-15 -8.12341085E-03
  3.50390251E-02  1.24585460E-15  9.90790734E-16  1.26249138E-02  2.06416957E+00
  4.60149868E-04 -5.78539745E-03 -3.12819420E-16 -4.41942249E-17 -9.12410775E-05
 -2.32980912E-02  1.38166125E-16  7.64432170E-17 -9.74065028E-03  4.80023748E-02
  1.50917131E-01 -5.84683138E-16  1.78310790E-17  2.55235975E-02  8.43935191E-08
 -6.68128256E-17  1.04993077E-16  3.58212592E-02  1.72838851E-06 -2.19612788E-16
 -1.50625071E-16 -9.16273372E-17  3.12740058E-01 -1.59143805E-15 -2.48575557E-16
  8.43935194E-08  2.55232039E-02  2.23251539E-16 -1.27936619E-16  5.68359154E-07
  3.58204633E-02  3.01980933E-16  5.79399116E-16  1.35272788E-16 -1.64803021E-05
  3.12734204E-01  8.12341085E-03  9.12410775E-05  5.20414279E-16  1.11357996E-16
 -2.15509961E-01 -5.78305256E-03  3.48586141E-16  2.69964976E-16 -2.66547850E-01
 -3.02433180E-02  3.32377274E-02 -3.04018098E-16 -1.87960396E-17  2.23661533E-01
  3.50390251E-02 -2.32980912E-02 -3.78138153E-16  4.99593845E-16  5.78305256E-03
 -1.04516752E-01  2.38888677E-16  1.47516133E-16 -2.72958037E-02 -4.56950011E-01
  4.15138157E-01 -1.59518905E-16  2.40612672E-16  1.01674547E-01  1.31213992E+00
  4.47266422E-16 -8.17023042E-18  3.58212592E-02  5.68359154E-07 -5.57788520E-17
 -2.81519103E-16  4.69828306E-02  3.27949448E-06 -2.44363836E-16 -2.87924408E-17
  1.26909917E-16  3.26996797E-01 -3.03039462E-06 -2.42448796E-16  4.53252591E-16
  3.42172019E-01  1.34789172E-15  2.21917200E-16  1.72838851E-06  3.58204633E-02
 -1.53742872E-16  3.77027718E-16  3.27949448E-06  4.69820633E-02 -1.60193040E-16
 -4.37548787E-16 -4.49033494E-16  1.82313728E-06  3.26998589E-01  2.40025559E-16
 -1.09649092E-15  1.67520709E-05  3.42182112E-01 -1.26249138E-02  9.74065028E-03
  6.49048802E-16  1.75308353E-16 -2.66547850E-01  2.72958037E-02  4.50801399E-16
  3.72741868E-16 -3.28567120E-01 -1.87228442E-02  3.59048706E-02 -9.38847478E-17
 -2.60858268E-16  2.72412766E-01  1.04766373E-01 -2.71829404E-17  5.06869970E-17
  3.33031519E-01
Spin SCF Density                           R   N=         171
 -2.65968746E-06  6.73570903E-06 -1.05102865E-05 -1.08283376E-15 -1.31221662E-16
  1.33409112E-02 -8.94950113E-17  2.78372939E-17  3.11407533E-01 -1.33737152E-02
  1.02337568E-05 -1.46005155E-05  4.78898724E-16  5.14640910E-16  7.67990743E-05
  5.45969971E-06 -1.82683131E-05 -1.21209844E-16  6.92486918E-17 -2.82180344E-05
 -9.90971513E-06  1.15022211E-15  1.79682094E-16  1.39311787E-02  3.24855655E-01
  5.35264873E-16  1.15010462E-16  1.45360255E-02 -4.41037484E-17  3.45015943E-17
  3.24865024E-01 -1.39327409E-02  6.26586244E-16  4.23165947E-17  3.38625116E-01
 -1.45035814E-02  4.37540536E-06 -9.63154858E-06  7.60176531E-17  4.08716398E-16
  9.29300998E-05 -7.53149527E-06  1.17085533E-16  5.09898296E-16  1.13695825E-04
 -7.26415456E-16 -1.12523211E-06  3.43122231E-16  9.54247308E-16  1.15795103E-05
  1.73430727E-06 -3.50428685E-16 -7.86163475E-16  1.75649406E-05  2.65968746E-06
  1.12523210E-06  6.85649454E-16  4.13110192E-17 -1.31982144E-16 -9.22867877E-06
 -6.41838035E-06 -2.01560659E-16 -2.32899689E-17 -1.53161577E-05 -6.73570903E-06
  1.05102865E-05  4.49602692E-16  6.92792927E-17 -8.04911693E-16 -1.03641987E-07
  8.46820589E-17 -5.10254537E-17 -3.92066556E-04 -9.15546833E-03  4.33947401E-17
 -4.64996462E-16 -9.92785888E-17 -1.33409112E-02 -8.80509350E-16 -1.58753877E-16
  1.03641962E-07  5.82867088E-16  5.55446571E-17 -1.03730442E-16 -9.15609653E-03
  3.92610727E-04  1.80767221E-16 -9.01990560E-16  1.19813939E-16 -3.11407533E-01
  1.33737152E-02  1.15795103E-05 -9.22867877E-06 -6.25282024E-17 -1.45112805E-16
  3.46944695E-16 -4.82826627E-05 -1.56814493E-16 -1.63056390E-16 -8.76305035E-07
  1.02337568E-05 -1.46005155E-05 -2.22909863E-16  3.83561854E-16 -7.67990743E-05
 -1.73430727E-06  6.41838035E-06  2.14128802E-16 -4.64464499E-16 -4.82826627E-05
  7.07767178E-16 -2.46204094E-16  3.52010834E-16 -7.07420939E-05 -5.45969971E-06
  1.82683131E-05 -1.65333368E-16  5.41438889E-16 -2.82180344E-05  9.90971513E-06
 -6.76953038E-16  3.74133666E-17  3.92066556E-04  9.15609653E-03 -7.70154090E-17
  1.95503322E-16 -1.55431223E-15  1.04345389E-06 -1.46470527E-16  8.06411498E-16
 -1.04505042E-16 -1.39311787E-02 -3.24855655E-01 -1.05044842E-16 -5.58608654E-16
 -1.45360255E-02  8.05846487E-16  9.07684249E-17  9.15546833E-03 -3.92610727E-04
 -1.44851616E-16  1.57686287E-16 -1.04345395E-06  6.24500451E-16 -4.33173965E-17
  7.77395697E-16 -3.18101588E-17 -3.24865024E-01  1.39327409E-02  5.25270013E-16
 -3.54270544E-16 -3.38625116E-01  1.45035814E-02  1.75649406E-05 -1.53161577E-05
 -6.77065540E-18 -1.79681674E-16  8.76305035E-07 -7.07420939E-05 -1.18492505E-16
 -2.30923143E-16  2.77555756E-17  4.37540536E-06 -9.63154858E-06 -4.02177710E-17
  1.78471304E-16 -9.29300998E-05 -7.53149527E-06  1.40338205E-16  3.55925702E-16
 -1.13695825E-04
Anisotropic Hyperfine tensors              R   N=          12
  1.33454525E-01  3.11851545E+00 -1.34058194E-01  0.00000000E+00  0.00000000E+00
  6.03669262E-04 -1.33454525E-01 -3.11851545E+00  1.34058194E-01  1.95804328E-18
  0.00000000E+00 -6.03669262E-04
Isotropic Hyperfine splittings             R   N=           2
 -1.90229832E-04  1.90229831E-04
QEq coupling tensors                       R   N=          12
  2.13979318E-01 -1.14578201E-04  2.13944622E-01  9.06285297E-21 -1.45528092E-17
 -4.27923940E-01  2.13979318E-01 -1.14578201E-04  2.13944622E-01 -1.43727285E-17
 -7.43193556E-21 -4.27923940E-01
Mulliken Charges                           R   N=           2
 -2.89934743E-13  3.09086090E-13
ONIOM Charges                              I   N=          16
           0           0           0           0           0           0
           0           0           0           0           0           0
           0           0           0           0
ONIOM Multiplicities                       I   N=          16
           1           0           0           0           0           0
           0           0           0           0           0           0
           0           0           0           0
Atom Layers                                I   N=           2
           1           1
Atom Modifiers                             I   N=           2
           0           0
Force Field                                I                0
Int Atom Modified Types                    I   N=           2
           0           0
Link Atoms                                 I   N=           2
           0           0
Atom Modified MM Charges                   R   N=           2
  0.00000000E+00  0.00000000E+00
Link Distances                             R   N=           8
  0.00000000E+00  0.00000000E+00  0.00000000E+00  0.00000000E+00  0.00000000E+00
  0.00000000E+00  0.00000000E+00  0.00000000E+00
Cartesian Gradient                         R   N=           6
  0.00000000E+00  0.00000000E+00  0.00000000E+00  0.00000000E+00  0.00000000E+00
  0.00000000E+00
Dipole Moment                              R   N=           3
 -4.50138680E-16  2.02061685E-15  1.11910481E-12
Quadrupole Moment                          R   N=           6
  3.49937425E-01  3.49903902E-01 -6.99841327E-01 -4.81289130E-05 -9.21520044E-16
  7.69058600E-15
