 Entering Gaussian System, Link 0=g09
 Input=test_uhf.gjf
 Output=test_uhf.log
 Initial command:
 /share/home/srwang/g09/l1.exe /share/home/srwang/gauscr/Gau-453695.inp -scrdir=/share/home/srwang/gauscr/ -exedir=/share/home/srwang/g09m/exe-dir:/share/home/srwang/g09/bsd:/share/home/srwang/g09/local:/share/home/srwang/g09/extras:/share/home/srwang/g09
 Entering Link 1 = /share/home/srwang/g09/l1.exe PID=    453696.
  
 Copyright (c) 1988,1990,1992,1993,1995,1998,2003,2009,2011,
            Gaussian, Inc.  All Rights Reserved.
  
 This is part of the Gaussian(R) 09 program.  It is based on
 the Gaussian(R) 03 system (copyright 2003, Gaussian, Inc.),
 the Gaussian(R) 98 system (copyright 1998, Gaussian, Inc.),
 the Gaussian(R) 94 system (copyright 1995, Gaussian, Inc.),
 the Gaussian 92(TM) system (copyright 1992, Gaussian, Inc.),
 the Gaussian 90(TM) system (copyright 1990, Gaussian, Inc.),
 the Gaussian 88(TM) system (copyright 1988, Gaussian, Inc.),
 the Gaussian 86(TM) system (copyright 1986, Carnegie Mellon
 University), and the Gaussian 82(TM) system (copyright 1983,
 Carnegie Mellon University). Gaussian is a federally registered
 trademark of Gaussian, Inc.
  
 This software contains proprietary and confidential information,
 including trade secrets, belonging to Gaussian, Inc.
  
 This software is provided under written license and may be
 used, copied, transmitted, or stored only in accord with that
 written license.
  
 The following legend is applicable only to US Government
 contracts under FAR:
  
                    RESTRICTED RIGHTS LEGEND
  
 Use, reproduction and disclosure by the US Government is
 subject to restrictions as set forth in subparagraphs (a)
 and (c) of the Commercial Computer Software - Restricted
 Rights clause in FAR 52.227-19.
  
 Gaussian, Inc.
 340 Quinnipiac St., Bldg. 40, Wallingford CT 06492
  
  
 ---------------------------------------------------------------
 Warning -- This program may not be used in any manner that
 competes with the business of Gaussian, Inc. or will provide
 assistance to any competitor of Gaussian, Inc.  The licensee
 of this program is prohibited from giving any competitor of
 Gaussian, Inc. access to this program.  By using this program,
 the user acknowledges that Gaussian, Inc. is engaged in the
 business of creating and licensing software in the field of
 computational chemistry and represents and warrants to the
 licensee that it is not a competitor of Gaussian, Inc. and that
 it will not use this program in any manner prohibited above.
 ---------------------------------------------------------------
  

 Cite this work as:
 Gaussian 09, Revision C.01,
 M. J. Frisch, G. W. Trucks, H. B. Schlegel, G. E. Scuseria, 
 M. A. Robb, J. R. Cheeseman, G. Scalmani, V. Barone, B. Mennucci, 
 G. A. Petersson, H. Nakatsuji, M. Caricato, X. Li, H. P. Hratchian, 
 A. F. Izmaylov, J. Bloino, G. Zheng, J. L. Sonnenberg, M. Hada, 
 M. Ehara, K. Toyota, R. Fukuda, J. Hasegawa, M. Ishida, T. Nakajima, 
 Y. Honda, O. Kitao, H. Nakai, T. Vreven, J. A. Montgomery, Jr., 
 J. E. Peralta, F. Ogliaro, M. Bearpark, J. J. Heyd, E. Brothers, 
 K. N. Kudin, V. N. Staroverov, T. Keith, R. Kobayashi, J. Normand, 
 K. Raghavachari, A. Rendell, J. C. Burant, S. S. Iyengar, J. Tomasi, 
 M. Cossi, N. Rega, J. M. Millam, M. Klene, J. E. Knox, J. B. Cross, 
 V. Bakken, C. Adamo, J. Jaramillo, R. Gomperts, R. E. Stratmann, 
 O. Yazyev, A. J. Austin, R. Cammi, C. Pomelli, J. W. Ochterski, 
 R. L. Martin, K. Morokuma, V. G. Zakrzewski, G. A. Voth, 
 P. Salvador, J. J. Dannenberg, S. Dapprich, A. D. Daniels, 
 O. Farkas, J. B. Foresman, J. V. Ortiz, J. Cioslowski, 
 and D. J. Fox, Gaussian, Inc., Wallingford CT, 2010.
 
 ******************************************
 Gaussian 09:  EM64L-G09RevC.01 23-Sep-2011
                22-Oct-2020 
 ******************************************
 %subst l530 ../phf
 %nproc=1
 Will use up to    1 processors via shared memory.
 %mem=4GB
 %chk=test_uhf.chk
 ------------------------------------------
 #p uhf/3-21g nosymm guess=mix scf=conver=4
 ------------------------------------------
 1/38=1/1;
 2/12=2,15=1,17=6,18=5,40=1/2;
 3/5=5,11=2,16=1,25=1,30=1,116=2/1,2,3;
 4/13=-1/1;
 5/5=2,6=4,38=5/2;
 6/7=2,8=2,9=2,10=2,28=1/1;
 99/5=1,9=1/99;
 Leave Link    1 at Thu Oct 22 21:36:56 2020, MaxMem=  536870912 cpu:       0.0
 (Enter /share/home/srwang/g09/l101.exe)
 -----
 title
 -----
 Charge =  0 Multiplicity = 1
 Symbolic Z-Matrix:
 H                     0.        0.        0. 
 H                     0.        0.        2. 
 
 NAtoms=      2 NQM=        0 NQMF=       0 NMMI=      2 NMMIF=      0
                NMic=       0 NMicF=      0.
                    Isotopes and Nuclear Properties:
 (Nuclear quadrupole moments (NQMom) in fm**2, nuclear magnetic moments (NMagM)
  in nuclear magnetons)

  Atom         1           2
 IAtWgt=           1           1
 AtmWgt=   1.0078250   1.0078250
 NucSpn=           1           1
 AtZEff=   0.0000000   0.0000000
 NQMom=    0.0000000   0.0000000
 NMagM=    2.7928460   2.7928460
 Leave Link  101 at Thu Oct 22 21:36:56 2020, MaxMem=  536870912 cpu:       0.1
 (Enter /share/home/srwang/g09/l202.exe)
                          Input orientation:                          
 ---------------------------------------------------------------------
 Center     Atomic      Atomic             Coordinates (Angstroms)
 Number     Number       Type             X           Y           Z
 ---------------------------------------------------------------------
      1          1           0        0.000000    0.000000    0.000000
      2          1           0        0.000000    0.000000    2.000000
 ---------------------------------------------------------------------
 Symmetry turned off by external request.
 Stoichiometry    H2
 Framework group  D*H[C*(H.H)]
 Deg. of freedom     1
 Full point group                 D*H     NOp   8
 Rotational constants (GHZ):      0.0000000    250.7275501    250.7275501
 Leave Link  202 at Thu Oct 22 21:36:56 2020, MaxMem=  536870912 cpu:       0.0
 (Enter /share/home/srwang/g09/l301.exe)
 Standard basis: 3-21G (6D, 7F)
 Ernie: Thresh=  0.10000D-02 Tol=  0.10000D-05 Strict=F.
 Integral buffers will be    131072 words long.
 Raffenetti 2 integral format.
 Two-electron integral symmetry is turned off.
     4 basis functions,     6 primitive gaussians,     4 cartesian basis functions
     1 alpha electrons        1 beta electrons
       nuclear repulsion energy         0.2645886043 Hartrees.
 IExCor=    0 DFT=F Ex=HF Corr=None ExCW=0 ScaHFX=  1.000000
 ScaDFX=  1.000000  1.000000  1.000000  1.000000 ScalE2=  1.000000  1.000000
 IRadAn=      0 IRanWt=     -1 IRanGd=            0 ICorTp=0
 NAtoms=    2 NActive=    2 NUniq=    2 SFac= 1.00D+00 NAtFMM=   60 NAOKFM=F Big=F
 Leave Link  301 at Thu Oct 22 21:36:57 2020, MaxMem=  536870912 cpu:       0.0
 (Enter /share/home/srwang/g09m/exe-dir/l302.exe)
 NPDir=0 NMtPBC=     1 NCelOv=     1 NCel=       1 NClECP=     1 NCelD=      1
         NCelK=      1 NCelE2=     1 NClLst=     1 CellRange=     0.0.
 One-electron integrals computed using PRISM.
 SVDSVc:  NBasis=    4 NT=    4 NBlks=1 MaxCmp=1 NBF=    4
  
 jSVec:
                 1             2             3             4 
      1  -0.330600D+00  0.460127D+00 -0.856219D+00  0.834535D+00
      2  -0.397746D+00  0.364687D+00  0.711676D+00 -0.105294D+01
      3  -0.330600D+00 -0.460127D+00 -0.856219D+00 -0.834535D+00
      4  -0.397746D+00 -0.364687D+00  0.711676D+00  0.105294D+01
  
 jAA:
                 1             2             3             4 
      1  -0.330600D+00  0.460127D+00 -0.856219D+00  0.834535D+00
      2  -0.397746D+00  0.364687D+00  0.711676D+00 -0.105294D+01
      3  -0.330600D+00 -0.460127D+00 -0.856219D+00 -0.834535D+00
      4  -0.397746D+00 -0.364687D+00  0.711676D+00  0.105294D+01
 NBasis=     4 RedAO= T  NBF=     4
 NBsUse=     4 1.00D-06 NBFU=     4
 Leave Link  302 at Thu Oct 22 21:36:57 2020, MaxMem=  536870912 cpu:       0.1
 (Enter /share/home/srwang/g09/l303.exe)
 DipDrv:  MaxL=1.
 Leave Link  303 at Thu Oct 22 21:36:57 2020, MaxMem=  536870912 cpu:       0.0
 (Enter /share/home/srwang/g09/l401.exe)
 Harris functional with IExCor=  205 diagonalized for initial guess.
 ExpMin= 1.83D-01 ExpMax= 5.45D+00 ExpMxC= 5.45D+00 IAcc=1 IRadAn=         1 AccDes= 0.00D+00
 HarFok:  IExCor=  205 AccDes= 0.00D+00 IRadAn=         1 IDoV= 1
 ScaDFX=  1.000000  1.000000  1.000000  1.000000
 FoFCou: FMM=F IPFlag=           0 FMFlag=      100000 FMFlg1=           0
         NFxFlg=           0 DoJE=T BraDBF=F KetDBF=T FulRan=T
         Omega=  0.000000  0.000000  1.000000  0.000000  0.000000 ICntrl=     500 IOpCl=  0
         NMat0=    1 NMatS0=    1 NMatT0=    0 NMatD0=    1 NMtDS0=    0 NMtDT0=    0
         I1Cent=           4 NGrid=           0.
 Symmetry not used in FoFCou.
 Harris En=-0.998534334700695    
 Mixing orbitals, IMix= 1 IMixAn=  0 NRI=1 NE=    1 Coef=  7.07106781D-01  7.07106781D-01
 Mixing orbitals, IMix= 1 IMixAn=  0 NRI=1 NE=    1 Coef= -7.07106781D-01  7.07106781D-01
 Initial guess <Sx>= 0.0000 <Sy>= 0.0000 <Sz>= 0.0000 <S**2>= 1.0000 S= 0.6180
 Leave Link  401 at Thu Oct 22 21:36:57 2020, MaxMem=  536870912 cpu:       0.1
 (Enter /share/home/srwang/g09/l502.exe)
 UHF open shell SCF:
 Requested convergence on RMS density matrix=1.00D-04 within 128 cycles.
 Requested convergence on MAX density matrix=1.00D-02.
 Requested convergence on             energy=1.00D-02.
 No special actions if energy rises.
 Using DIIS extrapolation, IDIIS=  1040.
 Two-electron integral symmetry not used.
 Keep R1 and R2 ints in memory in canonical form, NReq=819856.
 IEnd=       19725 IEndB=       19725 NGot=   536870912 MDV=   536868152
 LenX=   536868152 LenY=   536867270
 Symmetry not used in FoFDir.
 MinBra= 0 MaxBra= 0 Meth= 1.
 IRaf=       0 NMat=   1 IRICut=       1 DoRegI=T DoRafI=F ISym2E= 0 JSym2E=0.

 Cycle   1  Pass 1  IDiag  1:
 E=-0.976252209587262    
 DIIS: error= 2.74D-02 at cycle   1 NSaved=   1.
 NSaved= 1 IEnMin= 1 EnMin=-0.976252209587262     IErMin= 1 ErrMin= 2.74D-02
 ErrMax= 2.74D-02 EMaxC= 1.00D-01 BMatC= 2.22D-02 BMatP= 2.22D-02
 IDIUse=3 WtCom= 7.26D-01 WtEn= 2.74D-01
 Coeff-Com:  0.100D+01
 Coeff-En:   0.100D+01
 Coeff:      0.100D+01
 Gap=     0.617 Goal=   None    Shift=    0.000
 Gap=     0.617 Goal=   None    Shift=    0.000
 GapD=    0.617 DampG=2.000 DampE=0.500 DampFc=1.0000 IDamp=-1.
 RMSDP=3.02D-02 MaxDP=6.52D-02              OVMax= 9.37D-02

 Cycle   2  Pass 1  IDiag  1:
 E=-0.994211662723095     Delta-E=       -0.017959453136 Rises=F Damp=F
 DIIS: error= 1.03D-02 at cycle   2 NSaved=   2.
 NSaved= 2 IEnMin= 2 EnMin=-0.994211662723095     IErMin= 2 ErrMin= 1.03D-02
 ErrMax= 1.03D-02 EMaxC= 1.00D-01 BMatC= 2.49D-03 BMatP= 2.22D-02
 IDIUse=3 WtCom= 8.97D-01 WtEn= 1.03D-01
 Coeff-Com: -0.469D+00 0.147D+01
 Coeff-En:   0.000D+00 0.100D+01
 Coeff:     -0.421D+00 0.142D+01
 Gap=     0.623 Goal=   None    Shift=    0.000
 Gap=     0.623 Goal=   None    Shift=    0.000
 RMSDP=1.49D-02 MaxDP=3.09D-02 DE=-1.80D-02 OVMax= 5.02D-02

 Cycle   3  Pass 1  IDiag  1:
 E=-0.996913990388707     Delta-E=       -0.002702327666 Rises=F Damp=F
 DIIS: error= 1.84D-03 at cycle   3 NSaved=   3.
 NSaved= 3 IEnMin= 3 EnMin=-0.996913990388707     IErMin= 3 ErrMin= 1.84D-03
 ErrMax= 1.84D-03 EMaxC= 1.00D-01 BMatC= 7.61D-05 BMatP= 2.49D-03
 IDIUse=3 WtCom= 9.82D-01 WtEn= 1.84D-02
 Coeff-Com:  0.321D+00-0.108D+01 0.176D+01
 Coeff-En:   0.000D+00 0.000D+00 0.100D+01
 Coeff:      0.315D+00-0.106D+01 0.175D+01
 Gap=     0.611 Goal=   None    Shift=    0.000
 Gap=     0.611 Goal=   None    Shift=    0.000
 RMSDP=2.91D-03 MaxDP=6.60D-03 DE=-2.70D-03 OVMax= 1.10D-02

 Cycle   4  Pass 1  IDiag  1:
 E=-0.997011007279650     Delta-E=       -0.000097016891 Rises=F Damp=F
 DIIS: error= 1.60D-04 at cycle   4 NSaved=   4.
 NSaved= 4 IEnMin= 4 EnMin=-0.997011007279650     IErMin= 4 ErrMin= 1.60D-04
 ErrMax= 1.60D-04 EMaxC= 1.00D-01 BMatC= 5.53D-07 BMatP= 7.61D-05
 IDIUse=3 WtCom= 9.98D-01 WtEn= 1.60D-03
 Coeff-Com: -0.360D-01 0.112D+00-0.185D+00 0.111D+01
 Coeff-En:   0.000D+00 0.000D+00 0.000D+00 0.100D+01
 Coeff:     -0.359D-01 0.112D+00-0.185D+00 0.111D+01
 Gap=     0.615 Goal=   None    Shift=    0.000
 Gap=     0.615 Goal=   None    Shift=    0.000
 RMSDP=1.48D-04 MaxDP=2.67D-04 DE=-9.70D-05 OVMax= 6.23D-04

 Cycle   5  Pass 1  IDiag  1:
 E=-0.997011480180126     Delta-E=       -0.000000472900 Rises=F Damp=F
 DIIS: error= 2.63D-05 at cycle   5 NSaved=   5.
 NSaved= 5 IEnMin= 5 EnMin=-0.997011480180126     IErMin= 5 ErrMin= 2.63D-05
 ErrMax= 2.63D-05 EMaxC= 1.00D-01 BMatC= 3.34D-08 BMatP= 5.53D-07
 IDIUse=1 WtCom= 1.00D+00 WtEn= 0.00D+00
 Coeff-Com: -0.522D-03 0.430D-02-0.242D-01-0.922D-01 0.111D+01
 Coeff:     -0.522D-03 0.430D-02-0.242D-01-0.922D-01 0.111D+01
 Gap=     0.615 Goal=   None    Shift=    0.000
 Gap=     0.615 Goal=   None    Shift=    0.000
 RMSDP=4.82D-05 MaxDP=8.44D-05 DE=-4.73D-07 OVMax= 1.67D-04

 SCF Done:  E(UHF) = -0.997011480180     A.U. after    5 cycles
             Convg  =    0.4824D-04             -V/T =  1.9954
 <Sx>= 0.0000 <Sy>= 0.0000 <Sz>= 0.0000 <S**2>= 0.9105 S= 0.5773
 <L.S>= 0.000000000000E+00
 KE= 1.001635978686D+00 PE=-2.536147924251D+00 EE= 2.729118610899D-01
 Annihilation of the first spin contaminant:
 S**2 before annihilation     0.9105,   after     0.0000
 Leave Link  502 at Thu Oct 22 21:36:57 2020, MaxMem=  536870912 cpu:       0.0
 (Enter /share/home/srwang/g09/l601.exe)
 Copying SCF densities to generalized density rwf, IOpCl= 1 IROHF=0.

 **********************************************************************

            Population analysis using the SCF density.

 **********************************************************************

 Alpha  occ. eigenvalues --   -0.49433
 Alpha virt. eigenvalues --    0.12018   1.09920   1.28176
  Beta  occ. eigenvalues --   -0.49433
  Beta virt. eigenvalues --    0.12018   1.09920   1.28176
          Condensed to atoms (all electrons):
              1          2
     1  H    0.977234   0.022766
     2  H    0.022766   0.977234
 Mulliken atomic charges:
              1
     1  H    0.000000
     2  H    0.000000
 Sum of Mulliken atomic charges =   0.00000
 Mulliken charges with hydrogens summed into heavy atoms:
              1
 Sum of Mulliken charges with hydrogens summed into heavy atoms =   0.00000
          Atomic-Atomic Spin Densities.
              1          2
     1  H    0.969392  -0.000000
     2  H   -0.000000  -0.969392
 Mulliken atomic spin densities:
              1
     1  H    0.969392
     2  H   -0.969392
 Sum of Mulliken atomic spin densities =  -0.00000
 Electronic spatial extent (au):  <R**2>=             19.6035
 Charge=              0.0000 electrons
 Dipole moment (field-independent basis, Debye):
    X=              0.0000    Y=              0.0000    Z=              0.0000  Tot=              0.0000
 Quadrupole moment (field-independent basis, Debye-Ang):
   XX=             -2.4513   YY=             -2.4513   ZZ=             -2.2521
   XY=              0.0000   XZ=              0.0000   YZ=              0.0000
 Traceless Quadrupole moment (field-independent basis, Debye-Ang):
   XX=             -0.0664   YY=             -0.0664   ZZ=              0.1328
   XY=              0.0000   XZ=              0.0000   YZ=              0.0000
 Octapole moment (field-independent basis, Debye-Ang**2):
  XXX=              0.0000  YYY=              0.0000  ZZZ=             -6.7562  XYY=              0.0000
  XXY=              0.0000  XXZ=             -2.4513  XZZ=              0.0000  YZZ=              0.0000
  YYZ=             -2.4513  XYZ=              0.0000
 Hexadecapole moment (field-independent basis, Debye-Ang**3):
 XXXX=             -2.4037 YYYY=             -2.4037 ZZZZ=            -29.9964 XXXY=              0.0000
 XXXZ=              0.0000 YYYX=              0.0000 YYYZ=              0.0000 ZZZX=              0.0000
 ZZZY=              0.0000 XXYY=             -0.8012 XXZZ=             -5.6343 YYZZ=             -5.6343
 XXYZ=              0.0000 YYXZ=              0.0000 ZZXY=              0.0000
 N-N= 2.645886042950D-01 E-N=-3.804264376471D+00  KE= 1.502453968029D+00
                          Isotropic Fermi Contact Couplings
        Atom                 a.u.       MegaHertz       Gauss      10(-4) cm-1
     1  H(1)               0.24118     539.02475     192.33743     179.79930
     2  H(1)              -0.24118    -539.02475    -192.33743    -179.79930
 --------------------------------------------------------
       Center         ----  Spin Dipole Couplings  ----
                      3XX-RR        3YY-RR        3ZZ-RR
 --------------------------------------------------------
     1   Atom        0.017347      0.017347     -0.034694
     2   Atom       -0.017347     -0.017347      0.034694
 --------------------------------------------------------
                        XY            XZ            YZ
 --------------------------------------------------------
     1   Atom        0.000000      0.000000      0.000000
     2   Atom        0.000000      0.000000      0.000000
 --------------------------------------------------------


 ---------------------------------------------------------------------------------
              Anisotropic Spin Dipole Couplings in Principal Axis System
 ---------------------------------------------------------------------------------

       Atom             a.u.   MegaHertz   Gauss  10(-4) cm-1        Axes

              Baa    -0.0347   -18.511    -6.605    -6.175  0.0000  0.0000  1.0000
     1 H(1)   Bbb     0.0173     9.256     3.303     3.087 -0.0000  1.0000  0.0000
              Bcc     0.0173     9.256     3.303     3.087  1.0000  0.0000  0.0000
 
              Baa    -0.0173    -9.256    -3.303    -3.087  1.0000  0.0000  0.0000
     2 H(1)   Bbb    -0.0173    -9.256    -3.303    -3.087 -0.0000  1.0000  0.0000
              Bcc     0.0347    18.511     6.605     6.175  0.0000  0.0000  1.0000
 

 ---------------------------------------------------------------------------------

 No NMR shielding tensors so no spin-rotation constants.
 Leave Link  601 at Thu Oct 22 21:36:58 2020, MaxMem=  536870912 cpu:       0.1
 (Enter /share/home/srwang/g09/l9999.exe)
 1\1\GINC-XCLUSTER\SP\UHF\3-21G\H2\SRWANG\22-Oct-2020\0\\#p uhf/3-21g n
 osymm guess=mix scf=conver=4\\title\\0,1\H,0,0.,0.,0.\H,0,0.,0.,2.\\Ve
 rsion=EM64L-G09RevC.01\HF=-0.9970115\S2=0.910481\S2-1=0.\S2A=0.\RMSD=4
 .824e-05\Dipole=0.,0.,0.\Quadrupole=-0.049373,-0.049373,0.0987459,0.,0
 .,0.\PG=D*H [C*(H1.H1)]\\@


 IF YOU GIVE A BOY AND A PIG EVERYTHING THEY WANT,
 YOU'LL GET A BAD BOY AND A GOOD PIG.
 Job cpu time:  0 days  0 hours  0 minutes  0.5 seconds.
 File lengths (MBytes):  RWF=     67 Int=      0 D2E=      0 Chk=      2 Scr=      2
 Normal termination of Gaussian 09 at Thu Oct 22 21:36:58 2020.
