 Entering Gaussian System, Link 0=g09
 Input=test.gjf
 Output=test.log
 Initial command:
 /share/home/srwang/g09/l1.exe /share/home/srwang/gauscr/Gau-302302.inp -scrdir=/share/home/srwang/gauscr/ -exedir=/share/home/srwang/g09m/exe-dir:/share/home/srwang/g09/bsd:/share/home/srwang/g09/local:/share/home/srwang/g09/extras:/share/home/srwang/g09
 Entering Link 1 = /share/home/srwang/g09/l1.exe PID=    302303.
  
 Copyright (c) 1988,1990,1992,1993,1995,1998,2003,2009,2011,
            Gaussian, Inc.  All Rights Reserved.
  
 This is part of the Gaussian(R) 09 program.  It is based on
 the Gaussian(R) 03 system (copyright 2003, Gaussian, Inc.),
 the Gaussian(R) 98 system (copyright 1998, Gaussian, Inc.),
 the Gaussian(R) 94 system (copyright 1995, Gaussian, Inc.),
 the Gaussian 92(TM) system (copyright 1992, Gaussian, Inc.),
 the Gaussian 90(TM) system (copyright 1990, Gaussian, Inc.),
 the Gaussian 88(TM) system (copyright 1988, Gaussian, Inc.),
 the Gaussian 86(TM) system (copyright 1986, Carnegie Mellon
 University), and the Gaussian 82(TM) system (copyright 1983,
 Carnegie Mellon University). Gaussian is a federally registered
 trademark of Gaussian, Inc.
  
 This software contains proprietary and confidential information,
 including trade secrets, belonging to Gaussian, Inc.
  
 This software is provided under written license and may be
 used, copied, transmitted, or stored only in accord with that
 written license.
  
 The following legend is applicable only to US Government
 contracts under FAR:
  
                    RESTRICTED RIGHTS LEGEND
  
 Use, reproduction and disclosure by the US Government is
 subject to restrictions as set forth in subparagraphs (a)
 and (c) of the Commercial Computer Software - Restricted
 Rights clause in FAR 52.227-19.
  
 Gaussian, Inc.
 340 Quinnipiac St., Bldg. 40, Wallingford CT 06492
  
  
 ---------------------------------------------------------------
 Warning -- This program may not be used in any manner that
 competes with the business of Gaussian, Inc. or will provide
 assistance to any competitor of Gaussian, Inc.  The licensee
 of this program is prohibited from giving any competitor of
 Gaussian, Inc. access to this program.  By using this program,
 the user acknowledges that Gaussian, Inc. is engaged in the
 business of creating and licensing software in the field of
 computational chemistry and represents and warrants to the
 licensee that it is not a competitor of Gaussian, Inc. and that
 it will not use this program in any manner prohibited above.
 ---------------------------------------------------------------
  

 Cite this work as:
 Gaussian 09, Revision C.01,
 M. J. Frisch, G. W. Trucks, H. B. Schlegel, G. E. Scuseria, 
 M. A. Robb, J. R. Cheeseman, G. Scalmani, V. Barone, B. Mennucci, 
 G. A. Petersson, H. Nakatsuji, M. Caricato, X. Li, H. P. Hratchian, 
 A. F. Izmaylov, J. Bloino, G. Zheng, J. L. Sonnenberg, M. Hada, 
 M. Ehara, K. Toyota, R. Fukuda, J. Hasegawa, M. Ishida, T. Nakajima, 
 Y. Honda, O. Kitao, H. Nakai, T. Vreven, J. A. Montgomery, Jr., 
 J. E. Peralta, F. Ogliaro, M. Bearpark, J. J. Heyd, E. Brothers, 
 K. N. Kudin, V. N. Staroverov, T. Keith, R. Kobayashi, J. Normand, 
 K. Raghavachari, A. Rendell, J. C. Burant, S. S. Iyengar, J. Tomasi, 
 M. Cossi, N. Rega, J. M. Millam, M. Klene, J. E. Knox, J. B. Cross, 
 V. Bakken, C. Adamo, J. Jaramillo, R. Gomperts, R. E. Stratmann, 
 O. Yazyev, A. J. Austin, R. Cammi, C. Pomelli, J. W. Ochterski, 
 R. L. Martin, K. Morokuma, V. G. Zakrzewski, G. A. Voth, 
 P. Salvador, J. J. Dannenberg, S. Dapprich, A. D. Daniels, 
 O. Farkas, J. B. Foresman, J. V. Ortiz, J. Cioslowski, 
 and D. J. Fox, Gaussian, Inc., Wallingford CT, 2010.
 
 ******************************************
 Gaussian 09:  EM64L-G09RevC.01 23-Sep-2011
                23-Oct-2020 
 ******************************************
 %subst l530 ../phf
 %nproc=1
 Will use up to    1 processors via shared memory.
 %mem=4GB
 %chk=test.chk
 ----------------------------------------------------------------------
 #p uhf/3-21g nosymm guess=mix scf=conver=4 extralink=l530 iop(5/206=9,
  5/207=4, 5/216=0) pop=none
 ----------------------------------------------------------------------
 1/38=1/1;
 2/12=2,15=1,17=6,18=5,40=1/2;
 3/5=5,11=2,16=1,25=1,30=1,116=2/1,2,3;
 4/13=-1/1;
 5/5=2,6=4,38=5,206=9,207=4/2,30;
 99/5=1,9=1/99;
 Leave Link    1 at Fri Oct 23 20:24:38 2020, MaxMem=  536870912 cpu:       0.0
 (Enter /share/home/srwang/g09/l101.exe)
 -----
 title
 -----
 Charge =  0 Multiplicity = 1
 Symbolic Z-Matrix:
 H                     0.        0.        0. 
 H                     0.        0.        2. 
 
 NAtoms=      2 NQM=        0 NQMF=       0 NMMI=      2 NMMIF=      0
                NMic=       0 NMicF=      0.
                    Isotopes and Nuclear Properties:
 (Nuclear quadrupole moments (NQMom) in fm**2, nuclear magnetic moments (NMagM)
  in nuclear magnetons)

  Atom         1           2
 IAtWgt=           1           1
 AtmWgt=   1.0078250   1.0078250
 NucSpn=           1           1
 AtZEff=   0.0000000   0.0000000
 NQMom=    0.0000000   0.0000000
 NMagM=    2.7928460   2.7928460
 Leave Link  101 at Fri Oct 23 20:24:38 2020, MaxMem=  536870912 cpu:       0.0
 (Enter /share/home/srwang/g09/l202.exe)
                          Input orientation:                          
 ---------------------------------------------------------------------
 Center     Atomic      Atomic             Coordinates (Angstroms)
 Number     Number       Type             X           Y           Z
 ---------------------------------------------------------------------
      1          1           0        0.000000    0.000000    0.000000
      2          1           0        0.000000    0.000000    2.000000
 ---------------------------------------------------------------------
 Symmetry turned off by external request.
 Stoichiometry    H2
 Framework group  D*H[C*(H.H)]
 Deg. of freedom     1
 Full point group                 D*H     NOp   8
 Rotational constants (GHZ):      0.0000000    250.7275501    250.7275501
 Leave Link  202 at Fri Oct 23 20:24:38 2020, MaxMem=  536870912 cpu:       0.0
 (Enter /share/home/srwang/g09/l301.exe)
 Standard basis: 3-21G (6D, 7F)
 Ernie: Thresh=  0.10000D-02 Tol=  0.10000D-05 Strict=F.
 Integral buffers will be    131072 words long.
 Raffenetti 2 integral format.
 Two-electron integral symmetry is turned off.
     4 basis functions,     6 primitive gaussians,     4 cartesian basis functions
     1 alpha electrons        1 beta electrons
       nuclear repulsion energy         0.2645886043 Hartrees.
 IExCor=    0 DFT=F Ex=HF Corr=None ExCW=0 ScaHFX=  1.000000
 ScaDFX=  1.000000  1.000000  1.000000  1.000000 ScalE2=  1.000000  1.000000
 IRadAn=      0 IRanWt=     -1 IRanGd=            0 ICorTp=0
 NAtoms=    2 NActive=    2 NUniq=    2 SFac= 1.00D+00 NAtFMM=   60 NAOKFM=F Big=F
 Leave Link  301 at Fri Oct 23 20:24:38 2020, MaxMem=  536870912 cpu:       0.0
 (Enter /share/home/srwang/g09m/exe-dir/l302.exe)
 NPDir=0 NMtPBC=     1 NCelOv=     1 NCel=       1 NClECP=     1 NCelD=      1
         NCelK=      1 NCelE2=     1 NClLst=     1 CellRange=     0.0.
 One-electron integrals computed using PRISM.
 SVDSVc:  NBasis=    4 NT=    4 NBlks=1 MaxCmp=1 NBF=    4
  
 jSVec:
                 1             2             3             4 
      1  -0.330600D+00  0.460127D+00 -0.856219D+00  0.834535D+00
      2  -0.397746D+00  0.364687D+00  0.711676D+00 -0.105294D+01
      3  -0.330600D+00 -0.460127D+00 -0.856219D+00 -0.834535D+00
      4  -0.397746D+00 -0.364687D+00  0.711676D+00  0.105294D+01
  
 jAA:
                 1             2             3             4 
      1  -0.330600D+00  0.460127D+00 -0.856219D+00  0.834535D+00
      2  -0.397746D+00  0.364687D+00  0.711676D+00 -0.105294D+01
      3  -0.330600D+00 -0.460127D+00 -0.856219D+00 -0.834535D+00
      4  -0.397746D+00 -0.364687D+00  0.711676D+00  0.105294D+01
 NBasis=     4 RedAO= T  NBF=     4
 NBsUse=     4 1.00D-06 NBFU=     4
 Leave Link  302 at Fri Oct 23 20:24:38 2020, MaxMem=  536870912 cpu:       0.0
 (Enter /share/home/srwang/g09/l303.exe)
 DipDrv:  MaxL=1.
 Leave Link  303 at Fri Oct 23 20:24:38 2020, MaxMem=  536870912 cpu:       0.0
 (Enter /share/home/srwang/g09/l401.exe)
 Harris functional with IExCor=  205 diagonalized for initial guess.
 ExpMin= 1.83D-01 ExpMax= 5.45D+00 ExpMxC= 5.45D+00 IAcc=1 IRadAn=         1 AccDes= 0.00D+00
 HarFok:  IExCor=  205 AccDes= 0.00D+00 IRadAn=         1 IDoV= 1
 ScaDFX=  1.000000  1.000000  1.000000  1.000000
 FoFCou: FMM=F IPFlag=           0 FMFlag=      100000 FMFlg1=           0
         NFxFlg=           0 DoJE=T BraDBF=F KetDBF=T FulRan=T
         Omega=  0.000000  0.000000  1.000000  0.000000  0.000000 ICntrl=     500 IOpCl=  0
         NMat0=    1 NMatS0=    1 NMatT0=    0 NMatD0=    1 NMtDS0=    0 NMtDT0=    0
         I1Cent=           4 NGrid=           0.
 Symmetry not used in FoFCou.
 Harris En=-0.998534334700695    
 Mixing orbitals, IMix= 1 IMixAn=  0 NRI=1 NE=    1 Coef=  7.07106781D-01  7.07106781D-01
 Mixing orbitals, IMix= 1 IMixAn=  0 NRI=1 NE=    1 Coef= -7.07106781D-01  7.07106781D-01
 Initial guess <Sx>= 0.0000 <Sy>= 0.0000 <Sz>= 0.0000 <S**2>= 1.0000 S= 0.6180
 Leave Link  401 at Fri Oct 23 20:24:39 2020, MaxMem=  536870912 cpu:       0.1
 (Enter /share/home/srwang/g09/l502.exe)
 UHF open shell SCF:
 Requested convergence on RMS density matrix=1.00D-04 within 128 cycles.
 Requested convergence on MAX density matrix=1.00D-02.
 Requested convergence on             energy=1.00D-02.
 No special actions if energy rises.
 Using DIIS extrapolation, IDIIS=  1040.
 Two-electron integral symmetry not used.
 Keep R1 and R2 ints in memory in canonical form, NReq=819856.
 IEnd=       19725 IEndB=       19725 NGot=   536870912 MDV=   536868152
 LenX=   536868152 LenY=   536867270
 Symmetry not used in FoFDir.
 MinBra= 0 MaxBra= 0 Meth= 1.
 IRaf=       0 NMat=   1 IRICut=       1 DoRegI=T DoRafI=F ISym2E= 0 JSym2E=0.

 Cycle   1  Pass 1  IDiag  1:
 E=-0.976252209587262    
 DIIS: error= 2.74D-02 at cycle   1 NSaved=   1.
 NSaved= 1 IEnMin= 1 EnMin=-0.976252209587262     IErMin= 1 ErrMin= 2.74D-02
 ErrMax= 2.74D-02 EMaxC= 1.00D-01 BMatC= 2.22D-02 BMatP= 2.22D-02
 IDIUse=3 WtCom= 7.26D-01 WtEn= 2.74D-01
 Coeff-Com:  0.100D+01
 Coeff-En:   0.100D+01
 Coeff:      0.100D+01
 Gap=     0.617 Goal=   None    Shift=    0.000
 Gap=     0.617 Goal=   None    Shift=    0.000
 GapD=    0.617 DampG=2.000 DampE=0.500 DampFc=1.0000 IDamp=-1.
 RMSDP=3.02D-02 MaxDP=6.52D-02              OVMax= 9.37D-02

 Cycle   2  Pass 1  IDiag  1:
 E=-0.994211662723095     Delta-E=       -0.017959453136 Rises=F Damp=F
 DIIS: error= 1.03D-02 at cycle   2 NSaved=   2.
 NSaved= 2 IEnMin= 2 EnMin=-0.994211662723095     IErMin= 2 ErrMin= 1.03D-02
 ErrMax= 1.03D-02 EMaxC= 1.00D-01 BMatC= 2.49D-03 BMatP= 2.22D-02
 IDIUse=3 WtCom= 8.97D-01 WtEn= 1.03D-01
 Coeff-Com: -0.469D+00 0.147D+01
 Coeff-En:   0.000D+00 0.100D+01
 Coeff:     -0.421D+00 0.142D+01
 Gap=     0.623 Goal=   None    Shift=    0.000
 Gap=     0.623 Goal=   None    Shift=    0.000
 RMSDP=1.49D-02 MaxDP=3.09D-02 DE=-1.80D-02 OVMax= 5.02D-02

 Cycle   3  Pass 1  IDiag  1:
 E=-0.996913990388707     Delta-E=       -0.002702327666 Rises=F Damp=F
 DIIS: error= 1.84D-03 at cycle   3 NSaved=   3.
 NSaved= 3 IEnMin= 3 EnMin=-0.996913990388707     IErMin= 3 ErrMin= 1.84D-03
 ErrMax= 1.84D-03 EMaxC= 1.00D-01 BMatC= 7.61D-05 BMatP= 2.49D-03
 IDIUse=3 WtCom= 9.82D-01 WtEn= 1.84D-02
 Coeff-Com:  0.321D+00-0.108D+01 0.176D+01
 Coeff-En:   0.000D+00 0.000D+00 0.100D+01
 Coeff:      0.315D+00-0.106D+01 0.175D+01
 Gap=     0.611 Goal=   None    Shift=    0.000
 Gap=     0.611 Goal=   None    Shift=    0.000
 RMSDP=2.91D-03 MaxDP=6.60D-03 DE=-2.70D-03 OVMax= 1.10D-02

 Cycle   4  Pass 1  IDiag  1:
 E=-0.997011007279650     Delta-E=       -0.000097016891 Rises=F Damp=F
 DIIS: error= 1.60D-04 at cycle   4 NSaved=   4.
 NSaved= 4 IEnMin= 4 EnMin=-0.997011007279650     IErMin= 4 ErrMin= 1.60D-04
 ErrMax= 1.60D-04 EMaxC= 1.00D-01 BMatC= 5.53D-07 BMatP= 7.61D-05
 IDIUse=3 WtCom= 9.98D-01 WtEn= 1.60D-03
 Coeff-Com: -0.360D-01 0.112D+00-0.185D+00 0.111D+01
 Coeff-En:   0.000D+00 0.000D+00 0.000D+00 0.100D+01
 Coeff:     -0.359D-01 0.112D+00-0.185D+00 0.111D+01
 Gap=     0.615 Goal=   None    Shift=    0.000
 Gap=     0.615 Goal=   None    Shift=    0.000
 RMSDP=1.48D-04 MaxDP=2.67D-04 DE=-9.70D-05 OVMax= 6.23D-04

 Cycle   5  Pass 1  IDiag  1:
 E=-0.997011480180126     Delta-E=       -0.000000472900 Rises=F Damp=F
 DIIS: error= 2.63D-05 at cycle   5 NSaved=   5.
 NSaved= 5 IEnMin= 5 EnMin=-0.997011480180126     IErMin= 5 ErrMin= 2.63D-05
 ErrMax= 2.63D-05 EMaxC= 1.00D-01 BMatC= 3.34D-08 BMatP= 5.53D-07
 IDIUse=1 WtCom= 1.00D+00 WtEn= 0.00D+00
 Coeff-Com: -0.522D-03 0.430D-02-0.242D-01-0.922D-01 0.111D+01
 Coeff:     -0.522D-03 0.430D-02-0.242D-01-0.922D-01 0.111D+01
 Gap=     0.615 Goal=   None    Shift=    0.000
 Gap=     0.615 Goal=   None    Shift=    0.000
 RMSDP=4.82D-05 MaxDP=8.44D-05 DE=-4.73D-07 OVMax= 1.67D-04

 SCF Done:  E(UHF) = -0.997011480180     A.U. after    5 cycles
             Convg  =    0.4824D-04             -V/T =  1.9954
 <Sx>= 0.0000 <Sy>= 0.0000 <Sz>= 0.0000 <S**2>= 0.9105 S= 0.5773
 <L.S>= 0.000000000000E+00
 KE= 1.001635978686D+00 PE=-2.536147924251D+00 EE= 2.729118610899D-01
 Annihilation of the first spin contaminant:
 S**2 before annihilation     0.9105,   after     0.0000
 Leave Link  502 at Fri Oct 23 20:24:39 2020, MaxMem=  536870912 cpu:       0.0
  
  +-------------------------------------------+
  |                                           |
  |  LINK 530 - Projected Hartree-Fock (PHF)  |
  |     Self-Consistent Field (SCF) Code      |
  |                                           |
  |                                           |
  |         the Scuseria group, v0.2, 07.2011 |
  +-------------------------------------------+
  
 (Enter ../phf/l530.exe)

 PHF SCF was invoked with the following options:

   method selection:
 iprint =  9
 iphf   =  4, [ UHF + spin projection ]

   general options:
 maxcyc =    512, S      =      0
 ngrda  =      1, ngrdb  =      8, ngrdg  =      1

   accuracy requested:
 conv criterion (RMSDP, RMSDK) =     1.0000E-08
 requested integral accuracy   =     1.0000E-10

   use of symmetry:
 two-electron integral symmetry not used

   strategy options:
 level shifting is turned off
 istrat =      1, continue as usual if energy rises
 modified PHF effective Fock matrix used

   initial guess options:
 igues1 =  1, read GDV guess


 PHF SCF - preparing initial guess

  
 Transform Matrix:
                 1             2             3             4 
      1  -0.330600D+00  0.460127D+00 -0.856219D+00  0.834535D+00
      2  -0.397746D+00  0.364687D+00  0.711676D+00 -0.105294D+01
      3  -0.330600D+00 -0.460127D+00 -0.856219D+00 -0.834535D+00
      4  -0.397746D+00 -0.364687D+00  0.711676D+00  0.105294D+01
  
 MO coefficients (alpha):
                 1             2             3             4 
      1   0.367072D+00 -0.839840D-01  0.125181D+01 -0.204302D+00
      2   0.708838D+00 -0.209185D+00 -0.111655D+01  0.336850D+00
      3   0.212254D-01  0.171781D+00  0.165145D+00  0.130128D+01
      4   0.467742D-01  0.903026D+00  0.630638D-01 -0.104151D+01
 MO coefficients (beta):
                 1             2             3             4 
      1   0.212254D-01  0.171781D+00  0.165145D+00  0.130128D+01
      2   0.467742D-01  0.903026D+00  0.630638D-01 -0.104151D+01
      3   0.367072D+00 -0.839840D-01  0.125181D+01 -0.204302D+00
      4   0.708838D+00 -0.209185D+00 -0.111655D+01  0.336850D+00
 After transformation 
  
 MO coefficients (alpha, real):
                 1             2             3             4 
      1  -0.801712D+00 -0.570094D+00 -0.923896D-01 -0.153998D+00
      2   0.581033D+00 -0.759026D+00  0.101268D+00 -0.275726D+00
      3   0.828028D-01  0.168852D+00 -0.791779D+00 -0.581136D+00
      4  -0.113147D+00  0.265257D+00  0.595227D+00 -0.750027D+00
 MO coefficients (alpha, imaginary):
                 1             2             3             4 
      1   0.000000D+00  0.000000D+00  0.000000D+00  0.000000D+00
      2   0.000000D+00  0.000000D+00  0.000000D+00  0.000000D+00
      3   0.000000D+00  0.000000D+00  0.000000D+00  0.000000D+00
      4   0.000000D+00  0.000000D+00  0.000000D+00  0.000000D+00
 MO coefficients (beta, real):
                 1             2             3             4 
      1  -0.801712D+00 -0.570094D+00 -0.923896D-01 -0.153998D+00
      2  -0.581033D+00  0.759026D+00 -0.101268D+00  0.275726D+00
      3   0.828028D-01  0.168852D+00 -0.791779D+00 -0.581136D+00
      4   0.113147D+00 -0.265257D+00 -0.595227D+00  0.750027D+00
 MO coefficients (beta, imaginary):
                 1             2             3             4 
      1   0.000000D+00  0.000000D+00  0.000000D+00  0.000000D+00
      2   0.000000D+00  0.000000D+00  0.000000D+00  0.000000D+00
      3   0.000000D+00  0.000000D+00  0.000000D+00  0.000000D+00
      4   0.000000D+00  0.000000D+00  0.000000D+00  0.000000D+00
  
 Overlap Matrix:
                 1             2             3             4 
      1   0.100000D+01  0.645898D+00  0.227256D-02  0.746565D-01
      2   0.645898D+00  0.100000D+01  0.746565D-01  0.270258D+00
      3   0.227256D-02  0.746565D-01  0.100000D+01  0.645898D+00
      4   0.746565D-01  0.270258D+00  0.645898D+00  0.100000D+01
  
 Transform Matrix:
                 1             2             3             4 
      1  -0.330600D+00  0.460127D+00 -0.856219D+00  0.834535D+00
      2  -0.397746D+00  0.364687D+00  0.711676D+00 -0.105294D+01
      3  -0.330600D+00 -0.460127D+00 -0.856219D+00 -0.834535D+00
      4  -0.397746D+00 -0.364687D+00  0.711676D+00  0.105294D+01
  
 S^(1/2) Matrix:
                 1             2             3             4 
      1  -0.617949D+00 -0.743455D+00 -0.617949D+00 -0.743455D+00
      2   0.667406D+00  0.528971D+00 -0.667406D+00 -0.528971D+00
      3  -0.345363D+00  0.287060D+00 -0.345363D+00  0.287060D+00
      4   0.231157D+00 -0.291652D+00 -0.231157D+00  0.291652D+00
  
 density matrix (alpha, real):
                1             2             3             4 
      1  0.642742D+00
      2 -0.465821D+00  0.337599D+00
      3 -0.663840D-01  0.481112D-01  0.685631D-02
      4  0.907116D-01 -0.657423D-01 -0.936892D-02  0.128023D-01
 density matrix (alpha, imaginary):
                1             2             3             4 
      1  0.000000D+00
      2 -0.000000D+00  0.000000D+00
      3 -0.000000D+00 -0.000000D+00  0.000000D+00
      4 -0.000000D+00 -0.000000D+00 -0.000000D+00  0.000000D+00
 density matrix (beta, real):
                1             2             3             4 
      1  0.642742D+00
      2  0.465821D+00  0.337599D+00
      3 -0.663840D-01 -0.481112D-01  0.685631D-02
      4 -0.907116D-01 -0.657423D-01  0.936892D-02  0.128023D-01
 density matrix (beta, imaginary):
                1             2             3             4 
      1  0.000000D+00
      2 -0.000000D+00  0.000000D+00
      3 -0.000000D+00 -0.000000D+00  0.000000D+00
      4 -0.000000D+00 -0.000000D+00 -0.000000D+00  0.000000D+00

 PHF SCF - starting SCF procedure

beta in GauLeg
grd=    0.0624    0.3194    0.7453    1.2827    1.8589    2.3963    2.8222    3.0792
wgt=    0.0099    0.1097    0.3342    0.5462    0.5462    0.3342    0.1097    0.0099
WigArr: s=    0, sz=    0, isint=    T, ncis=                       1, dind=    0.0000
dmt=    1.0000    1.0000    1.0000    1.0000    1.0000    1.0000    1.0000    1.0000
  
 HF density matrix (alpha, real):
                1             2             3             4 
      1  0.642742D+00
      2 -0.465821D+00  0.337599D+00
      3 -0.663840D-01  0.481112D-01  0.685631D-02
      4  0.907116D-01 -0.657423D-01 -0.936892D-02  0.128023D-01
 HF density matrix (alpha, imaginary):
                1             2             3             4 
      1  0.000000D+00
      2 -0.000000D+00  0.000000D+00
      3 -0.000000D+00 -0.000000D+00  0.000000D+00
      4 -0.000000D+00 -0.000000D+00 -0.000000D+00  0.000000D+00
 HF density matrix (beta, real):
                1             2             3             4 
      1  0.642742D+00
      2  0.465821D+00  0.337599D+00
      3 -0.663840D-01 -0.481112D-01  0.685631D-02
      4 -0.907116D-01 -0.657423D-01  0.936892D-02  0.128023D-01
 HF density matrix (beta, imaginary):
                1             2             3             4 
      1  0.000000D+00
      2 -0.000000D+00  0.000000D+00
      3 -0.000000D+00 -0.000000D+00  0.000000D+00
      4 -0.000000D+00 -0.000000D+00 -0.000000D+00  0.000000D+00
 
Start hffock
  
 Core Hamiltonian (real):
                 1             2             3             4 
      1  -0.796723D+00  0.000000D+00  0.103744D+00  0.000000D+00
      2   0.000000D+00 -0.658935D+00  0.000000D+00  0.196746D+00
      3   0.103744D+00  0.000000D+00  0.306545D+00  0.000000D+00
      4   0.000000D+00  0.196746D+00  0.000000D+00  0.376081D+00
 Core Hamiltonian (imaginary):
                 1             2             3             4 
      1   0.000000D+00  0.000000D+00  0.000000D+00  0.000000D+00
      2   0.000000D+00  0.000000D+00  0.000000D+00  0.000000D+00
      3   0.000000D+00  0.000000D+00  0.000000D+00  0.000000D+00
      4   0.000000D+00  0.000000D+00  0.000000D+00  0.000000D+00

 Symmetry not used in FoFDir.
 MinBra= 0 MaxBra= 0 Meth= 1.
 IRaf=       1 NMat=   2 IRICut=       1 DoRegI=T DoRafI=F ISym2E= 0 JSym2E=0.
 PrsmSu:  NPrtUS=   1 ThrOK=F IAlg=1 NPAlg=1 LenDen=           0.
 Prism:   IPart=     0 DynPar=F LinDyn=F Incr=           1.
 PRISM was handed   536868987 working-precision words and    10 shell-pairs
 IPart=  0 NShTot=          55 NBatch=          10 AvBLen=         5.5
 PrSmSu:  NxtVal=              2.
  
 HF Fock matrix (alpha, real):
                1             2             3             4 
      1 -0.238888D+00
      2  0.326413D+00  0.110686D-01
      3  0.216365D+00  0.780609D-01  0.112202D+01
      4  0.245836D-01  0.339630D+00  0.506525D-01  0.111261D+01
 HF Fock matrix (alpha, imaginary):
                1             2             3             4 
      1  0.000000D+00
      2 -0.000000D+00  0.000000D+00
      3 -0.000000D+00 -0.000000D+00  0.000000D+00
      4 -0.000000D+00 -0.000000D+00 -0.000000D+00  0.000000D+00
 HF Fock matrix (beta, real):
                1             2             3             4 
      1 -0.238888D+00
      2 -0.326413D+00  0.110686D-01
      3  0.216365D+00 -0.780609D-01  0.112202D+01
      4 -0.245836D-01  0.339630D+00 -0.506525D-01  0.111261D+01
 HF Fock matrix (beta, imaginary):
                1             2             3             4 
      1  0.000000D+00
      2 -0.000000D+00  0.000000D+00
      3 -0.000000D+00 -0.000000D+00  0.000000D+00
      4 -0.000000D+00 -0.000000D+00 -0.000000D+00  0.000000D+00
 
Start hfdmdg: find NO basis
  
 dm to be diaged (alpha, real):
                1             2             3             4 
      1 -0.642742D+00
      2  0.465821D+00 -0.337599D+00
      3  0.663840D-01 -0.481112D-01 -0.685631D-02
      4 -0.907116D-01  0.657423D-01  0.936892D-02 -0.128023D-01
 dm to be diaged (alpha, imaginary):
                1             2             3             4 
      1  0.000000D+00
      2 -0.000000D+00  0.000000D+00
      3 -0.000000D+00 -0.000000D+00  0.000000D+00
      4 -0.000000D+00 -0.000000D+00 -0.000000D+00  0.000000D+00
 dm to be diaged (beta, real):
                1             2             3             4 
      1 -0.642742D+00
      2 -0.465821D+00 -0.337599D+00
      3  0.663840D-01  0.481112D-01 -0.685631D-02
      4  0.907116D-01  0.657423D-01 -0.936892D-02 -0.128023D-01
 dm to be diaged (beta, imaginary):
                1             2             3             4 
      1  0.000000D+00
      2 -0.000000D+00  0.000000D+00
      3 -0.000000D+00 -0.000000D+00  0.000000D+00
      4 -0.000000D+00 -0.000000D+00 -0.000000D+00  0.000000D+00
  
 eigenvectors (alpha, real):
                 1             2             3             4 
      1  -0.801712D+00  0.199518D+00  0.367504D+00  0.427073D+00
      2   0.581033D+00  0.328182D+00  0.294284D+00  0.684174D+00
      3   0.828028D-01  0.594372D+00  0.541813D+00 -0.588476D+00
      4  -0.113147D+00  0.706548D+00 -0.696259D+00  0.566577D-01
 eigenvectors (alpha, imaginary):
                 1             2             3             4 
      1   0.000000D+00  0.000000D+00  0.000000D+00  0.000000D+00
      2   0.000000D+00  0.000000D+00  0.000000D+00  0.000000D+00
      3   0.000000D+00  0.000000D+00  0.000000D+00  0.000000D+00
      4   0.000000D+00  0.000000D+00  0.000000D+00  0.000000D+00
 eigenvectors (beta, real):
                 1             2             3             4 
      1   0.801712D+00  0.482063D-01  0.707097D-01  0.591552D+00
      2   0.581033D+00 -0.961669D-01 -0.322420D+00 -0.741079D+00
      3  -0.828028D-01 -0.868722D+00 -0.428487D+00  0.234231D+00
      4  -0.113147D+00  0.483477D+00 -0.841097D+00  0.214484D+00
 eigenvectors (beta, imaginary):
                 1             2             3             4 
      1   0.000000D+00  0.000000D+00  0.000000D+00  0.000000D+00
      2   0.000000D+00  0.000000D+00  0.000000D+00  0.000000D+00
      3   0.000000D+00  0.000000D+00  0.000000D+00  0.000000D+00
      4   0.000000D+00  0.000000D+00  0.000000D+00  0.000000D+00
eigenvalues  -0.10000000E+01 -0.12374459E-15 -0.98658768E-16  0.35875450E-18
eigenvalues  -0.10000000E+01 -0.40132625E-16  0.11391425E-16  0.28741200E-16
  
 expanded eigenvectors (real):
                 1             2             3             4             5 
      1  -0.801712D+00  0.000000D+00  0.199518D+00  0.367504D+00  0.427073D+00
      2   0.581033D+00  0.000000D+00  0.328182D+00  0.294284D+00  0.684174D+00
      3   0.828028D-01  0.000000D+00  0.594372D+00  0.541813D+00 -0.588476D+00
      4  -0.113147D+00  0.000000D+00  0.706548D+00 -0.696259D+00  0.566577D-01
      5   0.000000D+00  0.801712D+00  0.000000D+00  0.000000D+00  0.000000D+00
      6   0.000000D+00  0.581033D+00  0.000000D+00  0.000000D+00  0.000000D+00
      7   0.000000D+00 -0.828028D-01  0.000000D+00  0.000000D+00  0.000000D+00
      8   0.000000D+00 -0.113147D+00  0.000000D+00  0.000000D+00  0.000000D+00
                 6             7             8 
      1   0.000000D+00  0.000000D+00  0.000000D+00
      2   0.000000D+00  0.000000D+00  0.000000D+00
      3   0.000000D+00  0.000000D+00  0.000000D+00
      4   0.000000D+00  0.000000D+00  0.000000D+00
      5   0.482063D-01  0.707097D-01  0.591552D+00
      6  -0.961669D-01 -0.322420D+00 -0.741079D+00
      7  -0.868722D+00 -0.428487D+00  0.234231D+00
      8   0.483477D+00 -0.841097D+00  0.214484D+00
 expanded eigenvectors (imaginary):
                 1             2             3             4             5 
      1   0.000000D+00  0.000000D+00  0.000000D+00  0.000000D+00  0.000000D+00
      2   0.000000D+00  0.000000D+00  0.000000D+00  0.000000D+00  0.000000D+00
      3   0.000000D+00  0.000000D+00  0.000000D+00  0.000000D+00  0.000000D+00
      4   0.000000D+00  0.000000D+00  0.000000D+00  0.000000D+00  0.000000D+00
      5   0.000000D+00  0.000000D+00  0.000000D+00  0.000000D+00  0.000000D+00
      6   0.000000D+00  0.000000D+00  0.000000D+00  0.000000D+00  0.000000D+00
      7   0.000000D+00  0.000000D+00  0.000000D+00  0.000000D+00  0.000000D+00
      8   0.000000D+00  0.000000D+00  0.000000D+00  0.000000D+00  0.000000D+00
                 6             7             8 
      1   0.000000D+00  0.000000D+00  0.000000D+00
      2   0.000000D+00  0.000000D+00  0.000000D+00
      3   0.000000D+00  0.000000D+00  0.000000D+00
      4   0.000000D+00  0.000000D+00  0.000000D+00
      5   0.000000D+00  0.000000D+00  0.000000D+00
      6   0.000000D+00  0.000000D+00  0.000000D+00
      7   0.000000D+00  0.000000D+00  0.000000D+00
      8   0.000000D+00  0.000000D+00  0.000000D+00
  
 expanded density matrix P (real):
                 1             2             3             4             5 
      1   0.642742D+00 -0.465821D+00 -0.663840D-01  0.907116D-01  0.000000D+00
      2  -0.465821D+00  0.337599D+00  0.481112D-01 -0.657423D-01  0.000000D+00
      3  -0.663840D-01  0.481112D-01  0.685631D-02 -0.936892D-02  0.000000D+00
      4   0.907116D-01 -0.657423D-01 -0.936892D-02  0.128023D-01  0.000000D+00
      5   0.000000D+00  0.000000D+00  0.000000D+00  0.000000D+00  0.642742D+00
      6   0.000000D+00  0.000000D+00  0.000000D+00  0.000000D+00  0.465821D+00
      7   0.000000D+00  0.000000D+00  0.000000D+00  0.000000D+00 -0.663840D-01
      8   0.000000D+00  0.000000D+00  0.000000D+00  0.000000D+00 -0.907116D-01
                 6             7             8 
      1   0.000000D+00  0.000000D+00  0.000000D+00
      2   0.000000D+00  0.000000D+00  0.000000D+00
      3   0.000000D+00  0.000000D+00  0.000000D+00
      4   0.000000D+00  0.000000D+00  0.000000D+00
      5   0.465821D+00 -0.663840D-01 -0.907116D-01
      6   0.337599D+00 -0.481112D-01 -0.657423D-01
      7  -0.481112D-01  0.685631D-02  0.936892D-02
      8  -0.657423D-01  0.936892D-02  0.128023D-01
 expanded density matrix P (imaginary):
                 1             2             3             4             5 
      1   0.000000D+00  0.000000D+00  0.000000D+00  0.000000D+00  0.000000D+00
      2   0.000000D+00  0.000000D+00  0.000000D+00  0.000000D+00  0.000000D+00
      3   0.000000D+00  0.000000D+00  0.000000D+00  0.000000D+00  0.000000D+00
      4   0.000000D+00  0.000000D+00  0.000000D+00  0.000000D+00  0.000000D+00
      5   0.000000D+00  0.000000D+00  0.000000D+00  0.000000D+00  0.000000D+00
      6   0.000000D+00  0.000000D+00  0.000000D+00  0.000000D+00  0.000000D+00
      7   0.000000D+00  0.000000D+00  0.000000D+00  0.000000D+00  0.000000D+00
      8   0.000000D+00  0.000000D+00  0.000000D+00  0.000000D+00  0.000000D+00
                 6             7             8 
      1   0.000000D+00  0.000000D+00  0.000000D+00
      2   0.000000D+00  0.000000D+00  0.000000D+00
      3   0.000000D+00  0.000000D+00  0.000000D+00
      4   0.000000D+00  0.000000D+00  0.000000D+00
      5   0.000000D+00  0.000000D+00  0.000000D+00
      6   0.000000D+00  0.000000D+00  0.000000D+00
      7   0.000000D+00  0.000000D+00  0.000000D+00
      8   0.000000D+00  0.000000D+00  0.000000D+00
  
 density matrix (NO) (real):
                 1             2             3             4             5 
      1   0.100000D+01  0.000000D+00  0.000000D+00  0.000000D+00  0.000000D+00
      2   0.000000D+00  0.100000D+01  0.000000D+00  0.000000D+00  0.000000D+00
      3   0.000000D+00  0.000000D+00  0.000000D+00  0.000000D+00  0.000000D+00
      4   0.000000D+00  0.000000D+00  0.000000D+00  0.000000D+00  0.000000D+00
      5   0.000000D+00  0.000000D+00  0.000000D+00  0.000000D+00  0.000000D+00
      6   0.000000D+00  0.000000D+00  0.000000D+00  0.000000D+00  0.000000D+00
      7   0.000000D+00  0.000000D+00  0.000000D+00  0.000000D+00  0.000000D+00
      8   0.000000D+00  0.000000D+00  0.000000D+00  0.000000D+00  0.000000D+00
                 6             7             8 
      1   0.000000D+00  0.000000D+00  0.000000D+00
      2   0.000000D+00  0.000000D+00  0.000000D+00
      3   0.000000D+00  0.000000D+00  0.000000D+00
      4   0.000000D+00  0.000000D+00  0.000000D+00
      5   0.000000D+00  0.000000D+00  0.000000D+00
      6   0.000000D+00  0.000000D+00  0.000000D+00
      7   0.000000D+00  0.000000D+00  0.000000D+00
      8   0.000000D+00  0.000000D+00  0.000000D+00
 density matrix (NO) (imaginary):
                 1             2             3             4             5 
      1   0.000000D+00  0.000000D+00  0.000000D+00  0.000000D+00  0.000000D+00
      2   0.000000D+00  0.000000D+00  0.000000D+00  0.000000D+00  0.000000D+00
      3   0.000000D+00  0.000000D+00  0.000000D+00  0.000000D+00  0.000000D+00
      4   0.000000D+00  0.000000D+00  0.000000D+00  0.000000D+00  0.000000D+00
      5   0.000000D+00  0.000000D+00  0.000000D+00  0.000000D+00  0.000000D+00
      6   0.000000D+00  0.000000D+00  0.000000D+00  0.000000D+00  0.000000D+00
      7   0.000000D+00  0.000000D+00  0.000000D+00  0.000000D+00  0.000000D+00
      8   0.000000D+00  0.000000D+00  0.000000D+00  0.000000D+00  0.000000D+00
                 6             7             8 
      1   0.000000D+00  0.000000D+00  0.000000D+00
      2   0.000000D+00  0.000000D+00  0.000000D+00
      3   0.000000D+00  0.000000D+00  0.000000D+00
      4   0.000000D+00  0.000000D+00  0.000000D+00
      5   0.000000D+00  0.000000D+00  0.000000D+00
      6   0.000000D+00  0.000000D+00  0.000000D+00
      7   0.000000D+00  0.000000D+00  0.000000D+00
      8   0.000000D+00  0.000000D+00  0.000000D+00
 
Start formng/pg
igrda/b/g:   1   1   1,  Alpha=    0.0000, Beta=    0.0624, Gamma=    0.0000
  
 D(g) (NO) (real):
                 1             2             3             4             5 
      1   0.999514D+00  0.932993D-02  0.000000D+00  0.000000D+00  0.000000D+00
      2  -0.932993D-02  0.999514D+00  0.690649D-02  0.155772D-01  0.243926D-01
      3   0.000000D+00 -0.690649D-02  0.999514D+00  0.000000D+00  0.000000D+00
      4   0.000000D+00 -0.155772D-01  0.000000D+00  0.999514D+00  0.000000D+00
      5   0.000000D+00 -0.243926D-01  0.000000D+00  0.000000D+00  0.999514D+00
      6  -0.689649D-02  0.000000D+00 -0.613333D-02 -0.255046D-01  0.153860D-01
      7  -0.574824D-02  0.000000D+00 -0.293328D-01  0.887365D-02  0.439887D-03
      8  -0.283680D-01  0.000000D+00  0.516334D-02 -0.720868D-03 -0.118521D-01
                 6             7             8 
      1   0.689649D-02  0.574824D-02  0.283680D-01
      2   0.000000D+00  0.000000D+00  0.000000D+00
      3   0.613333D-02  0.293328D-01 -0.516334D-02
      4   0.255046D-01 -0.887365D-02  0.720868D-03
      5  -0.153860D-01 -0.439887D-03  0.118521D-01
      6   0.999514D+00  0.000000D+00  0.000000D+00
      7   0.000000D+00  0.999514D+00  0.000000D+00
      8   0.000000D+00  0.000000D+00  0.999514D+00
 D(g) (NO) (imaginary):
                 1             2             3             4             5 
      1   0.000000D+00  0.000000D+00  0.000000D+00  0.000000D+00  0.000000D+00
      2   0.000000D+00  0.000000D+00  0.000000D+00  0.000000D+00  0.000000D+00
      3   0.000000D+00  0.000000D+00  0.000000D+00  0.000000D+00  0.000000D+00
      4   0.000000D+00  0.000000D+00  0.000000D+00  0.000000D+00  0.000000D+00
      5   0.000000D+00  0.000000D+00  0.000000D+00  0.000000D+00  0.000000D+00
      6   0.000000D+00  0.000000D+00  0.000000D+00  0.000000D+00  0.000000D+00
      7   0.000000D+00  0.000000D+00  0.000000D+00  0.000000D+00  0.000000D+00
      8   0.000000D+00  0.000000D+00  0.000000D+00  0.000000D+00  0.000000D+00
                 6             7             8 
      1   0.000000D+00  0.000000D+00  0.000000D+00
      2   0.000000D+00  0.000000D+00  0.000000D+00
      3   0.000000D+00  0.000000D+00  0.000000D+00
      4   0.000000D+00  0.000000D+00  0.000000D+00
      5   0.000000D+00  0.000000D+00  0.000000D+00
      6   0.000000D+00  0.000000D+00  0.000000D+00
      7   0.000000D+00  0.000000D+00  0.000000D+00
      8   0.000000D+00  0.000000D+00  0.000000D+00
  
 N(g) (    1, 1, 1) (real):
                 1             2 
      1   0.100040D+01 -0.933819D-02
      2   0.933819D-02  0.100040D+01
 N(g) (    1, 1, 1) (imaginary):
                 1             2 
      1   0.000000D+00  0.000000D+00
      2   0.000000D+00  0.000000D+00
igrda/b/g:   1   2   1,  Alpha=    0.0000, Beta=    0.3194, Gamma=    0.0000
  
 D(g) (NO) (real):
                 1             2             3             4             5 
      1   0.987275D+00  0.475783D-01  0.000000D+00  0.000000D+00  0.000000D+00
      2  -0.475783D-01  0.987275D+00  0.352199D-01  0.794363D-01  0.124391D+00
      3   0.000000D+00 -0.352199D-01  0.987275D+00  0.000000D+00  0.000000D+00
      4   0.000000D+00 -0.794363D-01  0.000000D+00  0.987275D+00  0.000000D+00
      5   0.000000D+00 -0.124391D+00  0.000000D+00  0.000000D+00  0.987275D+00
      6  -0.351689D-01  0.000000D+00 -0.312771D-01 -0.130061D+00  0.784616D-01
      7  -0.293133D-01  0.000000D+00 -0.149584D+00  0.452515D-01  0.224322D-02
      8  -0.144663D+00  0.000000D+00  0.263306D-01 -0.367609D-02 -0.604400D-01
                 6             7             8 
      1   0.351689D-01  0.293133D-01  0.144663D+00
      2   0.000000D+00  0.000000D+00  0.000000D+00
      3   0.312771D-01  0.149584D+00 -0.263306D-01
      4   0.130061D+00 -0.452515D-01  0.367609D-02
      5  -0.784616D-01 -0.224322D-02  0.604400D-01
      6   0.987275D+00  0.000000D+00  0.000000D+00
      7   0.000000D+00  0.987275D+00  0.000000D+00
      8   0.000000D+00  0.000000D+00  0.987275D+00
 D(g) (NO) (imaginary):
                 1             2             3             4             5 
      1   0.000000D+00  0.000000D+00  0.000000D+00  0.000000D+00  0.000000D+00
      2   0.000000D+00  0.000000D+00  0.000000D+00  0.000000D+00  0.000000D+00
      3   0.000000D+00  0.000000D+00  0.000000D+00  0.000000D+00  0.000000D+00
      4   0.000000D+00  0.000000D+00  0.000000D+00  0.000000D+00  0.000000D+00
      5   0.000000D+00  0.000000D+00  0.000000D+00  0.000000D+00  0.000000D+00
      6   0.000000D+00  0.000000D+00  0.000000D+00  0.000000D+00  0.000000D+00
      7   0.000000D+00  0.000000D+00  0.000000D+00  0.000000D+00  0.000000D+00
      8   0.000000D+00  0.000000D+00  0.000000D+00  0.000000D+00  0.000000D+00
                 6             7             8 
      1   0.000000D+00  0.000000D+00  0.000000D+00
      2   0.000000D+00  0.000000D+00  0.000000D+00
      3   0.000000D+00  0.000000D+00  0.000000D+00
      4   0.000000D+00  0.000000D+00  0.000000D+00
      5   0.000000D+00  0.000000D+00  0.000000D+00
      6   0.000000D+00  0.000000D+00  0.000000D+00
      7   0.000000D+00  0.000000D+00  0.000000D+00
      8   0.000000D+00  0.000000D+00  0.000000D+00
  
 N(g) (    2, 1, 1) (real):
                 1             2 
      1   0.101054D+01 -0.486995D-01
      2   0.486995D-01  0.101054D+01
 N(g) (    2, 1, 1) (imaginary):
                 1             2 
      1   0.000000D+00  0.000000D+00
      2   0.000000D+00  0.000000D+00
igrda/b/g:   1   3   1,  Alpha=    0.0000, Beta=    0.7453, Gamma=    0.0000
  
 D(g) (NO) (real):
                 1             2             3             4             5 
      1   0.931367D+00  0.108932D+00  0.000000D+00  0.000000D+00  0.000000D+00
      2  -0.108932D+00  0.931367D+00  0.806371D-01  0.181872D+00  0.284797D+00
      3   0.000000D+00 -0.806371D-01  0.931367D+00  0.000000D+00  0.000000D+00
      4   0.000000D+00 -0.181872D+00  0.000000D+00  0.931367D+00  0.000000D+00
      5   0.000000D+00 -0.284797D+00  0.000000D+00  0.000000D+00  0.931367D+00
      6  -0.805203D-01  0.000000D+00 -0.716100D-01 -0.297780D+00  0.179640D+00
      7  -0.671138D-01  0.000000D+00 -0.342477D+00  0.103605D+00  0.513592D-02
      8  -0.331212D+00  0.000000D+00  0.602849D-01 -0.841653D-02 -0.138379D+00
                 6             7             8 
      1   0.805203D-01  0.671138D-01  0.331212D+00
      2   0.000000D+00  0.000000D+00  0.000000D+00
      3   0.716100D-01  0.342477D+00 -0.602849D-01
      4   0.297780D+00 -0.103605D+00  0.841653D-02
      5  -0.179640D+00 -0.513592D-02  0.138379D+00
      6   0.931367D+00  0.000000D+00  0.000000D+00
      7   0.000000D+00  0.931367D+00  0.000000D+00
      8   0.000000D+00  0.000000D+00  0.931367D+00
 D(g) (NO) (imaginary):
                 1             2             3             4             5 
      1   0.000000D+00  0.000000D+00  0.000000D+00  0.000000D+00  0.000000D+00
      2   0.000000D+00  0.000000D+00  0.000000D+00  0.000000D+00  0.000000D+00
      3   0.000000D+00  0.000000D+00  0.000000D+00  0.000000D+00  0.000000D+00
      4   0.000000D+00  0.000000D+00  0.000000D+00  0.000000D+00  0.000000D+00
      5   0.000000D+00  0.000000D+00  0.000000D+00  0.000000D+00  0.000000D+00
      6   0.000000D+00  0.000000D+00  0.000000D+00  0.000000D+00  0.000000D+00
      7   0.000000D+00  0.000000D+00  0.000000D+00  0.000000D+00  0.000000D+00
      8   0.000000D+00  0.000000D+00  0.000000D+00  0.000000D+00  0.000000D+00
                 6             7             8 
      1   0.000000D+00  0.000000D+00  0.000000D+00
      2   0.000000D+00  0.000000D+00  0.000000D+00
      3   0.000000D+00  0.000000D+00  0.000000D+00
      4   0.000000D+00  0.000000D+00  0.000000D+00
      5   0.000000D+00  0.000000D+00  0.000000D+00
      6   0.000000D+00  0.000000D+00  0.000000D+00
      7   0.000000D+00  0.000000D+00  0.000000D+00
      8   0.000000D+00  0.000000D+00  0.000000D+00
  
 N(g) (    3, 1, 1) (real):
                 1             2 
      1   0.105920D+01 -0.123883D+00
      2   0.123883D+00  0.105920D+01
 N(g) (    3, 1, 1) (imaginary):
                 1             2 
      1   0.000000D+00  0.000000D+00
      2   0.000000D+00  0.000000D+00
igrda/b/g:   1   4   1,  Alpha=    0.0000, Beta=    1.2827, Gamma=    0.0000
  
 D(g) (NO) (real):
                 1             2             3             4             5 
      1   0.801301D+00  0.178998D+00  0.000000D+00  0.000000D+00  0.000000D+00
      2  -0.178998D+00  0.801301D+00  0.132503D+00  0.298853D+00  0.467980D+00
      3   0.000000D+00 -0.132503D+00  0.801301D+00  0.000000D+00  0.000000D+00
      4   0.000000D+00 -0.298853D+00  0.000000D+00  0.801301D+00  0.000000D+00
      5   0.000000D+00 -0.467980D+00  0.000000D+00  0.000000D+00  0.801301D+00
      6  -0.132312D+00  0.000000D+00 -0.117670D+00 -0.489314D+00  0.295187D+00
      7  -0.110282D+00  0.000000D+00 -0.562761D+00  0.170244D+00  0.843939D-02
      8  -0.544249D+00  0.000000D+00  0.990605D-01 -0.138301D-01 -0.227386D+00
                 6             7             8 
      1   0.132312D+00  0.110282D+00  0.544249D+00
      2   0.000000D+00  0.000000D+00  0.000000D+00
      3   0.117670D+00  0.562761D+00 -0.990605D-01
      4   0.489314D+00 -0.170244D+00  0.138301D-01
      5  -0.295187D+00 -0.843939D-02  0.227386D+00
      6   0.801301D+00  0.000000D+00  0.000000D+00
      7   0.000000D+00  0.801301D+00  0.000000D+00
      8   0.000000D+00  0.000000D+00  0.801301D+00
 D(g) (NO) (imaginary):
                 1             2             3             4             5 
      1   0.000000D+00  0.000000D+00  0.000000D+00  0.000000D+00  0.000000D+00
      2   0.000000D+00  0.000000D+00  0.000000D+00  0.000000D+00  0.000000D+00
      3   0.000000D+00  0.000000D+00  0.000000D+00  0.000000D+00  0.000000D+00
      4   0.000000D+00  0.000000D+00  0.000000D+00  0.000000D+00  0.000000D+00
      5   0.000000D+00  0.000000D+00  0.000000D+00  0.000000D+00  0.000000D+00
      6   0.000000D+00  0.000000D+00  0.000000D+00  0.000000D+00  0.000000D+00
      7   0.000000D+00  0.000000D+00  0.000000D+00  0.000000D+00  0.000000D+00
      8   0.000000D+00  0.000000D+00  0.000000D+00  0.000000D+00  0.000000D+00
                 6             7             8 
      1   0.000000D+00  0.000000D+00  0.000000D+00
      2   0.000000D+00  0.000000D+00  0.000000D+00
      3   0.000000D+00  0.000000D+00  0.000000D+00
      4   0.000000D+00  0.000000D+00  0.000000D+00
      5   0.000000D+00  0.000000D+00  0.000000D+00
      6   0.000000D+00  0.000000D+00  0.000000D+00
      7   0.000000D+00  0.000000D+00  0.000000D+00
      8   0.000000D+00  0.000000D+00  0.000000D+00
  
 N(g) (    4, 1, 1) (real):
                 1             2 
      1   0.118866D+01 -0.265527D+00
      2   0.265527D+00  0.118866D+01
 N(g) (    4, 1, 1) (imaginary):
                 1             2 
      1   0.000000D+00  0.000000D+00
      2   0.000000D+00  0.000000D+00
igrda/b/g:   1   5   1,  Alpha=    0.0000, Beta=    1.8589, Gamma=    0.0000
  
 D(g) (NO) (real):
                 1             2             3             4             5 
      1   0.598261D+00  0.239747D+00  0.000000D+00  0.000000D+00  0.000000D+00
      2  -0.239747D+00  0.598261D+00  0.177473D+00  0.400280D+00  0.626805D+00
      3   0.000000D+00 -0.177473D+00  0.598261D+00  0.000000D+00  0.000000D+00
      4   0.000000D+00 -0.400280D+00  0.000000D+00  0.598261D+00  0.000000D+00
      5   0.000000D+00 -0.626805D+00  0.000000D+00  0.000000D+00  0.598261D+00
      6  -0.177216D+00  0.000000D+00 -0.157605D+00 -0.655380D+00  0.395368D+00
      7  -0.147710D+00  0.000000D+00 -0.753753D+00  0.228022D+00  0.113036D-01
      8  -0.728959D+00  0.000000D+00  0.132680D+00 -0.185238D-01 -0.304557D+00
                 6             7             8 
      1   0.177216D+00  0.147710D+00  0.728959D+00
      2   0.000000D+00  0.000000D+00  0.000000D+00
      3   0.157605D+00  0.753753D+00 -0.132680D+00
      4   0.655380D+00 -0.228022D+00  0.185238D-01
      5  -0.395368D+00 -0.113036D-01  0.304557D+00
      6   0.598261D+00  0.000000D+00  0.000000D+00
      7   0.000000D+00  0.598261D+00  0.000000D+00
      8   0.000000D+00  0.000000D+00  0.598261D+00
 D(g) (NO) (imaginary):
                 1             2             3             4             5 
      1   0.000000D+00  0.000000D+00  0.000000D+00  0.000000D+00  0.000000D+00
      2   0.000000D+00  0.000000D+00  0.000000D+00  0.000000D+00  0.000000D+00
      3   0.000000D+00  0.000000D+00  0.000000D+00  0.000000D+00  0.000000D+00
      4   0.000000D+00  0.000000D+00  0.000000D+00  0.000000D+00  0.000000D+00
      5   0.000000D+00  0.000000D+00  0.000000D+00  0.000000D+00  0.000000D+00
      6   0.000000D+00  0.000000D+00  0.000000D+00  0.000000D+00  0.000000D+00
      7   0.000000D+00  0.000000D+00  0.000000D+00  0.000000D+00  0.000000D+00
      8   0.000000D+00  0.000000D+00  0.000000D+00  0.000000D+00  0.000000D+00
                 6             7             8 
      1   0.000000D+00  0.000000D+00  0.000000D+00
      2   0.000000D+00  0.000000D+00  0.000000D+00
      3   0.000000D+00  0.000000D+00  0.000000D+00
      4   0.000000D+00  0.000000D+00  0.000000D+00
      5   0.000000D+00  0.000000D+00  0.000000D+00
      6   0.000000D+00  0.000000D+00  0.000000D+00
      7   0.000000D+00  0.000000D+00  0.000000D+00
      8   0.000000D+00  0.000000D+00  0.000000D+00
  
 N(g) (    5, 1, 1) (real):
                 1             2 
      1   0.144022D+01 -0.577155D+00
      2   0.577155D+00  0.144022D+01
 N(g) (    5, 1, 1) (imaginary):
                 1             2 
      1   0.000000D+00  0.000000D+00
      2   0.000000D+00  0.000000D+00
igrda/b/g:   1   6   1,  Alpha=    0.0000, Beta=    2.3963, Gamma=    0.0000
  
 D(g) (NO) (real):
                 1             2             3             4             5 
      1   0.364081D+00  0.278662D+00  0.000000D+00  0.000000D+00  0.000000D+00
      2  -0.278662D+00  0.364081D+00  0.206280D+00  0.465252D+00  0.728547D+00
      3   0.000000D+00 -0.206280D+00  0.364081D+00  0.000000D+00  0.000000D+00
      4   0.000000D+00 -0.465252D+00  0.000000D+00  0.364081D+00  0.000000D+00
      5   0.000000D+00 -0.728547D+00  0.000000D+00  0.000000D+00  0.364081D+00
      6  -0.205982D+00  0.000000D+00 -0.183188D+00 -0.761760D+00  0.459544D+00
      7  -0.171686D+00  0.000000D+00 -0.876101D+00  0.265035D+00  0.131384D-01
      8  -0.847283D+00  0.000000D+00  0.154217D+00 -0.215306D-01 -0.353993D+00
                 6             7             8 
      1   0.205982D+00  0.171686D+00  0.847283D+00
      2   0.000000D+00  0.000000D+00  0.000000D+00
      3   0.183188D+00  0.876101D+00 -0.154217D+00
      4   0.761760D+00 -0.265035D+00  0.215306D-01
      5  -0.459544D+00 -0.131384D-01  0.353993D+00
      6   0.364081D+00  0.000000D+00  0.000000D+00
      7   0.000000D+00  0.364081D+00  0.000000D+00
      8   0.000000D+00  0.000000D+00  0.364081D+00
 D(g) (NO) (imaginary):
                 1             2             3             4             5 
      1   0.000000D+00  0.000000D+00  0.000000D+00  0.000000D+00  0.000000D+00
      2   0.000000D+00  0.000000D+00  0.000000D+00  0.000000D+00  0.000000D+00
      3   0.000000D+00  0.000000D+00  0.000000D+00  0.000000D+00  0.000000D+00
      4   0.000000D+00  0.000000D+00  0.000000D+00  0.000000D+00  0.000000D+00
      5   0.000000D+00  0.000000D+00  0.000000D+00  0.000000D+00  0.000000D+00
      6   0.000000D+00  0.000000D+00  0.000000D+00  0.000000D+00  0.000000D+00
      7   0.000000D+00  0.000000D+00  0.000000D+00  0.000000D+00  0.000000D+00
      8   0.000000D+00  0.000000D+00  0.000000D+00  0.000000D+00  0.000000D+00
                 6             7             8 
      1   0.000000D+00  0.000000D+00  0.000000D+00
      2   0.000000D+00  0.000000D+00  0.000000D+00
      3   0.000000D+00  0.000000D+00  0.000000D+00
      4   0.000000D+00  0.000000D+00  0.000000D+00
      5   0.000000D+00  0.000000D+00  0.000000D+00
      6   0.000000D+00  0.000000D+00  0.000000D+00
      7   0.000000D+00  0.000000D+00  0.000000D+00
      8   0.000000D+00  0.000000D+00  0.000000D+00
  
 N(g) (    6, 1, 1) (real):
                 1             2 
      1   0.173201D+01 -0.132565D+01
      2   0.132565D+01  0.173201D+01
 N(g) (    6, 1, 1) (imaginary):
                 1             2 
      1   0.000000D+00  0.000000D+00
      2   0.000000D+00  0.000000D+00
igrda/b/g:   1   7   1,  Alpha=    0.0000, Beta=    2.8222, Gamma=    0.0000
  
 D(g) (NO) (real):
                 1             2             3             4             5 
      1   0.159020D+00  0.295390D+00  0.000000D+00  0.000000D+00  0.000000D+00
      2  -0.295390D+00  0.159020D+00  0.218663D+00  0.493181D+00  0.772280D+00
      3   0.000000D+00 -0.218663D+00  0.159020D+00  0.000000D+00  0.000000D+00
      4   0.000000D+00 -0.493181D+00  0.000000D+00  0.159020D+00  0.000000D+00
      5   0.000000D+00 -0.772280D+00  0.000000D+00  0.000000D+00  0.159020D+00
      6  -0.218346D+00  0.000000D+00 -0.194184D+00 -0.807487D+00  0.487129D+00
      7  -0.181992D+00  0.000000D+00 -0.928692D+00  0.280944D+00  0.139270D-01
      8  -0.898143D+00  0.000000D+00  0.163474D+00 -0.228230D-01 -0.375242D+00
                 6             7             8 
      1   0.218346D+00  0.181992D+00  0.898143D+00
      2   0.000000D+00  0.000000D+00  0.000000D+00
      3   0.194184D+00  0.928692D+00 -0.163474D+00
      4   0.807487D+00 -0.280944D+00  0.228230D-01
      5  -0.487129D+00 -0.139270D-01  0.375242D+00
      6   0.159020D+00  0.000000D+00  0.000000D+00
      7   0.000000D+00  0.159020D+00  0.000000D+00
      8   0.000000D+00  0.000000D+00  0.159020D+00
 D(g) (NO) (imaginary):
                 1             2             3             4             5 
      1   0.000000D+00  0.000000D+00  0.000000D+00  0.000000D+00  0.000000D+00
      2   0.000000D+00  0.000000D+00  0.000000D+00  0.000000D+00  0.000000D+00
      3   0.000000D+00  0.000000D+00  0.000000D+00  0.000000D+00  0.000000D+00
      4   0.000000D+00  0.000000D+00  0.000000D+00  0.000000D+00  0.000000D+00
      5   0.000000D+00  0.000000D+00  0.000000D+00  0.000000D+00  0.000000D+00
      6   0.000000D+00  0.000000D+00  0.000000D+00  0.000000D+00  0.000000D+00
      7   0.000000D+00  0.000000D+00  0.000000D+00  0.000000D+00  0.000000D+00
      8   0.000000D+00  0.000000D+00  0.000000D+00  0.000000D+00  0.000000D+00
                 6             7             8 
      1   0.000000D+00  0.000000D+00  0.000000D+00
      2   0.000000D+00  0.000000D+00  0.000000D+00
      3   0.000000D+00  0.000000D+00  0.000000D+00
      4   0.000000D+00  0.000000D+00  0.000000D+00
      5   0.000000D+00  0.000000D+00  0.000000D+00
      6   0.000000D+00  0.000000D+00  0.000000D+00
      7   0.000000D+00  0.000000D+00  0.000000D+00
      8   0.000000D+00  0.000000D+00  0.000000D+00
  
 N(g) (    7, 1, 1) (real):
                 1             2 
      1   0.141298D+01 -0.262470D+01
      2   0.262470D+01  0.141298D+01
 N(g) (    7, 1, 1) (imaginary):
                 1             2 
      1   0.000000D+00  0.000000D+00
      2   0.000000D+00  0.000000D+00
igrda/b/g:   1   8   1,  Alpha=    0.0000, Beta=    3.0792, Gamma=    0.0000
  
 D(g) (NO) (real):
                 1             2             3             4             5 
      1   0.311832D-01  0.299052D+00  0.000000D+00  0.000000D+00  0.000000D+00
      2  -0.299052D+00  0.311832D-01  0.221373D+00  0.499294D+00  0.781854D+00
      3   0.000000D+00 -0.221373D+00  0.311832D-01  0.000000D+00  0.000000D+00
      4   0.000000D+00 -0.499294D+00  0.000000D+00  0.311832D-01  0.000000D+00
      5   0.000000D+00 -0.781854D+00  0.000000D+00  0.000000D+00  0.311832D-01
      6  -0.221053D+00  0.000000D+00 -0.196591D+00 -0.817497D+00  0.493168D+00
      7  -0.184248D+00  0.000000D+00 -0.940204D+00  0.284427D+00  0.140997D-01
      8  -0.909277D+00  0.000000D+00  0.165500D+00 -0.231059D-01 -0.379894D+00
                 6             7             8 
      1   0.221053D+00  0.184248D+00  0.909277D+00
      2   0.000000D+00  0.000000D+00  0.000000D+00
      3   0.196591D+00  0.940204D+00 -0.165500D+00
      4   0.817497D+00 -0.284427D+00  0.231059D-01
      5  -0.493168D+00 -0.140997D-01  0.379894D+00
      6   0.311832D-01  0.000000D+00  0.000000D+00
      7   0.000000D+00  0.311832D-01  0.000000D+00
      8   0.000000D+00  0.000000D+00  0.311832D-01
 D(g) (NO) (imaginary):
                 1             2             3             4             5 
      1   0.000000D+00  0.000000D+00  0.000000D+00  0.000000D+00  0.000000D+00
      2   0.000000D+00  0.000000D+00  0.000000D+00  0.000000D+00  0.000000D+00
      3   0.000000D+00  0.000000D+00  0.000000D+00  0.000000D+00  0.000000D+00
      4   0.000000D+00  0.000000D+00  0.000000D+00  0.000000D+00  0.000000D+00
      5   0.000000D+00  0.000000D+00  0.000000D+00  0.000000D+00  0.000000D+00
      6   0.000000D+00  0.000000D+00  0.000000D+00  0.000000D+00  0.000000D+00
      7   0.000000D+00  0.000000D+00  0.000000D+00  0.000000D+00  0.000000D+00
      8   0.000000D+00  0.000000D+00  0.000000D+00  0.000000D+00  0.000000D+00
                 6             7             8 
      1   0.000000D+00  0.000000D+00  0.000000D+00
      2   0.000000D+00  0.000000D+00  0.000000D+00
      3   0.000000D+00  0.000000D+00  0.000000D+00
      4   0.000000D+00  0.000000D+00  0.000000D+00
      5   0.000000D+00  0.000000D+00  0.000000D+00
      6   0.000000D+00  0.000000D+00  0.000000D+00
      7   0.000000D+00  0.000000D+00  0.000000D+00
      8   0.000000D+00  0.000000D+00  0.000000D+00
  
 N(g) (    8, 1, 1) (real):
                 1             2 
      1   0.344931D+00 -0.330794D+01
      2   0.330794D+01  0.344931D+00
 N(g) (    8, 1, 1) (imaginary):
                 1             2 
      1   0.000000D+00  0.000000D+00
      2   0.000000D+00  0.000000D+00
  
 P(g) (    1, 1, 1) (real):
                 1             2             3             4             5 
      1   0.100000D+01  0.000000D+00  0.000000D+00  0.000000D+00  0.000000D+00
      2   0.000000D+00  0.100000D+01  0.000000D+00  0.000000D+00  0.000000D+00
      3  -0.644942D-04 -0.690925D-02  0.000000D+00  0.000000D+00  0.000000D+00
      4  -0.145463D-03 -0.155834D-01  0.000000D+00  0.000000D+00  0.000000D+00
      5  -0.227783D-03 -0.244023D-01  0.000000D+00  0.000000D+00  0.000000D+00
      6  -0.689925D-02  0.644008D-04  0.000000D+00  0.000000D+00  0.000000D+00
      7  -0.575053D-02  0.536782D-04  0.000000D+00  0.000000D+00  0.000000D+00
      8  -0.283793D-01  0.264906D-03  0.000000D+00  0.000000D+00  0.000000D+00
                 6             7             8 
      1   0.000000D+00  0.000000D+00  0.000000D+00
      2   0.000000D+00  0.000000D+00  0.000000D+00
      3   0.000000D+00  0.000000D+00  0.000000D+00
      4   0.000000D+00  0.000000D+00  0.000000D+00
      5   0.000000D+00  0.000000D+00  0.000000D+00
      6   0.000000D+00  0.000000D+00  0.000000D+00
      7   0.000000D+00  0.000000D+00  0.000000D+00
      8   0.000000D+00  0.000000D+00  0.000000D+00
 P(g) (    1, 1, 1) (imaginary):
                 1             2             3             4             5 
      1   0.000000D+00  0.000000D+00  0.000000D+00  0.000000D+00  0.000000D+00
      2   0.000000D+00  0.000000D+00  0.000000D+00  0.000000D+00  0.000000D+00
      3   0.000000D+00  0.000000D+00  0.000000D+00  0.000000D+00  0.000000D+00
      4   0.000000D+00  0.000000D+00  0.000000D+00  0.000000D+00  0.000000D+00
      5   0.000000D+00  0.000000D+00  0.000000D+00  0.000000D+00  0.000000D+00
      6   0.000000D+00  0.000000D+00  0.000000D+00  0.000000D+00  0.000000D+00
      7   0.000000D+00  0.000000D+00  0.000000D+00  0.000000D+00  0.000000D+00
      8   0.000000D+00  0.000000D+00  0.000000D+00  0.000000D+00  0.000000D+00
                 6             7             8 
      1   0.000000D+00  0.000000D+00  0.000000D+00
      2   0.000000D+00  0.000000D+00  0.000000D+00
      3   0.000000D+00  0.000000D+00  0.000000D+00
      4   0.000000D+00  0.000000D+00  0.000000D+00
      5   0.000000D+00  0.000000D+00  0.000000D+00
      6   0.000000D+00  0.000000D+00  0.000000D+00
      7   0.000000D+00  0.000000D+00  0.000000D+00
      8   0.000000D+00  0.000000D+00  0.000000D+00
  
 P(g) (    2, 1, 1) (real):
                 1             2             3             4             5 
      1   0.100000D+01  0.000000D+00  0.000000D+00  0.000000D+00  0.000000D+00
      2   0.000000D+00  0.100000D+01  0.000000D+00  0.000000D+00  0.000000D+00
      3  -0.171519D-02 -0.355912D-01  0.000000D+00  0.000000D+00  0.000000D+00
      4  -0.386851D-02 -0.802737D-01  0.000000D+00  0.000000D+00  0.000000D+00
      5  -0.605777D-02 -0.125702D+00  0.000000D+00  0.000000D+00  0.000000D+00
      6  -0.355396D-01  0.171271D-02  0.000000D+00  0.000000D+00  0.000000D+00
      7  -0.296223D-01  0.142754D-02  0.000000D+00  0.000000D+00  0.000000D+00
      8  -0.146188D+00  0.704503D-02  0.000000D+00  0.000000D+00  0.000000D+00
                 6             7             8 
      1   0.000000D+00  0.000000D+00  0.000000D+00
      2   0.000000D+00  0.000000D+00  0.000000D+00
      3   0.000000D+00  0.000000D+00  0.000000D+00
      4   0.000000D+00  0.000000D+00  0.000000D+00
      5   0.000000D+00  0.000000D+00  0.000000D+00
      6   0.000000D+00  0.000000D+00  0.000000D+00
      7   0.000000D+00  0.000000D+00  0.000000D+00
      8   0.000000D+00  0.000000D+00  0.000000D+00
 P(g) (    2, 1, 1) (imaginary):
                 1             2             3             4             5 
      1   0.000000D+00  0.000000D+00  0.000000D+00  0.000000D+00  0.000000D+00
      2   0.000000D+00  0.000000D+00  0.000000D+00  0.000000D+00  0.000000D+00
      3   0.000000D+00  0.000000D+00  0.000000D+00  0.000000D+00  0.000000D+00
      4   0.000000D+00  0.000000D+00  0.000000D+00  0.000000D+00  0.000000D+00
      5   0.000000D+00  0.000000D+00  0.000000D+00  0.000000D+00  0.000000D+00
      6   0.000000D+00  0.000000D+00  0.000000D+00  0.000000D+00  0.000000D+00
      7   0.000000D+00  0.000000D+00  0.000000D+00  0.000000D+00  0.000000D+00
      8   0.000000D+00  0.000000D+00  0.000000D+00  0.000000D+00  0.000000D+00
                 6             7             8 
      1   0.000000D+00  0.000000D+00  0.000000D+00
      2   0.000000D+00  0.000000D+00  0.000000D+00
      3   0.000000D+00  0.000000D+00  0.000000D+00
      4   0.000000D+00  0.000000D+00  0.000000D+00
      5   0.000000D+00  0.000000D+00  0.000000D+00
      6   0.000000D+00  0.000000D+00  0.000000D+00
      7   0.000000D+00  0.000000D+00  0.000000D+00
      8   0.000000D+00  0.000000D+00  0.000000D+00
  
 P(g) (    3, 1, 1) (real):
                 1             2             3             4             5 
      1   0.100000D+01  0.000000D+00  0.000000D+00  0.000000D+00  0.000000D+00
      2   0.000000D+00  0.100000D+01  0.000000D+00  0.000000D+00  0.000000D+00
      3  -0.998959D-02 -0.854109D-01  0.000000D+00  0.000000D+00  0.000000D+00
      4  -0.225309D-01 -0.192639D+00  0.000000D+00  0.000000D+00  0.000000D+00
      5  -0.352815D-01 -0.301657D+00  0.000000D+00  0.000000D+00  0.000000D+00
      6  -0.852872D-01  0.997512D-02  0.000000D+00  0.000000D+00  0.000000D+00
      7  -0.710870D-01  0.831428D-02  0.000000D+00  0.000000D+00  0.000000D+00
      8  -0.350820D+00  0.410316D-01  0.000000D+00  0.000000D+00  0.000000D+00
                 6             7             8 
      1   0.000000D+00  0.000000D+00  0.000000D+00
      2   0.000000D+00  0.000000D+00  0.000000D+00
      3   0.000000D+00  0.000000D+00  0.000000D+00
      4   0.000000D+00  0.000000D+00  0.000000D+00
      5   0.000000D+00  0.000000D+00  0.000000D+00
      6   0.000000D+00  0.000000D+00  0.000000D+00
      7   0.000000D+00  0.000000D+00  0.000000D+00
      8   0.000000D+00  0.000000D+00  0.000000D+00
 P(g) (    3, 1, 1) (imaginary):
                 1             2             3             4             5 
      1   0.000000D+00  0.000000D+00  0.000000D+00  0.000000D+00  0.000000D+00
      2   0.000000D+00  0.000000D+00  0.000000D+00  0.000000D+00  0.000000D+00
      3   0.000000D+00  0.000000D+00  0.000000D+00  0.000000D+00  0.000000D+00
      4   0.000000D+00  0.000000D+00  0.000000D+00  0.000000D+00  0.000000D+00
      5   0.000000D+00  0.000000D+00  0.000000D+00  0.000000D+00  0.000000D+00
      6   0.000000D+00  0.000000D+00  0.000000D+00  0.000000D+00  0.000000D+00
      7   0.000000D+00  0.000000D+00  0.000000D+00  0.000000D+00  0.000000D+00
      8   0.000000D+00  0.000000D+00  0.000000D+00  0.000000D+00  0.000000D+00
                 6             7             8 
      1   0.000000D+00  0.000000D+00  0.000000D+00
      2   0.000000D+00  0.000000D+00  0.000000D+00
      3   0.000000D+00  0.000000D+00  0.000000D+00
      4   0.000000D+00  0.000000D+00  0.000000D+00
      5   0.000000D+00  0.000000D+00  0.000000D+00
      6   0.000000D+00  0.000000D+00  0.000000D+00
      7   0.000000D+00  0.000000D+00  0.000000D+00
      8   0.000000D+00  0.000000D+00  0.000000D+00
  
 P(g) (    4, 1, 1) (real):
                 1             2             3             4             5 
      1   0.100000D+01  0.000000D+00  0.000000D+00  0.000000D+00  0.000000D+00
      2   0.000000D+00  0.100000D+01  0.000000D+00  0.000000D+00  0.000000D+00
      3  -0.351832D-01 -0.157501D+00  0.000000D+00  0.000000D+00  0.000000D+00
      4  -0.793535D-01 -0.355234D+00  0.000000D+00  0.000000D+00  0.000000D+00
      5  -0.124261D+00 -0.556267D+00  0.000000D+00  0.000000D+00  0.000000D+00
      6  -0.157273D+00  0.351322D-01  0.000000D+00  0.000000D+00  0.000000D+00
      7  -0.131087D+00  0.292828D-01  0.000000D+00  0.000000D+00  0.000000D+00
      8  -0.646925D+00  0.144513D+00  0.000000D+00  0.000000D+00  0.000000D+00
                 6             7             8 
      1   0.000000D+00  0.000000D+00  0.000000D+00
      2   0.000000D+00  0.000000D+00  0.000000D+00
      3   0.000000D+00  0.000000D+00  0.000000D+00
      4   0.000000D+00  0.000000D+00  0.000000D+00
      5   0.000000D+00  0.000000D+00  0.000000D+00
      6   0.000000D+00  0.000000D+00  0.000000D+00
      7   0.000000D+00  0.000000D+00  0.000000D+00
      8   0.000000D+00  0.000000D+00  0.000000D+00
 P(g) (    4, 1, 1) (imaginary):
                 1             2             3             4             5 
      1   0.000000D+00  0.000000D+00  0.000000D+00  0.000000D+00  0.000000D+00
      2   0.000000D+00  0.000000D+00  0.000000D+00  0.000000D+00  0.000000D+00
      3   0.000000D+00  0.000000D+00  0.000000D+00  0.000000D+00  0.000000D+00
      4   0.000000D+00  0.000000D+00  0.000000D+00  0.000000D+00  0.000000D+00
      5   0.000000D+00  0.000000D+00  0.000000D+00  0.000000D+00  0.000000D+00
      6   0.000000D+00  0.000000D+00  0.000000D+00  0.000000D+00  0.000000D+00
      7   0.000000D+00  0.000000D+00  0.000000D+00  0.000000D+00  0.000000D+00
      8   0.000000D+00  0.000000D+00  0.000000D+00  0.000000D+00  0.000000D+00
                 6             7             8 
      1   0.000000D+00  0.000000D+00  0.000000D+00
      2   0.000000D+00  0.000000D+00  0.000000D+00
      3   0.000000D+00  0.000000D+00  0.000000D+00
      4   0.000000D+00  0.000000D+00  0.000000D+00
      5   0.000000D+00  0.000000D+00  0.000000D+00
      6   0.000000D+00  0.000000D+00  0.000000D+00
      7   0.000000D+00  0.000000D+00  0.000000D+00
      8   0.000000D+00  0.000000D+00  0.000000D+00
  
 P(g) (    5, 1, 1) (real):
                 1             2             3             4             5 
      1   0.100000D+01  0.000000D+00  0.000000D+00  0.000000D+00  0.000000D+00
      2   0.000000D+00  0.100000D+01  0.000000D+00  0.000000D+00  0.000000D+00
      3  -0.102429D+00 -0.255601D+00  0.000000D+00  0.000000D+00  0.000000D+00
      4  -0.231023D+00 -0.576492D+00  0.000000D+00  0.000000D+00  0.000000D+00
      5  -0.361764D+00 -0.902739D+00  0.000000D+00  0.000000D+00  0.000000D+00
      6  -0.255231D+00  0.102281D+00  0.000000D+00  0.000000D+00  0.000000D+00
      7  -0.212735D+00  0.852515D-01  0.000000D+00  0.000000D+00  0.000000D+00
      8  -0.104986D+01  0.420722D+00  0.000000D+00  0.000000D+00  0.000000D+00
                 6             7             8 
      1   0.000000D+00  0.000000D+00  0.000000D+00
      2   0.000000D+00  0.000000D+00  0.000000D+00
      3   0.000000D+00  0.000000D+00  0.000000D+00
      4   0.000000D+00  0.000000D+00  0.000000D+00
      5   0.000000D+00  0.000000D+00  0.000000D+00
      6   0.000000D+00  0.000000D+00  0.000000D+00
      7   0.000000D+00  0.000000D+00  0.000000D+00
      8   0.000000D+00  0.000000D+00  0.000000D+00
 P(g) (    5, 1, 1) (imaginary):
                 1             2             3             4             5 
      1   0.000000D+00  0.000000D+00  0.000000D+00  0.000000D+00  0.000000D+00
      2   0.000000D+00  0.000000D+00  0.000000D+00  0.000000D+00  0.000000D+00
      3   0.000000D+00  0.000000D+00  0.000000D+00  0.000000D+00  0.000000D+00
      4   0.000000D+00  0.000000D+00  0.000000D+00  0.000000D+00  0.000000D+00
      5   0.000000D+00  0.000000D+00  0.000000D+00  0.000000D+00  0.000000D+00
      6   0.000000D+00  0.000000D+00  0.000000D+00  0.000000D+00  0.000000D+00
      7   0.000000D+00  0.000000D+00  0.000000D+00  0.000000D+00  0.000000D+00
      8   0.000000D+00  0.000000D+00  0.000000D+00  0.000000D+00  0.000000D+00
                 6             7             8 
      1   0.000000D+00  0.000000D+00  0.000000D+00
      2   0.000000D+00  0.000000D+00  0.000000D+00
      3   0.000000D+00  0.000000D+00  0.000000D+00
      4   0.000000D+00  0.000000D+00  0.000000D+00
      5   0.000000D+00  0.000000D+00  0.000000D+00
      6   0.000000D+00  0.000000D+00  0.000000D+00
      7   0.000000D+00  0.000000D+00  0.000000D+00
      8   0.000000D+00  0.000000D+00  0.000000D+00
  
 P(g) (    6, 1, 1) (real):
                 1             2             3             4             5 
      1   0.100000D+01  0.000000D+00  0.000000D+00  0.000000D+00  0.000000D+00
      2   0.000000D+00  0.100000D+01  0.000000D+00  0.000000D+00  0.000000D+00
      3  -0.273456D+00 -0.357279D+00  0.000000D+00  0.000000D+00  0.000000D+00
      4  -0.616763D+00 -0.805820D+00  0.000000D+00  0.000000D+00  0.000000D+00
      5  -0.965800D+00 -0.126185D+01  0.000000D+00  0.000000D+00  0.000000D+00
      6  -0.356761D+00  0.273060D+00  0.000000D+00  0.000000D+00  0.000000D+00
      7  -0.297361D+00  0.227596D+00  0.000000D+00  0.000000D+00  0.000000D+00
      8  -0.146750D+01  0.112320D+01  0.000000D+00  0.000000D+00  0.000000D+00
                 6             7             8 
      1   0.000000D+00  0.000000D+00  0.000000D+00
      2   0.000000D+00  0.000000D+00  0.000000D+00
      3   0.000000D+00  0.000000D+00  0.000000D+00
      4   0.000000D+00  0.000000D+00  0.000000D+00
      5   0.000000D+00  0.000000D+00  0.000000D+00
      6   0.000000D+00  0.000000D+00  0.000000D+00
      7   0.000000D+00  0.000000D+00  0.000000D+00
      8   0.000000D+00  0.000000D+00  0.000000D+00
 P(g) (    6, 1, 1) (imaginary):
                 1             2             3             4             5 
      1   0.000000D+00  0.000000D+00  0.000000D+00  0.000000D+00  0.000000D+00
      2   0.000000D+00  0.000000D+00  0.000000D+00  0.000000D+00  0.000000D+00
      3   0.000000D+00  0.000000D+00  0.000000D+00  0.000000D+00  0.000000D+00
      4   0.000000D+00  0.000000D+00  0.000000D+00  0.000000D+00  0.000000D+00
      5   0.000000D+00  0.000000D+00  0.000000D+00  0.000000D+00  0.000000D+00
      6   0.000000D+00  0.000000D+00  0.000000D+00  0.000000D+00  0.000000D+00
      7   0.000000D+00  0.000000D+00  0.000000D+00  0.000000D+00  0.000000D+00
      8   0.000000D+00  0.000000D+00  0.000000D+00  0.000000D+00  0.000000D+00
                 6             7             8 
      1   0.000000D+00  0.000000D+00  0.000000D+00
      2   0.000000D+00  0.000000D+00  0.000000D+00
      3   0.000000D+00  0.000000D+00  0.000000D+00
      4   0.000000D+00  0.000000D+00  0.000000D+00
      5   0.000000D+00  0.000000D+00  0.000000D+00
      6   0.000000D+00  0.000000D+00  0.000000D+00
      7   0.000000D+00  0.000000D+00  0.000000D+00
      8   0.000000D+00  0.000000D+00  0.000000D+00
  
 P(g) (    7, 1, 1) (real):
                 1             2             3             4             5 
      1   0.100000D+01  0.000000D+00  0.000000D+00  0.000000D+00  0.000000D+00
      2   0.000000D+00  0.100000D+01  0.000000D+00  0.000000D+00  0.000000D+00
      3  -0.573923D+00 -0.308965D+00  0.000000D+00  0.000000D+00  0.000000D+00
      4  -0.129445D+01 -0.696852D+00  0.000000D+00  0.000000D+00  0.000000D+00
      5  -0.202700D+01 -0.109121D+01  0.000000D+00  0.000000D+00  0.000000D+00
      6  -0.308518D+00  0.573093D+00  0.000000D+00  0.000000D+00  0.000000D+00
      7  -0.257150D+00  0.477674D+00  0.000000D+00  0.000000D+00  0.000000D+00
      8  -0.126906D+01  0.235735D+01  0.000000D+00  0.000000D+00  0.000000D+00
                 6             7             8 
      1   0.000000D+00  0.000000D+00  0.000000D+00
      2   0.000000D+00  0.000000D+00  0.000000D+00
      3   0.000000D+00  0.000000D+00  0.000000D+00
      4   0.000000D+00  0.000000D+00  0.000000D+00
      5   0.000000D+00  0.000000D+00  0.000000D+00
      6   0.000000D+00  0.000000D+00  0.000000D+00
      7   0.000000D+00  0.000000D+00  0.000000D+00
      8   0.000000D+00  0.000000D+00  0.000000D+00
 P(g) (    7, 1, 1) (imaginary):
                 1             2             3             4             5 
      1   0.000000D+00  0.000000D+00  0.000000D+00  0.000000D+00  0.000000D+00
      2   0.000000D+00  0.000000D+00  0.000000D+00  0.000000D+00  0.000000D+00
      3   0.000000D+00  0.000000D+00  0.000000D+00  0.000000D+00  0.000000D+00
      4   0.000000D+00  0.000000D+00  0.000000D+00  0.000000D+00  0.000000D+00
      5   0.000000D+00  0.000000D+00  0.000000D+00  0.000000D+00  0.000000D+00
      6   0.000000D+00  0.000000D+00  0.000000D+00  0.000000D+00  0.000000D+00
      7   0.000000D+00  0.000000D+00  0.000000D+00  0.000000D+00  0.000000D+00
      8   0.000000D+00  0.000000D+00  0.000000D+00  0.000000D+00  0.000000D+00
                 6             7             8 
      1   0.000000D+00  0.000000D+00  0.000000D+00
      2   0.000000D+00  0.000000D+00  0.000000D+00
      3   0.000000D+00  0.000000D+00  0.000000D+00
      4   0.000000D+00  0.000000D+00  0.000000D+00
      5   0.000000D+00  0.000000D+00  0.000000D+00
      6   0.000000D+00  0.000000D+00  0.000000D+00
      7   0.000000D+00  0.000000D+00  0.000000D+00
      8   0.000000D+00  0.000000D+00  0.000000D+00
  
 P(g) (    8, 1, 1) (real):
                 1             2             3             4             5 
      1   0.100000D+01  0.000000D+00  0.000000D+00  0.000000D+00  0.000000D+00
      2   0.000000D+00  0.100000D+01  0.000000D+00  0.000000D+00  0.000000D+00
      3  -0.732289D+00 -0.763585D-01  0.000000D+00  0.000000D+00  0.000000D+00
      4  -0.165163D+01 -0.172222D+00  0.000000D+00  0.000000D+00  0.000000D+00
      5  -0.258632D+01 -0.269686D+00  0.000000D+00  0.000000D+00  0.000000D+00
      6  -0.762480D-01  0.731229D+00  0.000000D+00  0.000000D+00  0.000000D+00
      7  -0.635528D-01  0.609481D+00  0.000000D+00  0.000000D+00  0.000000D+00
      8  -0.313638D+00  0.300783D+01  0.000000D+00  0.000000D+00  0.000000D+00
                 6             7             8 
      1   0.000000D+00  0.000000D+00  0.000000D+00
      2   0.000000D+00  0.000000D+00  0.000000D+00
      3   0.000000D+00  0.000000D+00  0.000000D+00
      4   0.000000D+00  0.000000D+00  0.000000D+00
      5   0.000000D+00  0.000000D+00  0.000000D+00
      6   0.000000D+00  0.000000D+00  0.000000D+00
      7   0.000000D+00  0.000000D+00  0.000000D+00
      8   0.000000D+00  0.000000D+00  0.000000D+00
 P(g) (    8, 1, 1) (imaginary):
                 1             2             3             4             5 
      1   0.000000D+00  0.000000D+00  0.000000D+00  0.000000D+00  0.000000D+00
      2   0.000000D+00  0.000000D+00  0.000000D+00  0.000000D+00  0.000000D+00
      3   0.000000D+00  0.000000D+00  0.000000D+00  0.000000D+00  0.000000D+00
      4   0.000000D+00  0.000000D+00  0.000000D+00  0.000000D+00  0.000000D+00
      5   0.000000D+00  0.000000D+00  0.000000D+00  0.000000D+00  0.000000D+00
      6   0.000000D+00  0.000000D+00  0.000000D+00  0.000000D+00  0.000000D+00
      7   0.000000D+00  0.000000D+00  0.000000D+00  0.000000D+00  0.000000D+00
      8   0.000000D+00  0.000000D+00  0.000000D+00  0.000000D+00  0.000000D+00
                 6             7             8 
      1   0.000000D+00  0.000000D+00  0.000000D+00
      2   0.000000D+00  0.000000D+00  0.000000D+00
      3   0.000000D+00  0.000000D+00  0.000000D+00
      4   0.000000D+00  0.000000D+00  0.000000D+00
      5   0.000000D+00  0.000000D+00  0.000000D+00
      6   0.000000D+00  0.000000D+00  0.000000D+00
      7   0.000000D+00  0.000000D+00  0.000000D+00
      8   0.000000D+00  0.000000D+00  0.000000D+00
 
Start formgg
  
 P(g) ortho (real):
                 1             2             3             4             5 
      1   0.642873D+00 -0.465916D+00 -0.663976D-01  0.907301D-01 -0.140516D-01
      2  -0.465645D+00  0.337471D+00  0.480930D-01 -0.657174D-01 -0.188794D-01
      3  -0.663976D-01  0.481210D-01  0.685771D-02 -0.937083D-02  0.145129D-02
      4   0.906773D-01 -0.657174D-01 -0.936537D-02  0.127975D-01  0.367648D-02
      5   0.140516D-01 -0.101838D-01 -0.145129D-02  0.198314D-02  0.642873D+00
      6  -0.188794D-01  0.136827D-01  0.194991D-02 -0.266449D-02  0.465645D+00
      7  -0.145129D-02  0.105181D-02  0.149893D-03 -0.204823D-03 -0.663976D-01
      8   0.367648D-02 -0.266449D-02 -0.379716D-03  0.518869D-03 -0.906773D-01
                 6             7             8 
      1  -0.101838D-01  0.145129D-02  0.198314D-02
      2  -0.136827D-01  0.194991D-02  0.266449D-02
      3   0.105181D-02 -0.149893D-03 -0.204823D-03
      4   0.266449D-02 -0.379716D-03 -0.518869D-03
      5   0.465916D+00 -0.663976D-01 -0.907301D-01
      6   0.337471D+00 -0.480930D-01 -0.657174D-01
      7  -0.481210D-01  0.685771D-02  0.937083D-02
      8  -0.657174D-01  0.936537D-02  0.127975D-01
 P(g) ortho (imaginary):
                 1             2             3             4             5 
      1   0.000000D+00  0.000000D+00  0.000000D+00  0.000000D+00  0.000000D+00
      2   0.000000D+00  0.000000D+00  0.000000D+00  0.000000D+00  0.000000D+00
      3   0.000000D+00  0.000000D+00  0.000000D+00  0.000000D+00  0.000000D+00
      4   0.000000D+00  0.000000D+00  0.000000D+00  0.000000D+00  0.000000D+00
      5   0.000000D+00  0.000000D+00  0.000000D+00  0.000000D+00  0.000000D+00
      6   0.000000D+00  0.000000D+00  0.000000D+00  0.000000D+00  0.000000D+00
      7   0.000000D+00  0.000000D+00  0.000000D+00  0.000000D+00  0.000000D+00
      8   0.000000D+00  0.000000D+00  0.000000D+00  0.000000D+00  0.000000D+00
                 6             7             8 
      1   0.000000D+00  0.000000D+00  0.000000D+00
      2   0.000000D+00  0.000000D+00  0.000000D+00
      3   0.000000D+00  0.000000D+00  0.000000D+00
      4   0.000000D+00  0.000000D+00  0.000000D+00
      5   0.000000D+00  0.000000D+00  0.000000D+00
      6   0.000000D+00  0.000000D+00  0.000000D+00
      7   0.000000D+00  0.000000D+00  0.000000D+00
      8   0.000000D+00  0.000000D+00  0.000000D+00
  
 P(g) ortho (real):
                 1             2             3             4             5 
      1   0.646230D+00 -0.468349D+00 -0.667443D-01  0.912039D-01 -0.723833D-01
      2  -0.461134D+00  0.334203D+00  0.476271D-01 -0.650809D-01 -0.972522D-01
      3  -0.667443D-01  0.483723D-01  0.689352D-02 -0.941976D-02  0.747593D-02
      4   0.897989D-01 -0.650809D-01 -0.927465D-02  0.126735D-01  0.189384D-01
      5   0.723833D-01 -0.524591D-01 -0.747593D-02  0.102156D-01  0.646230D+00
      6  -0.972522D-01  0.704826D-01  0.100445D-01 -0.137254D-01  0.461134D+00
      7  -0.747593D-02  0.541810D-02  0.772132D-03 -0.105509D-02 -0.667443D-01
      8   0.189384D-01 -0.137254D-01 -0.195601D-02  0.267282D-02 -0.897989D-01
                 6             7             8 
      1  -0.524591D-01  0.747593D-02  0.102156D-01
      2  -0.704826D-01  0.100445D-01  0.137254D-01
      3   0.541810D-02 -0.772132D-03 -0.105509D-02
      4   0.137254D-01 -0.195601D-02 -0.267282D-02
      5   0.468349D+00 -0.667443D-01 -0.912039D-01
      6   0.334203D+00 -0.476271D-01 -0.650809D-01
      7  -0.483723D-01  0.689352D-02  0.941976D-02
      8  -0.650809D-01  0.927465D-02  0.126735D-01
 P(g) ortho (imaginary):
                 1             2             3             4             5 
      1   0.000000D+00  0.000000D+00  0.000000D+00  0.000000D+00  0.000000D+00
      2   0.000000D+00  0.000000D+00  0.000000D+00  0.000000D+00  0.000000D+00
      3   0.000000D+00  0.000000D+00  0.000000D+00  0.000000D+00  0.000000D+00
      4   0.000000D+00  0.000000D+00  0.000000D+00  0.000000D+00  0.000000D+00
      5   0.000000D+00  0.000000D+00  0.000000D+00  0.000000D+00  0.000000D+00
      6   0.000000D+00  0.000000D+00  0.000000D+00  0.000000D+00  0.000000D+00
      7   0.000000D+00  0.000000D+00  0.000000D+00  0.000000D+00  0.000000D+00
      8   0.000000D+00  0.000000D+00  0.000000D+00  0.000000D+00  0.000000D+00
                 6             7             8 
      1   0.000000D+00  0.000000D+00  0.000000D+00
      2   0.000000D+00  0.000000D+00  0.000000D+00
      3   0.000000D+00  0.000000D+00  0.000000D+00
      4   0.000000D+00  0.000000D+00  0.000000D+00
      5   0.000000D+00  0.000000D+00  0.000000D+00
      6   0.000000D+00  0.000000D+00  0.000000D+00
      7   0.000000D+00  0.000000D+00  0.000000D+00
      8   0.000000D+00  0.000000D+00  0.000000D+00
  
 P(g) ortho (real):
                 1             2             3             4             5 
      1   0.663058D+00 -0.480545D+00 -0.684823D-01  0.935788D-01 -0.173704D+00
      2  -0.438525D+00  0.317816D+00  0.452919D-01 -0.618899D-01 -0.233384D+00
      3  -0.684823D-01  0.496319D-01  0.707303D-02 -0.966506D-02  0.179406D-01
      4   0.853960D-01 -0.618899D-01 -0.881991D-02  0.120521D-01  0.454479D-01
      5   0.173704D+00 -0.125890D+00 -0.179406D-01  0.245152D-01  0.663058D+00
      6  -0.233384D+00  0.169143D+00  0.241045D-01 -0.329379D-01  0.438525D+00
      7  -0.179406D-01  0.130022D-01  0.185295D-02 -0.253199D-02 -0.684823D-01
      8   0.454479D-01 -0.329379D-01 -0.469398D-02  0.641416D-02 -0.853960D-01
                 6             7             8 
      1  -0.125890D+00  0.179406D-01  0.245152D-01
      2  -0.169143D+00  0.241045D-01  0.329379D-01
      3   0.130022D-01 -0.185295D-02 -0.253199D-02
      4   0.329379D-01 -0.469398D-02 -0.641416D-02
      5   0.480545D+00 -0.684823D-01 -0.935788D-01
      6   0.317816D+00 -0.452919D-01 -0.618899D-01
      7  -0.496319D-01  0.707303D-02  0.966506D-02
      8  -0.618899D-01  0.881991D-02  0.120521D-01
 P(g) ortho (imaginary):
                 1             2             3             4             5 
      1   0.000000D+00  0.000000D+00  0.000000D+00  0.000000D+00  0.000000D+00
      2   0.000000D+00  0.000000D+00  0.000000D+00  0.000000D+00  0.000000D+00
[...]
      8   0.000000D+00  0.000000D+00  0.000000D+00
indy =     6, yg =    0.20415   0.00000, facd =  1.000 0.000, civec =    0.96112   0.00000, facw =    0.33419
  
 X(g) (    6, 1, 1) (real):
                 1             2             3             4             5 
      1   0.200000D+01  0.000000D+00 -0.115417D+01  0.167366D+00  0.839968D-01
      2   0.000000D+00  0.200000D+01  0.157040D+01 -0.227725D+00 -0.114289D+00
      3  -0.115417D+01 -0.157040D+01  0.000000D+00  0.000000D+00  0.000000D+00
      4   0.167366D+00  0.227725D+00  0.000000D+00  0.000000D+00  0.000000D+00
      5   0.839968D-01  0.114289D+00  0.000000D+00  0.000000D+00  0.000000D+00
      6  -0.117895D+01  0.866464D+00  0.000000D+00  0.000000D+00  0.000000D+00
      7  -0.542904D+00  0.399007D+00  0.000000D+00  0.000000D+00  0.000000D+00
      8  -0.920015D+00  0.676164D+00  0.000000D+00  0.000000D+00  0.000000D+00
                 6             7             8 
      1   0.117895D+01  0.542904D+00  0.920015D+00
      2   0.866464D+00  0.399007D+00  0.676164D+00
      3   0.000000D+00  0.000000D+00  0.000000D+00
      4   0.000000D+00  0.000000D+00  0.000000D+00
      5   0.000000D+00  0.000000D+00  0.000000D+00
      6   0.000000D+00  0.000000D+00  0.000000D+00
      7   0.000000D+00  0.000000D+00  0.000000D+00
      8   0.000000D+00  0.000000D+00  0.000000D+00
 X(g) (    6, 1, 1) (imaginary):
                 1             2             3             4             5 
      1   0.000000D+00  0.000000D+00  0.000000D+00  0.000000D+00  0.000000D+00
      2   0.000000D+00  0.000000D+00  0.000000D+00  0.000000D+00  0.000000D+00
      3   0.000000D+00  0.000000D+00  0.000000D+00  0.000000D+00  0.000000D+00
      4   0.000000D+00  0.000000D+00  0.000000D+00  0.000000D+00  0.000000D+00
      5   0.000000D+00  0.000000D+00  0.000000D+00  0.000000D+00  0.000000D+00
      6   0.000000D+00  0.000000D+00  0.000000D+00  0.000000D+00  0.000000D+00
      7   0.000000D+00  0.000000D+00  0.000000D+00  0.000000D+00  0.000000D+00
      8   0.000000D+00  0.000000D+00  0.000000D+00  0.000000D+00  0.000000D+00
                 6             7             8 
      1   0.000000D+00  0.000000D+00  0.000000D+00
      2   0.000000D+00  0.000000D+00  0.000000D+00
      3   0.000000D+00  0.000000D+00  0.000000D+00
      4   0.000000D+00  0.000000D+00  0.000000D+00
      5   0.000000D+00  0.000000D+00  0.000000D+00
      6   0.000000D+00  0.000000D+00  0.000000D+00
      7   0.000000D+00  0.000000D+00  0.000000D+00
      8   0.000000D+00  0.000000D+00  0.000000D+00
indy =     7, yg =    0.10574   0.00000, facd =  1.000 0.000, civec =    0.96112   0.00000, facw =    0.10968
  
 X(g) (    7, 1, 1) (real):
                 1             2             3             4             5 
      1   0.200000D+01  0.000000D+00 -0.250391D+01  0.363094D+00  0.182228D+00
      2   0.000000D+00  0.200000D+01  0.140378D+01 -0.203563D+00 -0.102163D+00
      3  -0.250391D+01 -0.140378D+01  0.000000D+00  0.000000D+00  0.000000D+00
      4   0.363094D+00  0.203563D+00  0.000000D+00  0.000000D+00  0.000000D+00
      5   0.182228D+00  0.102163D+00  0.000000D+00  0.000000D+00  0.000000D+00
      6  -0.105385D+01  0.187976D+01  0.000000D+00  0.000000D+00  0.000000D+00
      7  -0.485300D+00  0.865628D+00  0.000000D+00  0.000000D+00  0.000000D+00
      8  -0.822398D+00  0.146691D+01  0.000000D+00  0.000000D+00  0.000000D+00
                 6             7             8 
      1   0.105385D+01  0.485300D+00  0.822398D+00
      2   0.187976D+01  0.865628D+00  0.146691D+01
      3   0.000000D+00  0.000000D+00  0.000000D+00
      4   0.000000D+00  0.000000D+00  0.000000D+00
      5   0.000000D+00  0.000000D+00  0.000000D+00
      6   0.000000D+00  0.000000D+00  0.000000D+00
      7   0.000000D+00  0.000000D+00  0.000000D+00
      8   0.000000D+00  0.000000D+00  0.000000D+00
 X(g) (    7, 1, 1) (imaginary):
                 1             2             3             4             5 
      1   0.000000D+00  0.000000D+00  0.000000D+00  0.000000D+00  0.000000D+00
      2   0.000000D+00  0.000000D+00  0.000000D+00  0.000000D+00  0.000000D+00
      3   0.000000D+00  0.000000D+00  0.000000D+00  0.000000D+00  0.000000D+00
      4   0.000000D+00  0.000000D+00  0.000000D+00  0.000000D+00  0.000000D+00
      5   0.000000D+00  0.000000D+00  0.000000D+00  0.000000D+00  0.000000D+00
      6   0.000000D+00  0.000000D+00  0.000000D+00  0.000000D+00  0.000000D+00
      7   0.000000D+00  0.000000D+00  0.000000D+00  0.000000D+00  0.000000D+00
      8   0.000000D+00  0.000000D+00  0.000000D+00  0.000000D+00  0.000000D+00
                 6             7             8 
      1   0.000000D+00  0.000000D+00  0.000000D+00
      2   0.000000D+00  0.000000D+00  0.000000D+00
      3   0.000000D+00  0.000000D+00  0.000000D+00
      4   0.000000D+00  0.000000D+00  0.000000D+00
      5   0.000000D+00  0.000000D+00  0.000000D+00
      6   0.000000D+00  0.000000D+00  0.000000D+00
      7   0.000000D+00  0.000000D+00  0.000000D+00
      8   0.000000D+00  0.000000D+00  0.000000D+00
indy =     8, yg =    0.08343   0.00000, facd =  1.000 0.000, civec =    0.96112   0.00000, facw =    0.00991
  
 X(g) (    8, 1, 1) (real):
                 1             2             3             4             5 
      1   0.200000D+01  0.000000D+00 -0.325256D+01  0.471656D+00  0.236712D+00
      2   0.000000D+00  0.200000D+01  0.353202D+00 -0.512181D-01 -0.257051D-01
      3  -0.325256D+01 -0.353202D+00  0.000000D+00  0.000000D+00  0.000000D+00
      4   0.471656D+00  0.512181D-01  0.000000D+00  0.000000D+00  0.000000D+00
      5   0.236712D+00  0.257051D-01  0.000000D+00  0.000000D+00  0.000000D+00
      6  -0.265159D+00  0.244179D+01  0.000000D+00  0.000000D+00  0.000000D+00
      7  -0.122106D+00  0.112444D+01  0.000000D+00  0.000000D+00  0.000000D+00
      8  -0.206922D+00  0.190550D+01  0.000000D+00  0.000000D+00  0.000000D+00
                 6             7             8 
      1   0.265159D+00  0.122106D+00  0.206922D+00
      2   0.244179D+01  0.112444D+01  0.190550D+01
      3   0.000000D+00  0.000000D+00  0.000000D+00
      4   0.000000D+00  0.000000D+00  0.000000D+00
      5   0.000000D+00  0.000000D+00  0.000000D+00
      6   0.000000D+00  0.000000D+00  0.000000D+00
      7   0.000000D+00  0.000000D+00  0.000000D+00
      8   0.000000D+00  0.000000D+00  0.000000D+00
 X(g) (    8, 1, 1) (imaginary):
                 1             2             3             4             5 
      1   0.000000D+00  0.000000D+00  0.000000D+00  0.000000D+00  0.000000D+00
      2   0.000000D+00  0.000000D+00  0.000000D+00  0.000000D+00  0.000000D+00
      3   0.000000D+00  0.000000D+00  0.000000D+00  0.000000D+00  0.000000D+00
      4   0.000000D+00  0.000000D+00  0.000000D+00  0.000000D+00  0.000000D+00
      5   0.000000D+00  0.000000D+00  0.000000D+00  0.000000D+00  0.000000D+00
      6   0.000000D+00  0.000000D+00  0.000000D+00  0.000000D+00  0.000000D+00
      7   0.000000D+00  0.000000D+00  0.000000D+00  0.000000D+00  0.000000D+00
      8   0.000000D+00  0.000000D+00  0.000000D+00  0.000000D+00  0.000000D+00
                 6             7             8 
      1   0.000000D+00  0.000000D+00  0.000000D+00
      2   0.000000D+00  0.000000D+00  0.000000D+00
      3   0.000000D+00  0.000000D+00  0.000000D+00
      4   0.000000D+00  0.000000D+00  0.000000D+00
      5   0.000000D+00  0.000000D+00  0.000000D+00
      6   0.000000D+00  0.000000D+00  0.000000D+00
      7   0.000000D+00  0.000000D+00  0.000000D+00
      8   0.000000D+00  0.000000D+00  0.000000D+00
 X(g) int (real):
                 1             2             3             4             5 
      1   0.200000D+01  0.000000D+00 -0.250923D+00  0.363866D-01  0.182615D-01
      2   0.000000D+00  0.200000D+01  0.685957D+00 -0.994711D-01 -0.499220D-01
      3  -0.250923D+00 -0.685957D+00  0.000000D+00  0.000000D+00  0.000000D+00
      4   0.363866D-01  0.994711D-01  0.000000D+00  0.000000D+00  0.000000D+00
      5   0.182615D-01  0.499220D-01  0.000000D+00  0.000000D+00  0.000000D+00
      6  -0.514967D+00  0.188375D+00  0.000000D+00  0.000000D+00  0.000000D+00
      7  -0.237142D+00  0.867467D-01  0.000000D+00  0.000000D+00  0.000000D+00
      8  -0.401865D+00  0.147003D+00  0.000000D+00  0.000000D+00  0.000000D+00
                 6             7             8 
      1   0.514967D+00  0.237142D+00  0.401865D+00
      2   0.188375D+00  0.867467D-01  0.147003D+00
      3   0.000000D+00  0.000000D+00  0.000000D+00
      4   0.000000D+00  0.000000D+00  0.000000D+00
      5   0.000000D+00  0.000000D+00  0.000000D+00
      6   0.000000D+00  0.000000D+00  0.000000D+00
      7   0.000000D+00  0.000000D+00  0.000000D+00
      8   0.000000D+00  0.000000D+00  0.000000D+00
 X(g) int (imaginary):
                 1             2             3             4             5 
      1   0.000000D+00  0.000000D+00  0.000000D+00  0.000000D+00  0.000000D+00
      2   0.000000D+00  0.000000D+00  0.000000D+00  0.000000D+00  0.000000D+00
      3   0.000000D+00  0.000000D+00  0.000000D+00  0.000000D+00  0.000000D+00
      4   0.000000D+00  0.000000D+00  0.000000D+00  0.000000D+00  0.000000D+00
      5   0.000000D+00  0.000000D+00  0.000000D+00  0.000000D+00  0.000000D+00
      6   0.000000D+00  0.000000D+00  0.000000D+00  0.000000D+00  0.000000D+00
      7   0.000000D+00  0.000000D+00  0.000000D+00  0.000000D+00  0.000000D+00
      8   0.000000D+00  0.000000D+00  0.000000D+00  0.000000D+00  0.000000D+00
                 6             7             8 
      1   0.000000D+00  0.000000D+00  0.000000D+00
      2   0.000000D+00  0.000000D+00  0.000000D+00
      3   0.000000D+00  0.000000D+00  0.000000D+00
      4   0.000000D+00  0.000000D+00  0.000000D+00
      5   0.000000D+00  0.000000D+00  0.000000D+00
      6   0.000000D+00  0.000000D+00  0.000000D+00
      7   0.000000D+00  0.000000D+00  0.000000D+00
      8   0.000000D+00  0.000000D+00  0.000000D+00
  
 Core Hamiltonian (NO) (real):
                 1             2             3             4             5 
      1  -0.766531D+00  0.000000D+00  0.539728D-01 -0.485990D-02  0.105926D-01
      2   0.000000D+00 -0.766531D+00  0.000000D+00  0.000000D+00  0.000000D+00
      3   0.539728D-01  0.000000D+00 -0.704683D+00  0.170070D+00  0.668190D-01
      4  -0.485990D-02  0.000000D+00  0.170070D+00  0.384864D+00  0.149917D-02
      5   0.105926D-01  0.000000D+00  0.668190D-01  0.149917D-02  0.313316D+00
      6   0.000000D+00 -0.312936D-01  0.000000D+00  0.000000D+00  0.000000D+00
      7   0.000000D+00 -0.154848D-01  0.000000D+00  0.000000D+00  0.000000D+00
      8   0.000000D+00 -0.427763D-01  0.000000D+00  0.000000D+00  0.000000D+00
                 6             7             8 
      1   0.000000D+00  0.000000D+00  0.000000D+00
      2  -0.312936D-01 -0.154848D-01 -0.427763D-01
      3   0.000000D+00  0.000000D+00  0.000000D+00
      4   0.000000D+00  0.000000D+00  0.000000D+00
      5   0.000000D+00  0.000000D+00  0.000000D+00
      6  -0.245863D+00 -0.285096D+00 -0.444422D+00
      7  -0.285096D+00  0.272370D+00 -0.241188D+00
      8  -0.444422D+00 -0.241188D+00 -0.330092D-01
 Core Hamiltonian (NO) (imaginary):
                 1             2             3             4             5 
      1   0.000000D+00  0.000000D+00  0.000000D+00  0.000000D+00  0.000000D+00
      2   0.000000D+00  0.000000D+00  0.000000D+00  0.000000D+00  0.000000D+00
      3   0.000000D+00  0.000000D+00  0.000000D+00  0.000000D+00  0.000000D+00
      4   0.000000D+00  0.000000D+00  0.000000D+00  0.000000D+00  0.000000D+00
      5   0.000000D+00  0.000000D+00  0.000000D+00  0.000000D+00  0.000000D+00
      6   0.000000D+00  0.000000D+00  0.000000D+00  0.000000D+00  0.000000D+00
      7   0.000000D+00  0.000000D+00  0.000000D+00  0.000000D+00  0.000000D+00
      8   0.000000D+00  0.000000D+00  0.000000D+00  0.000000D+00  0.000000D+00
                 6             7             8 
      1   0.000000D+00  0.000000D+00  0.000000D+00
      2   0.000000D+00  0.000000D+00  0.000000D+00
      3   0.000000D+00  0.000000D+00  0.000000D+00
      4   0.000000D+00  0.000000D+00  0.000000D+00
      5   0.000000D+00  0.000000D+00  0.000000D+00
      6   0.000000D+00  0.000000D+00  0.000000D+00
      7   0.000000D+00  0.000000D+00  0.000000D+00
      8   0.000000D+00  0.000000D+00  0.000000D+00
trh  -1.53309   0.00000trg   0.27192   0.00000
trh  -1.53382   0.00000trg   0.27229   0.00000
trh  -1.53748   0.00000trg   0.27414   0.00000
trh  -1.54867   0.00000trg   0.27980   0.00000
trh  -1.57882   0.00000trg   0.29503   0.00000
trh  -1.65750   0.00000trg   0.33479   0.00000
trh  -1.80302   0.00000trg   0.40833   0.00000
trh  -1.88373   0.00000trg   0.44911   0.00000
  
 Feff (real):
                 1             2             3             4             5 
      1   0.000000D+00  0.000000D+00  0.000000D+00  0.000000D+00  0.000000D+00
      2   0.000000D+00  0.000000D+00  0.226808D-01  0.204642D-01 -0.113290D-01
      3   0.000000D+00 -0.226808D-01  0.000000D+00  0.000000D+00  0.000000D+00
      4   0.000000D+00 -0.204642D-01  0.000000D+00  0.000000D+00  0.000000D+00
      5   0.000000D+00  0.113290D-01  0.000000D+00  0.000000D+00  0.000000D+00
      6  -0.273610D-01  0.000000D+00  0.000000D+00  0.000000D+00  0.000000D+00
      7   0.152370D-01  0.000000D+00  0.000000D+00  0.000000D+00  0.000000D+00
      8  -0.898631D-02  0.000000D+00  0.000000D+00  0.000000D+00  0.000000D+00
                 6             7             8 
      1   0.273610D-01 -0.152370D-01  0.898631D-02
      2   0.000000D+00  0.000000D+00  0.000000D+00
      3   0.000000D+00  0.000000D+00  0.000000D+00
      4   0.000000D+00  0.000000D+00  0.000000D+00
      5   0.000000D+00  0.000000D+00  0.000000D+00
      6   0.000000D+00  0.000000D+00  0.000000D+00
      7   0.000000D+00  0.000000D+00  0.000000D+00
      8   0.000000D+00  0.000000D+00  0.000000D+00
 Feff (imaginary):
                 1             2             3             4             5 
      1   0.000000D+00  0.000000D+00  0.000000D+00  0.000000D+00  0.000000D+00
      2   0.000000D+00  0.000000D+00  0.000000D+00  0.000000D+00  0.000000D+00
      3   0.000000D+00  0.000000D+00  0.000000D+00  0.000000D+00  0.000000D+00
      4   0.000000D+00  0.000000D+00  0.000000D+00  0.000000D+00  0.000000D+00
      5   0.000000D+00  0.000000D+00  0.000000D+00  0.000000D+00  0.000000D+00
      6   0.000000D+00  0.000000D+00  0.000000D+00  0.000000D+00  0.000000D+00
      7   0.000000D+00  0.000000D+00  0.000000D+00  0.000000D+00  0.000000D+00
      8   0.000000D+00  0.000000D+00  0.000000D+00  0.000000D+00  0.000000D+00
                 6             7             8 
      1   0.000000D+00  0.000000D+00  0.000000D+00
      2   0.000000D+00  0.000000D+00  0.000000D+00
      3   0.000000D+00  0.000000D+00  0.000000D+00
      4   0.000000D+00  0.000000D+00  0.000000D+00
      5   0.000000D+00  0.000000D+00  0.000000D+00
      6   0.000000D+00  0.000000D+00  0.000000D+00
      7   0.000000D+00  0.000000D+00  0.000000D+00
      8   0.000000D+00  0.000000D+00  0.000000D+00
  
 Effective Fock (alpha, real):
                1             2             3             4 
      1  0.000000D+00
      2  0.000000D+00  0.000000D+00
      3  0.000000D+00  0.000000D+00  0.000000D+00
      4  0.000000D+00  0.000000D+00  0.000000D+00  0.000000D+00
 Effective Fock (alpha, imaginary):
                1             2             3             4 
      1  0.000000D+00
      2 -0.000000D+00  0.000000D+00
      3 -0.000000D+00 -0.000000D+00  0.000000D+00
      4 -0.000000D+00 -0.000000D+00 -0.000000D+00  0.000000D+00
 Effective Fock (beta, real):
                1             2             3             4 
      1  0.000000D+00
      2  0.000000D+00  0.000000D+00
      3  0.000000D+00  0.000000D+00  0.000000D+00
      4  0.000000D+00  0.000000D+00  0.000000D+00  0.000000D+00
 Effective Fock (beta, imaginary):
                1             2             3             4 
      1  0.000000D+00
      2 -0.000000D+00  0.000000D+00
      3 -0.000000D+00 -0.000000D+00  0.000000D+00
      4 -0.000000D+00 -0.000000D+00 -0.000000D+00  0.000000D+00
ifsel =     2, useproj    T
  
 Effective Fock (alpha, real):
                1             2             3             4 
      1 -0.230817D+00
      2  0.331871D+00  0.305689D-02
      3  0.223661D+00  0.736696D-01  0.112119D+01
      4  0.397983D-01  0.330663D+00  0.508694D-01  0.111666D+01
 Effective Fock (alpha, imaginary):
                1             2             3             4 
      1  0.000000D+00
      2 -0.000000D+00  0.000000D+00
      3 -0.000000D+00 -0.000000D+00  0.000000D+00
      4 -0.000000D+00 -0.000000D+00 -0.000000D+00  0.000000D+00
 Effective Fock (beta, real):
                1             2             3             4 
      1 -0.230817D+00
      2 -0.331871D+00  0.305689D-02
      3  0.223661D+00 -0.736696D-01  0.112119D+01
      4 -0.397983D-01  0.330663D+00 -0.508694D-01  0.111666D+01
 Effective Fock (beta, imaginary):
                1             2             3             4 
      1  0.000000D+00
      2 -0.000000D+00  0.000000D+00
      3 -0.000000D+00 -0.000000D+00  0.000000D+00
      4 -0.000000D+00 -0.000000D+00 -0.000000D+00  0.000000D+00
  
 New P (alpha, real):
                1             2             3             4 
      1  0.636105D+00
      2 -0.468869D+00  0.345600D+00
      3 -0.692763D-01  0.510631D-01  0.754469D-02
      4  0.826956D-01 -0.609543D-01 -0.900614D-02  0.107507D-01
 New P (alpha, imaginary):
                1             2             3             4 
      1  0.000000D+00
      2 -0.000000D+00  0.000000D+00
      3 -0.000000D+00 -0.000000D+00  0.000000D+00
      4 -0.000000D+00 -0.000000D+00 -0.000000D+00  0.000000D+00
 New P (beta, real):
                1             2             3             4 
      1  0.636105D+00
      2  0.468869D+00  0.345600D+00
      3 -0.692763D-01 -0.510631D-01  0.754469D-02
      4 -0.826956D-01 -0.609543D-01  0.900614D-02  0.107507D-01
 New P (beta, imaginary):
                1             2             3             4 
      1  0.000000D+00
      2 -0.000000D+00  0.000000D+00
      3 -0.000000D+00 -0.000000D+00  0.000000D+00
      4 -0.000000D+00 -0.000000D+00 -0.000000D+00  0.000000D+00

 Fock eigenvalues (alpha):
      orbital --                 1                2                3                4
       energy --    -4.9462081D-01    1.2192775D-01    1.0988238D+00    1.2839587D+00

 Fock eigenvalues (beta):
      orbital --                 1                2                3                4
       energy --    -4.9462081D-01    1.2192775D-01    1.0988238D+00    1.2839587D+00

 *** cycle =   17 ***

        E =      -1.009944954646      DE =      -0.000000000000
      Hsp =      -1.560113926476     Hph =       0.285580367535
   <S**2> =       0.000000000000
    RMSDP =       7.3225D-09        MaxP =       1.5712D-08

   E (HF) =      -0.996562752096

 ********************


 *** SCF Done after   17 cycles ***

        E =      -1.009944954646    conv =           7.3225E-09
      Hsp =      -1.560113926476     Hph =       0.285580367535
   <S**2> =       0.000000000000

 **********************************


 PHF SCF - quitting the program

 Leave Link  530 at Fri Oct 23 20:24:39 2020, MaxMem=  536870912 cpu:       0.6
 (Enter /share/home/srwang/g09/l9999.exe)

 Test job not archived.
 1\1\GINC-XCLUSTER\SP\CUHF\3-21G\H2\SRWANG\23-Oct-2020\0\\#p uhf/3-21g 
 nosymm guess=mix scf=conver=4 extralink=l530 iop(5/206=9, 5/207=4, 5/2
 16=0) pop=none\\title\\0,1\H,0,0.,0.,0.\H,0,0.,0.,2.\\Version=EM64L-G0
 9RevC.01\HF=-1.009945\S2=0.\S2-1=0.\S2A=0.\RMSD=7.323e-09\PG=D*H [C*(H
 1.H1)]\\@


 SIGN SEEN IN A RESTAURANT-
 WE RESERVE THE RIGHT TO SERVE REFUSE TO ANYONE.
 Job cpu time:  0 days  0 hours  0 minutes  1.0 seconds.
 File lengths (MBytes):  RWF=     72 Int=      0 D2E=      0 Chk=      2 Scr=      2
 Normal termination of Gaussian 09 at Fri Oct 23 20:24:39 2020.
