#INFO: **** input file is /share/home/srwang/ExSCF/examples/01-H2.py ****
from pyphf import suscf, guess
from pyscf import lib
lib.num_threads(4)

xyz = 'H 0.0 0.0 0.0; H 0.0 0.0 2.0'''
bas = '3-21g'
mf = guess.mix(xyz, bas, conv='tight')

mf2 = suscf.SUHF(mf)
#mf2.verbose = 8
mf2.kernel()

#INFO: ******************** input file end ********************


System: uname_result(system='Linux', node='xn01', release='3.10.0-1127.el7.x86_64', version='#1 SMP Tue Feb 18 16:39:12 EST 2020', machine='x86_64', processor='x86_64')  Threads 4
Python 3.7.4 (default, Aug 13 2019, 20:35:49) 
[GCC 7.3.0]
numpy 1.17.2  scipy 1.4.1
Date: Fri Jun 25 21:21:12 2021
PySCF version 1.7.6a1
PySCF path  /share/home/srwang/pyscf/pyscf
GIT HEAD      ref: refs/heads/master
GIT master branch  80f71dfe77ac5f9caae26788acf76446987635bd

[CONFIG] conf_file None
[INPUT] verbose = 4
[INPUT] num. atoms = 2
[INPUT] num. electrons = 2
[INPUT] charge = 0
[INPUT] spin (= nelec alpha-beta = 2S) = 0
[INPUT] symmetry False subgroup None
[INPUT] Mole.unit = angstrom
[INPUT]  1 H      0.000000000000   0.000000000000   0.000000000000 AA    0.000000000000   0.000000000000   0.000000000000 Bohr
[INPUT]  2 H      0.000000000000   0.000000000000   2.000000000000 AA    0.000000000000   0.000000000000   3.779452249130 Bohr

nuclear repulsion = 0.26458860546
number of shells = 4
number of NR pGTOs = 6
number of NR cGTOs = 4
basis = 3-21g
ecp = {}
CPU time:         1.08


******** <class 'pyscf.scf.hf.RHF'> ********
method = RHF
initial guess = minao
damping factor = 0
level_shift factor = 0
DIIS = <class 'pyscf.scf.diis.CDIIS'>
diis_start_cycle = 1
diis_space = 8
SCF conv_tol = 1e-05
SCF conv_tol_grad = None
SCF max_cycles = 50
direct_scf = True
direct_scf_tol = 1e-13
chkfile to save SCF result = /share/home/srwang/ExSCF/examples/tmpaeog0j_h
max_memory 4000 MB (current use 104 MB)
Set gradient conv threshold to 0.00316228
init E= -0.648815945420394
  HOMO = -0.244674774926751  LUMO = -0.0864459286574333
cycle= 1 E= -0.907663399996247  delta_E= -0.259  |g|= 0.019  |ddm|= 0.828
  HOMO = -0.369605169894073  LUMO = -0.0101025752244096
cycle= 2 E= -0.907801422494246  delta_E= -0.000138  |g|= 0.00293  |ddm|= 0.0218
  HOMO = -0.370705495656876  LUMO = -0.0112684200431641
cycle= 3 E= -0.907804773936949  delta_E= -3.35e-06  |g|= 1.06e-06  |ddm|= 0.00397
  HOMO = -0.370702164933128  LUMO = -0.011267278240244
Extra cycle  E= -0.907804773937381  delta_E= -4.32e-13  |g|= 1.64e-07  |ddm|= 1.22e-06
converged SCF energy = -0.907804773937381
**** generating mix guess ****
rotating angle: 0.25 pi


******** <class 'pyscf.scf.uhf.UHF'> ********
method = UHF
initial guess = minao
damping factor = 0
level_shift factor = 0
DIIS = <class 'pyscf.scf.diis.CDIIS'>
diis_start_cycle = 1
diis_space = 8
SCF conv_tol = 1e-09
SCF conv_tol_grad = None
SCF max_cycles = 100
direct_scf = True
direct_scf_tol = 1e-13
chkfile to save SCF result = /share/home/srwang/ExSCF/examples/tmpo765aavw
max_memory 4000 MB (current use 114 MB)
number electrons alpha = 1  beta = 1
Set gradient conv threshold to 3.16228e-05
init E= -1.69135654891561
  alpha nocc = 1  HOMO = -0.24136263647573  LUMO = 0.900983838942928
  beta  nocc = 1  HOMO = -0.24136263647573  LUMO = 0.900983838942928
cycle= 1 E= -0.985589254636279  delta_E= 0.706  |g|= 0.0835  |ddm|= 1.15
  alpha nocc = 1  HOMO = -0.500699367107886  LUMO = 0.115721881429081
  beta  nocc = 1  HOMO = -0.500699367107887  LUMO = 0.115721881429081
cycle= 2 E= -0.995568238270465  delta_E= -0.00998  |g|= 0.0263  |ddm|= 0.145
  alpha nocc = 1  HOMO = -0.497083605541942  LUMO = 0.125003394565144
  beta  nocc = 1  HOMO = -0.497083605541942  LUMO = 0.125003394565144
cycle= 3 E= -0.996982488678898  delta_E= -0.00141  |g|= 0.00453  |ddm|= 0.0714
  alpha nocc = 1  HOMO = -0.492766860752049  LUMO = 0.118670910813591
  beta  nocc = 1  HOMO = -0.492766860752048  LUMO = 0.118670910813591
cycle= 4 E= -0.997011162805864  delta_E= -2.87e-05  |g|= 0.000416  |ddm|= 0.00998
  alpha nocc = 1  HOMO = -0.494395497533041  LUMO = 0.120246563561694
  beta  nocc = 1  HOMO = -0.49439549753304  LUMO = 0.120246563561694
cycle= 5 E= -0.997011453176457  delta_E= -2.9e-07  |g|= 3.04e-05  |ddm|= 0.00094
  alpha nocc = 1  HOMO = -0.494331180495959  LUMO = 0.120178766572745
  beta  nocc = 1  HOMO = -0.494331180495959  LUMO = 0.120178766572745
cycle= 6 E= -0.997011455175521  delta_E= -2e-09  |g|= 5.7e-07  |ddm|= 7.89e-05
  alpha nocc = 1  HOMO = -0.494330560129535  LUMO = 0.12017816088352
  beta  nocc = 1  HOMO = -0.494330560129534  LUMO = 0.12017816088352
cycle= 7 E= -0.997011455176148  delta_E= -6.27e-13  |g|= 2.53e-07  |ddm|= 8.43e-07
  alpha nocc = 1  HOMO = -0.494330110948441  LUMO = 0.12017775506829
  beta  nocc = 1  HOMO = -0.494330110948441  LUMO = 0.12017775506829
Extra cycle  E= -0.997011455176267  delta_E= -1.19e-13  |g|= 1.16e-07  |ddm|= 3.54e-07
converged SCF energy = -0.997011455176267  <S^2> = 0.91048301  2S+1 = 2.1545143
**** checking UHF/UKS internal stability ...
tol 0.0001  toloose 0.01
max_cycle 50  max_space 12  max_memory 2000  incore True
davidson 0 1  |r|= 0.861  e= [1.13705881]  max|de|= 1.14  lindep= 0.529
davidson 1 2  |r|= 0.119  e= [0.67139996]  max|de|= -0.466  lindep= 0.998
Throwing out eigenvector 0 with norm=8.95e-16
davidson 2 3  |r|= 8.95e-16  e= [0.66357818]  max|de|= -0.00782  lindep=    1
Linear dependency in trial subspace. |r| for each state [8.950652031455689e-16]
UHF/UKS wavefunction is stable in the internal stability analysis
time for guess: 0.093

******** <class 'pyphf.suscf.SUHF'> ********
Date: Fri Jun 25 21:21:12 2021
pyphf version 0.4.0
pyphf path  /share/home/srwang/ExSCF
GIT ORIG_HEAD 198e48480b188f02e90f0e6e8cbbe5568091e1c6
GIT HEAD (branch main) 3a7567b43cac1d3ef6f90b9ce7dec827e06d0edf
max_cycle: 70
verbose: 4                # normal
conv_tol: 1e-07               # 1e-07 for RMSD(dm), 1e-05 for MaxD(dm), 1e-09 for dE
chkfile0: 21401_ges.pchk # the file store hf for guess
chkfile:  21401_su.pchk # the file store suhf info
DIIS: <class 'pyscf.scf.diis.CDIIS'>
diis_start_cyc = 10
grids:  [0.06237655 0.31939555 0.74529195 1.28265786 1.85893479 2.39630071
 2.8221971  3.07921611] 
weights:  [0.15900941 0.34931531 0.49276925 0.56970235 0.56970235 0.49276925
 0.34931531 0.15900941]
S = 0.0, Sz = 0.0
Wigner small d:  1
value : [1. 1. 1. 1. 1. 1. 1. 1.]
time for Preparation before cyc: 0.101
**** Start Cycle 1 ****
time for NO, Ng: 0.009
time for Gg: 0.021
detC 0.9999999999999998
detNg [ 1.000886  1.023566  1.137254  1.483408  2.407356  4.757236  8.885678 11.06166 ]
xg [0.999115 0.976976 0.879311 0.674124 0.415393 0.210206 0.112541 0.090402]
ciS 1.089516994029022
ciH -1.3881309806330582
S2 = 0.000000
Hsp + Hph =  -1.2740792371670724
Alpha occ 1 vir 3; Beta occ 1 vir 3
Alpha energies:  [-0.494537] <- HOMO
         LUMO->  [0.12021  1.099203 1.281937]
Beta energies:   [-0.494537] <- HOMO
         LUMO->  [0.12021  1.099203 1.281937]
time for xg, H, S2, Yg, Feff: 0.018
 E =     -1.00949063
**** Start Cycle 2 ****
time for NO, Ng: 0.009
time for Gg: 0.021
detC 1.0000000000000002
detNg [ 1.000896  1.023824  1.138921  1.491095  2.444038  4.955808  9.701538 12.391262]
xg [0.999105 0.976731 0.878024 0.670648 0.409159 0.201783 0.103076 0.080702]
ciS 1.079807244338565
ciH -1.3762059921026952
S2 = 0.000000
Hsp + Hph =  -1.2744922756521135
Alpha occ 1 vir 3; Beta occ 1 vir 3
Alpha energies:  [-0.495042] <- HOMO
         LUMO->  [0.121095 1.098666 1.282081]
Beta energies:   [-0.495042] <- HOMO
         LUMO->  [0.121095 1.098666 1.282081]
time for xg, H, S2, Yg, Feff: 0.017
 E =     -1.00990367, delta E = -0.000413038, MaxD(dm) =  0.0025053, RMSD(dm) = 0.00123863
**** Start Cycle 3 ****
time for NO, Ng: 0.009
time for Gg: 0.021
detC 0.9999999999999997
detNg [ 1.000893  1.023753  1.138461  1.488966  2.433808  4.899398  9.461901 11.993611]
xg [0.999108 0.976799 0.878379 0.671607 0.410879 0.204107 0.105687 0.083378]
ciS 1.0824855371541267
ciH -1.3796559397301533
S2 = -0.000000
Hsp + Hph =  -1.274525979679408
Alpha occ 1 vir 3; Beta occ 1 vir 3
Alpha energies:  [-0.494722] <- HOMO
         LUMO->  [0.121484 1.098803 1.28314 ]
Beta energies:   [-0.494722] <- HOMO
         LUMO->  [0.121484 1.098803 1.28314 ]
time for xg, H, S2, Yg, Feff: 0.017
 E =     -1.00993737, delta E = -3.3704e-05, MaxD(dm) = 0.000850053, RMSD(dm) = 0.000393751
**** Start Cycle 4 ****
time for NO, Ng: 0.009
time for Gg: 0.021
detC 0.9999999999999997
detNg [ 1.000893  1.023757  1.13849   1.4891    2.434449  4.902905  9.476608 12.017843]
xg [0.999108 0.976794 0.878357 0.671547 0.410771 0.203961 0.105523 0.08321 ]
ciS 1.0823172610257314
ciH -1.3794479334848084
S2 = 0.000000
Hsp + Hph =  -1.2745319539461848
Alpha occ 1 vir 3; Beta occ 1 vir 3
Alpha energies:  [-0.494683] <- HOMO
         LUMO->  [0.121733 1.098807 1.283572]
Beta energies:   [-0.494683] <- HOMO
         LUMO->  [0.121733 1.098807 1.283572]
time for xg, H, S2, Yg, Feff: 0.017
 E =     -1.00994335, delta E = -5.97427e-06, MaxD(dm) = 0.00038803, RMSD(dm) = 0.000185775
**** Start Cycle 5 ****
time for NO, Ng: 0.009
time for Gg: 0.021
detC 0.9999999999999998
detNg [ 1.000893  1.023753  1.138464  1.488979  2.433867  4.899721  9.463252 11.995836]
xg [0.999108 0.976798 0.878377 0.671601 0.410869 0.204093 0.105672 0.083362]
ciS 1.082470059080236
ciH -1.3796440036706785
S2 = 0.000000
Hsp + Hph =  -1.2745331772436719
Alpha occ 1 vir 3; Beta occ 1 vir 3
Alpha energies:  [-0.494647] <- HOMO
         LUMO->  [0.121837 1.098818 1.283784]
Beta energies:   [-0.494647] <- HOMO
         LUMO->  [0.121837 1.098818 1.283784]
time for xg, H, S2, Yg, Feff: 0.017
 E =     -1.00994457, delta E = -1.2233e-06, MaxD(dm) = 0.000178398, RMSD(dm) = 8.25795e-05
**** Start Cycle 6 ****
time for NO, Ng: 0.009
time for Gg: 0.021
detC 1.0000000000000002
detNg [ 1.000893  1.023752  1.138458  1.488953  2.433746  4.899057  9.460472 11.991258]
xg [0.999108 0.976799 0.878381 0.671613 0.410889 0.204121 0.105703 0.083394]
ciS 1.0825019194447392
ciH -1.3796848885446305
S2 = -0.000000
Hsp + Hph =  -1.274533433855091
Alpha occ 1 vir 3; Beta occ 1 vir 3
Alpha energies:  [-0.494633] <- HOMO
         LUMO->  [0.121887 1.098822 1.283879]
Beta energies:   [-0.494633] <- HOMO
         LUMO->  [0.121887 1.098822 1.283879]
time for xg, H, S2, Yg, Feff: 0.017
 E =     -1.00994483, delta E = -2.56611e-07, MaxD(dm) = 8.18935e-05, RMSD(dm) = 3.82914e-05
**** Start Cycle 7 ****
time for NO, Ng: 0.009
time for Gg: 0.021
detC 1.0
detNg [ 1.000893  1.023752  1.138454  1.488936  2.433663  4.898603  9.45857  11.988126]
xg [0.999108 0.976799 0.878384 0.671621 0.410903 0.20414  0.105724 0.083416]
ciS 1.0825237229564277
ciH -1.3797127363611232
S2 = -0.000000
Hsp + Hph =  -1.2745334879064423
Alpha occ 1 vir 3; Beta occ 1 vir 3
Alpha energies:  [-0.494627] <- HOMO
         LUMO->  [0.121909 1.098824 1.283923]
Beta energies:   [-0.494627] <- HOMO
         LUMO->  [0.121909 1.098824 1.283923]
time for xg, H, S2, Yg, Feff: 0.017
 E =     -1.00994488, delta E = -5.40514e-08, MaxD(dm) = 3.76247e-05, RMSD(dm) = 1.75161e-05
**** Start Cycle 8 ****
time for NO, Ng: 0.009
time for Gg: 0.021
detC 0.9999999999999999
detNg [ 1.000893  1.023751  1.138453  1.488929  2.433629  4.898418  9.457792 11.986845]
xg [0.999108 0.9768   0.878385 0.671624 0.410909 0.204148 0.105733 0.083425]
ciS 1.0825326468954957
ciH -1.3797241225564891
S2 = -0.000000
Hsp + Hph =  -1.274533499302108
Alpha occ 1 vir 3; Beta occ 1 vir 3
Alpha energies:  [-0.494623] <- HOMO
         LUMO->  [0.121919 1.098825 1.283943]
Beta energies:   [-0.494623] <- HOMO
         LUMO->  [0.121919 1.098825 1.283943]
time for xg, H, S2, Yg, Feff: 0.017
 E =     -1.00994489, delta E = -1.13957e-08, MaxD(dm) = 1.72796e-05, RMSD(dm) = 8.0568e-06
**** Start Cycle 9 ****
time for NO, Ng: 0.009
time for Gg: 0.021
detC 0.9999999999999998
detNg [ 1.000893  1.023751  1.138452  1.488926  2.433613  4.898328  9.457415 11.986225]
xg [0.999108 0.9768   0.878386 0.671625 0.410912 0.204151 0.105737 0.083429]
ciS 1.082536969254702
ciH -1.3797296341496916
S2 = 0.000000
Hsp + Hph =  -1.2745335017053494
Alpha occ 1 vir 3; Beta occ 1 vir 3
Alpha energies:  [-0.494622] <- HOMO
         LUMO->  [0.121924 1.098825 1.283952]
Beta energies:   [-0.494622] <- HOMO
         LUMO->  [0.121924 1.098825 1.283952]
time for xg, H, S2, Yg, Feff: 0.017
 E =     -1.00994490, delta E = -2.40324e-09, MaxD(dm) = 7.93664e-06, RMSD(dm) = 3.69826e-06
**** Start Cycle 10 ****
time for NO, Ng: 0.009
time for Gg: 0.021
detC 0.9999999999999996
detNg [ 1.000893  1.023751  1.138452  1.488924  2.433605  4.898287  9.457245 11.985944]
xg [0.999108 0.9768   0.878386 0.671626 0.410913 0.204153 0.105739 0.083431]
ciS 1.0825389234476297
ciH -1.3797321253827628
S2 = 0.000000
Hsp + Hph =  -1.2745335022122284
F(mod,ortho) updated with CDIIS
Alpha occ 1 vir 3; Beta occ 1 vir 3
Alpha energies:  [-0.494621] <- HOMO
         LUMO->  [0.121926 1.098825 1.283957]
Beta energies:   [-0.494621] <- HOMO
         LUMO->  [0.121926 1.098825 1.283957]
time for xg, H, S2, Yg, Feff: 0.017
 E =     -1.00994490, delta E = -5.06879e-10, MaxD(dm) = 3.64511e-06, RMSD(dm) = 1.69889e-06
**** Start Cycle 11 ****
time for NO, Ng: 0.009
time for Gg: 0.021
detC 1.0
detNg [ 1.000893  1.023751  1.138452  1.488923  2.433602  4.898268  9.457166 11.985815]
xg [0.999108 0.9768   0.878386 0.671626 0.410914 0.204154 0.10574  0.083432]
ciS 1.0825398280074383
ciH -1.379733278390282
S2 = -0.000000
Hsp + Hph =  -1.2745335023191422
F(mod,ortho) updated with CDIIS
Alpha occ 1 vir 3; Beta occ 1 vir 3
Alpha energies:  [-0.494621] <- HOMO
         LUMO->  [0.121928 1.098825 1.28396 ]
Beta energies:   [-0.494621] <- HOMO
         LUMO->  [0.121928 1.098825 1.28396 ]
time for xg, H, S2, Yg, Feff: 0.018
 E =     -1.00994490, delta E = -1.06914e-10, MaxD(dm) = 3.09615e-06, RMSD(dm) = 1.4429e-06
**** Start Cycle 12 ****
time for NO, Ng: 0.009
time for Gg: 0.021
detC -0.9999999999999998
detNg [ 1.000893  1.023751  1.138451  1.488923  2.433599  4.898252  9.457099 11.985705]
xg [0.999108 0.9768   0.878386 0.671627 0.410914 0.204154 0.105741 0.083433]
ciS 1.0825405947341329
ciH -1.3797342556400793
S2 = 0.000000
Hsp + Hph =  -1.2745335023477213
F(mod,ortho) updated with CDIIS
Alpha occ 1 vir 3; Beta occ 1 vir 3
Alpha energies:  [-0.494621] <- HOMO
         LUMO->  [0.121928 1.098825 1.28396 ]
Beta energies:   [-0.494621] <- HOMO
         LUMO->  [0.121928 1.098825 1.28396 ]
time for xg, H, S2, Yg, Feff: 0.018

***************
SUHF converged at cycle 12
Final E(SUHF) =     -1.00994490, delta E = -2.85791e-11, MaxD(dm) = 3.05895e-10, RMSD(dm) = 1.15461e-10
time for cyc: 0.561
******* suhf density *****
Clebsch-Gordan coeff: < 0 0 0 0 | 0 0 > = 1
Clebsch-Gordan coeff: < 0 0 1 0 | 0 0 > = 0
xggint 1.0000000000000002
time for 1pdm: 0.022
SUHF NO occ alpha:  0.765393  0.234607  ...
SUHF NO occ beta:   0.765393  0.234607  ...
SUHF NO occ total:  1.530786  0.469214  ...
core 0, active 2, external 2
time for natorb: 0.001
***** End of SUHF *****
time tot: 0.684
Date: Fri Jun 25 21:21:12 2021
