#INFO: **** input file is /share/home/srwang/ExSCF/examples/05-ethylene-from_fchk.py ****
#import phf
from pyscf import gto, scf, lib
#import scipy
#import numpy as np
import sys

from pyphf import util, guess

lib.num_threads(4)

xyz = 'eth.xyz' #sys.argv[1]
fch = 'eth_uhf.fch' #sys.argv[2]
bas = 'def2svp'


mf = guess.from_fchk(xyz, bas, fch)

mf2 = util.SUHF(mf)
#mf2.cut_no = False
#mf2.debug = False
mf2.diis_on = True
#mf2.diis_start_cyc = 20
mf2.max_cycle = 100
mf2.tofch = True
mf2.oldfch = fch
mf2.kernel()

# E = -77.94113090
#INFO: ******************** input file end ********************


System: uname_result(system='Linux', node='xn01', release='3.10.0-1127.el7.x86_64', version='#1 SMP Tue Feb 18 16:39:12 EST 2020', machine='x86_64', processor='x86_64')  Threads 4
Python 3.7.4 (default, Aug 13 2019, 20:35:49) 
[GCC 7.3.0]
numpy 1.17.2  scipy 1.4.1
Date: Sun Mar 28 22:19:53 2021
PySCF version 1.7.6a1
PySCF path  /share/home/srwang/pyscf/pyscf
GIT HEAD      ref: refs/heads/master
GIT master branch  80f71dfe77ac5f9caae26788acf76446987635bd

[CONFIG] conf_file None
[INPUT] verbose = 4
[INPUT] num. atoms = 6
[INPUT] num. electrons = 16
[INPUT] charge = 0
[INPUT] spin (= nelec alpha-beta = 2S) = 0
[INPUT] symmetry False subgroup None
[INPUT] Mole.unit = angstrom
[INPUT]  1 C      0.732363000000  -0.000012000000  -0.000020000000 AA    1.383965493765  -0.000022676713  -0.000037794522 Bohr
[INPUT]  2 H      1.301788000000  -0.654778000000   0.654835000000 AA    2.460022792245  -1.237351092390   1.237458806780 Bohr
[INPUT]  3 H      1.301802000000   0.654848000000  -0.654762000000 AA    2.460049248411   1.237483373219  -1.237320856772 Bohr
[INPUT]  4 C     -0.732363000000  -0.000012000000   0.000020000000 AA   -1.383965493765  -0.000022676713   0.000037794522 Bohr
[INPUT]  5 H     -1.301788000000  -0.654778000000  -0.654836000000 AA   -2.460022792245  -1.237351092390  -1.237460696506 Bohr
[INPUT]  6 H     -1.301802000000   0.654848000000   0.654762000000 AA   -2.460049248411   1.237483373219   1.237320856772 Bohr

nuclear repulsion = 31.6688662156725
number of shells = 24
number of NR pGTOs = 76
number of NR cGTOs = 48
basis = def2svp
ecp = {}
CPU time:         1.05


******** <class 'pyscf.scf.uhf.UHF'> ********
method = UHF
initial guess = minao
damping factor = 0
level_shift factor = 0
DIIS = <class 'pyscf.scf.diis.CDIIS'>
diis_start_cycle = 1
diis_space = 8
SCF conv_tol = 1e-09
SCF conv_tol_grad = None
SCF max_cycles = 1
direct_scf = True
direct_scf_tol = 1e-13
chkfile to save SCF result = /share/home/srwang/ExSCF/examples/tmp1jlgi56n
max_memory 4000 MB (current use 106 MB)
number electrons alpha = 8  beta = 8
Set gradient conv threshold to 3.16228e-05
init E= -77.8607482667638

WARN: alpha nocc = 8  HOMO -0.0699875702040905 >= LUMO -0.0699824119190824


WARN: beta  nocc = 8  HOMO -0.0727456599621132 >= LUMO -0.0727404784836777


WARN: system HOMO -0.0727456599621132 >= system LUMO -0.0727404784836777

cycle= 1 E= -77.7761494066781  delta_E= 0.0846  |g|= 0.176  |ddm|= 1.59
SCF not converged.
SCF energy = -77.7761494066781 after 1 cycles  <S^2> = 0.00022788862  2S+1 = 1.0004557


******** <class 'pyscf.scf.uhf.UHF'> ********
method = UHF
initial guess = minao
damping factor = 0
level_shift factor = 0
DIIS = <class 'pyscf.scf.diis.CDIIS'>
diis_start_cycle = 1
diis_space = 8
SCF conv_tol = 1e-09
SCF conv_tol_grad = None
SCF max_cycles = 1
direct_scf = True
direct_scf_tol = 1e-13
chkfile to save SCF result = /share/home/srwang/ExSCF/examples/tmp1jlgi56n
max_memory 4000 MB (current use 116 MB)
number electrons alpha = 8  beta = 8
Set gradient conv threshold to 3.16228e-05
init E= -77.9145240063808
  alpha nocc = 8  HOMO = -0.365487687087793  LUMO = 0.143722743506322
  beta  nocc = 8  HOMO = -0.36548767279513  LUMO = 0.143722752909899
cycle= 1 E= -77.9145239900241  delta_E= 1.64e-08  |g|= 6.49e-09  |ddm|= 3.03e-08
SCF not converged.
SCF energy = -77.9145239900241 after 1 cycles  <S^2> = 1.0342838  2S+1 = 2.2665249

******** <class 'pyphf.util.SUHF'> ********
max_cycle = 100
verbose: 4, normal
DIIS: <class 'pyscf.scf.diis.CDIIS'>
diis_start_cyc = 10
grids:  [0.06237655 0.31939555 0.74529195 1.28265786 1.85893479 2.39630071
 2.8221971  3.07921611] 
weights:  [0.15900941 0.34931531 0.49276925 0.56970235 0.56970235 0.49276925
 0.34931531 0.15900941]
S = 0.0, Sz = 0.0
Wigner small d:  1
value : [1. 1. 1. 1. 1. 1. 1. 1.]
time for Preparation before cyc: 0.005
**** Start Cycle 1 ****
time for NO, Ng: 0.015
time for Gg: 0.399
detC -1.0000000000000047
detNg [   1.001007    1.026833    1.158065    1.576686    2.856305    7.772599   40.894921 1064.375844]
xg [0.998994 0.973868 0.86351  0.634242 0.350103 0.128657 0.024453 0.00094 ]
ciS 0.988645978779812
ciH -108.34633289824984
S2 = 0.000000
Hsp + Hph =  -109.59062720506992
Alpha occ 8 vir 40; Beta occ 8 vir 40
Alpha energies:  [-0.988433 -0.780787 -0.589409 -0.577018 -0.559992 -0.365495] <- HOMO
         LUMO->  [0.143724 0.215133 0.227042 0.271158 0.273195 0.440799]
Beta energies:   [-0.988433 -0.780787 -0.589409 -0.577018 -0.559992 -0.365495] <- HOMO
         LUMO->  [0.143724 0.215133 0.227042 0.271158 0.273195 0.440799]
time for xg, H, S2, Yg, Feff: 0.026
 E(SUHF) =    -77.92176099
**** Start Cycle 2 ****
time for NO, Ng: 0.014
time for Gg: 0.392
detC -1.0000000000000022
detNg [   1.001033    1.027522    1.162146    1.591777    2.90571     7.955288   41.978006 1093.286886]
xg [0.998969 0.973215 0.860477 0.628229 0.34415  0.125703 0.023822 0.000915]
ciS 0.9799680555888044
ciH -107.40070750568536
S2 = 0.000000
Hsp + Hph =  -109.59613111179904
Alpha occ 8 vir 40; Beta occ 8 vir 40
Alpha energies:  [-0.989471 -0.780008 -0.591006 -0.576234 -0.56054  -0.370103] <- HOMO
         LUMO->  [0.146943 0.214778 0.227382 0.270674 0.273666 0.440722]
Beta energies:   [-0.989471 -0.780008 -0.591006 -0.576234 -0.56054  -0.370103] <- HOMO
         LUMO->  [0.146943 0.214778 0.227382 0.270674 0.273666 0.440722]
time for xg, H, S2, Yg, Feff: 0.025
 E(SUHF) =    -77.92726490, delta E = -0.00550391, MaxD(dm) = 0.00936298, RMSD(dm) =   0.052422
**** Start Cycle 3 ****
time for NO, Ng: 0.014
time for Gg: 0.396
detC 1.000000000000005
detNg [   1.00106     1.028254    1.166501    1.608005    2.959359    8.155237   43.167873 1125.075401]
xg [0.998941 0.972523 0.857264 0.621889 0.337911 0.122621 0.023165 0.000889]
ciS 0.9708450452702568
ciH -106.40447555492135
S2 = 0.000000
Hsp + Hph =  -109.5998543467884
Alpha occ 8 vir 40; Beta occ 8 vir 40
Alpha energies:  [-0.989257 -0.778606 -0.591695 -0.575127 -0.560257 -0.37342 ] <- HOMO
         LUMO->  [0.149892 0.214605 0.227789 0.27034  0.27435  0.440996]
Beta energies:   [-0.989257 -0.778606 -0.591695 -0.575127 -0.560257 -0.37342 ] <- HOMO
         LUMO->  [0.149892 0.214605 0.227789 0.27034  0.27435  0.440996]
time for xg, H, S2, Yg, Feff: 0.026
 E(SUHF) =    -77.93098813, delta E = -0.00372323, MaxD(dm) = 0.00693361, RMSD(dm) =  0.0447125
**** Start Cycle 4 ****
time for NO, Ng: 0.014
time for Gg: 0.394
detC 0.999999999999998
detNg [   1.001087    1.02898     1.170836    1.624282    3.013705    8.359395   44.387424 1157.685173]
xg [0.998914 0.971837 0.854091 0.615657 0.331817 0.119626 0.022529 0.000864]
ciS 0.9619056259220939
ciH -105.4272391276262
S2 = 0.000000
Hsp + Hph =  -109.6024768818276
Alpha occ 8 vir 40; Beta occ 8 vir 40
Alpha energies:  [-0.98925  -0.777429 -0.592228 -0.574474 -0.560241 -0.376332] <- HOMO
         LUMO->  [0.152028 0.214449 0.228093 0.269964 0.274982 0.441111]
Beta energies:   [-0.98925  -0.777429 -0.592228 -0.574474 -0.560241 -0.376332] <- HOMO
         LUMO->  [0.152028 0.214449 0.228093 0.269964 0.274982 0.441111]
time for xg, H, S2, Yg, Feff: 0.027
 E(SUHF) =    -77.93361067, delta E = -0.00262254, MaxD(dm) = 0.00586201, RMSD(dm) =  0.0385738
**** Start Cycle 5 ****
time for NO, Ng: 0.014
time for Gg: 0.401
detC -0.9999999999999959
detNg [   1.001113    1.029672    1.174988    1.639987    3.066642    8.559778   45.588815 1189.83614 ]
xg [0.998888 0.971183 0.851073 0.609761 0.32609  0.116825 0.021935 0.00084 ]
ciS 0.9534748250595022
ciH -104.50501832365264
S2 = 0.000000
Hsp + Hph =  -109.60438133972853
Alpha occ 8 vir 40; Beta occ 8 vir 40
Alpha energies:  [-0.989182 -0.776316 -0.592454 -0.573981 -0.560135 -0.37863 ] <- HOMO
         LUMO->  [0.153771 0.214356 0.228375 0.269611 0.275614 0.441263]
Beta energies:   [-0.989182 -0.776315 -0.592454 -0.573981 -0.560135 -0.37863 ] <- HOMO
         LUMO->  [0.153771 0.214356 0.228375 0.269611 0.275614 0.441263]
time for xg, H, S2, Yg, Feff: 0.032
 E(SUHF) =    -77.93551512, delta E = -0.00190446, MaxD(dm) = 0.00543573, RMSD(dm) =  0.0335159
**** Start Cycle 6 ****
time for NO, Ng: 0.018
time for Gg: 0.396
detC -1.0000000000000018
detNg [   1.001137    1.030319    1.178873    1.654785    3.116961    8.751615   46.742921 1220.745823]
xg [0.998864 0.970573 0.848268 0.604308 0.320825 0.114265 0.021394 0.000819]
ciS 0.945701279217639
ciH -103.65434066168241
S2 = 0.000000
Hsp + Hph =  -109.6057951274357
Alpha occ 8 vir 40; Beta occ 8 vir 40
Alpha energies:  [-0.989217 -0.775359 -0.592514 -0.573692 -0.560061 -0.380499] <- HOMO
         LUMO->  [0.155139 0.214302 0.22862  0.269268 0.276204 0.441393]
Beta energies:   [-0.989217 -0.775359 -0.592514 -0.573692 -0.560061 -0.380499] <- HOMO
         LUMO->  [0.155139 0.214302 0.22862  0.269268 0.276204 0.441393]
time for xg, H, S2, Yg, Feff: 0.025
 E(SUHF) =    -77.93692891, delta E = -0.00141379, MaxD(dm) = 0.00497824, RMSD(dm) =  0.0292353
**** Start Cycle 7 ****
time for NO, Ng: 0.014
time for Gg: 0.395
detC 0.9999999999999968
detNg [   1.001159    1.030912    1.18245     1.668497    3.16397     8.932014   47.831657 1249.925807]
xg [0.998842 0.970015 0.845702 0.599342 0.316059 0.111957 0.020907 0.0008  ]
ciS 0.9386409088889669
ciH -102.88148146879318
S2 = -0.000000
Hsp + Hph =  -109.60685869804041
Alpha occ 8 vir 40; Beta occ 8 vir 40
Alpha energies:  [-0.989308 -0.774527 -0.592439 -0.573532 -0.55998  -0.381989] <- HOMO
         LUMO->  [0.156239 0.214282 0.228839 0.268947 0.276751 0.441522]
Beta energies:   [-0.989308 -0.774527 -0.592439 -0.573532 -0.55998  -0.381989] <- HOMO
         LUMO->  [0.156239 0.214282 0.228839 0.268947 0.276751 0.441522]
time for xg, H, S2, Yg, Feff: 0.026
 E(SUHF) =    -77.93799248, delta E = -0.00106357, MaxD(dm) = 0.00450453, RMSD(dm) =  0.0255232
**** Start Cycle 8 ****
time for NO, Ng: 0.014
time for Gg: 0.395
detC 0.9999999999999969
detNg [   1.001179    1.03145     1.185704    1.681042    3.207295    9.099277   48.844042 1277.077371]
xg [0.998822 0.969509 0.843381 0.594869 0.311789 0.109899 0.020473 0.000783]
ciS 0.9322991758502934
ciH -102.18713404595866
S2 = -0.000000
Hsp + Hph =  -109.60766317610435
Alpha occ 8 vir 40; Beta occ 8 vir 40
Alpha energies:  [-0.989452 -0.773816 -0.59228  -0.573477 -0.559905 -0.383186] <- HOMO
         LUMO->  [0.157121 0.214284 0.229032 0.268651 0.277247 0.44164 ]
Beta energies:   [-0.989452 -0.773816 -0.59228  -0.573477 -0.559905 -0.383186] <- HOMO
         LUMO->  [0.157121 0.214284 0.229032 0.268651 0.277247 0.44164 ]
time for xg, H, S2, Yg, Feff: 0.025
 E(SUHF) =    -77.93879696, delta E = -0.000804478, MaxD(dm) = 0.00403328, RMSD(dm) =  0.0222517
**** Start Cycle 9 ****
time for NO, Ng: 0.014
time for Gg: 0.393
detC 1.000000000000001
detNg [   1.001197    1.031933    1.188633    1.692393    3.246762    9.252478   49.773761 1302.026836]
xg [0.998804 0.969055 0.841303 0.590879 0.307999 0.108079 0.020091 0.000768]
ciS 0.926654892899531
ciH -101.56904095659856
S2 = -0.000000
Hsp + Hph =  -109.60827135848383
Alpha occ 8 vir 40; Beta occ 8 vir 40
Alpha energies:  [-0.989625 -0.773206 -0.59207  -0.573493 -0.559835 -0.384145] <- HOMO
         LUMO->  [0.157832 0.214302 0.229201 0.268383 0.277691 0.441747]
Beta energies:   [-0.989625 -0.773206 -0.59207  -0.573493 -0.559835 -0.384145] <- HOMO
         LUMO->  [0.157832 0.214302 0.229201 0.268383 0.277691 0.441747]
time for xg, H, S2, Yg, Feff: 0.025
 E(SUHF) =    -77.93940514, delta E = -0.000608182, MaxD(dm) = 0.00357712, RMSD(dm) =  0.0193435
**** Start Cycle 10 ****
time for NO, Ng: 0.014
time for Gg: 0.396
detC 0.9999999999999972
detNg [   1.001213    1.032364    1.191245    1.702564    3.282339    9.391256   50.617945 1324.693152]
xg [0.998788 0.968651 0.839458 0.587349 0.304661 0.106482 0.019756 0.000755]
ciS 0.9216718191353395
ciH -101.02327673644419
S2 = -0.000000
Hsp + Hph =  -109.60872909320211
F(mod,ortho) updated with CDIIS
Alpha occ 8 vir 40; Beta occ 8 vir 40
Alpha energies:  [-0.989814 -0.772685 -0.591835 -0.573559 -0.559771 -0.384916] <- HOMO
         LUMO->  [0.158407 0.214329 0.229348 0.268142 0.278083 0.441842]
Beta energies:   [-0.989814 -0.772685 -0.591835 -0.573559 -0.559771 -0.384916] <- HOMO
         LUMO->  [0.158407 0.214329 0.229348 0.268142 0.278083 0.441842]
time for xg, H, S2, Yg, Feff: 0.027
 E(SUHF) =    -77.93986288, delta E = -0.000457735, MaxD(dm) =   0.003146, RMSD(dm) =  0.0167531
**** Start Cycle 11 ****
time for NO, Ng: 0.014
time for Gg: 0.399
detC 0.9999999999999999
detNg [   1.001227    1.032743    1.193555    1.711594    3.314099    9.515685   51.376448 1345.068793]
xg [0.998774 0.968295 0.837833 0.584251 0.301741 0.10509  0.019464 0.000743]
ciS 0.9173048922666494
ciH -100.5449373425847
S2 = -0.000000
Hsp + Hph =  -109.60907130249724
F(mod,ortho) updated with CDIIS
Alpha occ 8 vir 40; Beta occ 8 vir 40
Alpha energies:  [-0.991448 -0.770065 -0.590772 -0.574792 -0.560055 -0.389098] <- HOMO
         LUMO->  [0.161515 0.214622 0.230288 0.266865 0.2805   0.442576]
Beta energies:   [-0.991448 -0.770065 -0.590771 -0.574792 -0.560055 -0.389098] <- HOMO
         LUMO->  [0.161515 0.214622 0.230288 0.266865 0.2805   0.442576]
time for xg, H, S2, Yg, Feff: 0.026
 E(SUHF) =    -77.94020509, delta E = -0.000342209, MaxD(dm) =  0.0181226, RMSD(dm) =  0.0957439
**** Start Cycle 12 ****
time for NO, Ng: 0.014
time for Gg: 0.395
detC -1.000000000000005
detNg [   1.001316    1.035127    1.208161    1.769546    3.521837   10.342434   56.454805 1481.726723]
xg [0.998686 0.966065 0.827704 0.565117 0.283943 0.096689 0.017713 0.000675]
ciS 0.8905012919891798
ciH -97.6078203031262
S2 = -0.000000
Hsp + Hph =  -109.60997045281346
F(mod,ortho) updated with CDIIS
Alpha occ 8 vir 40; Beta occ 8 vir 40
Alpha energies:  [-0.989914 -0.769377 -0.588521 -0.572873 -0.557463 -0.386788] <- HOMO
         LUMO->  [0.160272 0.214411 0.229776 0.266788 0.27945  0.441832]
Beta energies:   [-0.989914 -0.769377 -0.588521 -0.572873 -0.557463 -0.386788] <- HOMO
         LUMO->  [0.160272 0.214411 0.229776 0.266788 0.27945  0.441832]
time for xg, H, S2, Yg, Feff: 0.026
 E(SUHF) =    -77.94110424, delta E = -0.00089915, MaxD(dm) = 0.00584731, RMSD(dm) =  0.0345112
**** Start Cycle 13 ****
time for NO, Ng: 0.014
time for Gg: 0.396
detC 1.000000000000003
detNg [   1.00128     1.034159    1.20221     1.745744    3.435631    9.996469   54.321064 1424.254854]
xg [0.998721 0.966969 0.831802 0.572822 0.291067 0.100035 0.018409 0.000702]
ciS 0.9012652133748965
ciH -98.78757513149235
S2 = -0.000000
Hsp + Hph =  -109.60988360082193
F(mod,ortho) updated with CDIIS
Alpha occ 8 vir 40; Beta occ 8 vir 40
Alpha energies:  [-0.990891 -0.769672 -0.589156 -0.574057 -0.558586 -0.387648] <- HOMO
         LUMO->  [0.160541 0.214516 0.229958 0.266705 0.279917 0.442055]
Beta energies:   [-0.990891 -0.769672 -0.589156 -0.574057 -0.558586 -0.387648] <- HOMO
         LUMO->  [0.160541 0.214516 0.229958 0.266705 0.279917 0.442055]
time for xg, H, S2, Yg, Feff: 0.027
 E(SUHF) =    -77.94101739, delta E = 8.6852e-05, MaxD(dm) = 0.00321155, RMSD(dm) =  0.0166938
**** Start Cycle 14 ****
time for NO, Ng: 0.014
time for Gg: 0.395
detC 1.0000000000000004
detNg [   1.001296    1.034588    1.204841    1.756231    3.473444   10.147662   55.251872 1449.315619]
xg [0.998706 0.966569 0.829985 0.569401 0.287899 0.098545 0.018099 0.00069 ]
ciS 0.8964827556820727
ciH -98.26344797189543
S2 = -0.000000
Hsp + Hph =  -109.60997001792128
F(mod,ortho) updated with CDIIS
Alpha occ 8 vir 40; Beta occ 8 vir 40
Alpha energies:  [-0.991387 -0.769733 -0.589486 -0.574781 -0.559209 -0.388109] <- HOMO
         LUMO->  [0.160892 0.214623 0.230128 0.266681 0.280293 0.442329]
Beta energies:   [-0.991387 -0.769733 -0.589486 -0.574781 -0.559209 -0.388109] <- HOMO
         LUMO->  [0.160892 0.214623 0.230128 0.266681 0.280293 0.442329]
time for xg, H, S2, Yg, Feff: 0.026
 E(SUHF) =    -77.94110380, delta E = -8.64171e-05, MaxD(dm) = 0.00231235, RMSD(dm) =  0.0119708
**** Start Cycle 15 ****
time for NO, Ng: 0.014
time for Gg: 0.394
detC -1.0000000000000022
detNg [   1.001308    1.034904    1.206789    1.764025    3.501692   10.261098   55.951679 1468.165953]
xg [0.998694 0.966273 0.828646 0.566886 0.285576 0.097455 0.017873 0.000681]
ciS 0.8929708251162629
ciH -97.8785275633308
S2 = -0.000000
Hsp + Hph =  -109.6099948736704
F(mod,ortho) updated with CDIIS
Alpha occ 8 vir 40; Beta occ 8 vir 40
Alpha energies:  [-0.991885 -0.76979  -0.589668 -0.575463 -0.559738 -0.388484] <- HOMO
         LUMO->  [0.161002 0.214675 0.23018  0.266637 0.280473 0.442411]
Beta energies:   [-0.991885 -0.76979  -0.589668 -0.575463 -0.559738 -0.388484] <- HOMO
         LUMO->  [0.161002 0.214675 0.23018  0.266637 0.280473 0.442411]
time for xg, H, S2, Yg, Feff: 0.026
 E(SUHF) =    -77.94112866, delta E = -2.48557e-05, MaxD(dm) = 0.00157961, RMSD(dm) = 0.00791828
**** Start Cycle 16 ****
time for NO, Ng: 0.014
time for Gg: 0.397
detC -0.9999999999999996
detNg [   1.001315    1.035105    1.208023    1.768979    3.519708   10.333639   56.399804 1480.24053 ]
xg [0.998686 0.966086 0.827799 0.565298 0.284114 0.096771 0.017731 0.000676]
ciS 0.8907573412268271
ciH -97.63590793290457
S2 = -0.000000
Hsp + Hph =  -109.60999524116419
F(mod,ortho) updated with CDIIS
Alpha occ 8 vir 40; Beta occ 8 vir 40
Alpha energies:  [-0.991747 -0.769745 -0.589536 -0.575313 -0.559555 -0.388358] <- HOMO
         LUMO->  [0.160917 0.214647 0.230125 0.266638 0.280371 0.442327]
Beta energies:   [-0.991747 -0.769745 -0.589536 -0.575313 -0.559555 -0.388358] <- HOMO
         LUMO->  [0.160917 0.214647 0.230125 0.266638 0.280371 0.442327]
time for xg, H, S2, Yg, Feff: 0.028
 E(SUHF) =    -77.94112903, delta E = -3.67494e-07, MaxD(dm) = 0.000497395, RMSD(dm) = 0.00292593
**** Start Cycle 17 ****
time for NO, Ng: 0.014
time for Gg: 0.399
detC -1.0000000000000009
detNg [   1.001312    1.035024    1.20753     1.766996    3.512486   10.304522   56.219822 1475.390306]
xg [0.998689 0.966161 0.828137 0.565932 0.284699 0.097045 0.017787 0.000678]
ciS 0.8916419297361949
ciH -97.73286924703027
S2 = -0.000000
Hsp + Hph =  -109.6099970040058
F(mod,ortho) updated with CDIIS
Alpha occ 8 vir 40; Beta occ 8 vir 40
Alpha energies:  [-0.991704 -0.769725 -0.5895   -0.575256 -0.559498 -0.38833 ] <- HOMO
         LUMO->  [0.160902 0.214643 0.230117 0.266641 0.280349 0.442315]
Beta energies:   [-0.991704 -0.769725 -0.5895   -0.575256 -0.559498 -0.38833 ] <- HOMO
         LUMO->  [0.160902 0.214643 0.230117 0.266641 0.280349 0.442315]
time for xg, H, S2, Yg, Feff: 0.027
 E(SUHF) =    -77.94113079, delta E = -1.76284e-06, MaxD(dm) = 0.000127975, RMSD(dm) = 0.000731598
**** Start Cycle 18 ****
time for NO, Ng: 0.014
time for Gg: 0.396
detC 0.9999999999999987
detNg [   1.001312    1.035005    1.207409    1.766511    3.510723   10.297421   56.175944 1474.207948]
xg [0.99869  0.966179 0.82822  0.566088 0.284842 0.097112 0.017801 0.000678]
ciS 0.8918582822946413
ciH -97.7565837426473
S2 = -0.000000
Hsp + Hph =  -109.60999710753559
F(mod,ortho) updated with CDIIS
Alpha occ 8 vir 40; Beta occ 8 vir 40
Alpha energies:  [-0.991694 -0.769726 -0.589495 -0.575242 -0.559487 -0.388322] <- HOMO
         LUMO->  [0.160895 0.21464  0.230114 0.266643 0.280343 0.442311]
Beta energies:   [-0.991695 -0.769726 -0.589495 -0.575242 -0.559487 -0.388322] <- HOMO
         LUMO->  [0.160895 0.21464  0.230114 0.266643 0.280343 0.442311]
time for xg, H, S2, Yg, Feff: 0.027
 E(SUHF) =    -77.94113089, delta E = -1.0353e-07, MaxD(dm) = 4.8446e-05, RMSD(dm) = 0.000237615
**** Start Cycle 19 ****
time for NO, Ng: 0.014
time for Gg: 0.397
detC 1.0
detNg [   1.001311    1.034999    1.207371    1.76636     3.510172   10.295198   56.162204 1473.837678]
xg [0.99869  0.966185 0.828246 0.566136 0.284886 0.097133 0.017806 0.000679]
ciS 0.8919260152625157
ciH -97.76400795997584
S2 = -0.000000
Hsp + Hph =  -109.6099971152893
F(mod,ortho) updated with CDIIS
Alpha occ 8 vir 40; Beta occ 8 vir 40
Alpha energies:  [-0.991695 -0.769727 -0.589496 -0.575242 -0.559489 -0.388321] <- HOMO
         LUMO->  [0.160896 0.21464  0.230115 0.266643 0.280343 0.442312]
Beta energies:   [-0.991695 -0.769727 -0.589496 -0.575243 -0.559489 -0.388321] <- HOMO
         LUMO->  [0.160896 0.21464  0.230115 0.266643 0.280343 0.442312]
time for xg, H, S2, Yg, Feff: 0.026
 E(SUHF) =    -77.94113090, delta E = -7.75371e-09, MaxD(dm) = 9.76407e-06, RMSD(dm) = 5.66916e-05
**** Start Cycle 20 ****
time for NO, Ng: 0.014
time for Gg: 0.396
detC -1.000000000000001
detNg [   1.001311    1.034999    1.207374    1.766371    3.510212   10.295358   56.16319  1473.864241]
xg [0.99869  0.966184 0.828244 0.566133 0.284883 0.097131 0.017805 0.000678]
ciS 0.8919210866767716
ciH -97.76346773842191
S2 = -0.000000
Hsp + Hph =  -109.60999711609125
F(mod,ortho) updated with CDIIS
Alpha occ 8 vir 40; Beta occ 8 vir 40
Alpha energies:  [-0.991695 -0.769729 -0.589497 -0.575242 -0.559489 -0.388321] <- HOMO
         LUMO->  [0.160896 0.21464  0.230115 0.266642 0.280343 0.442311]
Beta energies:   [-0.991695 -0.769728 -0.589497 -0.575242 -0.559489 -0.388321] <- HOMO
         LUMO->  [0.160896 0.21464  0.230115 0.266642 0.280343 0.442311]
time for xg, H, S2, Yg, Feff: 0.026
 E(SUHF) =    -77.94113090, delta E = -8.01947e-10, MaxD(dm) = 3.20437e-06, RMSD(dm) = 2.30399e-05
**** Start Cycle 21 ****
time for NO, Ng: 0.014
time for Gg: 0.396
detC -1.0000000000000044
detNg [   1.001311    1.034999    1.207374    1.766371    3.510213   10.295363   56.163221 1473.865061]
xg [0.99869  0.966184 0.828244 0.566132 0.284883 0.097131 0.017805 0.000678]
ciS 0.8919209178828715
ciH -97.76344923705415
S2 = -0.000000
Hsp + Hph =  -109.6099971162383
F(mod,ortho) updated with CDIIS
Alpha occ 8 vir 40; Beta occ 8 vir 40
Alpha energies:  [-0.991694 -0.769728 -0.589497 -0.575241 -0.559488 -0.388321] <- HOMO
         LUMO->  [0.160896 0.21464  0.230115 0.266642 0.280343 0.442311]
Beta energies:   [-0.991694 -0.769728 -0.589497 -0.575241 -0.559488 -0.388321] <- HOMO
         LUMO->  [0.160896 0.21464  0.230115 0.266642 0.280343 0.442311]
time for xg, H, S2, Yg, Feff: 0.026
 E(SUHF) =    -77.94113090, delta E = -1.47054e-10, MaxD(dm) = 1.57515e-06, RMSD(dm) = 1.08699e-05
**** Start Cycle 22 ****
time for NO, Ng: 0.014
time for Gg: 0.397
detC -1.0000000000000016
detNg [   1.001311    1.034999    1.207374    1.766369    3.510203   10.295324   56.162979 1473.858533]
xg [0.99869  0.966184 0.828244 0.566133 0.284884 0.097131 0.017805 0.000678]
ciS 0.8919221079610582
ciH -97.76357968154343
S2 = -0.000000
Hsp + Hph =  -109.6099971162637
F(mod,ortho) updated with CDIIS
Alpha occ 8 vir 40; Beta occ 8 vir 40
Alpha energies:  [-0.991694 -0.769728 -0.589497 -0.575241 -0.559489 -0.388321] <- HOMO
         LUMO->  [0.160896 0.21464  0.230115 0.266642 0.280343 0.442311]
Beta energies:   [-0.991694 -0.769728 -0.589497 -0.575241 -0.559489 -0.388321] <- HOMO
         LUMO->  [0.160896 0.21464  0.230115 0.266642 0.280343 0.442311]
time for xg, H, S2, Yg, Feff: 0.028
 E(SUHF) =    -77.94113090, delta E = -2.53948e-11, MaxD(dm) = 3.03863e-07, RMSD(dm) = 1.86035e-06
**** Start Cycle 23 ****
time for NO, Ng: 0.015
time for Gg: 0.399
detC -0.9999999999999943
detNg [   1.001311    1.034999    1.207374    1.766369    3.510205   10.295329   56.163008 1473.859319]
xg [0.99869  0.966184 0.828244 0.566133 0.284884 0.097131 0.017805 0.000678]
ciS 0.8919219616220688
ciH -97.76356364132826
S2 = -0.000000
Hsp + Hph =  -109.60999711626486
F(mod,ortho) updated with CDIIS
Alpha occ 8 vir 40; Beta occ 8 vir 40
Alpha energies:  [-0.991694 -0.769728 -0.589497 -0.575241 -0.559489 -0.388321] <- HOMO
         LUMO->  [0.160896 0.21464  0.230115 0.266642 0.280343 0.442311]
Beta energies:   [-0.991694 -0.769728 -0.589497 -0.575241 -0.559489 -0.388321] <- HOMO
         LUMO->  [0.160896 0.21464  0.230115 0.266642 0.280343 0.442311]
time for xg, H, S2, Yg, Feff: 0.026
 E(SUHF) =    -77.94113090, delta E = -1.16529e-12, MaxD(dm) = 1.21623e-07, RMSD(dm) = 6.57297e-07
**** Start Cycle 24 ****
time for NO, Ng: 0.014
time for Gg: 0.395
detC -1.0000000000000016
detNg [   1.001311    1.034999    1.207374    1.766369    3.510205   10.295328   56.163005 1473.859229]
xg [0.99869  0.966184 0.828244 0.566133 0.284884 0.097131 0.017805 0.000678]
ciS 0.8919219775973244
ciH -97.76356539237618
S2 = -0.000000
Hsp + Hph =  -109.60999711626509
F(mod,ortho) updated with CDIIS
Alpha occ 8 vir 40; Beta occ 8 vir 40
Alpha energies:  [-0.991694 -0.769728 -0.589497 -0.575241 -0.559489 -0.388321] <- HOMO
         LUMO->  [0.160896 0.21464  0.230115 0.266642 0.280343 0.442311]
Beta energies:   [-0.991694 -0.769728 -0.589497 -0.575241 -0.559489 -0.388321] <- HOMO
         LUMO->  [0.160896 0.21464  0.230115 0.266642 0.280343 0.442311]
time for xg, H, S2, Yg, Feff: 0.026
 E(SUHF) =    -77.94113090, delta E = -2.27374e-13, MaxD(dm) = 8.13574e-08, RMSD(dm) = 4.42283e-07
**** Start Cycle 25 ****
time for NO, Ng: 0.014
time for Gg: 0.395
detC -1.0000000000000002
detNg [   1.001311    1.034999    1.207374    1.766369    3.510205   10.295329   56.163007 1473.859286]
xg [0.99869  0.966184 0.828244 0.566133 0.284884 0.097131 0.017805 0.000678]
ciS 0.8919219667826587
ciH -97.76356420698082
S2 = -0.000000
Hsp + Hph =  -109.60999711626522
F(mod,ortho) updated with CDIIS
Alpha occ 8 vir 40; Beta occ 8 vir 40
Alpha energies:  [-0.991694 -0.769728 -0.589497 -0.575241 -0.559489 -0.388321] <- HOMO
         LUMO->  [0.160896 0.21464  0.230115 0.266642 0.280343 0.442311]
Beta energies:   [-0.991694 -0.769728 -0.589497 -0.575241 -0.559489 -0.388321] <- HOMO
         LUMO->  [0.160896 0.21464  0.230115 0.266642 0.280343 0.442311]
time for xg, H, S2, Yg, Feff: 0.026
 E(SUHF) =    -77.94113090, delta E = -1.27898e-13, MaxD(dm) = 2.34537e-08, RMSD(dm) = 1.3191e-07
**** Start Cycle 26 ****
time for NO, Ng: 0.014
time for Gg: 0.396
detC -1.0000000000000009
detNg [   1.001311    1.034999    1.207374    1.766369    3.510205   10.295328   56.163006 1473.859253]
xg [0.99869  0.966184 0.828244 0.566133 0.284884 0.097131 0.017805 0.000678]
ciS 0.89192197267559
ciH -97.76356485290499
S2 = -0.000000
Hsp + Hph =  -109.60999711626522
F(mod,ortho) updated with CDIIS
Alpha occ 8 vir 40; Beta occ 8 vir 40
Alpha energies:  [-0.991694 -0.769728 -0.589497 -0.575241 -0.559489 -0.388321] <- HOMO
         LUMO->  [0.160896 0.21464  0.230115 0.266642 0.280343 0.442311]
Beta energies:   [-0.991694 -0.769728 -0.589497 -0.575241 -0.559489 -0.388321] <- HOMO
         LUMO->  [0.160896 0.21464  0.230115 0.266642 0.280343 0.442311]
time for xg, H, S2, Yg, Feff: 0.026
 E(SUHF) =    -77.94113090, delta E =          0, MaxD(dm) = 2.51218e-08, RMSD(dm) = 1.87261e-07
**** Start Cycle 27 ****
time for NO, Ng: 0.014
time for Gg: 0.395
detC 1.000000000000001
detNg [   1.001311    1.034999    1.207374    1.766369    3.510204   10.295327   56.163    1473.859104]
xg [0.99869  0.966184 0.828244 0.566133 0.284884 0.097131 0.017805 0.000678]
ciS 0.8919219999794255
ciH -97.76356784567831
S2 = -0.000000
Hsp + Hph =  -109.60999711626519
F(mod,ortho) updated with CDIIS
Alpha occ 8 vir 40; Beta occ 8 vir 40
Alpha energies:  [-0.991694 -0.769728 -0.589497 -0.575241 -0.559489 -0.388321] <- HOMO
         LUMO->  [0.160896 0.21464  0.230115 0.266642 0.280343 0.442311]
Beta energies:   [-0.991694 -0.769728 -0.589497 -0.575241 -0.559489 -0.388321] <- HOMO
         LUMO->  [0.160896 0.21464  0.230115 0.266642 0.280343 0.442311]
time for xg, H, S2, Yg, Feff: 0.026

***************
SUHF converged at cycle 27
Final E(SUHF) =    -77.94113090, delta E = 2.84217e-14, MaxD(dm) = 1.45577e-08, RMSD(dm) = 6.22457e-08
time for cyc: 11.787
******* suhf density *****
Clebsch-Gordan coeff: < 0 0 0 0 | 0 0 > = 1
Clebsch-Gordan coeff: < 0 0 1 0 | 0 0 > = 0
xggint 1.0
SUHF NO occ alpha:  0.999999  0.999999  0.994246  0.993644  0.993644  0.993641  0.990826  0.500020  0.499980  0.009174  0.006359  0.006356  0.006356  0.005754  0.000001  ...
SUHF NO occ beta:   0.999999  0.999999  0.994246  0.993644  0.993644  0.993641  0.990826  0.500020  0.499980  0.009174  0.006359  0.006356  0.006356  0.005754  0.000001  ...
SUHF NO occ total:  1.999999  1.999998  1.988492  1.987288  1.987288  1.987283  1.981652  1.000041  0.999959  0.018348  0.012717  0.012712  0.012712  0.011508  0.000002  0.000001  ...
core 7, active 2, external 39
time for dm: 0.291
time tot: 12.083
