#INFO: **** input file is /share/home/srwang/ExSCF/examples/07-B3-doublet.py ****
#import phf
from fch2py import fch2py
from ortho import check_orthonormal
from pyscf import lib
#import scipy
#import numpy as np
#import sys

from pyphf import util, guess

lib.num_threads(4)

xyz = '''
B1             -0.17964100        2.61877500        0.00000000
B2             -0.94741200        1.28916200        0.00000000
B3              0.58813000        1.28916200        0.00000000
'''
mf = guess.gen(xyz, 'cc-pvdz', 0, 1)

mf2 = util.SUHF(mf)
#mf2.cut_no = False
#mf2.debug = False
mf2.diis_on = True
#mf2.diis_start_cyc = 20
mf2.max_cycle = 100
#mf2.tofch = True
#mf2.oldfch = 'B3/B3_cc-pVDZ_5D7F_uhf.fch'
mf2.kernel()
#INFO: ******************** input file end ********************


System: uname_result(system='Linux', node='xn01', release='3.10.0-1127.el7.x86_64', version='#1 SMP Tue Feb 18 16:39:12 EST 2020', machine='x86_64', processor='x86_64')  Threads 4
Python 3.7.4 (default, Aug 13 2019, 20:35:49) 
[GCC 7.3.0]
numpy 1.17.2  scipy 1.4.1
Date: Mon Mar 29 16:33:09 2021
PySCF version 1.7.6a1
PySCF path  /share/home/srwang/pyscf/pyscf
GIT HEAD      ref: refs/heads/master
GIT master branch  80f71dfe77ac5f9caae26788acf76446987635bd

[CONFIG] conf_file None
[INPUT] verbose = 4
[INPUT] num. atoms = 3
[INPUT] num. electrons = 15
[INPUT] charge = 0
[INPUT] spin (= nelec alpha-beta = 2S) = 1
[INPUT] symmetry False subgroup None
[INPUT] Mole.unit = angstrom
[INPUT]  1 B1    -0.179641000000   2.618775000000   0.000000000000 AA   -0.339472290743   4.948767531858   0.000000000000 Bohr
[INPUT]  2 B2    -0.947412000000   1.289162000000   0.000000000000 AA   -1.790349207126   2.436163110197   0.000000000000 Bohr
[INPUT]  3 B3     0.588130000000   1.289162000000   0.000000000000 AA    1.111404625640   2.436163110197   0.000000000000 Bohr

nuclear repulsion = 25.848433905301
number of shells = 15
number of NR pGTOs = 78
number of NR cGTOs = 42
basis = cc-pvdz
ecp = {}
CPU time:         1.22


******** <class 'pyscf.scf.uhf.UHF'> ********
method = UHF
initial guess = minao
damping factor = 0
level_shift factor = 0
DIIS = <class 'pyscf.scf.diis.CDIIS'>
diis_start_cycle = 1
diis_space = 8
SCF conv_tol = 1e-09
SCF conv_tol_grad = None
SCF max_cycles = 50
direct_scf = True
direct_scf_tol = 1e-13
chkfile to save SCF result = /share/home/srwang/ExSCF/examples/tmphbv65fw1
max_memory 4000 MB (current use 107 MB)
number electrons alpha = 8  beta = 7
Set gradient conv threshold to 3.16228e-05
init E= -74.5560578605801
  alpha nocc = 8  HOMO = -0.140920842738644  LUMO = -0.0224490664135245
  beta  nocc = 7  HOMO = -0.218193065823751  LUMO = -0.140920842738644

WARN: system HOMO -0.140920842738644 >= system LUMO -0.140920842738644

cycle= 1 E= -73.7171028496777  delta_E= 0.839  |g|= 0.136  |ddm|= 1.22
  alpha nocc = 8  HOMO = -0.372415444449847  LUMO = -0.024291838858049
  beta  nocc = 7  HOMO = -0.386445540232124  LUMO = -0.0550299651970741
cycle= 2 E= -73.7456869383381  delta_E= -0.0286  |g|= 0.0668  |ddm|= 0.241
  alpha nocc = 8  HOMO = -0.356700566471458  LUMO = -0.00421799306236699
  beta  nocc = 7  HOMO = -0.358055849754093  LUMO = -0.0220533504650332
cycle= 3 E= -73.7564187814724  delta_E= -0.0107  |g|= 0.0412  |ddm|= 0.137
  alpha nocc = 8  HOMO = -0.368473443847045  LUMO = -0.00909626324239055
  beta  nocc = 7  HOMO = -0.362757351529666  LUMO = -0.0169183665926197
cycle= 4 E= -73.7642688462186  delta_E= -0.00785  |g|= 0.0297  |ddm|= 0.129
  alpha nocc = 8  HOMO = -0.366387150075064  LUMO = -0.00625764765778257
  beta  nocc = 7  HOMO = -0.358880076658301  LUMO = -0.00460152146610984
cycle= 5 E= -73.7713320870286  delta_E= -0.00706  |g|= 0.0204  |ddm|= 0.141
  alpha nocc = 8  HOMO = -0.368226448473662  LUMO = 0.000595362624370975
  beta  nocc = 7  HOMO = -0.360433056787283  LUMO = 0.000725295200667777
cycle= 6 E= -73.7752982913389  delta_E= -0.00397  |g|= 0.0135  |ddm|= 0.126
  alpha nocc = 8  HOMO = -0.371715498819279  LUMO = 0.0184307779330414
  beta  nocc = 7  HOMO = -0.366377115204652  LUMO = 0.0112194988830107
cycle= 7 E= -73.7765818960187  delta_E= -0.00128  |g|= 0.0109  |ddm|= 0.212
  alpha nocc = 8  HOMO = -0.370265672520529  LUMO = 0.0010862819426301
  beta  nocc = 7  HOMO = -0.364714841019537  LUMO = 0.00430144211513877
cycle= 8 E= -73.7771400266205  delta_E= -0.000558  |g|= 0.00387  |ddm|= 0.108
  alpha nocc = 8  HOMO = -0.371107831417586  LUMO = 0.00640829753009327
  beta  nocc = 7  HOMO = -0.365771156596416  LUMO = 0.00605561150191323
cycle= 9 E= -73.7772665115757  delta_E= -0.000126  |g|= 0.000299  |ddm|= 0.0342
  alpha nocc = 8  HOMO = -0.370953045786309  LUMO = 0.00626838741370422
  beta  nocc = 7  HOMO = -0.365657032546912  LUMO = 0.00624244854271332
cycle= 10 E= -73.7772666426055  delta_E= -1.31e-07  |g|= 7.31e-05  |ddm|= 0.00101
  alpha nocc = 8  HOMO = -0.370949231633147  LUMO = 0.00617446697097091
  beta  nocc = 7  HOMO = -0.365654910452753  LUMO = 0.00619054109665092
cycle= 11 E= -73.7772666424167  delta_E= 1.89e-10  |g|= 5.38e-05  |ddm|= 0.000727
  alpha nocc = 8  HOMO = -0.370954948611644  LUMO = 0.00622378280512612
  beta  nocc = 7  HOMO = -0.365662427470937  LUMO = 0.00621010404667418
cycle= 12 E= -73.7772666616765  delta_E= -1.93e-08  |g|= 1.45e-05  |ddm|= 0.000326
  alpha nocc = 8  HOMO = -0.370955912294345  LUMO = 0.00623384756208519
  beta  nocc = 7  HOMO = -0.365663259003276  LUMO = 0.00621560735159531
cycle= 13 E= -73.7772666629366  delta_E= -1.26e-09  |g|= 5.58e-06  |ddm|= 7.72e-05
  alpha nocc = 8  HOMO = -0.37095705086163  LUMO = 0.00623910768517411
  beta  nocc = 7  HOMO = -0.365664063415701  LUMO = 0.00621753200361428
cycle= 14 E= -73.7772666631255  delta_E= -1.89e-10  |g|= 2.98e-06  |ddm|= 3.93e-05
  alpha nocc = 8  HOMO = -0.370957054151447  LUMO = 0.00623839537195258
  beta  nocc = 7  HOMO = -0.365664040594634  LUMO = 0.00621734231107338
Extra cycle  E= -73.7772666631532  delta_E= -2.77e-11  |g|= 2.48e-06  |ddm|= 5.63e-06
converged SCF energy = -73.7772666631532  <S^2> = 1.4669187  2S+1 = 2.6206249

******** <class 'pyphf.util.SUHF'> ********
max_cycle = 100
verbose: 4, normal
DIIS: <class 'pyscf.scf.diis.CDIIS'>
diis_start_cyc = 10
grids:  [0.06237655 0.31939555 0.74529195 1.28265786 1.85893479 2.39630071
 2.8221971  3.07921611] 
weights:  [0.15900941 0.34931531 0.49276925 0.56970235 0.56970235 0.49276925
 0.34931531 0.15900941]
S = 0.5, Sz = 0.5
Wigner small d:  cos(beta/2)
value : [0.99951369 0.98727539 0.93136726 0.80130142 0.59826084 0.36408108
 0.15901983 0.03118322]
time for Preparation before cyc: 0.049
**** Start Cycle 1 ****
time for NO, Ng: 0.013
time for Gg: 0.317
detC 1.0000000000000036
detNg [ 1.001184  1.031502  1.183434  1.641785  2.816796  5.769825 14.804817 77.544395]
xg [0.998817 0.96946  0.844998 0.609093 0.355013 0.173315 0.067546 0.012896]
ciS 0.7827545619482937
ciH -77.99880765862373
S2 = 0.750000
Hsp + Hph =  -99.64657052203303
Alpha occ 8 vir 34; Beta occ 7 vir 35
Alpha energies:  [-7.667113 -0.866304 -0.455507 -0.45545  -0.405487 -0.371001] <- HOMO
         LUMO->  [0.006349 0.00637  0.125934 0.12597  0.225212 0.225216]
Beta energies:   [-7.65804  -7.658025 -0.8862   -0.469787 -0.46973  -0.365678] <- HOMO
         LUMO->  [0.006242 0.072585 0.072607 0.158032 0.158056 0.241934]
time for xg, H, S2, Yg, Feff: 0.024
 E(SUHF) =    -73.79813662
**** Start Cycle 2 ****
time for NO, Ng: 0.012
time for Gg: 0.316
detC -1.0000000000000018
detNg [ 1.001268  1.03376   1.197631  1.700628  3.026224  6.432012 16.853629 88.728961]
xg [0.998734 0.967343 0.834982 0.588018 0.330445 0.155472 0.059334 0.01127 ]
ciS 0.7598394630817954
ciH -75.71758936621112
S2 = 0.750000
Hsp + Hph =  -99.64945629319102
Alpha occ 8 vir 34; Beta occ 7 vir 35
Alpha energies:  [-7.668529 -0.865955 -0.456288 -0.456232 -0.409669 -0.371156] <- HOMO
         LUMO->  [0.007856 0.007876 0.124898 0.124934 0.225236 0.22524 ]
Beta energies:   [-7.65933  -7.659314 -0.88779  -0.474908 -0.474851 -0.367245] <- HOMO
         LUMO->  [0.009332 0.07391  0.073934 0.158148 0.158173 0.242301]
time for xg, H, S2, Yg, Feff: 0.023
 E(SUHF) =    -73.80102239, delta E = -0.00288577, MaxD(dm) =  0.0110215, RMSD(dm) =  0.0443763
**** Start Cycle 3 ****
time for NO, Ng: 0.012
time for Gg: 0.316
detC -0.9999999999999994
detNg [ 1.001325  1.035314  1.207518  1.742757  3.182943  6.950753 18.501606 97.784045]
xg [0.998677 0.96589  0.828145 0.573803 0.314175 0.143869 0.054049 0.010227]
ciS 0.7445108897122725
ciH -74.19105440986006
S2 = 0.750000
Hsp + Hph =  -99.6507310168859
Alpha occ 8 vir 34; Beta occ 7 vir 35
Alpha energies:  [-7.667596 -0.863991 -0.456329 -0.456274 -0.412024 -0.370387] <- HOMO
         LUMO->  [0.009785 0.009805 0.124756 0.124792 0.225523 0.225528]
Beta energies:   [-7.658299 -7.658282 -0.887987 -0.477416 -0.477359 -0.367465] <- HOMO
         LUMO->  [0.011859 0.075356 0.075381 0.158831 0.158856 0.242755]
time for xg, H, S2, Yg, Feff: 0.023
 E(SUHF) =    -73.80229711, delta E = -0.00127472, MaxD(dm) = 0.00797721, RMSD(dm) =  0.0304069
**** Start Cycle 4 ****
time for NO, Ng: 0.012
time for Gg: 0.315
detC -0.9999999999999989
detNg [  1.001364   1.036369   1.214279   1.772111   3.295547   7.335897  19.749078 104.671556]
xg [0.998638 0.964907 0.823534 0.564299 0.30344  0.136316 0.050635 0.009554]
ciS 0.7343221240742734
ciH -73.17617152688206
S2 = 0.750000
Hsp + Hph =  -99.6513234830449
Alpha occ 8 vir 34; Beta occ 7 vir 35
Alpha energies:  [-7.667274 -0.862845 -0.456536 -0.456481 -0.413877 -0.370027] <- HOMO
         LUMO->  [0.011051 0.01107  0.124542 0.124579 0.225705 0.22571 ]
Beta energies:   [-7.657919 -7.657901 -0.888604 -0.479316 -0.479259 -0.367859] <- HOMO
         LUMO->  [0.013286 0.076271 0.076296 0.159189 0.159214 0.242979]
time for xg, H, S2, Yg, Feff: 0.023
 E(SUHF) =    -73.80288958, delta E = -0.000592466, MaxD(dm) = 0.00590665, RMSD(dm) =   0.021007
**** Start Cycle 5 ****
time for NO, Ng: 0.012
time for Gg: 0.318
detC 1.0000000000000009
detNg [  1.00139    1.03708    1.218856   1.792232   3.374373   7.611739  20.654865 109.68977 ]
xg [0.998612 0.964246 0.820441 0.557964 0.296351 0.131376 0.048415 0.009117]
ciS 0.7275586932493318
ciH -72.50238817804612
S2 = 0.750000
Hsp + Hph =  -99.65160041486827
Alpha occ 8 vir 34; Beta occ 7 vir 35
Alpha energies:  [-7.666989 -0.861966 -0.4567   -0.456646 -0.415146 -0.369753] <- HOMO
         LUMO->  [0.011982 0.012001 0.124405 0.124442 0.225842 0.225847]
Beta energies:   [-7.6576   -7.657582 -0.889088 -0.480559 -0.480502 -0.36813 ] <- HOMO
         LUMO->  [0.014198 0.076906 0.076932 0.159449 0.159474 0.243113]
time for xg, H, S2, Yg, Feff: 0.024
 E(SUHF) =    -73.80316651, delta E = -0.000276932, MaxD(dm) = 0.00428042, RMSD(dm) =  0.0145181
**** Start Cycle 6 ****
time for NO, Ng: 0.012
time for Gg: 0.320
detC 1.0000000000000033
detNg [  1.001408   1.037557   1.221941   1.80591    3.428728   7.804949  21.295379 113.24684 ]
xg [0.998594 0.963802 0.81837  0.553737 0.291653 0.128124 0.046959 0.00883 ]
ciS 0.7230595704431539
ciH -72.05413678088334
S2 = 0.750000
Hsp + Hph =  -99.65172957564519
Alpha occ 8 vir 34; Beta occ 7 vir 35
Alpha energies:  [-7.666815 -0.861367 -0.456842 -0.456788 -0.41603  -0.369577] <- HOMO
         LUMO->  [0.012627 0.012645 0.124299 0.124336 0.225936 0.225941]
Beta energies:   [-7.657407 -7.657389 -0.889494 -0.481404 -0.481347 -0.368353] <- HOMO
         LUMO->  [0.014764 0.07733  0.077357 0.159616 0.159642 0.243185]
time for xg, H, S2, Yg, Feff: 0.024
 E(SUHF) =    -73.80329567, delta E = -0.000129161, MaxD(dm) = 0.00303884, RMSD(dm) =  0.0100062
**** Start Cycle 7 ****
time for NO, Ng: 0.014
time for Gg: 0.316
detC 1.0
detNg [  1.001419   1.037878   1.224019   1.815174   3.465889   7.938463  21.740889 115.725053]
xg [0.998583 0.963504 0.816981 0.550911 0.288526 0.125969 0.045996 0.008641]
ciS 0.7200571364876981
ciH -71.7549822960955
S2 = 0.750000
Hsp + Hph =  -99.65178964283675
Alpha occ 8 vir 34; Beta occ 7 vir 35
Alpha energies:  [-7.666697 -0.860948 -0.45695  -0.456897 -0.416635 -0.369457] <- HOMO
         LUMO->  [0.013072 0.013091 0.124223 0.12426  0.226001 0.226006]
Beta energies:   [-7.657279 -7.657261 -0.889806 -0.481968 -0.481912 -0.368521] <- HOMO
         LUMO->  [0.015125 0.077616 0.077643 0.159728 0.159754 0.243226]
time for xg, H, S2, Yg, Feff: 0.023
 E(SUHF) =    -73.80335574, delta E = -6.00672e-05, MaxD(dm) = 0.00212988, RMSD(dm) = 0.00687904
**** Start Cycle 8 ****
time for NO, Ng: 0.012
time for Gg: 0.316
detC -1.0000000000000038
detNg [  1.001427   1.038094   1.225418   1.821438   3.491182   8.029994  22.047676 117.433521]
xg [0.998575 0.963304 0.816048 0.549017 0.286436 0.124533 0.045356 0.008515]
ciS 0.7180466953038285
ciH -71.55465825895605
S2 = 0.750000
Hsp + Hph =  -99.65181753072339
Alpha occ 8 vir 34; Beta occ 7 vir 35
Alpha energies:  [-7.666619 -0.860659 -0.457032 -0.45698  -0.417046 -0.369374] <- HOMO
         LUMO->  [0.013376 0.013395 0.124169 0.124206 0.226045 0.22605 ]
Beta energies:   [-7.657197 -7.657178 -0.890041 -0.482346 -0.48229  -0.368649] <- HOMO
         LUMO->  [0.015356 0.077809 0.077836 0.159803 0.15983  0.243248]
time for xg, H, S2, Yg, Feff: 0.024
 E(SUHF) =    -73.80338363, delta E = -2.78879e-05, MaxD(dm) = 0.00147989, RMSD(dm) = 0.00472076
**** Start Cycle 9 ****
time for NO, Ng: 0.012
time for Gg: 0.320
detC 1.0000000000000013
detNg [  1.001433   1.038239   1.226363   1.825674   3.508361   8.092465  22.257697 118.604006]
xg [0.998569 0.963169 0.81542  0.547743 0.285033 0.123572 0.044928 0.008431]
ciS 0.7166961973799358
ciH -71.42008796550905
S2 = 0.750000
Hsp + Hph =  -99.65183047796715
Alpha occ 8 vir 34; Beta occ 7 vir 35
Alpha energies:  [-7.666567 -0.860459 -0.457092 -0.45704  -0.417326 -0.369315] <- HOMO
         LUMO->  [0.013584 0.013603 0.12413  0.124167 0.226075 0.22608 ]
Beta energies:   [-7.657143 -7.657124 -0.890216 -0.482599 -0.482543 -0.368743] <- HOMO
         LUMO->  [0.015506 0.07794  0.077967 0.159854 0.15988  0.243262]
time for xg, H, S2, Yg, Feff: 0.023
 E(SUHF) =    -73.80339657, delta E = -1.29472e-05, MaxD(dm) = 0.00102245, RMSD(dm) = 0.00323709
**** Start Cycle 10 ****
time for NO, Ng: 0.012
time for Gg: 0.318
detC 1.0000000000000033
detNg [  1.001436   1.038337   1.227      1.82854    3.52002    8.135006  22.401008 119.403125]
xg [0.998566 0.963078 0.814996 0.546884 0.284089 0.122926 0.044641 0.008375]
ciS 0.7157863968187193
ciH -71.32942898322374
S2 = 0.750000
Hsp + Hph =  -99.6518364979332
F(mod,ortho) updated with CDIIS
Alpha occ 8 vir 34; Beta occ 7 vir 35
Alpha energies:  [-7.666532 -0.860319 -0.457136 -0.457084 -0.417516 -0.369272] <- HOMO
         LUMO->  [0.013724 0.013743 0.124103 0.12414  0.226096 0.226101]
Beta energies:   [-7.657107 -7.657089 -0.890344 -0.482768 -0.482712 -0.368813] <- HOMO
         LUMO->  [0.015603 0.078029 0.078056 0.159889 0.159915 0.243269]
time for xg, H, S2, Yg, Feff: 0.024
 E(SUHF) =    -73.80340259, delta E = -6.01997e-06, MaxD(dm) = 0.000703777, RMSD(dm) = 0.00221991
**** Start Cycle 11 ****
time for NO, Ng: 0.012
time for Gg: 0.321
detC -0.9999999999999961
detNg [  1.001439   1.038404   1.227432   1.830482   3.527934   8.163948  22.498645 119.947753]
xg [0.998563 0.963017 0.814709 0.546304 0.283452 0.12249  0.044447 0.008337]
ciS 0.7151719166324421
ciH -71.26819691163104
S2 = 0.750000
Hsp + Hph =  -99.65183930489661
F(mod,ortho) updated with CDIIS
Alpha occ 8 vir 34; Beta occ 7 vir 35
Alpha energies:  [-7.666459 -0.860017 -0.457232 -0.457181 -0.417912 -0.369175] <- HOMO
         LUMO->  [0.014018 0.014038 0.124045 0.124082 0.226139 0.226145]
Beta energies:   [-7.657035 -7.657016 -0.890633 -0.483116 -0.48306  -0.368972] <- HOMO
         LUMO->  [0.015799 0.078215 0.078242 0.159961 0.159988 0.243284]
time for xg, H, S2, Yg, Feff: 0.024
 E(SUHF) =    -73.80340540, delta E = -2.80696e-06, MaxD(dm) =  0.0014876, RMSD(dm) = 0.00468497
**** Start Cycle 12 ****
time for NO, Ng: 0.012
time for Gg: 0.323
detC 1.000000000000001
detNg [  1.001444   1.038542   1.228332   1.834539   3.544507   8.224726  22.704042 121.093988]
xg [0.998558 0.962888 0.814112 0.545096 0.282127 0.121585 0.044045 0.008258]
ciS 0.7138931878277981
ciH -71.1407709971935
S2 = 0.750000
Hsp + Hph =  -99.65184177433801
F(mod,ortho) updated with CDIIS
Alpha occ 8 vir 34; Beta occ 7 vir 35
Alpha energies:  [-7.666456 -0.859989 -0.457236 -0.457185 -0.417912 -0.369153] <- HOMO
         LUMO->  [0.014018 0.014037 0.124041 0.124078 0.22614  0.226146]
Beta energies:   [-7.657035 -7.657016 -0.890672 -0.483108 -0.483052 -0.368995] <- HOMO
         LUMO->  [0.015789 0.078219 0.078246 0.159965 0.159992 0.243281]
time for xg, H, S2, Yg, Feff: 0.024
 E(SUHF) =    -73.80340787, delta E = -2.46944e-06, MaxD(dm) = 0.000118357, RMSD(dm) = 0.000367933
**** Start Cycle 13 ****
time for NO, Ng: 0.012
time for Gg: 0.322
detC -0.9999999999999967
detNg [  1.001444   1.038543   1.228338   1.834567   3.544622   8.225147  22.705461 121.101908]
xg [0.998558 0.962888 0.814108 0.545088 0.282118 0.121578 0.044042 0.008258]
ciS 0.7138843330010282
ciH -71.13988861350262
S2 = 0.750000
Hsp + Hph =  -99.65184179689817
F(mod,ortho) updated with CDIIS
Alpha occ 8 vir 34; Beta occ 7 vir 35
Alpha energies:  [-7.666457 -0.859985 -0.457244 -0.457194 -0.417923 -0.369146] <- HOMO
         LUMO->  [0.014025 0.014045 0.124038 0.124075 0.226141 0.226146]
Beta energies:   [-7.657037 -7.657018 -0.890692 -0.483119 -0.483063 -0.36901 ] <- HOMO
         LUMO->  [0.015793 0.078222 0.078249 0.159966 0.159993 0.243281]
time for xg, H, S2, Yg, Feff: 0.024
 E(SUHF) =    -73.80340789, delta E = -2.25602e-08, MaxD(dm) = 4.2851e-05, RMSD(dm) = 0.000148114
**** Start Cycle 14 ****
time for NO, Ng: 0.012
time for Gg: 0.321
detC -1.0000000000000007
detNg [  1.001444   1.038547   1.228363   1.834678   3.545078   8.226825  22.711142 121.133623]
xg [0.998558 0.962884 0.814092 0.545055 0.282081 0.121554 0.044031 0.008255]
ciS 0.7138492746609884
ciH -71.1363949861134
S2 = 0.750000
Hsp + Hph =  -99.65184179797134
F(mod,ortho) updated with CDIIS
Alpha occ 8 vir 34; Beta occ 7 vir 35
Alpha energies:  [-7.666454 -0.85998  -0.45724  -0.457189 -0.417917 -0.369143] <- HOMO
         LUMO->  [0.014022 0.014042 0.12404  0.124076 0.226141 0.226146]
Beta energies:   [-7.657034 -7.657015 -0.890685 -0.483114 -0.483058 -0.369006] <- HOMO
         LUMO->  [0.015793 0.078221 0.078248 0.159967 0.159994 0.243282]
time for xg, H, S2, Yg, Feff: 0.024
 E(SUHF) =    -73.80340789, delta E = -1.07318e-09, MaxD(dm) = 1.43175e-05, RMSD(dm) = 4.31613e-05
**** Start Cycle 15 ****
time for NO, Ng: 0.012
time for Gg: 0.323
detC -1.0000000000000027
detNg [  1.001444   1.038545   1.228354   1.834639   3.544917   8.22623   22.709127 121.122371]
xg [0.998558 0.962885 0.814097 0.545066 0.282094 0.121562 0.044035 0.008256]
ciS 0.7138616670191639
ciH -71.137629907743
S2 = 0.750000
Hsp + Hph =  -99.65184179841006
F(mod,ortho) updated with CDIIS
Alpha occ 8 vir 34; Beta occ 7 vir 35
Alpha energies:  [-7.666454 -0.85998  -0.457237 -0.457187 -0.417915 -0.369142] <- HOMO
         LUMO->  [0.014019 0.014039 0.12404  0.124077 0.226141 0.226146]
Beta energies:   [-7.657035 -7.657016 -0.890682 -0.483112 -0.483056 -0.369005] <- HOMO
         LUMO->  [0.015791 0.07822  0.078247 0.159966 0.159994 0.243281]
time for xg, H, S2, Yg, Feff: 0.025
 E(SUHF) =    -73.80340789, delta E = -4.38718e-10, MaxD(dm) = 1.05479e-05, RMSD(dm) = 3.16172e-05
**** Start Cycle 16 ****
time for NO, Ng: 0.013
time for Gg: 0.317
detC -1.0000000000000013
detNg [  1.001444   1.038544   1.228347   1.834607   3.544787   8.225752  22.707507 121.113322]
xg [0.998558 0.962886 0.814102 0.545076 0.282104 0.121569 0.044038 0.008257]
ciS 0.7138715793666612
ciH -71.13861769147876
S2 = 0.750000
Hsp + Hph =  -99.65184179848166
F(mod,ortho) updated with CDIIS
Alpha occ 8 vir 34; Beta occ 7 vir 35
Alpha energies:  [-7.666454 -0.85998  -0.457237 -0.457187 -0.417915 -0.369141] <- HOMO
         LUMO->  [0.01402  0.01404  0.12404  0.124077 0.226141 0.226146]
Beta energies:   [-7.657035 -7.657016 -0.890683 -0.483112 -0.483056 -0.369005] <- HOMO
         LUMO->  [0.015792 0.07822  0.078247 0.159966 0.159994 0.243281]
time for xg, H, S2, Yg, Feff: 0.024
 E(SUHF) =    -73.80340789, delta E = -7.15943e-11, MaxD(dm) = 2.24881e-06, RMSD(dm) = 7.12665e-06
**** Start Cycle 17 ****
time for NO, Ng: 0.012
time for Gg: 0.320
detC -1.0000000000000044
detNg [  1.001444   1.038544   1.228348   1.834611   3.5448     8.2258    22.707666 121.114209]
xg [0.998558 0.962886 0.814102 0.545075 0.282103 0.121569 0.044038 0.008257]
ciS 0.7138705593726854
ciH -71.13851604720841
S2 = 0.750000
Hsp + Hph =  -99.65184179849282
F(mod,ortho) updated with CDIIS
Alpha occ 8 vir 34; Beta occ 7 vir 35
Alpha energies:  [-7.666454 -0.85998  -0.457238 -0.457187 -0.417915 -0.369141] <- HOMO
         LUMO->  [0.01402  0.01404  0.12404  0.124077 0.226141 0.226146]
Beta energies:   [-7.657035 -7.657016 -0.890683 -0.483113 -0.483057 -0.369006] <- HOMO
         LUMO->  [0.015792 0.07822  0.078247 0.159966 0.159994 0.243281]
time for xg, H, S2, Yg, Feff: 0.024
 E(SUHF) =    -73.80340789, delta E = -1.11697e-11, MaxD(dm) = 1.4105e-06, RMSD(dm) = 5.12188e-06
**** Start Cycle 18 ****
time for NO, Ng: 0.012
time for Gg: 0.321
detC 0.9999999999999981
detNg [  1.001444   1.038545   1.228349   1.834615   3.544819   8.225868  22.707896 121.115491]
xg [0.998558 0.962886 0.814101 0.545073 0.282102 0.121568 0.044038 0.008257]
ciS 0.7138691330001183
ciH -71.13837390655586
S2 = 0.750000
Hsp + Hph =  -99.65184179849399
F(mod,ortho) updated with CDIIS
Alpha occ 8 vir 34; Beta occ 7 vir 35
Alpha energies:  [-7.666454 -0.85998  -0.457237 -0.457187 -0.417915 -0.369141] <- HOMO
         LUMO->  [0.01402  0.01404  0.12404  0.124077 0.226141 0.226146]
Beta energies:   [-7.657035 -7.657016 -0.890683 -0.483113 -0.483056 -0.369006] <- HOMO
         LUMO->  [0.015792 0.07822  0.078247 0.159966 0.159994 0.243281]
time for xg, H, S2, Yg, Feff: 0.023
 E(SUHF) =    -73.80340789, delta E = -1.16529e-12, MaxD(dm) = 6.64119e-07, RMSD(dm) = 2.01233e-06
**** Start Cycle 19 ****
time for NO, Ng: 0.012
time for Gg: 0.320
detC -1.0000000000000036
detNg [  1.001444   1.038544   1.228349   1.834613   3.544811   8.225839  22.707799 121.114949]
xg [0.998558 0.962886 0.814101 0.545074 0.282102 0.121568 0.044038 0.008257]
ciS 0.7138697281770128
ciH -71.13843321702996
S2 = 0.750000
Hsp + Hph =  -99.65184179849453
F(mod,ortho) updated with CDIIS
Alpha occ 8 vir 34; Beta occ 7 vir 35
Alpha energies:  [-7.666454 -0.85998  -0.457237 -0.457187 -0.417915 -0.369141] <- HOMO
         LUMO->  [0.01402  0.01404  0.12404  0.124077 0.226141 0.226146]
Beta energies:   [-7.657035 -7.657016 -0.890683 -0.483113 -0.483056 -0.369006] <- HOMO
         LUMO->  [0.015792 0.07822  0.078247 0.159966 0.159994 0.243281]
time for xg, H, S2, Yg, Feff: 0.023
 E(SUHF) =    -73.80340789, delta E = -5.40012e-13, MaxD(dm) = 1.64223e-07, RMSD(dm) = 4.88884e-07
**** Start Cycle 20 ****
time for NO, Ng: 0.012
time for Gg: 0.319
detC 0.9999999999999993
detNg [  1.001444   1.038544   1.228349   1.834613   3.544811   8.225838  22.707795 121.11493 ]
xg [0.998558 0.962886 0.814101 0.545074 0.282103 0.121568 0.044038 0.008257]
ciS 0.713869747400742
ciH -71.13843513271007
S2 = 0.750000
Hsp + Hph =  -99.65184179849463
F(mod,ortho) updated with CDIIS
Alpha occ 8 vir 34; Beta occ 7 vir 35
Alpha energies:  [-7.666454 -0.85998  -0.457237 -0.457187 -0.417915 -0.369141] <- HOMO
         LUMO->  [0.01402  0.01404  0.12404  0.124077 0.226141 0.226146]
Beta energies:   [-7.657035 -7.657016 -0.890683 -0.483113 -0.483056 -0.369006] <- HOMO
         LUMO->  [0.015792 0.07822  0.078247 0.159966 0.159994 0.243281]
time for xg, H, S2, Yg, Feff: 0.024
 E(SUHF) =    -73.80340789, delta E = -8.52651e-14, MaxD(dm) = 7.93298e-08, RMSD(dm) = 2.36107e-07
**** Start Cycle 21 ****
time for NO, Ng: 0.012
time for Gg: 0.318
detC 1.0000000000000049
detNg [  1.001444   1.038544   1.228349   1.834613   3.544811   8.225838  22.707795 121.114931]
xg [0.998558 0.962886 0.814101 0.545074 0.282102 0.121568 0.044038 0.008257]
ciS 0.7138697459855541
ciH -71.13843499168401
S2 = 0.750000
Hsp + Hph =  -99.65184179849467
F(mod,ortho) updated with CDIIS
Alpha occ 8 vir 34; Beta occ 7 vir 35
Alpha energies:  [-7.666454 -0.85998  -0.457237 -0.457187 -0.417915 -0.369141] <- HOMO
         LUMO->  [0.01402  0.01404  0.12404  0.124077 0.226141 0.226146]
Beta energies:   [-7.657035 -7.657016 -0.890683 -0.483113 -0.483056 -0.369006] <- HOMO
         LUMO->  [0.015792 0.07822  0.078247 0.159966 0.159994 0.243281]
time for xg, H, S2, Yg, Feff: 0.025
 E(SUHF) =    -73.80340789, delta E = -5.68434e-14, MaxD(dm) = 5.27867e-08, RMSD(dm) = 1.5349e-07
**** Start Cycle 22 ****
time for NO, Ng: 0.012
time for Gg: 0.316
detC -0.9999999999999964
detNg [  1.001444   1.038544   1.228349   1.834613   3.544811   8.225838  22.707795 121.11493 ]
xg [0.998558 0.962886 0.814101 0.545074 0.282103 0.121568 0.044038 0.008257]
ciS 0.713869747151125
ciH -71.13843510783528
S2 = 0.750000
Hsp + Hph =  -99.65184179849463
F(mod,ortho) updated with CDIIS
Alpha occ 8 vir 34; Beta occ 7 vir 35
Alpha energies:  [-7.666454 -0.85998  -0.457237 -0.457187 -0.417915 -0.369141] <- HOMO
         LUMO->  [0.01402  0.01404  0.12404  0.124077 0.226141 0.226146]
Beta energies:   [-7.657035 -7.657016 -0.890683 -0.483113 -0.483056 -0.369006] <- HOMO
         LUMO->  [0.015792 0.07822  0.078247 0.159966 0.159994 0.243281]
time for xg, H, S2, Yg, Feff: 0.024
 E(SUHF) =    -73.80340789, delta E = 5.68434e-14, MaxD(dm) = 4.22657e-08, RMSD(dm) = 1.21459e-07
**** Start Cycle 23 ****
time for NO, Ng: 0.012
time for Gg: 0.321
detC -1.0000000000000044
detNg [  1.001444   1.038544   1.228349   1.834613   3.544811   8.225838  22.707795 121.11493 ]
xg [0.998558 0.962886 0.814101 0.545074 0.282103 0.121568 0.044038 0.008257]
ciS 0.7138697477166616
ciH -71.13843516419209
S2 = 0.750000
Hsp + Hph =  -99.65184179849471
F(mod,ortho) updated with CDIIS
Alpha occ 8 vir 34; Beta occ 7 vir 35
Alpha energies:  [-7.666454 -0.85998  -0.457237 -0.457187 -0.417915 -0.369141] <- HOMO
         LUMO->  [0.01402  0.01404  0.12404  0.124077 0.226141 0.226146]
Beta energies:   [-7.657035 -7.657016 -0.890683 -0.483113 -0.483056 -0.369006] <- HOMO
         LUMO->  [0.015792 0.07822  0.078247 0.159966 0.159994 0.243281]
time for xg, H, S2, Yg, Feff: 0.025

***************
SUHF converged at cycle 23
Final E(SUHF) =    -73.80340789, delta E = -8.52651e-14, MaxD(dm) = 3.0139e-08, RMSD(dm) = 8.58583e-08
time for cyc: 8.169
******* suhf density *****
Clebsch-Gordan coeff: < 1/2 1/2 0 0 | 1/2 1/2 > = 1
Clebsch-Gordan coeff: < 1/2 1/2 1 0 | 1/2 1/2 > = sqrt(3)/3
xggint 1.0
SUHF NO occ alpha:  1.000496  1.000496  0.999550  0.998591  0.998160  0.924435  0.924429  0.667313  0.076293  0.076286  0.002466  0.002452  0.001234  0.001233  0.000680  0.000679  0.000010  0.000008  0.000008  ...
SUHF NO occ beta:   1.000473  1.000167  0.999635  0.999635  0.997855  0.929515  0.929505  0.332688  0.073332  0.073321  0.002835  0.001412  0.000485  0.000484  0.000235  0.000235  0.000153  0.000004  0.000004  ...
SUHF NO occ total:  2.000000  1.999999  1.999999  1.998680  1.995793  1.842806  1.842787  1.000000  0.157213  0.157194  0.004207  0.001320  ...
core 5, active 5, external 32
time for dm: 0.156
time tot: 8.374
