#INFO: **** input file is /share/home/srwang/ExSCF/examples/08-benzene.py ****
from pyscf import lib, scf
from pyphf import guess, suscf
import autocas

lib.num_threads(8)

xyz = '''C                 -2.94294278    0.39039038    0.00000000
 C                 -1.54778278    0.39039038    0.00000000
 C                 -0.85024478    1.59814138    0.00000000
 C                 -1.54789878    2.80665038   -0.00119900
 C                 -2.94272378    2.80657238   -0.00167800
 C                 -3.64032478    1.59836638   -0.00068200
 H                 -3.49270178   -0.56192662    0.00045000
 H                 -0.99827478   -0.56212262    0.00131500
 H                  0.24943522    1.59822138    0.00063400
 H                 -0.99769878    3.75879338   -0.00125800
 H                 -3.49284578    3.75885338   -0.00263100
 H                 -4.73992878    1.59854938   -0.00086200
'''
bas = 'def2-svp'

mf = guess.mix(xyz, bas, conv='tight')

mf2 = suscf.SUHF(mf)
#mf2.level_shift = 0.3
#mf2.max_cycle=20
mf2.kernel()

#INFO: ******************** input file end ********************


System: uname_result(system='Linux', node='xc02n20', release='3.10.0-1127.el7.x86_64', version='#1 SMP Tue Feb 18 16:39:12 EST 2020', machine='x86_64', processor='x86_64')  Threads 8
Python 3.7.4 (default, Aug 13 2019, 20:35:49) 
[GCC 7.3.0]
numpy 1.17.2  scipy 1.4.1
Date: Mon Jul  5 13:31:42 2021
PySCF version 1.7.6a1
PySCF path  /share/home/srwang/pyscf/pyscf
GIT HEAD      ref: refs/heads/master
GIT master branch  80f71dfe77ac5f9caae26788acf76446987635bd

[CONFIG] conf_file /share/home/srwang/.pyscf_conf.py
[INPUT] verbose = 4
[INPUT] num. atoms = 12
[INPUT] num. electrons = 42
[INPUT] charge = 0
[INPUT] spin (= nelec alpha-beta = 2S) = 0
[INPUT] symmetry False subgroup None
[INPUT] Mole.unit = angstrom
[INPUT]  1 C     -2.942942780000   0.390390380000   0.000000000000 AA   -5.561355854466   0.737730899865   0.000000000000 Bohr
[INPUT]  2 C     -1.547782780000   0.390390380000   0.000000000000 AA   -2.924885554518   0.737730899865   0.000000000000 Bohr
[INPUT]  3 C     -0.850244780000   1.598141380000   0.000000000000 AA   -1.606729773041   3.020049516534   0.000000000000 Bohr
[INPUT]  4 C     -1.547898780000   2.806650380000  -0.001199000000 AA   -2.925104762748   5.303800545606  -0.002265781623 Bohr
[INPUT]  5 C     -2.942723780000   2.806572380000  -0.001678000000 AA   -5.560942004445   5.303653146969  -0.003170960437 Bohr
[INPUT]  6 C     -3.640324780000   1.598366380000  -0.000682000000 AA   -6.879216838668   3.020474704912  -0.001288793217 Bohr
[INPUT]  7 H     -3.492701780000  -0.561926620000   0.000450000000 AA   -6.600249798981  -1.061887413903   0.000850376756 Bohr
[INPUT]  8 H     -0.998274780000  -0.562122620000   0.001315000000 AA   -1.886465931260  -1.062257800223   0.002484989854 Bohr
[INPUT]  9 H      0.249435220000   1.598221380000   0.000634000000 AA    0.471364251621   3.020200694624   0.001198086363 Bohr
[INPUT] 10 H     -0.997698780000   3.758793380000  -0.001258000000 AA   -1.885377449013   7.103090047028  -0.002377275465 Bohr
[INPUT] 11 H     -3.492845780000   3.758853380000  -0.002631000000 AA   -6.600521919543   7.103203430596  -0.004971869434 Bohr
[INPUT] 12 H     -4.739928780000   1.598549380000  -0.000862000000 AA   -8.957167244144   3.020820524793  -0.001628943919 Bohr

nuclear repulsion = 203.030749103728
number of shells = 54
number of NR pGTOs = 186
number of NR cGTOs = 114
basis = def2-svp
ecp = {}
CPU time:         1.65


******** <class 'pyscf.scf.hf.RHF'> ********
method = RHF
initial guess = minao
damping factor = 0
level_shift factor = 0
DIIS = <class 'pyscf.scf.diis.CDIIS'>
diis_start_cycle = 1
diis_space = 8
SCF conv_tol = 1e-05
SCF conv_tol_grad = None
SCF max_cycles = 50
direct_scf = True
direct_scf_tol = 1e-13
chkfile to save SCF result = /share/home/srwang/ExSCF/examples/tmp9mwt4plx
max_memory 4000 MB (current use 106 MB)
Set gradient conv threshold to 0.00316228
init E= -232.030731117781
  HOMO = -0.251933689397771  LUMO = 0.0388743318916365
cycle= 1 E= -230.468948375202  delta_E= 1.56  |g|= 0.407  |ddm|=  3.8
  HOMO = -0.359696921358997  LUMO = 0.112311394799903
cycle= 2 E= -230.529922236947  delta_E= -0.061  |g|= 0.107  |ddm|= 0.89
  HOMO = -0.329179035971889  LUMO = 0.141319088000411
cycle= 3 E= -230.534293686435  delta_E= -0.00437  |g|= 0.0297  |ddm|= 0.318
  HOMO = -0.338683540230958  LUMO = 0.132754664925123
cycle= 4 E= -230.534565623225  delta_E= -0.000272  |g|= 0.00436  |ddm|= 0.0405
  HOMO = -0.338222592015452  LUMO = 0.132936248728629
cycle= 5 E= -230.534572235629  delta_E= -6.61e-06  |g|= 0.000793  |ddm|= 0.00803
  HOMO = -0.337971839152625  LUMO = 0.133133864850456
Extra cycle  E= -230.534572550488  delta_E= -3.15e-07  |g|= 0.000258  |ddm|= 0.00111
converged SCF energy = -230.534572550488
**** generating mix guess ****
rotating angle: 0.25 pi


******** <class 'pyscf.scf.uhf.UHF'> ********
method = UHF
initial guess = minao
damping factor = 0
level_shift factor = 0
DIIS = <class 'pyscf.scf.diis.CDIIS'>
diis_start_cycle = 1
diis_space = 8
SCF conv_tol = 1e-09
SCF conv_tol_grad = None
SCF max_cycles = 100
direct_scf = True
direct_scf_tol = 1e-13
chkfile to save SCF result = /share/home/srwang/ExSCF/examples/tmpa_md6896
max_memory 4000 MB (current use 319 MB)
number electrons alpha = 21  beta = 21
Set gradient conv threshold to 3.16228e-05
init E= -107.811231637399
  alpha nocc = 21  HOMO = 9.46156558604118  LUMO = 9.47893415792861
  beta  nocc = 21  HOMO = 9.46156646752916  LUMO = 9.4788836297612
cycle= 1 E= -173.543297745173  delta_E= -65.7  |g|= 5.92  |ddm|=  755
  alpha nocc = 21  HOMO = -3.24645317011745  LUMO = -3.22713445221589
  beta  nocc = 21  HOMO = -3.24643519641335  LUMO = -3.227136400542
cycle= 2 E= -201.911566074587  delta_E= -28.4  |g|= 5.68  |ddm|=  755
  alpha nocc = 21  HOMO = -1.09227624343199  LUMO = -0.916277781010751
  beta  nocc = 21  HOMO = -1.09207596781168  LUMO = -0.916278529054934
cycle= 3 E= -228.902577476508  delta_E=  -27  |g|= 1.53  |ddm|= 9.15
  alpha nocc = 21  HOMO = -0.488420307276085  LUMO = -0.0244293883473462
  beta  nocc = 21  HOMO = -0.488414877322711  LUMO = -0.0244266435249625
cycle= 4 E= -230.191395715455  delta_E= -1.29  |g|= 0.762  |ddm|= 1.34
  alpha nocc = 21  HOMO = -0.403240383829838  LUMO = 0.0849789048953258
  beta  nocc = 21  HOMO = -0.40323016582622  LUMO = 0.0849974341065906
cycle= 5 E= -230.475260628937  delta_E= -0.284  |g|= 0.319  |ddm|= 0.696
  alpha nocc = 21  HOMO = -0.338294217320786  LUMO = 0.128022980812261
  beta  nocc = 21  HOMO = -0.338256040091746  LUMO = 0.128053141422484
cycle= 6 E= -230.533191511978  delta_E= -0.0579  |g|= 0.0438  |ddm|= 0.43
  alpha nocc = 21  HOMO = -0.337981775501754  LUMO = 0.131333078263558
  beta  nocc = 21  HOMO = -0.337956635377603  LUMO = 0.131358529852703
cycle= 7 E= -230.53430967567  delta_E= -0.00112  |g|= 0.0198  |ddm|= 0.0599
  alpha nocc = 21  HOMO = -0.338023798433735  LUMO = 0.132945068743628
  beta  nocc = 21  HOMO = -0.338026661372542  LUMO = 0.132943954702705
cycle= 8 E= -230.534568848925  delta_E= -0.000259  |g|= 0.00251  |ddm|= 0.0258
  alpha nocc = 21  HOMO = -0.337845063108043  LUMO = 0.133223076895225
  beta  nocc = 21  HOMO = -0.337845345243323  LUMO = 0.133222379143175
cycle= 9 E= -230.534574084284  delta_E= -5.24e-06  |g|= 0.000647  |ddm|= 0.00529
  alpha nocc = 21  HOMO = -0.337992400332189  LUMO = 0.133112657514302
  beta  nocc = 21  HOMO = -0.337992398304991  LUMO = 0.133112609502037
cycle= 10 E= -230.534574415957  delta_E= -3.32e-07  |g|= 0.00026  |ddm|= 0.000771
  alpha nocc = 21  HOMO = -0.337973578945967  LUMO = 0.133124207335904
  beta  nocc = 21  HOMO = -0.337973626127687  LUMO = 0.133124137243722
cycle= 11 E= -230.53457464041  delta_E= -2.24e-07  |g|= 0.000255  |ddm|= 0.000591
  alpha nocc = 21  HOMO = -0.337969313955604  LUMO = 0.133125264605303
  beta  nocc = 21  HOMO = -0.337969318174504  LUMO = 0.13312522354356
cycle= 12 E= -230.534574296252  delta_E= 3.44e-07  |g|= 0.000236  |ddm|= 0.000901
  alpha nocc = 21  HOMO = -0.337971203790049  LUMO = 0.133122062971366
  beta  nocc = 21  HOMO = -0.337971110319528  LUMO = 0.133122113593317
cycle= 13 E= -230.534573099993  delta_E= 1.2e-06  |g|= 0.000154  |ddm|= 0.00417
  alpha nocc = 21  HOMO = -0.337965881329617  LUMO = 0.133125708227145
  beta  nocc = 21  HOMO = -0.337965763428599  LUMO = 0.133125700159234
cycle= 14 E= -230.534572619805  delta_E= 4.8e-07  |g|= 6.34e-05  |ddm|= 0.00386
  alpha nocc = 21  HOMO = -0.337968351110173  LUMO = 0.133120843973877
  beta  nocc = 21  HOMO = -0.337968318600365  LUMO = 0.133120843252287
cycle= 15 E= -230.534572587364  delta_E= 3.24e-08  |g|= 2.23e-05  |ddm|= 0.00133
  alpha nocc = 21  HOMO = -0.337968966255212  LUMO = 0.133120098649715
  beta  nocc = 21  HOMO = -0.337968954871803  LUMO = 0.133120098477482
cycle= 16 E= -230.534572587824  delta_E= -4.6e-10  |g|= 1.06e-05  |ddm|= 0.000191
  alpha nocc = 21  HOMO = -0.337968331575167  LUMO = 0.133120802712416
  beta  nocc = 21  HOMO = -0.337968322157969  LUMO = 0.133120801544154
Extra cycle  E= -230.534572588001  delta_E= -1.77e-10  |g|= 6.87e-06  |ddm|= 1.96e-05
converged SCF energy = -230.534572588001  <S^2> = 3.257302e-09  2S+1 = 1
**** checking UHF/UKS internal stability ...
tol 0.0001  toloose 0.01
max_cycle 50  max_space 12  max_memory 2000  incore True
davidson 0 1  |r|= 2.32  e= [2.45492]  max|de|= 2.45  lindep=    1
davidson 1 2  |r|= 0.233  e= [2.002565]  max|de|= -0.452  lindep= 0.994
davidson 2 3  |r|= 0.382  e= [1.592637]  max|de|= -0.41  lindep= 0.998
davidson 3 4  |r|= 0.283  e= [1.170173]  max|de|= -0.422  lindep= 0.998
davidson 4 5  |r|= 0.366  e= [0.901741]  max|de|= -0.268  lindep= 0.942
davidson 5 6  |r|= 0.21  e= [0.820171]  max|de|= -0.0816  lindep= 0.873
davidson 6 7  |r|= 0.442  e= [0.531344]  max|de|= -0.289  lindep= 0.988
davidson 7 8  |r|= 0.273  e= [0.427768]  max|de|= -0.104  lindep= 0.974
davidson 8 9  |r|= 0.245  e= [0.348846]  max|de|= -0.0789  lindep= 0.951
davidson 9 10  |r|= 0.558  e= [0.173997]  max|de|= -0.175  lindep= 0.918
davidson 10 11  |r|= 0.251  e= [-0.022969]  max|de|= -0.197  lindep= 0.98
davidson 11 12  |r|= 0.0722  e= [-0.05095]  max|de|= -0.028  lindep= 0.981
davidson 12 1  |r|= 0.0722  e= [-0.05095]  max|de|= 4.37e-16  lindep= 0.988
davidson 13 2  |r|= 0.0317  e= [-0.052775]  max|de|= -0.00183  lindep= 0.984
davidson 14 3  |r|= 0.015  e= [-0.053255]  max|de|= -0.00048  lindep= 0.992
root 0 converged  |r|= 0.0053  e= -0.05334679848173461  max|de|= -9.15e-05
converged 15 4  |r|= 0.0053  e= [-0.053347]  max|de|= -9.15e-05
UHF/UKS wavefunction has an internal instability.


******** <class 'pyscf.scf.uhf.UHF'> ********
method = UHF
initial guess = minao
damping factor = 0
level_shift factor = 0
DIIS = <class 'pyscf.scf.diis.CDIIS'>
diis_start_cycle = 1
diis_space = 8
SCF conv_tol = 1e-09
SCF conv_tol_grad = None
SCF max_cycles = 100
direct_scf = True
direct_scf_tol = 1e-13
chkfile to save SCF result = /share/home/srwang/ExSCF/examples/tmpa_md6896
max_memory 4000 MB (current use 501 MB)
number electrons alpha = 21  beta = 21
Set gradient conv threshold to 3.16228e-05
init E= -230.506432297028
  alpha nocc = 21  HOMO = -0.38407004663125  LUMO = 0.175177380598857
  beta  nocc = 21  HOMO = -0.383956139647214  LUMO = 0.175203519285471
cycle= 1 E= -230.523352732229  delta_E= -0.0169  |g|= 0.0499  |ddm|= 0.174
  alpha nocc = 21  HOMO = -0.375720531516509  LUMO = 0.172414308851398
  beta  nocc = 21  HOMO = -0.375701239473992  LUMO = 0.172446391500237
cycle= 2 E= -230.529074776946  delta_E= -0.00572  |g|= 0.0355  |ddm|= 0.0961
  alpha nocc = 21  HOMO = -0.373373536021606  LUMO = 0.160138843765723
  beta  nocc = 21  HOMO = -0.37328712730573  LUMO = 0.160175247429029
cycle= 3 E= -230.534167066446  delta_E= -0.00509  |g|= 0.0223  |ddm|= 0.136
  alpha nocc = 21  HOMO = -0.362371027811447  LUMO = 0.155995435696473
  beta  nocc = 21  HOMO = -0.362354942269643  LUMO = 0.156009059610526
cycle= 4 E= -230.53688789743  delta_E= -0.00272  |g|= 0.0111  |ddm|= 0.14
  alpha nocc = 21  HOMO = -0.355771270510358  LUMO = 0.149469177263425
  beta  nocc = 21  HOMO = -0.355771561307862  LUMO = 0.149488935252141
cycle= 5 E= -230.537663202867  delta_E= -0.000775  |g|= 0.00373  |ddm|=  0.1
  alpha nocc = 21  HOMO = -0.353368531015854  LUMO = 0.147619220081798
  beta  nocc = 21  HOMO = -0.353340579831056  LUMO = 0.147614093494285
cycle= 6 E= -230.537736971434  delta_E= -7.38e-05  |g|= 0.00102  |ddm|= 0.0358
  alpha nocc = 21  HOMO = -0.35304588404764  LUMO = 0.147317831693517
  beta  nocc = 21  HOMO = -0.353044129097113  LUMO = 0.147347536092979
cycle= 7 E= -230.537739386681  delta_E= -2.42e-06  |g|= 0.000402  |ddm|= 0.00741
  alpha nocc = 21  HOMO = -0.353096921016662  LUMO = 0.147330959175014
  beta  nocc = 21  HOMO = -0.353086043106517  LUMO = 0.147331363375655
cycle= 8 E= -230.537739567584  delta_E= -1.81e-07  |g|= 0.00016  |ddm|= 0.000808
  alpha nocc = 21  HOMO = -0.353174325200991  LUMO = 0.147378107284517
  beta  nocc = 21  HOMO = -0.353169154549689  LUMO = 0.147383654269783
cycle= 9 E= -230.537739694057  delta_E= -1.26e-07  |g|= 4.97e-05  |ddm|= 0.00118
  alpha nocc = 21  HOMO = -0.353210753310301  LUMO = 0.14741457952117
  beta  nocc = 21  HOMO = -0.353204712544324  LUMO = 0.147419568890439
cycle= 10 E= -230.537739712591  delta_E= -1.85e-08  |g|= 1.3e-05  |ddm|= 0.000585
  alpha nocc = 21  HOMO = -0.35321836821238  LUMO = 0.147423694584777
  beta  nocc = 21  HOMO = -0.353212705700605  LUMO = 0.147428973911583
cycle= 11 E= -230.537739713483  delta_E= -8.91e-10  |g|= 4.02e-06  |ddm|= 0.000147
  alpha nocc = 21  HOMO = -0.35321863600414  LUMO = 0.14742383287706
  beta  nocc = 21  HOMO = -0.353212705217402  LUMO = 0.147428973662482
Extra cycle  E= -230.537739713496  delta_E= -1.28e-11  |g|= 2.12e-06  |ddm|= 7.16e-06
converged SCF energy = -230.537739713496  <S^2> = 0.45180986  2S+1 = 1.6754819
**** checking UHF/UKS internal stability ...
tol 0.0001  toloose 0.01
max_cycle 50  max_space 12  max_memory 2000  incore True
davidson 0 1  |r|= 2.33  e= [2.425497]  max|de|= 2.43  lindep= 0.997
davidson 1 2  |r|= 0.265  e= [1.961775]  max|de|= -0.464  lindep= 0.997
davidson 2 3  |r|= 0.278  e= [1.485244]  max|de|= -0.477  lindep=    1
davidson 3 4  |r|= 0.238  e= [1.096288]  max|de|= -0.389  lindep= 0.998
davidson 4 5  |r|= 0.237  e= [0.766927]  max|de|= -0.329  lindep= 0.965
davidson 5 6  |r|= 0.29  e= [0.681639]  max|de|= -0.0853  lindep= 0.927
davidson 6 7  |r|= 0.444  e= [0.508743]  max|de|= -0.173  lindep= 0.944
davidson 7 8  |r|= 0.357  e= [0.257185]  max|de|= -0.252  lindep= 0.988
davidson 8 9  |r|= 0.252  e= [0.172104]  max|de|= -0.0851  lindep= 0.967
davidson 9 10  |r|= 0.14  e= [0.119475]  max|de|= -0.0526  lindep= 0.969
davidson 10 11  |r|= 0.0851  e= [0.105093]  max|de|= -0.0144  lindep= 0.976
davidson 11 12  |r|= 0.0267  e= [0.102155]  max|de|= -0.00294  lindep= 0.989
davidson 12 1  |r|= 0.0267  e= [0.102155]  max|de|= -1.39e-17  lindep= 0.999
davidson 13 2  |r|= 0.0132  e= [0.101796]  max|de|= -0.000359  lindep= 0.991
root 0 converged  |r|= 0.00594  e= 0.10171617078830142  max|de|= -7.99e-05
converged 14 3  |r|= 0.00594  e= [0.101716]  max|de|= -7.99e-05
UHF/UKS wavefunction is stable in the internal stability analysis
time for guess: 3.373

******** <class 'pyphf.suscf.SUHF'> ********
Date: Mon Jul  5 13:31:45 2021
pyphf version 0.4.0
pyphf path  /share/home/srwang/ExSCF
GIT ORIG_HEAD 3359379feaf48d24d1be318eb6e2afc227b11fdb
GIT HEAD (branch main) bc10c7af3fe3904d1db1be08e3fae4560657cda2
max_cycle: 70
verbose: 4                # normal
conv_tol: 1e-07           # 1e-07 for RMSD(dm), 1e-05 for MaxD(dm), 1e-09 for dE
DIIS: <class 'pyscf.scf.diis.CDIIS'>
diis_start_cyc = 10
grids:  [0.062377 0.319396 0.745292 1.282658 1.858935 2.396301 2.822197 3.079216] 
weights:  [0.159009 0.349315 0.492769 0.569702 0.569702 0.492769 0.349315 0.159009]
S = 0.0, Sz = 0.0
Wigner small d:  1
value : [1. 1. 1. 1. 1. 1. 1. 1.]
time for Preparation before cyc: 2.134
**** Start Cycle 1 ****
time for NO, Ng: 0.382
time for Gg: 2.263
detC 1.000000000000002
detNg [1.000439 1.011517 1.062483 1.181885 1.360962 1.531217 1.622888 1.644738]
xg [0.999561 0.988614 0.941192 0.846106 0.734774 0.653076 0.616185 0.608   ]
ciS 1.588242314024424
ciH -688.6612607121356
S2 = 0.000000
Hsp + Hph =  -433.5996180375946
Alpha occ 21 vir 93; Beta occ 21 vir 93
Alpha energies:  [-0.584158 -0.506243 -0.492131 -0.492038 -0.35445  -0.354415] <- HOMO
         LUMO->  [0.148478 0.148532 0.17999  0.221094 0.221102 0.259338]
Beta energies:   [-0.584157 -0.506243 -0.492131 -0.492037 -0.354457 -0.354409] <- HOMO
         LUMO->  [0.148484 0.148528 0.179989 0.221093 0.221102 0.259338]
time for xg, H, S2, Yg, Feff: 0.102
 E =   -230.56886893
**** Start Cycle 2 ****
time for NO, Ng: 0.380
time for Gg: 2.260
detC -0.9999999999999931
detNg [1.000622 1.016354 1.090017 1.27093  1.564684 1.869838 2.04499  2.087887]
xg [0.999378 0.983909 0.917417 0.786826 0.639107 0.534806 0.489    0.478953]
ciS 1.4403901441216476
ciH -624.5717607559741
S2 = 0.000000
Hsp + Hph =  -433.61290918637815
Alpha occ 21 vir 93; Beta occ 21 vir 93
Alpha energies:  [-0.58401  -0.507855 -0.491842 -0.491749 -0.360693 -0.360663] <- HOMO
         LUMO->  [0.153988 0.15404  0.180142 0.221271 0.221278 0.259676]
Beta energies:   [-0.584009 -0.507855 -0.491843 -0.491749 -0.360702 -0.360656] <- HOMO
         LUMO->  [0.153994 0.154036 0.180141 0.221269 0.221279 0.259677]
time for xg, H, S2, Yg, Feff: 0.098
 E =   -230.58216008, delta E = -0.0132911, MaxD(dm) =  0.0294493, RMSD(dm) = 0.00088433
**** Start Cycle 3 ****
time for NO, Ng: 0.381
time for Gg: 2.250
detC -1.0000000000000107
detNg [1.000823 1.021721 1.121472 1.379746 1.839626 2.371595 2.702667 2.78668 ]
xg [0.999177 0.978741 0.891685 0.724771 0.543589 0.421657 0.370005 0.35885 ]
ciS 1.2930981792042504
ciH -560.7209567077748
S2 = 0.000000
Hsp + Hph =  -433.62597343755635
Alpha occ 21 vir 93; Beta occ 21 vir 93
Alpha energies:  [-0.582699 -0.508436 -0.490382 -0.49029  -0.366231 -0.366204] <- HOMO
         LUMO->  [0.160498 0.160547 0.180642 0.221706 0.221713 0.260218]
Beta energies:   [-0.582699 -0.508436 -0.490383 -0.490289 -0.36624  -0.366197] <- HOMO
         LUMO->  [0.160504 0.160542 0.180641 0.221704 0.221714 0.260219]
time for xg, H, S2, Yg, Feff: 0.097
 E =   -230.59522433, delta E = -0.0130643, MaxD(dm) =  0.0226114, RMSD(dm) = 0.000765528
**** Start Cycle 4 ****
time for NO, Ng: 0.377
time for Gg: 2.254
detC 1.0000000000000024
detNg [1.00101  1.026722 1.151623 1.491238 2.151872 3.003035 3.579554 3.73159 ]
xg [0.998991 0.973973 0.86834  0.670584 0.464712 0.332996 0.279364 0.267982]
ciS 1.1716177878421026
ciH -508.05587760802285
S2 = -0.000000
Hsp + Hph =  -433.6361933730669
Alpha occ 21 vir 93; Beta occ 21 vir 93
Alpha energies:  [-0.581751 -0.509434 -0.489308 -0.489216 -0.371781 -0.371757] <- HOMO
         LUMO->  [0.165958 0.166005 0.181054 0.22211  0.222117 0.260765]
Beta energies:   [-0.58175  -0.509433 -0.489308 -0.489215 -0.371791 -0.37175 ] <- HOMO
         LUMO->  [0.165965 0.166    0.181053 0.222107 0.222117 0.260765]
time for xg, H, S2, Yg, Feff: 0.098
 E =   -230.60544427, delta E = -0.0102199, MaxD(dm) =  0.0163791, RMSD(dm) = 0.000577226
**** Start Cycle 5 ****
time for NO, Ng: 0.378
time for Gg: 2.249
detC -1.0000000000000007
detNg [1.001154 1.03061  1.175565 1.584464 2.435665 3.629806 4.496431 4.732466]
xg [0.998847 0.970299 0.850654 0.631128 0.410566 0.275497 0.222399 0.211306]
ciS 1.088150747727666
ciH -471.8686987598495
S2 = -0.000000
Hsp + Hph =  -433.64276479635816
Alpha occ 21 vir 93; Beta occ 21 vir 93
Alpha energies:  [-0.58068  -0.509855 -0.488156 -0.488064 -0.376069 -0.376046] <- HOMO
         LUMO->  [0.170557 0.170601 0.181483 0.222503 0.22251  0.261274]
Beta energies:   [-0.580679 -0.509854 -0.488157 -0.488064 -0.376078 -0.376039] <- HOMO
         LUMO->  [0.170563 0.170597 0.181481 0.2225   0.22251  0.261274]
time for xg, H, S2, Yg, Feff: 0.092
 E =   -230.61201569, delta E = -0.00657142, MaxD(dm) =  0.0125999, RMSD(dm) = 0.000406427
**** Start Cycle 6 ****
time for NO, Ng: 0.377
time for Gg: 2.250
detC 1.0000000000000078
detNg [1.001253 1.033266 1.192108 1.65075  2.647405 4.123363 5.242993 5.554397]
xg [0.998749 0.967805 0.83885  0.605785 0.377728 0.242521 0.190731 0.180038]
ciS 1.0373489889988556
ciH -449.8429798769178
S2 = -0.000000
Hsp + Hph =  -433.64671354339566
Alpha occ 21 vir 93; Beta occ 21 vir 93
Alpha energies:  [-0.579923 -0.510151 -0.48737  -0.487278 -0.379354 -0.379333] <- HOMO
         LUMO->  [0.173831 0.173874 0.181803 0.222795 0.222802 0.261671]
Beta energies:   [-0.579923 -0.510151 -0.487371 -0.487277 -0.379364 -0.379326] <- HOMO
         LUMO->  [0.173837 0.17387  0.181802 0.222792 0.222802 0.261672]
time for xg, H, S2, Yg, Feff: 0.093
 E =   -230.61596444, delta E = -0.00394875, MaxD(dm) = 0.00928377, RMSD(dm) = 0.000295249
**** Start Cycle 7 ****
time for NO, Ng: 0.377
time for Gg: 2.254
detC 1.0000000000000016
detNg [1.001317 1.035007 1.202991 1.694732 2.790018 4.461884 5.761324 6.126899]
xg [0.998685 0.966177 0.831261 0.590064 0.358421 0.224121 0.173571 0.163215]
ciS 1.0073020660751453
ciH -436.8157172554303
S2 = -0.000000
Hsp + Hph =  -433.64918227303974
Alpha occ 21 vir 93; Beta occ 21 vir 93
Alpha energies:  [-0.579337 -0.510259 -0.48679  -0.486699 -0.381609 -0.381587] <- HOMO
         LUMO->  [0.176117 0.17616  0.182057 0.223008 0.223015 0.261973]
Beta energies:   [-0.579336 -0.510259 -0.486791 -0.486697 -0.381618 -0.381581] <- HOMO
         LUMO->  [0.176123 0.176156 0.182055 0.223005 0.223015 0.261973]
time for xg, H, S2, Yg, Feff: 0.095
 E =   -230.61843317, delta E = -0.00246873, MaxD(dm) = 0.00638525, RMSD(dm) = 0.00022904
**** Start Cycle 8 ****
time for NO, Ng: 0.378
time for Gg: 2.254
detC -1.0000000000000018
detNg [1.00136  1.036174 1.210275 1.724054 2.884473 4.684615 6.101184 6.501981]
xg [0.998642 0.965089 0.826259 0.580028 0.346684 0.213465 0.163903 0.153799]
ciS 0.9889030969994261
ciH -428.83865002381833
S2 = -0.000000
Hsp + Hph =  -433.6508312341419
Alpha occ 21 vir 93; Beta occ 21 vir 93
Alpha energies:  [-0.578941 -0.510361 -0.486423 -0.486332 -0.383156 -0.383135] <- HOMO
         LUMO->  [0.177638 0.17768  0.182244 0.223151 0.223158 0.262196]
Beta energies:   [-0.578941 -0.510361 -0.486424 -0.486331 -0.383165 -0.383129] <- HOMO
         LUMO->  [0.177644 0.177677 0.182242 0.223148 0.223158 0.262196]
time for xg, H, S2, Yg, Feff: 0.092
 E =   -230.62008213, delta E = -0.00164896, MaxD(dm) = 0.00417523, RMSD(dm) = 0.000187983
**** Start Cycle 9 ****
time for NO, Ng: 0.377
time for Gg: 2.254
detC 0.9999999999999934
detNg [1.00139  1.036991 1.215354 1.744289 2.948464 4.832344 6.323653 6.746687]
xg [0.998612 0.964329 0.822806 0.573299 0.33916  0.206939 0.158136 0.148221]
ciS 0.977011805181587
ciH -423.6831275120604
S2 = -0.000000
Hsp + Hph =  -433.6520042696054
Alpha occ 21 vir 93; Beta occ 21 vir 93
Alpha energies:  [-0.578656 -0.510458 -0.486178 -0.486087 -0.384182 -0.384161] <- HOMO
         LUMO->  [0.178669 0.178711 0.182392 0.223249 0.223256 0.262365]
Beta energies:   [-0.578655 -0.510458 -0.486179 -0.486085 -0.38419  -0.384155] <- HOMO
         LUMO->  [0.178675 0.178707 0.18239  0.223245 0.223256 0.262366]
time for xg, H, S2, Yg, Feff: 0.091
 E =   -230.62125517, delta E = -0.00117304, MaxD(dm) = 0.00262278, RMSD(dm) = 0.000160905
**** Start Cycle 10 ****
time for NO, Ng: 0.378
time for Gg: 2.249
detC -0.9999999999999942
detNg [1.001413 1.037589 1.219057 1.758838 2.993325 4.932802 6.471959 6.908976]
xg [0.998589 0.963772 0.820306 0.568557 0.334077 0.202725 0.154513 0.144739]
ciS 0.9689081463613579
ciH -420.1698119895126
S2 = -0.000000
Hsp + Hph =  -433.6528839884567
F(mod,ortho) updated with CDIIS
Alpha occ 21 vir 93; Beta occ 21 vir 93
Alpha energies:  [-0.578459 -0.510576 -0.486026 -0.485936 -0.384869 -0.384848] <- HOMO
         LUMO->  [0.179361 0.179402 0.182509 0.223314 0.22332  0.262496]
Beta energies:   [-0.578459 -0.510575 -0.486028 -0.485934 -0.384877 -0.384842] <- HOMO
         LUMO->  [0.179366 0.179399 0.182507 0.22331  0.223321 0.262497]
time for xg, H, S2, Yg, Feff: 0.092
 E =   -230.62213488, delta E = -0.000879719, MaxD(dm) = 0.00212494, RMSD(dm) = 0.000141659
**** Start Cycle 11 ****
time for NO, Ng: 0.379
time for Gg: 2.249
detC -1.0000000000000067
detNg [1.00143  1.038047 1.221873 1.769732 3.025947 5.003185 6.573257 7.019074]
xg [0.998572 0.963347 0.818416 0.565057 0.330475 0.199873 0.152132 0.142469]
ciS 0.9631138827894632
ciH -417.6577729351993
S2 = -0.000000
Hsp + Hph =  -433.6535693219775
F(mod,ortho) updated with CDIIS
Alpha occ 21 vir 93; Beta occ 21 vir 93
Alpha energies:  [-0.577958 -0.511297 -0.485882 -0.485792 -0.387423 -0.387401] <- HOMO
         LUMO->  [0.181972 0.182013 0.183148 0.223605 0.223611 0.263136]
Beta energies:   [-0.577957 -0.511297 -0.485883 -0.48579  -0.387431 -0.387396] <- HOMO
         LUMO->  [0.181977 0.18201  0.183146 0.2236   0.223611 0.263136]
time for xg, H, S2, Yg, Feff: 0.093
 E =   -230.62282022, delta E = -0.000685334, MaxD(dm) =   0.010769, RMSD(dm) = 0.00070419
**** Start Cycle 12 ****
time for NO, Ng: 0.379
time for Gg: 2.255
detC 1.000000000000006
detNg [1.001514 1.040334 1.235935 1.824017 3.186718 5.342822 7.053754 7.538786]
xg [0.998488 0.96123  0.809104 0.548241 0.313802 0.187167 0.141768 0.132647]
ciS 0.9359964539426637
ciH -405.90025860307145
S2 = -0.000001
Hsp + Hph =  -433.6557653539312
F(mod,ortho) updated with CDIIS
Alpha occ 21 vir 93; Beta occ 21 vir 93
Alpha energies:  [-0.576838 -0.511294 -0.484426 -0.484336 -0.384296 -0.384273] <- HOMO
         LUMO->  [0.179591 0.179634 0.182657 0.223142 0.223148 0.262771]
Beta energies:   [-0.576836 -0.511294 -0.484427 -0.484333 -0.384304 -0.384268] <- HOMO
         LUMO->  [0.179597 0.17963  0.182655 0.223137 0.223148 0.262771]
time for xg, H, S2, Yg, Feff: 0.095
 E =   -230.62501625, delta E = -0.00219603, MaxD(dm) = 0.00946852, RMSD(dm) = 0.000274418
**** Start Cycle 13 ****
time for NO, Ng: 0.377
time for Gg: 2.257
detC 0.9999999999999887
detNg [1.001454 1.038686 1.225272 1.777649 3.021384 4.919041 6.380725 6.789272]
xg [0.998548 0.962755 0.816145 0.562541 0.330974 0.203292 0.156722 0.147291]
ciS 0.9628817122955996
ciH -417.55929892786986
S2 = -0.000001
Hsp + Hph =  -433.65586197744847
F(mod,ortho) updated with CDIIS
Alpha occ 21 vir 93; Beta occ 21 vir 93
Alpha energies:  [-0.577574 -0.511716 -0.485454 -0.485364 -0.384686 -0.384663] <- HOMO
         LUMO->  [0.17956  0.179603 0.182925 0.22323  0.223236 0.262969]
Beta energies:   [-0.577573 -0.511715 -0.485455 -0.485362 -0.384694 -0.384657] <- HOMO
         LUMO->  [0.179566 0.179599 0.182923 0.223225 0.223237 0.262969]
time for xg, H, S2, Yg, Feff: 0.094
 E =   -230.62511287, delta E = -9.66235e-05, MaxD(dm) = 0.00407812, RMSD(dm) = 0.000262808
**** Start Cycle 14 ****
time for NO, Ng: 0.378
time for Gg: 2.248
detC 0.9999999999999947
detNg [1.001485 1.039533 1.230456 1.797375 3.078104 5.034382 6.539819 6.960214]
xg [0.998517 0.961971 0.812707 0.556367 0.324875 0.198634 0.152909 0.143674]
ciS 0.9529323534610515
ciH -413.2451213193463
S2 = -0.000001
Hsp + Hph =  -433.65630290381
F(mod,ortho) updated with CDIIS
Alpha occ 21 vir 93; Beta occ 21 vir 93
Alpha energies:  [-0.5778   -0.511431 -0.485987 -0.485898 -0.385013 -0.38499 ] <- HOMO
         LUMO->  [0.1804   0.180442 0.183417 0.223444 0.22345  0.26332 ]
Beta energies:   [-0.577798 -0.511431 -0.485989 -0.485896 -0.385021 -0.384985] <- HOMO
         LUMO->  [0.180405 0.180438 0.183415 0.223439 0.223451 0.263321]
time for xg, H, S2, Yg, Feff: 0.091
 E =   -230.62555380, delta E = -0.000440926, MaxD(dm) = 0.00429897, RMSD(dm) = 0.000276249
**** Start Cycle 15 ****
time for NO, Ng: 0.377
time for Gg: 2.254
detC -1.000000000000005
detNg [1.00153  1.040743 1.237982 1.827145 3.169392 5.234215 6.829015 7.274902]
xg [0.998472 0.960852 0.807766 0.547302 0.315518 0.191051 0.146434 0.137459]
ciS 0.9377894462152895
ciH -406.6784453377635
S2 = -0.000001
Hsp + Hph =  -433.656453459812
F(mod,ortho) updated with CDIIS
Alpha occ 21 vir 93; Beta occ 21 vir 93
Alpha energies:  [-0.578092 -0.511644 -0.486333 -0.486244 -0.385523 -0.3855  ] <- HOMO
         LUMO->  [0.180367 0.180409 0.183449 0.22345  0.223456 0.263376]
Beta energies:   [-0.578091 -0.511644 -0.486335 -0.486242 -0.385531 -0.385495] <- HOMO
         LUMO->  [0.180372 0.180406 0.183447 0.223445 0.223457 0.263377]
time for xg, H, S2, Yg, Feff: 0.091
 E =   -230.62570436, delta E = -0.000150556, MaxD(dm) = 0.000996075, RMSD(dm) = 5.04288e-05
**** Start Cycle 16 ****
time for NO, Ng: 0.377
time for Gg: 2.247
detC -0.9999999999999986
detNg [1.00154  1.041013 1.239688 1.834168 3.192308 5.287712 6.909429 7.363238]
xg [0.998462 0.960603 0.806655 0.545206 0.313253 0.189118 0.14473  0.13581 ]
ciS 0.9341593903452088
ciH -405.10424210578526
S2 = -0.000001
Hsp + Hph =  -433.656446953965
F(mod,ortho) updated with CDIIS
Alpha occ 21 vir 93; Beta occ 21 vir 93
Alpha energies:  [-0.57783  -0.51159  -0.485908 -0.485819 -0.385202 -0.385179] <- HOMO
         LUMO->  [0.180064 0.180107 0.183232 0.223357 0.223363 0.263208]
Beta energies:   [-0.577828 -0.51159  -0.485909 -0.485816 -0.38521  -0.385174] <- HOMO
         LUMO->  [0.180069 0.180103 0.18323  0.223352 0.223364 0.263208]
time for xg, H, S2, Yg, Feff: 0.091
 E =   -230.62569785, delta E = 6.50585e-06, MaxD(dm) = 0.00228928, RMSD(dm) = 0.000139457
**** Start Cycle 17 ****
time for NO, Ng: 0.376
time for Gg: 2.247
detC 1.0000000000000018
detNg [1.001517 1.040376 1.235721 1.818387 3.143529 5.180159 6.753169 7.193043]
xg [0.998486 0.961191 0.809244 0.549938 0.318114 0.193044 0.148079 0.139023]
ciS 0.9420403335755111
ciH -408.5218714913755
S2 = -0.000001
Hsp + Hph =  -433.65645496391016
F(mod,ortho) updated with CDIIS
Alpha occ 21 vir 93; Beta occ 21 vir 93
Alpha energies:  [-0.577882 -0.511645 -0.48595  -0.485862 -0.385139 -0.385116] <- HOMO
         LUMO->  [0.17996  0.180002 0.183256 0.223363 0.223368 0.263228]
Beta energies:   [-0.577881 -0.511645 -0.485952 -0.485859 -0.385147 -0.385111] <- HOMO
         LUMO->  [0.179965 0.179998 0.183254 0.223358 0.223369 0.263228]
time for xg, H, S2, Yg, Feff: 0.091
 E =   -230.62570586, delta E = -8.00995e-06, MaxD(dm) = 0.000962834, RMSD(dm) = 4.2944e-05
**** Start Cycle 18 ****
time for NO, Ng: 0.377
time for Gg: 2.258
detC -1.0000000000000062
detNg [1.001517 1.040398 1.235835 1.818607 3.14298  5.175832 6.744005 7.182252]
xg [0.998485 0.96117  0.809169 0.549871 0.318169 0.193206 0.14828  0.139232]
ciS 0.9420852708563188
ciH -408.5413655721456
S2 = -0.000001
Hsp + Hph =  -433.65646211706235
F(mod,ortho) updated with CDIIS
Alpha occ 21 vir 93; Beta occ 21 vir 93
Alpha energies:  [-0.577954 -0.511653 -0.486099 -0.48601  -0.385268 -0.385245] <- HOMO
         LUMO->  [0.180075 0.180117 0.183337 0.223388 0.223393 0.263285]
Beta energies:   [-0.577952 -0.511652 -0.486101 -0.486007 -0.385276 -0.38524 ] <- HOMO
         LUMO->  [0.18008  0.180113 0.183335 0.223383 0.223394 0.263285]
time for xg, H, S2, Yg, Feff: 0.101
 E =   -230.62571301, delta E = -7.15315e-06, MaxD(dm) = 0.000832468, RMSD(dm) = 4.85798e-05
**** Start Cycle 19 ****
time for NO, Ng: 0.378
time for Gg: 2.261
detC -1.0000000000000056
detNg [1.001526 1.040636 1.23732  1.824557 3.161595 5.217486 6.805103 7.248963]
xg [0.998476 0.960951 0.808198 0.548078 0.316296 0.191663 0.146949 0.137951]
ciS 0.9390596789399941
ciH -407.2293053188402
S2 = -0.000001
Hsp + Hph =  -433.6564698193821
F(mod,ortho) updated with CDIIS
Alpha occ 21 vir 93; Beta occ 21 vir 93
Alpha energies:  [-0.577956 -0.511643 -0.4861   -0.486011 -0.385265 -0.385242] <- HOMO
         LUMO->  [0.180093 0.180135 0.183333 0.223385 0.22339  0.263282]
Beta energies:   [-0.577955 -0.511643 -0.486102 -0.486009 -0.385273 -0.385237] <- HOMO
         LUMO->  [0.180098 0.180131 0.183332 0.22338  0.223391 0.263282]
time for xg, H, S2, Yg, Feff: 0.094
 E =   -230.62572072, delta E = -7.70232e-06, MaxD(dm) = 6.84401e-05, RMSD(dm) = 3.89183e-06
**** Start Cycle 20 ****
time for NO, Ng: 0.377
time for Gg: 2.254
detC 0.9999999999999972
detNg [1.001526 1.040636 1.237325 1.82461  3.161944 5.218722 6.807332 7.251513]
xg [0.998476 0.960951 0.808195 0.548062 0.316261 0.191618 0.1469   0.137902]
ciS 0.9390098713065882
ciH -407.2077059193434
S2 = -0.000001
Hsp + Hph =  -433.65646982255146
F(mod,ortho) updated with CDIIS
Alpha occ 21 vir 93; Beta occ 21 vir 93
Alpha energies:  [-0.577976 -0.511646 -0.486126 -0.486037 -0.385274 -0.385252] <- HOMO
         LUMO->  [0.180093 0.180136 0.183344 0.223388 0.223394 0.26329 ]
Beta energies:   [-0.577975 -0.511646 -0.486127 -0.486034 -0.385283 -0.385247] <- HOMO
         LUMO->  [0.180099 0.180132 0.183342 0.223383 0.223395 0.26329 ]
time for xg, H, S2, Yg, Feff: 0.096
 E =   -230.62572072, delta E = -3.16936e-09, MaxD(dm) = 0.000165596, RMSD(dm) = 8.34894e-06
**** Start Cycle 21 ****
time for NO, Ng: 0.378
time for Gg: 2.264
detC 0.9999999999999963
detNg [1.001527 1.040663 1.23749  1.825243 3.163792 5.222521 6.812594 7.257173]
xg [0.998475 0.960926 0.808088 0.547872 0.316076 0.191478 0.146787 0.137795]
ciS 0.9387064465623727
ciH -407.0761238727674
S2 = -0.000001
Hsp + Hph =  -433.6564698831214
F(mod,ortho) updated with CDIIS
Alpha occ 21 vir 93; Beta occ 21 vir 93
Alpha energies:  [-0.577967 -0.511646 -0.486115 -0.486027 -0.385274 -0.385251] <- HOMO
         LUMO->  [0.180091 0.180134 0.18334  0.223387 0.223393 0.263288]
Beta energies:   [-0.577965 -0.511645 -0.486117 -0.486024 -0.385282 -0.385246] <- HOMO
         LUMO->  [0.180096 0.18013  0.183339 0.223382 0.223393 0.263288]
time for xg, H, S2, Yg, Feff: 0.102
 E =   -230.62572078, delta E = -6.057e-08, MaxD(dm) = 4.85436e-05, RMSD(dm) = 2.63477e-06
**** Start Cycle 22 ****
time for NO, Ng: 0.378
time for Gg: 2.257
detC -1.0000000000000069
detNg [1.001527 1.040653 1.237431 1.825016 3.163115 5.22109  6.810574 7.254988]
xg [0.998475 0.960935 0.808126 0.54794  0.316144 0.191531 0.146831 0.137836]
ciS 0.9388170505729438
ciH -407.12408803197235
S2 = -0.000001
Hsp + Hph =  -433.6564698984872
F(mod,ortho) updated with CDIIS
Alpha occ 21 vir 93; Beta occ 21 vir 93
Alpha energies:  [-0.577968 -0.511647 -0.486117 -0.486028 -0.385276 -0.385253] <- HOMO
         LUMO->  [0.18009  0.180133 0.183341 0.223387 0.223393 0.263288]
Beta energies:   [-0.577967 -0.511647 -0.486119 -0.486026 -0.385284 -0.385248] <- HOMO
         LUMO->  [0.180096 0.180129 0.183339 0.223382 0.223393 0.263289]
time for xg, H, S2, Yg, Feff: 0.094
 E =   -230.62572079, delta E = -1.53658e-08, MaxD(dm) = 6.50493e-06, RMSD(dm) = 3.7309e-07
**** Start Cycle 23 ****
time for NO, Ng: 0.378
time for Gg: 2.257
detC 0.9999999999999992
detNg [1.001527 1.040654 1.237435 1.825032 3.163165 5.221201 6.810736 7.255165]
xg [0.998475 0.960934 0.808123 0.547936 0.316139 0.191527 0.146827 0.137833]
ciS 0.9388090082868785
ciH -407.1206004435454
S2 = -0.000001
Hsp + Hph =  -433.6564698995078
F(mod,ortho) updated with CDIIS
Alpha occ 21 vir 93; Beta occ 21 vir 93
Alpha energies:  [-0.577968 -0.511646 -0.486116 -0.486027 -0.385275 -0.385252] <- HOMO
         LUMO->  [0.180092 0.180134 0.183341 0.223387 0.223393 0.263289]
Beta energies:   [-0.577966 -0.511646 -0.486118 -0.486025 -0.385283 -0.385246] <- HOMO
         LUMO->  [0.180097 0.18013  0.183339 0.223382 0.223394 0.263289]
time for xg, H, S2, Yg, Feff: 0.100
 E =   -230.62572080, delta E = -1.02057e-09, MaxD(dm) = 3.57763e-06, RMSD(dm) = 2.27259e-07
**** Start Cycle 24 ****
time for NO, Ng: 0.379
time for Gg: 2.259
detC 1.000000000000002
detNg [1.001527 1.040654 1.237434 1.825026 3.163147 5.221166 6.810688 7.255114]
xg [0.998475 0.960934 0.808124 0.547937 0.316141 0.191528 0.146828 0.137834]
ciS 0.9388119516691164
ciH -407.1218768606075
S2 = -0.000001
Hsp + Hph =  -433.65646989983924
F(mod,ortho) updated with CDIIS
Alpha occ 21 vir 93; Beta occ 21 vir 93
Alpha energies:  [-0.577967 -0.511646 -0.486116 -0.486028 -0.385275 -0.385252] <- HOMO
         LUMO->  [0.180091 0.180134 0.183341 0.223387 0.223393 0.263288]
Beta energies:   [-0.577966 -0.511646 -0.486118 -0.486025 -0.385283 -0.385247] <- HOMO
         LUMO->  [0.180097 0.18013  0.183339 0.223382 0.223393 0.263289]
time for xg, H, S2, Yg, Feff: 0.095

***************
SUHF converged at cycle 24
Final E(SUHF) =   -230.62572080, delta E = -3.31454e-10, MaxD(dm) = 1.25394e-06, RMSD(dm) = 6.83244e-08
time for cyc: 65.458
******* suhf density *****
Clebsch-Gordan coeff: < 0 0 0 0 | 0 0 > = 1
Clebsch-Gordan coeff: < 0 0 1 0 | 0 0 > = 0
xggint 1.0
time for 1pdm: 0.042
SUHF NO occ alpha:  1.000000  1.000000  1.000000  1.000000  1.000000  1.000000  0.998943  0.998428  0.998428  0.998391  0.997984  0.997983  0.997655  0.997182  0.997180  0.997075  0.997031  0.997028  0.979706  0.941990  0.941957  0.058043  0.058010  0.020294  0.002972  0.002969  0.002925  0.002820  0.002818  0.002345  0.002017  0.002016  0.001609  0.001572  0.001572  0.001057  ...
SUHF NO occ beta:   1.000000  1.000000  1.000000  1.000000  1.000000  1.000000  0.998943  0.998428  0.998428  0.998391  0.997984  0.997983  0.997655  0.997182  0.997180  0.997075  0.997031  0.997028  0.979706  0.941990  0.941957  0.058043  0.058010  0.020294  0.002972  0.002969  0.002925  0.002820  0.002818  0.002345  0.002017  0.002016  0.001609  0.001572  0.001572  0.001057  ...
SUHF NO occ total:  2.000000  2.000000  2.000000  1.999999  1.999999  1.999999  1.997886  1.996856  1.996855  1.996783  1.995967  1.995966  1.995309  1.994363  1.994361  1.994150  1.994062  1.994057  1.959412  1.883979  1.883914  0.116086  0.116021  0.040588  0.005943  0.005938  0.005850  0.005639  0.005637  0.004691  0.004034  0.004033  0.003217  0.003145  0.003144  0.002114  ...
core 18, active 6, external 90
time for natorb: 0.004
***** End of SUHF *****
time tot: 67.639
Date: Mon Jul  5 13:32:53 2021
