#INFO: **** input file is /share/home/srwang/ExSCF/examples/10-Cu2O2-stability.py ****
from pyscf import lib
from pyphf import util, guess

lib.num_threads(8)

# structure from dx.doi.org/10.1021/ct300689e | J. Chem. Theory Comput. 2012, 8, 4944−4949
xyz = '''
 Cu                 1.4    0.0     0.0
 Cu                -1.4    0.0     0.0
 O                  0.0    1.15    0.0
 O                  0.0   -1.15    0.0
'''
mf = guess.mix(xyz, 'def2-tzvp', charge=2, conv='tight')
# stability check of UHF will be performed

mf2 = util.SUHF(mf)
mf2.level_shift = 0.3
mf2.max_cycle = 100
#mf2.conv_tol = 1e-6
mf2.kernel()

# E = -3426.9194811

#INFO: ******************** input file end ********************


System: uname_result(system='Linux', node='xn01', release='3.10.0-1127.el7.x86_64', version='#1 SMP Tue Feb 18 16:39:12 EST 2020', machine='x86_64', processor='x86_64')  Threads 8
Python 3.7.4 (default, Aug 13 2019, 20:35:49) 
[GCC 7.3.0]
numpy 1.17.2  scipy 1.4.1
Date: Thu Apr 22 23:54:07 2021
PySCF version 1.7.6a1
PySCF path  /share/home/srwang/pyscf/pyscf
GIT HEAD      ref: refs/heads/master
GIT master branch  80f71dfe77ac5f9caae26788acf76446987635bd

[CONFIG] conf_file None
[INPUT] verbose = 4
[INPUT] num. atoms = 4
[INPUT] num. electrons = 72
[INPUT] charge = 2
[INPUT] spin (= nelec alpha-beta = 2S) = 0
[INPUT] symmetry False subgroup None
[INPUT] Mole.unit = angstrom
[INPUT]  1 Cu     1.400000000000   0.000000000000   0.000000000000 AA    2.645616574391   0.000000000000   0.000000000000 Bohr
[INPUT]  2 Cu    -1.400000000000   0.000000000000   0.000000000000 AA   -2.645616574391   0.000000000000   0.000000000000 Bohr
[INPUT]  3 O      0.000000000000   1.150000000000   0.000000000000 AA    0.000000000000   2.173185043250   0.000000000000 Bohr
[INPUT]  4 O      0.000000000000  -1.150000000000   0.000000000000 AA    0.000000000000  -2.173185043250   0.000000000000 Bohr

nuclear repulsion = 444.71541996192
number of shells = 52
number of NR pGTOs = 276
number of NR cGTOs = 152
basis = def2-tzvp
ecp = {}
CPU time:         1.03


******** <class 'pyscf.scf.hf.RHF'> ********
method = RHF
initial guess = minao
damping factor = 0
level_shift factor = 0
DIIS = <class 'pyscf.scf.diis.CDIIS'>
diis_start_cycle = 1
diis_space = 8
SCF conv_tol = 1e-05
SCF conv_tol_grad = None
SCF max_cycles = 50
direct_scf = True
direct_scf_tol = 1e-13
chkfile to save SCF result = /share/home/srwang/ExSCF/examples/tmpj35ml_o3
max_memory 4000 MB (current use 109 MB)
Set gradient conv threshold to 0.00316228
init E= -3426.65751445459
  HOMO = -0.321937791461481  LUMO = -0.256769518934486
cycle= 1 E= -3425.40259372256  delta_E= 1.25  |g|= 3.57  |ddm|= 2.13
  HOMO = -0.848664689654615  LUMO = -0.722554210128419
cycle= 2 E= -3424.05952509318  delta_E= 1.34  |g|= 5.51  |ddm|= 2.65
  HOMO = -0.998135496428834  LUMO = -0.620723478883082
cycle= 3 E= -3426.53867611467  delta_E= -2.48  |g|= 0.486  |ddm|=  1.7
  HOMO = -0.934926736461439  LUMO = -0.538781776573274
cycle= 4 E= -3426.56201987874  delta_E= -0.0233  |g|= 0.105  |ddm|= 0.184
  HOMO = -0.950942234978807  LUMO = -0.547482833293704
cycle= 5 E= -3426.56367605768  delta_E= -0.00166  |g|= 0.0392  |ddm|= 0.0512
  HOMO = -0.946796714264583  LUMO = -0.544526986973364
cycle= 6 E= -3426.56410887326  delta_E= -0.000433  |g|= 0.0201  |ddm|= 0.0314
  HOMO = -0.945899271471963  LUMO = -0.544278069925548
cycle= 7 E= -3426.56423966752  delta_E= -0.000131  |g|= 0.00923  |ddm|= 0.0206
  HOMO = -0.945190968159203  LUMO = -0.544082937810254
cycle= 8 E= -3426.56426428251  delta_E= -2.46e-05  |g|= 0.0029  |ddm|= 0.0103
  HOMO = -0.94503181292778  LUMO = -0.544044473219456
cycle= 9 E= -3426.56426611732  delta_E= -1.83e-06  |g|= 0.000352  |ddm|= 0.00269
  HOMO = -0.945042156972118  LUMO = -0.544051768376154
Extra cycle  E= -3426.56426615968  delta_E= -4.24e-08  |g|= 0.000276  |ddm|= 0.000291
converged SCF energy = -3426.56426615968


******** <class 'pyscf.scf.uhf.UHF'> ********
method = UHF
initial guess = minao
damping factor = 0
level_shift factor = 0
DIIS = <class 'pyscf.scf.diis.CDIIS'>
diis_start_cycle = 1
diis_space = 8
SCF conv_tol = 1e-09
SCF conv_tol_grad = None
SCF max_cycles = 100
direct_scf = True
direct_scf_tol = 1e-13
chkfile to save SCF result = /share/home/srwang/ExSCF/examples/tmpifaq4p4t
max_memory 4000 MB (current use 675 MB)
number electrons alpha = 36  beta = 36
Set gradient conv threshold to 3.16228e-05
init E= -3773.08809666458
  alpha nocc = 36  HOMO = 20.6883819333715  LUMO = 20.7697679092118
  beta  nocc = 36  HOMO = 20.6883819333716  LUMO = 20.7697679092119
cycle= 1 E= -1937.50805557143  delta_E= 1.84e+03  |g|= 19.3  |ddm|=  693
  alpha nocc = 36  HOMO = -14.6220109660193  LUMO = -14.6178502498526
  beta  nocc = 36  HOMO = -14.6220109660193  LUMO = -14.6178502498526
cycle= 2 E= -3260.9087934431  delta_E= -1.32e+03  |g|= 15.2  |ddm|=  692
  alpha nocc = 36  HOMO = -4.58521050604303  LUMO = -4.41919768001269
  beta  nocc = 36  HOMO = -4.58521050604302  LUMO = -4.4191976800127
cycle= 3 E= -3388.66392814375  delta_E= -128  |g|= 13.5  |ddm|= 18.7
  alpha nocc = 36  HOMO = -2.80906390741945  LUMO = -2.69550168812054
  beta  nocc = 36  HOMO = -2.80906390741945  LUMO = -2.69550168812056
cycle= 4 E= -3399.59791934312  delta_E= -10.9  |g|=   12  |ddm|= 2.78
  alpha nocc = 36  HOMO = -2.85036236591721  LUMO = -2.55570452865573
  beta  nocc = 36  HOMO = -2.85036236591721  LUMO = -2.55570452865573
cycle= 5 E= -3402.50460058975  delta_E= -2.91  |g|= 11.5  |ddm|= 0.51
  alpha nocc = 36  HOMO = -2.42433359895026  LUMO = -1.97005667080168
  beta  nocc = 36  HOMO = -2.4243335989503  LUMO = -1.97005667080168
cycle= 6 E= -3410.37235816464  delta_E= -7.87  |g|= 9.84  |ddm|= 1.19
  alpha nocc = 36  HOMO = -2.032108725395  LUMO = -1.40871931616797
  beta  nocc = 36  HOMO = -2.03210872539502  LUMO = -1.40871931616801
cycle= 7 E= -3415.1579831678  delta_E= -4.79  |g|= 8.51  |ddm|= 1.11
  alpha nocc = 36  HOMO = -1.92533494916892  LUMO = -1.24880232929435
  beta  nocc = 36  HOMO = -1.92533494916896  LUMO = -1.24880232929441
cycle= 8 E= -3417.60071622278  delta_E= -2.44  |g|= 7.61  |ddm|= 0.515
  alpha nocc = 36  HOMO = -1.45146810346699  LUMO = -0.776568228783737
  beta  nocc = 36  HOMO = -1.45146810346705  LUMO = -0.776568228783763
cycle= 9 E= -3419.49389405563  delta_E= -1.89  |g|=  6.9  |ddm|= 0.881
  alpha nocc = 36  HOMO = -0.94035015120926  LUMO = -0.315631349027013
  beta  nocc = 36  HOMO = -0.940350151209265  LUMO = -0.315631349026988
cycle= 10 E= -3426.39272746755  delta_E= -6.9  |g|= 0.695  |ddm|= 1.76
  alpha nocc = 36  HOMO = -0.879812030011536  LUMO = -0.500285741603245
  beta  nocc = 36  HOMO = -0.879812030011544  LUMO = -0.500285741603223
cycle= 11 E= -3426.59584940516  delta_E= -0.203  |g|= 0.516  |ddm|= 0.53
  alpha nocc = 36  HOMO = -0.969190324507473  LUMO = -0.464706463020474
  beta  nocc = 36  HOMO = -0.969190324507484  LUMO = -0.464706463020483
cycle= 12 E= -3426.64592109502  delta_E= -0.0501  |g|= 0.0759  |ddm|= 0.183
  alpha nocc = 36  HOMO = -0.968896941010707  LUMO = -0.469936191926148
  beta  nocc = 36  HOMO = -0.968896941010711  LUMO = -0.469936191926156
cycle= 13 E= -3426.65701305518  delta_E= -0.0111  |g|= 0.0578  |ddm|= 0.132
  alpha nocc = 36  HOMO = -0.967299642278593  LUMO = -0.466131873115463
  beta  nocc = 36  HOMO = -0.967299642278608  LUMO = -0.466131873115473
cycle= 14 E= -3426.66420188877  delta_E= -0.00719  |g|= 0.0225  |ddm|= 0.145
  alpha nocc = 36  HOMO = -0.962960582892752  LUMO = -0.471549497019531
  beta  nocc = 36  HOMO = -0.962960582892766  LUMO = -0.471549497019541
cycle= 15 E= -3426.66637445506  delta_E= -0.00217  |g|= 0.0185  |ddm|= 0.0925
  alpha nocc = 36  HOMO = -0.958795305712767  LUMO = -0.472547281334818
  beta  nocc = 36  HOMO = -0.95879530571278  LUMO = -0.472547281334821
cycle= 16 E= -3426.66691857408  delta_E= -0.000544  |g|= 0.00671  |ddm|= 0.0425
  alpha nocc = 36  HOMO = -0.95662679499905  LUMO = -0.47256959819512
  beta  nocc = 36  HOMO = -0.956626794999066  LUMO = -0.472569598195125
cycle= 17 E= -3426.66707186017  delta_E= -0.000153  |g|= 0.00281  |ddm|= 0.0303
  alpha nocc = 36  HOMO = -0.955642912789522  LUMO = -0.472748887615483
  beta  nocc = 36  HOMO = -0.955642912789549  LUMO = -0.472748887615491
cycle= 18 E= -3426.66708736482  delta_E= -1.55e-05  |g|= 0.00116  |ddm|= 0.00682
  alpha nocc = 36  HOMO = -0.95534892297181  LUMO = -0.472572186046539
  beta  nocc = 36  HOMO = -0.955348922971854  LUMO = -0.472572186046543
cycle= 19 E= -3426.66709053206  delta_E= -3.17e-06  |g|= 0.000531  |ddm|= 0.00299
  alpha nocc = 36  HOMO = -0.95534897313053  LUMO = -0.472549569115589
  beta  nocc = 36  HOMO = -0.955348973130578  LUMO = -0.472549569115588
cycle= 20 E= -3426.6670912812  delta_E= -7.49e-07  |g|= 0.000274  |ddm|= 0.00141
  alpha nocc = 36  HOMO = -0.955390759609746  LUMO = -0.472559313412631
  beta  nocc = 36  HOMO = -0.955390759609821  LUMO = -0.472559313412632
cycle= 21 E= -3426.66709149515  delta_E= -2.14e-07  |g|= 0.000154  |ddm|= 0.000723
  alpha nocc = 36  HOMO = -0.955373680577052  LUMO = -0.472537698266592
  beta  nocc = 36  HOMO = -0.955373680577146  LUMO = -0.472537698266588
cycle= 22 E= -3426.66709157314  delta_E= -7.8e-08  |g|= 0.000115  |ddm|= 0.000469
  alpha nocc = 36  HOMO = -0.9554023932213  LUMO = -0.472551213140661
  beta  nocc = 36  HOMO = -0.955402393221427  LUMO = -0.472551213140662
cycle= 23 E= -3426.66709160654  delta_E= -3.34e-08  |g|= 4.08e-05  |ddm|= 0.000413
  alpha nocc = 36  HOMO = -0.955398898721787  LUMO = -0.472545383293812
  beta  nocc = 36  HOMO = -0.955398898721955  LUMO = -0.472545383293806
cycle= 24 E= -3426.66709161079  delta_E= -4.26e-09  |g|= 3.28e-05  |ddm|= 0.000181
  alpha nocc = 36  HOMO = -0.955400211247141  LUMO = -0.472547077778557
  beta  nocc = 36  HOMO = -0.955400211247329  LUMO = -0.472547077778549
cycle= 25 E= -3426.66709161122  delta_E= -4.27e-10  |g|= 2e-05  |ddm|= 4.06e-05
  alpha nocc = 36  HOMO = -0.955400679496131  LUMO = -0.472548635630012
  beta  nocc = 36  HOMO = -0.95540067949635  LUMO = -0.472548635629999
Extra cycle  E= -3426.66709161129  delta_E= -6.64e-11  |g|= 2.84e-05  |ddm|= 1.58e-05
converged SCF energy = -3426.66709161129  <S^2> = 1.863551  2S+1 = 2.9076114
checking UHF/UKS internal stability ...
UHF/UKS wavefunction has an internal instability.


******** <class 'pyscf.scf.uhf.UHF'> ********
method = UHF
initial guess = minao
damping factor = 0
level_shift factor = 0
DIIS = <class 'pyscf.scf.diis.CDIIS'>
diis_start_cycle = 1
diis_space = 8
SCF conv_tol = 1e-09
SCF conv_tol_grad = None
SCF max_cycles = 100
direct_scf = True
direct_scf_tol = 1e-13
chkfile to save SCF result = /share/home/srwang/ExSCF/examples/tmpifaq4p4t
max_memory 4000 MB (current use 1290 MB)
number electrons alpha = 36  beta = 36
Set gradient conv threshold to 3.16228e-05
init E= -3426.66251636729
  alpha nocc = 36  HOMO = -0.880519774928995  LUMO = -0.419311296892705
  beta  nocc = 36  HOMO = -0.948039235646556  LUMO = -0.412879272019053
cycle= 1 E= -3426.73631119147  delta_E= -0.0738  |g|= 0.338  |ddm|= 0.286
  alpha nocc = 36  HOMO = -0.886334838455481  LUMO = -0.36961018005027
  beta  nocc = 36  HOMO = -0.967722768292585  LUMO = -0.42743754792768
cycle= 2 E= -3426.76634444413  delta_E= -0.03  |g|= 0.482  |ddm|= 0.283
  alpha nocc = 36  HOMO = -0.900345283450533  LUMO = -0.378822590149595
  beta  nocc = 36  HOMO = -0.950081621511231  LUMO = -0.41846765971868
cycle= 3 E= -3426.80669748876  delta_E= -0.0404  |g|= 0.123  |ddm|= 0.115
  alpha nocc = 36  HOMO = -0.939614753089385  LUMO = -0.389162422195312
  beta  nocc = 36  HOMO = -0.909970935017735  LUMO = -0.407537560520734
cycle= 4 E= -3426.84539708541  delta_E= -0.0387  |g|= 0.0657  |ddm|= 0.26
  alpha nocc = 36  HOMO = -0.949050177387477  LUMO = -0.393102593519403
  beta  nocc = 36  HOMO = -0.913329698365147  LUMO = -0.417600561668009
cycle= 5 E= -3426.85661938297  delta_E= -0.0112  |g|= 0.0491  |ddm|= 0.152
  alpha nocc = 36  HOMO = -0.951573681489588  LUMO = -0.388245580411132
  beta  nocc = 36  HOMO = -0.914182508317191  LUMO = -0.417128504348115
cycle= 6 E= -3426.85885153042  delta_E= -0.00223  |g|= 0.0467  |ddm|= 0.0532
  alpha nocc = 36  HOMO = -0.948835121475548  LUMO = -0.390685263994353
  beta  nocc = 36  HOMO = -0.90590078993783  LUMO = -0.416072079425167
cycle= 7 E= -3426.8629069612  delta_E= -0.00406  |g|= 0.024  |ddm|= 0.0888
  alpha nocc = 36  HOMO = -0.953912259635986  LUMO = -0.388572655426857
  beta  nocc = 36  HOMO = -0.908723482378997  LUMO = -0.418843471294823
cycle= 8 E= -3426.8657614461  delta_E= -0.00285  |g|= 0.0235  |ddm|= 0.0682
  alpha nocc = 36  HOMO = -0.957131328661117  LUMO = -0.386923380608842
  beta  nocc = 36  HOMO = -0.90911761405748  LUMO = -0.416072997040241
cycle= 9 E= -3426.86951675407  delta_E= -0.00376  |g|= 0.0242  |ddm|= 0.104
  alpha nocc = 36  HOMO = -0.955372886664956  LUMO = -0.387496048543231
  beta  nocc = 36  HOMO = -0.905056223506811  LUMO = -0.412279945244923
cycle= 10 E= -3426.87214213151  delta_E= -0.00263  |g|= 0.0164  |ddm|= 0.092
  alpha nocc = 36  HOMO = -0.954598892228232  LUMO = -0.387549159776411
  beta  nocc = 36  HOMO = -0.904933131846936  LUMO = -0.414888156301709
cycle= 11 E= -3426.87313046807  delta_E= -0.000988  |g|= 0.0141  |ddm|= 0.0424
  alpha nocc = 36  HOMO = -0.955799075652028  LUMO = -0.386528410860905
  beta  nocc = 36  HOMO = -0.907654944013622  LUMO = -0.408346521008499
cycle= 12 E= -3426.87569573795  delta_E= -0.00257  |g|= 0.0143  |ddm|= 0.161
  alpha nocc = 36  HOMO = -0.955267979644169  LUMO = -0.386683102380707
  beta  nocc = 36  HOMO = -0.90848189463808  LUMO = -0.415610895436175
cycle= 13 E= -3426.87593924776  delta_E= -0.000244  |g|= 0.00882  |ddm|= 0.0165
  alpha nocc = 36  HOMO = -0.955005416278831  LUMO = -0.386418828246114
  beta  nocc = 36  HOMO = -0.908974314947813  LUMO = -0.410662054022173
cycle= 14 E= -3426.87659240855  delta_E= -0.000653  |g|= 0.0105  |ddm|= 0.0768
  alpha nocc = 36  HOMO = -0.954587060273807  LUMO = -0.386605277655774
  beta  nocc = 36  HOMO = -0.90915249677007  LUMO = -0.417583125771977
cycle= 15 E= -3426.876814511  delta_E= -0.000222  |g|= 0.00552  |ddm|= 0.0215
  alpha nocc = 36  HOMO = -0.953995764821929  LUMO = -0.386778578842172
  beta  nocc = 36  HOMO = -0.909405887412183  LUMO = -0.424904698812994
cycle= 16 E= -3426.87716681004  delta_E= -0.000352  |g|= 0.00559  |ddm|= 0.0612
  alpha nocc = 36  HOMO = -0.954362728353919  LUMO = -0.386680723047998
  beta  nocc = 36  HOMO = -0.909281921411097  LUMO = -0.422135923433556
cycle= 17 E= -3426.87719389231  delta_E= -2.71e-05  |g|= 0.0039  |ddm|= 0.00465
  alpha nocc = 36  HOMO = -0.954485326246751  LUMO = -0.386710533878421
  beta  nocc = 36  HOMO = -0.909002971086993  LUMO = -0.424193961594644
cycle= 18 E= -3426.87730457815  delta_E= -0.000111  |g|= 0.00459  |ddm|= 0.02
  alpha nocc = 36  HOMO = -0.954729712782191  LUMO = -0.38663695171383
  beta  nocc = 36  HOMO = -0.908992347107479  LUMO = -0.421580709676239
cycle= 19 E= -3426.87734973665  delta_E= -4.52e-05  |g|= 0.00318  |ddm|= 0.00728
  alpha nocc = 36  HOMO = -0.954791207937795  LUMO = -0.386595210633255
  beta  nocc = 36  HOMO = -0.909039401498687  LUMO = -0.419924798555508
cycle= 20 E= -3426.87741561376  delta_E= -6.59e-05  |g|= 0.00275  |ddm|= 0.0119
  alpha nocc = 36  HOMO = -0.954751416223387  LUMO = -0.386600202138216
  beta  nocc = 36  HOMO = -0.909040694762437  LUMO = -0.420109275533047
cycle= 21 E= -3426.87743562499  delta_E= -2e-05  |g|= 0.00265  |ddm|= 0.00405
  alpha nocc = 36  HOMO = -0.954761315576619  LUMO = -0.386595483554345
  beta  nocc = 36  HOMO = -0.909052582699118  LUMO = -0.419923270519441
cycle= 22 E= -3426.87743187049  delta_E= 3.75e-06  |g|= 0.00264  |ddm|= 0.00241
  alpha nocc = 36  HOMO = -0.954756842984568  LUMO = -0.386596008309904
  beta  nocc = 36  HOMO = -0.90902826015296  LUMO = -0.419966512502704
cycle= 23 E= -3426.87742931666  delta_E= 2.55e-06  |g|= 0.00259  |ddm|= 0.00376
  alpha nocc = 36  HOMO = -0.95475038097716  LUMO = -0.38660153946108
  beta  nocc = 36  HOMO = -0.909090925194749  LUMO = -0.419937184004162
cycle= 24 E= -3426.87744375583  delta_E= -1.44e-05  |g|= 0.00256  |ddm|= 0.0063
  alpha nocc = 36  HOMO = -0.954722689666656  LUMO = -0.386600743460224
  beta  nocc = 36  HOMO = -0.909096872733426  LUMO = -0.419949953485561
cycle= 25 E= -3426.87744496454  delta_E= -1.21e-06  |g|= 0.00253  |ddm|= 0.00241
  alpha nocc = 36  HOMO = -0.954738392311482  LUMO = -0.386598459404032
  beta  nocc = 36  HOMO = -0.909084233300148  LUMO = -0.419937277967796
cycle= 26 E= -3426.87744791329  delta_E= -2.95e-06  |g|= 0.00252  |ddm|= 0.000801
  alpha nocc = 36  HOMO = -0.954741653152219  LUMO = -0.386599782511634
  beta  nocc = 36  HOMO = -0.909105432334184  LUMO = -0.419937919626091
cycle= 27 E= -3426.87744932623  delta_E= -1.41e-06  |g|= 0.00252  |ddm|= 0.000285
  alpha nocc = 36  HOMO = -0.954840348378103  LUMO = -0.386588548151564
  beta  nocc = 36  HOMO = -0.909090846252223  LUMO = -0.419952262338047
cycle= 28 E= -3426.87743812293  delta_E= 1.12e-05  |g|= 0.00248  |ddm|= 0.00267
  alpha nocc = 36  HOMO = -0.954845586858187  LUMO = -0.386574898520692
  beta  nocc = 36  HOMO = -0.908932696526486  LUMO = -0.419961127480674
cycle= 29 E= -3426.87741767483  delta_E= 2.04e-05  |g|= 0.00224  |ddm|= 0.00817
  alpha nocc = 36  HOMO = -0.95468301790658  LUMO = -0.386558499157217
  beta  nocc = 36  HOMO = -0.909173620048731  LUMO = -0.419732789552115
cycle= 30 E= -3426.87739413876  delta_E= 2.35e-05  |g|= 0.00172  |ddm|= 0.0236
  alpha nocc = 36  HOMO = -0.954700057216896  LUMO = -0.386575143075046
  beta  nocc = 36  HOMO = -0.909206476420801  LUMO = -0.420001996812842
cycle= 31 E= -3426.87741762495  delta_E= -2.35e-05  |g|= 0.00101  |ddm|= 0.0161
  alpha nocc = 36  HOMO = -0.954664982239033  LUMO = -0.386596252344098
  beta  nocc = 36  HOMO = -0.908907538063058  LUMO = -0.420246193261301
cycle= 32 E= -3426.87742913843  delta_E= -1.15e-05  |g|= 0.000653  |ddm|= 0.00939
  alpha nocc = 36  HOMO = -0.954577646332748  LUMO = -0.386596492908974
  beta  nocc = 36  HOMO = -0.908931188483051  LUMO = -0.420159062780485
cycle= 33 E= -3426.8774322141  delta_E= -3.08e-06  |g|= 0.000381  |ddm|= 0.00461
  alpha nocc = 36  HOMO = -0.954604338216976  LUMO = -0.386597486275168
  beta  nocc = 36  HOMO = -0.909119270004757  LUMO = -0.420064250293057
cycle= 34 E= -3426.87743335777  delta_E= -1.14e-06  |g|= 0.000264  |ddm|= 0.00323
  alpha nocc = 36  HOMO = -0.954585031106425  LUMO = -0.386596593541342
  beta  nocc = 36  HOMO = -0.909078913648446  LUMO = -0.420073738061829
cycle= 35 E= -3426.87743371837  delta_E= -3.61e-07  |g|= 0.000215  |ddm|= 0.00157
  alpha nocc = 36  HOMO = -0.954587044972902  LUMO = -0.386594751149933
  beta  nocc = 36  HOMO = -0.909085822033586  LUMO = -0.420066373509076
cycle= 36 E= -3426.87743384843  delta_E= -1.3e-07  |g|= 0.00021  |ddm|= 0.000376
  alpha nocc = 36  HOMO = -0.954587852112233  LUMO = -0.386594724371074
  beta  nocc = 36  HOMO = -0.909083234441002  LUMO = -0.420069014424588
cycle= 37 E= -3426.87743391168  delta_E= -6.32e-08  |g|= 0.00021  |ddm|= 0.000145
  alpha nocc = 36  HOMO = -0.954587298915952  LUMO = -0.386595016839139
  beta  nocc = 36  HOMO = -0.909087628226199  LUMO = -0.420067841031666
cycle= 38 E= -3426.87743369103  delta_E= 2.21e-07  |g|= 0.000209  |ddm|= 0.00055
  alpha nocc = 36  HOMO = -0.954589600924699  LUMO = -0.386594625498168
  beta  nocc = 36  HOMO = -0.909090707368057  LUMO = -0.420068909435981
cycle= 39 E= -3426.87743341502  delta_E= 2.76e-07  |g|= 0.000209  |ddm|= 0.000758
  alpha nocc = 36  HOMO = -0.954586965127135  LUMO = -0.386594669286566
  beta  nocc = 36  HOMO = -0.909088782316624  LUMO = -0.420067183687044
cycle= 40 E= -3426.87743332372  delta_E= 9.13e-08  |g|= 0.000209  |ddm|= 0.000409
  alpha nocc = 36  HOMO = -0.954588105433536  LUMO = -0.38659480162375
  beta  nocc = 36  HOMO = -0.909088614926898  LUMO = -0.420068376721794
cycle= 41 E= -3426.87743331877  delta_E= 4.94e-09  |g|= 0.000208  |ddm|= 0.000141
  alpha nocc = 36  HOMO = -0.954588802923475  LUMO = -0.3865948330883
  beta  nocc = 36  HOMO = -0.909088837764193  LUMO = -0.420068683925239
cycle= 42 E= -3426.87743333978  delta_E= -2.1e-08  |g|= 0.000209  |ddm|= 6.61e-05
  alpha nocc = 36  HOMO = -0.954587658761542  LUMO = -0.386595003384367
  beta  nocc = 36  HOMO = -0.909088496649968  LUMO = -0.420068363923242
cycle= 43 E= -3426.8774332958  delta_E= 4.4e-08  |g|= 0.00021  |ddm|= 0.000108
  alpha nocc = 36  HOMO = -0.954585062332359  LUMO = -0.38659581829164
  beta  nocc = 36  HOMO = -0.909094239490284  LUMO = -0.420069214499922
cycle= 44 E= -3426.87743279339  delta_E= 5.02e-07  |g|= 0.000211  |ddm|= 0.00116
  alpha nocc = 36  HOMO = -0.954578631094061  LUMO = -0.386595327600813
  beta  nocc = 36  HOMO = -0.90908929424967  LUMO = -0.420065161575143
cycle= 45 E= -3426.87743220734  delta_E= 5.86e-07  |g|= 0.000214  |ddm|= 0.00136
  alpha nocc = 36  HOMO = -0.954589418845736  LUMO = -0.386593941136453
  beta  nocc = 36  HOMO = -0.909092014455286  LUMO = -0.420068435588745
cycle= 46 E= -3426.87743167637  delta_E= 5.31e-07  |g|= 0.000216  |ddm|= 0.0013
  alpha nocc = 36  HOMO = -0.954596406619984  LUMO = -0.386593704779748
  beta  nocc = 36  HOMO = -0.90908786444007  LUMO = -0.420071337152638
cycle= 47 E= -3426.8774315783  delta_E= 9.81e-08  |g|= 0.000215  |ddm|= 0.000401
  alpha nocc = 36  HOMO = -0.954606797835303  LUMO = -0.386591015282854
  beta  nocc = 36  HOMO = -0.909075315846804  LUMO = -0.420070659952494
cycle= 48 E= -3426.87743147222  delta_E= 1.06e-07  |g|= 0.0002  |ddm|= 0.00101
  alpha nocc = 36  HOMO = -0.954608418003456  LUMO = -0.386591741850919
  beta  nocc = 36  HOMO = -0.909072483871919  LUMO = -0.420064128378821
cycle= 49 E= -3426.8774314126  delta_E= 5.96e-08  |g|= 0.000167  |ddm|= 0.00212
  alpha nocc = 36  HOMO = -0.954617207461004  LUMO = -0.386591849646932
  beta  nocc = 36  HOMO = -0.909083161201475  LUMO = -0.420069607957822
cycle= 50 E= -3426.87743123599  delta_E= 1.77e-07  |g|= 0.000126  |ddm|= 0.00288
  alpha nocc = 36  HOMO = -0.954593889756214  LUMO = -0.386593447446328
  beta  nocc = 36  HOMO = -0.909085181425831  LUMO = -0.420064432984626
cycle= 51 E= -3426.87743108682  delta_E= 1.49e-07  |g|= 0.000109  |ddm|= 0.00166
  alpha nocc = 36  HOMO = -0.954594855444864  LUMO = -0.386593816986482
  beta  nocc = 36  HOMO = -0.909091071782378  LUMO = -0.420071391729604
cycle= 52 E= -3426.87743108102  delta_E= 5.8e-09  |g|= 0.000106  |ddm|= 0.000308
  alpha nocc = 36  HOMO = -0.954593194470915  LUMO = -0.386593624577734
  beta  nocc = 36  HOMO = -0.909095539498848  LUMO = -0.420072455352817
cycle= 53 E= -3426.8774310851  delta_E= -4.07e-09  |g|= 0.000102  |ddm|= 0.000209
  alpha nocc = 36  HOMO = -0.954586242397556  LUMO = -0.386593375452103
  beta  nocc = 36  HOMO = -0.909093939465593  LUMO = -0.420069963944684
cycle= 54 E= -3426.87743112085  delta_E= -3.58e-08  |g|= 9.03e-05  |ddm|= 0.000442
  alpha nocc = 36  HOMO = -0.95459851496063  LUMO = -0.3865921685145
  beta  nocc = 36  HOMO = -0.90910130839988  LUMO = -0.420073213848765
cycle= 55 E= -3426.87743119253  delta_E= -7.17e-08  |g|= 6.72e-05  |ddm|= 0.00126
  alpha nocc = 36  HOMO = -0.954599747449021  LUMO = -0.386592540096839
  beta  nocc = 36  HOMO = -0.909091759968175  LUMO = -0.420071489056924
cycle= 56 E= -3426.8774312141  delta_E= -2.16e-08  |g|= 4.95e-05  |ddm|= 0.00121
  alpha nocc = 36  HOMO = -0.954598574588602  LUMO = -0.386592398897111
  beta  nocc = 36  HOMO = -0.909087976236615  LUMO = -0.420069987547447
cycle= 57 E= -3426.87743120795  delta_E= 6.15e-09  |g|= 4.14e-05  |ddm|= 0.000446
  alpha nocc = 36  HOMO = -0.954596361354115  LUMO = -0.386593410906954
  beta  nocc = 36  HOMO = -0.90908926891561  LUMO = -0.42007046176436
cycle= 58 E= -3426.87743120301  delta_E= 4.94e-09  |g|= 3.88e-05  |ddm|= 0.000188
  alpha nocc = 36  HOMO = -0.954595312871509  LUMO = -0.386593486219995
  beta  nocc = 36  HOMO = -0.909091137015535  LUMO = -0.420070623473981
cycle= 59 E= -3426.877431205  delta_E= -1.98e-09  |g|= 3.76e-05  |ddm|= 5.07e-05
  alpha nocc = 36  HOMO = -0.954592639642268  LUMO = -0.386593703707027
  beta  nocc = 36  HOMO = -0.909091899257622  LUMO = -0.42007013162891
cycle= 60 E= -3426.87743120726  delta_E= -2.26e-09  |g|= 3.71e-05  |ddm|= 5.37e-05
  alpha nocc = 36  HOMO = -0.954592570625385  LUMO = -0.386593636796562
  beta  nocc = 36  HOMO = -0.909093204319482  LUMO = -0.420070475364894
cycle= 61 E= -3426.87743121556  delta_E= -8.3e-09  |g|= 3.66e-05  |ddm|= 0.00011
  alpha nocc = 36  HOMO = -0.954592428011771  LUMO = -0.38659359922065
  beta  nocc = 36  HOMO = -0.90909348719979  LUMO = -0.420070518128916
cycle= 62 E= -3426.87743121577  delta_E= -2.14e-10  |g|= 3.65e-05  |ddm|= 1.6e-05
  alpha nocc = 36  HOMO = -0.95459266728169  LUMO = -0.386593606737634
  beta  nocc = 36  HOMO = -0.909093735256188  LUMO = -0.420070648736142
cycle= 63 E= -3426.87743121597  delta_E= -2.01e-10  |g|= 3.66e-05  |ddm|= 1.96e-05
  alpha nocc = 36  HOMO = -0.954591102581749  LUMO = -0.386593737980698
  beta  nocc = 36  HOMO = -0.909092533947004  LUMO = -0.420069691479176
cycle= 64 E= -3426.87743122138  delta_E= -5.4e-09  |g|= 3.5e-05  |ddm|= 0.000204
  alpha nocc = 36  HOMO = -0.954592320037412  LUMO = -0.38659369569736
  beta  nocc = 36  HOMO = -0.909093219265195  LUMO = -0.420070206270498
cycle= 65 E= -3426.87743122628  delta_E= -4.9e-09  |g|= 3.43e-05  |ddm|= 0.000134
  alpha nocc = 36  HOMO = -0.954592581893647  LUMO = -0.386593729140247
  beta  nocc = 36  HOMO = -0.909093227453938  LUMO = -0.420070381567479
cycle= 66 E= -3426.87743122833  delta_E= -2.05e-09  |g|= 3.42e-05  |ddm|= 5.03e-05
  alpha nocc = 36  HOMO = -0.954592833247543  LUMO = -0.386593643582028
  beta  nocc = 36  HOMO = -0.909092878022611  LUMO = -0.420070345543203
cycle= 67 E= -3426.8774312295  delta_E= -1.18e-09  |g|= 3.41e-05  |ddm|= 2.56e-05
  alpha nocc = 36  HOMO = -0.954592261418161  LUMO = -0.386593671649546
  beta  nocc = 36  HOMO = -0.909093568473552  LUMO = -0.420070372455702
cycle= 68 E= -3426.87743122854  delta_E= 9.6e-10  |g|= 3.42e-05  |ddm|= 3.13e-05
  alpha nocc = 36  HOMO = -0.954589955021986  LUMO = -0.386593845006806
  beta  nocc = 36  HOMO = -0.909093986654303  LUMO = -0.420069846496758
cycle= 69 E= -3426.87743122747  delta_E= 1.07e-09  |g|= 3.36e-05  |ddm|= 9.67e-05
  alpha nocc = 36  HOMO = -0.954590371683364  LUMO = -0.38659389684931
  beta  nocc = 36  HOMO = -0.909095644813449  LUMO = -0.42007057411188
cycle= 70 E= -3426.87743122974  delta_E= -2.27e-09  |g|= 3.32e-05  |ddm|= 0.000118
  alpha nocc = 36  HOMO = -0.954590605550812  LUMO = -0.386593855284459
  beta  nocc = 36  HOMO = -0.909095273899776  LUMO = -0.420070484450318
cycle= 71 E= -3426.87743122988  delta_E= -1.37e-10  |g|= 3.32e-05  |ddm|= 2.03e-05
  alpha nocc = 36  HOMO = -0.954590268339152  LUMO = -0.386593868882291
  beta  nocc = 36  HOMO = -0.909095814325655  LUMO = -0.420070587945482
cycle= 72 E= -3426.87743122954  delta_E= 3.32e-10  |g|= 3.31e-05  |ddm|= 1.86e-05
  alpha nocc = 36  HOMO = -0.954589001634289  LUMO = -0.386593860810608
  beta  nocc = 36  HOMO = -0.909095789143921  LUMO = -0.420070327650224
cycle= 73 E= -3426.87743122876  delta_E= 7.8e-10  |g|= 3.27e-05  |ddm|= 6.47e-05
  alpha nocc = 36  HOMO = -0.954591094428838  LUMO = -0.386593711673598
  beta  nocc = 36  HOMO = -0.90909664906262  LUMO = -0.420071279186711
cycle= 74 E= -3426.87743122636  delta_E= 2.4e-09  |g|= 3.22e-05  |ddm|= 0.000174
  alpha nocc = 36  HOMO = -0.954590252571762  LUMO = -0.386593750525458
  beta  nocc = 36  HOMO = -0.909095608590577  LUMO = -0.420070755975073
cycle= 75 E= -3426.87743122253  delta_E= 3.83e-09  |g|= 3.23e-05  |ddm|= 0.000129
  alpha nocc = 36  HOMO = -0.954590640952472  LUMO = -0.386593586872708
  beta  nocc = 36  HOMO = -0.909094449613844  LUMO = -0.4200703929074
cycle= 76 E= -3426.87743122233  delta_E= 2.04e-10  |g|= 3.27e-05  |ddm|= 5.72e-05
  alpha nocc = 36  HOMO = -0.95459121105435  LUMO = -0.386593715498524
  beta  nocc = 36  HOMO = -0.909094066977393  LUMO = -0.420070484964513
cycle= 77 E= -3426.87743122369  delta_E= -1.36e-09  |g|= 3.22e-05  |ddm|= 5.65e-05
  alpha nocc = 36  HOMO = -0.954591963388009  LUMO = -0.386593668004128
  beta  nocc = 36  HOMO = -0.909094150770367  LUMO = -0.420070691930709
cycle= 78 E= -3426.87743122507  delta_E= -1.38e-09  |g|= 3.22e-05  |ddm|= 4.49e-05
  alpha nocc = 36  HOMO = -0.954592130013072  LUMO = -0.386593676935233
  beta  nocc = 36  HOMO = -0.909094631174072  LUMO = -0.420070908983273
cycle= 79 E= -3426.87743122453  delta_E= 5.38e-10  |g|= 3.22e-05  |ddm|= 3.41e-05
  alpha nocc = 36  HOMO = -0.954592493294866  LUMO = -0.386593616426417
  beta  nocc = 36  HOMO = -0.909093750866471  LUMO = -0.420070661815364
cycle= 80 E= -3426.87743122456  delta_E= -3.68e-11  |g|= 3.23e-05  |ddm|= 5.73e-05
  alpha nocc = 36  HOMO = -0.954591942783261  LUMO = -0.386593618578655
  beta  nocc = 36  HOMO = -0.909094705103534  LUMO = -0.420070847362669
cycle= 81 E= -3426.87743122176  delta_E= 2.81e-09  |g|= 3.27e-05  |ddm|= 4.5e-05
  alpha nocc = 36  HOMO = -0.954589760400227  LUMO = -0.386593677704512
  beta  nocc = 36  HOMO = -0.909094695830477  LUMO = -0.420070367387146
cycle= 82 E= -3426.877431214  delta_E= 7.76e-09  |g|= 3.19e-05  |ddm|= 0.000121
  alpha nocc = 36  HOMO = -0.954591991422189  LUMO = -0.386593624302676
  beta  nocc = 36  HOMO = -0.909095772705953  LUMO = -0.420071339588492
cycle= 83 E= -3426.8774312041  delta_E= 9.9e-09  |g|= 3.18e-05  |ddm|= 0.000168
  alpha nocc = 36  HOMO = -0.954591344701962  LUMO = -0.386593626259037
  beta  nocc = 36  HOMO = -0.909093999059795  LUMO = -0.420070625589546
cycle= 84 E= -3426.87743119601  delta_E= 8.09e-09  |g|= 3.2e-05  |ddm|= 0.000135
  alpha nocc = 36  HOMO = -0.954592211694063  LUMO = -0.386593331040345
  beta  nocc = 36  HOMO = -0.909091984782135  LUMO = -0.420069995579715
cycle= 85 E= -3426.87743119316  delta_E= 2.85e-09  |g|= 3.24e-05  |ddm|= 7.42e-05
  alpha nocc = 36  HOMO = -0.954594178447908  LUMO = -0.386593510501069
  beta  nocc = 36  HOMO = -0.909090955656961  LUMO = -0.420070329650507
cycle= 86 E= -3426.8774311912  delta_E= 1.96e-09  |g|= 2.97e-05  |ddm|= 0.000133
  alpha nocc = 36  HOMO = -0.954596340570031  LUMO = -0.386593426693892
  beta  nocc = 36  HOMO = -0.909091902441561  LUMO = -0.420071073023752
cycle= 87 E= -3426.87743119318  delta_E= -1.99e-09  |g|= 2.62e-05  |ddm|= 0.000195
  alpha nocc = 36  HOMO = -0.954594853829278  LUMO = -0.38659336021704
  beta  nocc = 36  HOMO = -0.909089833919331  LUMO = -0.420069927218738
cycle= 88 E= -3426.87743119457  delta_E= -1.39e-09  |g|= 2.36e-05  |ddm|= 0.000199
  alpha nocc = 36  HOMO = -0.954594166628351  LUMO = -0.386593462622937
  beta  nocc = 36  HOMO = -0.909091366860557  LUMO = -0.420070340671121
cycle= 89 E= -3426.87743119566  delta_E= -1.09e-09  |g|= 2.26e-05  |ddm|= 8.82e-05
  alpha nocc = 36  HOMO = -0.954593907946065  LUMO = -0.386593463109852
  beta  nocc = 36  HOMO = -0.909091808855566  LUMO = -0.420070448930245
cycle= 90 E= -3426.87743119651  delta_E= -8.52e-10  |g|= 2.22e-05  |ddm|= 2.43e-05
  alpha nocc = 36  HOMO = -0.954593677333957  LUMO = -0.386593474457116
  beta  nocc = 36  HOMO = -0.90909192426538  LUMO = -0.420070445546319
Extra cycle  E= -3426.87743119752  delta_E= -1.01e-09  |g|= 2.2e-05  |ddm|= 2.17e-05
converged SCF energy = -3426.87743119752  <S^2> = 1.9502203  2S+1 = 2.9666279
checking UHF/UKS internal stability ...
UHF/UKS wavefunction has an internal instability.


******** <class 'pyscf.scf.uhf.UHF'> ********
method = UHF
initial guess = minao
damping factor = 0
level_shift factor = 0
DIIS = <class 'pyscf.scf.diis.CDIIS'>
diis_start_cycle = 1
diis_space = 8
SCF conv_tol = 1e-09
SCF conv_tol_grad = None
SCF max_cycles = 100
direct_scf = True
direct_scf_tol = 1e-13
chkfile to save SCF result = /share/home/srwang/ExSCF/examples/tmpifaq4p4t
max_memory 4000 MB (current use 1292 MB)
number electrons alpha = 36  beta = 36
Set gradient conv threshold to 3.16228e-05
init E= -3426.88584344986
  alpha nocc = 36  HOMO = -0.965940817353634  LUMO = -0.387092425201131
  beta  nocc = 36  HOMO = -0.916426106845592  LUMO = -0.396761539189491
cycle= 1 E= -3426.89373372146  delta_E= -0.00789  |g|= 0.0383  |ddm|= 0.0734
  alpha nocc = 36  HOMO = -0.97050781642421  LUMO = -0.387248778949689
  beta  nocc = 36  HOMO = -0.913665235260799  LUMO = -0.397115612510804
cycle= 2 E= -3426.89449232269  delta_E= -0.000759  |g|= 0.0199  |ddm|= 0.026
  alpha nocc = 36  HOMO = -0.973238648470577  LUMO = -0.386895488863506
  beta  nocc = 36  HOMO = -0.913333535651785  LUMO = -0.396899535595827
cycle= 3 E= -3426.89473189793  delta_E= -0.00024  |g|= 0.0219  |ddm|= 0.0166
  alpha nocc = 36  HOMO = -0.973222802115175  LUMO = -0.387244660370222
  beta  nocc = 36  HOMO = -0.912398161245252  LUMO = -0.397155837548653
cycle= 4 E= -3426.89490890551  delta_E= -0.000177  |g|= 0.00743  |ddm|= 0.00913
  alpha nocc = 36  HOMO = -0.972794297386838  LUMO = -0.387220096174571
  beta  nocc = 36  HOMO = -0.910956596496342  LUMO = -0.396935213506447
cycle= 5 E= -3426.89513223232  delta_E= -0.000223  |g|= 0.00658  |ddm|= 0.0139
  alpha nocc = 36  HOMO = -0.97267183087293  LUMO = -0.387309560815114
  beta  nocc = 36  HOMO = -0.909897387536593  LUMO = -0.396742029299152
cycle= 6 E= -3426.89544557786  delta_E= -0.000313  |g|= 0.00585  |ddm|= 0.0216
  alpha nocc = 36  HOMO = -0.968681803054539  LUMO = -0.387431079028985
  beta  nocc = 36  HOMO = -0.906343118965392  LUMO = -0.395631505637516
cycle= 7 E= -3426.89619306991  delta_E= -0.000747  |g|= 0.0034  |ddm|= 0.074
  alpha nocc = 36  HOMO = -0.967305873468622  LUMO = -0.387473307397237
  beta  nocc = 36  HOMO = -0.903653762448196  LUMO = -0.39537595425057
cycle= 8 E= -3426.89635172506  delta_E= -0.000159  |g|= 0.00221  |ddm|= 0.0302
  alpha nocc = 36  HOMO = -0.965794053984592  LUMO = -0.387584570077028
  beta  nocc = 36  HOMO = -0.900802395974699  LUMO = -0.39517332570285
cycle= 9 E= -3426.89642751908  delta_E= -7.58e-05  |g|= 0.000936  |ddm|= 0.0318
  alpha nocc = 36  HOMO = -0.965274835302499  LUMO = -0.387599175500371
  beta  nocc = 36  HOMO = -0.900410158436982  LUMO = -0.395088212874856
cycle= 10 E= -3426.89643213954  delta_E= -4.62e-06  |g|= 0.000494  |ddm|= 0.00805
  alpha nocc = 36  HOMO = -0.965260130330417  LUMO = -0.387598994221312
  beta  nocc = 36  HOMO = -0.899975716178354  LUMO = -0.395076056881467
cycle= 11 E= -3426.89643275795  delta_E= -6.18e-07  |g|= 0.000363  |ddm|= 0.00161
  alpha nocc = 36  HOMO = -0.965285968679272  LUMO = -0.38759738874095
  beta  nocc = 36  HOMO = -0.90032392800413  LUMO = -0.395067148065284
cycle= 12 E= -3426.89643308143  delta_E= -3.23e-07  |g|= 0.000333  |ddm|= 0.000628
  alpha nocc = 36  HOMO = -0.965285480704631  LUMO = -0.387598410595316
  beta  nocc = 36  HOMO = -0.900062275515952  LUMO = -0.395071853507865
cycle= 13 E= -3426.8964334515  delta_E= -3.7e-07  |g|= 0.000315  |ddm|= 0.000647
  alpha nocc = 36  HOMO = -0.965282921522199  LUMO = -0.387596086361462
  beta  nocc = 36  HOMO = -0.900164388622361  LUMO = -0.395063545236205
cycle= 14 E= -3426.8964340649  delta_E= -6.13e-07  |g|= 0.000282  |ddm|= 0.00103
  alpha nocc = 36  HOMO = -0.965279186756036  LUMO = -0.387600049138636
  beta  nocc = 36  HOMO = -0.900239668835044  LUMO = -0.395063398191628
cycle= 15 E= -3426.89643467932  delta_E= -6.14e-07  |g|= 0.000254  |ddm|= 0.00115
  alpha nocc = 36  HOMO = -0.965268938249552  LUMO = -0.387599749947783
  beta  nocc = 36  HOMO = -0.900214241035029  LUMO = -0.39506282147872
cycle= 16 E= -3426.89643516846  delta_E= -4.89e-07  |g|= 0.000233  |ddm|= 0.000978
  alpha nocc = 36  HOMO = -0.965271711395281  LUMO = -0.387599944929533
  beta  nocc = 36  HOMO = -0.900213371615516  LUMO = -0.395062705074158
cycle= 17 E= -3426.89643548725  delta_E= -3.19e-07  |g|= 0.000227  |ddm|= 0.000678
  alpha nocc = 36  HOMO = -0.965279911461942  LUMO = -0.387599431137628
  beta  nocc = 36  HOMO = -0.90020936360588  LUMO = -0.395063679704771
cycle= 18 E= -3426.89643570924  delta_E= -2.22e-07  |g|= 0.000226  |ddm|= 0.000437
  alpha nocc = 36  HOMO = -0.965271968982713  LUMO = -0.387599703740446
  beta  nocc = 36  HOMO = -0.900204254402539  LUMO = -0.395062796910076
cycle= 19 E= -3426.896435606  delta_E= 1.03e-07  |g|= 0.000226  |ddm|= 0.000221
  alpha nocc = 36  HOMO = -0.96526590513711  LUMO = -0.387600029981572
  beta  nocc = 36  HOMO = -0.900197305767463  LUMO = -0.395061922136654
cycle= 20 E= -3426.89643553545  delta_E= 7.05e-08  |g|= 0.000226  |ddm|= 0.000184
  alpha nocc = 36  HOMO = -0.965262773885491  LUMO = -0.387600148996307
  beta  nocc = 36  HOMO = -0.900193485342644  LUMO = -0.395061292716217
cycle= 21 E= -3426.89643552062  delta_E= 1.48e-08  |g|= 0.000226  |ddm|= 7.04e-05
  alpha nocc = 36  HOMO = -0.965261893265099  LUMO = -0.387600192220727
  beta  nocc = 36  HOMO = -0.900192350249534  LUMO = -0.395061132736277
cycle= 22 E= -3426.89643552261  delta_E= -1.99e-09  |g|= 0.000226  |ddm|= 1.71e-05
  alpha nocc = 36  HOMO = -0.965262432755029  LUMO = -0.387600219492757
  beta  nocc = 36  HOMO = -0.900191915666727  LUMO = -0.395061248618214
cycle= 23 E= -3426.89643554304  delta_E= -2.04e-08  |g|= 0.000226  |ddm|= 4.26e-05
  alpha nocc = 36  HOMO = -0.965263441793192  LUMO = -0.387600384015282
  beta  nocc = 36  HOMO = -0.900193781904658  LUMO = -0.395061649576696
cycle= 24 E= -3426.89643550096  delta_E= 4.21e-08  |g|= 0.000226  |ddm|= 9.81e-05
  alpha nocc = 36  HOMO = -0.965261925837506  LUMO = -0.38760001622496
  beta  nocc = 36  HOMO = -0.900193450992584  LUMO = -0.395061424867515
cycle= 25 E= -3426.89643541138  delta_E= 8.96e-08  |g|= 0.000226  |ddm|= 0.000203
  alpha nocc = 36  HOMO = -0.965262258252136  LUMO = -0.387600102616934
  beta  nocc = 36  HOMO = -0.900191983513207  LUMO = -0.395061544926394
cycle= 26 E= -3426.89643535237  delta_E= 5.9e-08  |g|= 0.000225  |ddm|= 0.00012
  alpha nocc = 36  HOMO = -0.96526823094782  LUMO = -0.387599653664418
  beta  nocc = 36  HOMO = -0.900182990462301  LUMO = -0.395062444021906
cycle= 27 E= -3426.89643536389  delta_E= -1.15e-08  |g|= 0.000225  |ddm|= 8.85e-05
  alpha nocc = 36  HOMO = -0.965275547305592  LUMO = -0.38759942865082
  beta  nocc = 36  HOMO = -0.900182757164901  LUMO = -0.395063009273502
cycle= 28 E= -3426.89643531996  delta_E= 4.39e-08  |g|= 0.000222  |ddm|= 0.000195
  alpha nocc = 36  HOMO = -0.96530152370959  LUMO = -0.387598672218925
  beta  nocc = 36  HOMO = -0.900196256424647  LUMO = -0.395065418983133
cycle= 29 E= -3426.8964348827  delta_E= 4.37e-07  |g|= 0.000215  |ddm|= 0.00113
  alpha nocc = 36  HOMO = -0.965376492444124  LUMO = -0.387595684818832
  beta  nocc = 36  HOMO = -0.900301374908681  LUMO = -0.395073329119397
cycle= 30 E= -3426.89643064733  delta_E= 4.24e-06  |g|= 0.000186  |ddm|= 0.0104
  alpha nocc = 36  HOMO = -0.96539620363334  LUMO = -0.387595543848881
  beta  nocc = 36  HOMO = -0.900302546633153  LUMO = -0.395075891682012
cycle= 31 E= -3426.89642850772  delta_E= 2.14e-06  |g|= 0.000175  |ddm|= 0.00651
  alpha nocc = 36  HOMO = -0.965393984605229  LUMO = -0.387594513708547
  beta  nocc = 36  HOMO = -0.900352558856435  LUMO = -0.395074776325969
cycle= 32 E= -3426.89642655345  delta_E= 1.95e-06  |g|= 0.000154  |ddm|= 0.00751
  alpha nocc = 36  HOMO = -0.965377929609812  LUMO = -0.38759598070832
  beta  nocc = 36  HOMO = -0.900213617495355  LUMO = -0.395075565629306
cycle= 33 E= -3426.89642560977  delta_E= 9.44e-07  |g|= 0.000113  |ddm|= 0.00505
  alpha nocc = 36  HOMO = -0.965352767568239  LUMO = -0.387596418912105
  beta  nocc = 36  HOMO = -0.900327980377053  LUMO = -0.395065806271797
cycle= 34 E= -3426.89642436804  delta_E= 1.24e-06  |g|= 0.000135  |ddm|= 0.0107
  alpha nocc = 36  HOMO = -0.965356382307664  LUMO = -0.387598968278976
  beta  nocc = 36  HOMO = -0.900192139978675  LUMO = -0.395067291494251
cycle= 35 E= -3426.89642422947  delta_E= 1.39e-07  |g|= 6.52e-05  |ddm|= 0.00372
  alpha nocc = 36  HOMO = -0.965360333922831  LUMO = -0.387598986479601
  beta  nocc = 36  HOMO = -0.900188423194102  LUMO = -0.395067540285662
cycle= 36 E= -3426.89642422022  delta_E= 9.25e-09  |g|= 5.51e-05  |ddm|= 0.000736
  alpha nocc = 36  HOMO = -0.965367691696987  LUMO = -0.387599191988607
  beta  nocc = 36  HOMO = -0.900130139216469  LUMO = -0.395068881955476
cycle= 37 E= -3426.8964242225  delta_E= -2.28e-09  |g|= 4.78e-05  |ddm|= 0.000483
  alpha nocc = 36  HOMO = -0.965373318084532  LUMO = -0.387599379706371
  beta  nocc = 36  HOMO = -0.900142620829186  LUMO = -0.395069547009812
cycle= 38 E= -3426.89642422676  delta_E= -4.26e-09  |g|= 4.36e-05  |ddm|= 8.96e-05
  alpha nocc = 36  HOMO = -0.965373380645415  LUMO = -0.387599039871581
  beta  nocc = 36  HOMO = -0.90014617527934  LUMO = -0.395069365359956
cycle= 39 E= -3426.89642423178  delta_E= -5.02e-09  |g|= 3.96e-05  |ddm|= 0.000343
  alpha nocc = 36  HOMO = -0.965373078338356  LUMO = -0.387599069939297
  beta  nocc = 36  HOMO = -0.900166842874359  LUMO = -0.395069345839741
cycle= 40 E= -3426.89642424892  delta_E= -1.71e-08  |g|= 3.26e-05  |ddm|= 0.0011
  alpha nocc = 36  HOMO = -0.965374342767897  LUMO = -0.387599015844929
  beta  nocc = 36  HOMO = -0.900121883223018  LUMO = -0.395071007590516
cycle= 41 E= -3426.89642426592  delta_E= -1.7e-08  |g|= 2.16e-05  |ddm|= 0.000446
  alpha nocc = 36  HOMO = -0.965366929970358  LUMO = -0.387598981167772
  beta  nocc = 36  HOMO = -0.900140823672627  LUMO = -0.395070121051651
cycle= 42 E= -3426.89642426927  delta_E= -3.35e-09  |g|= 1.26e-05  |ddm|= 0.000197
  alpha nocc = 36  HOMO = -0.965367270736391  LUMO = -0.387598918663361
  beta  nocc = 36  HOMO = -0.900144812199972  LUMO = -0.395070081534956
cycle= 43 E= -3426.89642426931  delta_E= -4.05e-11  |g|= 8.46e-06  |ddm|= 0.000223
  alpha nocc = 36  HOMO = -0.965366016542718  LUMO = -0.387598983943674
  beta  nocc = 36  HOMO = -0.900143886154954  LUMO = -0.395069945000876
Extra cycle  E= -3426.89642426941  delta_E= -1.05e-10  |g|= 7.68e-06  |ddm|= 7.95e-06
converged SCF energy = -3426.89642426941  <S^2> = 1.9792003  2S+1 = 2.9861014
checking UHF/UKS internal stability ...
UHF/UKS wavefunction has an internal instability.


******** <class 'pyscf.scf.uhf.UHF'> ********
method = UHF
initial guess = minao
damping factor = 0
level_shift factor = 0
DIIS = <class 'pyscf.scf.diis.CDIIS'>
diis_start_cycle = 1
diis_space = 8
SCF conv_tol = 1e-09
SCF conv_tol_grad = None
SCF max_cycles = 100
direct_scf = True
direct_scf_tol = 1e-13
chkfile to save SCF result = /share/home/srwang/ExSCF/examples/tmpifaq4p4t
max_memory 4000 MB (current use 1292 MB)
number electrons alpha = 36  beta = 36
Set gradient conv threshold to 3.16228e-05
init E= -3426.88092358398
  alpha nocc = 36  HOMO = -0.956511420242658  LUMO = -0.387819739756217
  beta  nocc = 36  HOMO = -0.923142193491374  LUMO = -0.394311395989176
cycle= 1 E= -3426.89540103453  delta_E= -0.0145  |g|= 0.0456  |ddm|= 0.0925
  alpha nocc = 36  HOMO = -0.951253434528751  LUMO = -0.387559079224539
  beta  nocc = 36  HOMO = -0.915919951678143  LUMO = -0.394257137209678
cycle= 2 E= -3426.89710998833  delta_E= -0.00171  |g|= 0.0198  |ddm|= 0.0375
  alpha nocc = 36  HOMO = -0.959727181570963  LUMO = -0.38770355782264
  beta  nocc = 36  HOMO = -0.918710124887702  LUMO = -0.394462981659702
cycle= 3 E= -3426.89746101463  delta_E= -0.000351  |g|= 0.0137  |ddm|= 0.0199
  alpha nocc = 36  HOMO = -0.958426102083157  LUMO = -0.387539888649775
  beta  nocc = 36  HOMO = -0.915172496518669  LUMO = -0.394338257471562
cycle= 4 E= -3426.89758626994  delta_E= -0.000125  |g|= 0.00584  |ddm|= 0.011
  alpha nocc = 36  HOMO = -0.959134721800525  LUMO = -0.387664721103755
  beta  nocc = 36  HOMO = -0.913977389069469  LUMO = -0.394484106551732
cycle= 5 E= -3426.89762579161  delta_E= -3.95e-05  |g|= 0.0047  |ddm|= 0.00625
  alpha nocc = 36  HOMO = -0.960086024635179  LUMO = -0.387614798803942
  beta  nocc = 36  HOMO = -0.913151579555597  LUMO = -0.394440139626289
cycle= 6 E= -3426.89766191578  delta_E= -3.61e-05  |g|= 0.00269  |ddm|= 0.00684
  alpha nocc = 36  HOMO = -0.960057073882317  LUMO = -0.38762219547516
  beta  nocc = 36  HOMO = -0.912780876962709  LUMO = -0.394449104916145
cycle= 7 E= -3426.89769321855  delta_E= -3.13e-05  |g|= 0.00236  |ddm|= 0.00615
  alpha nocc = 36  HOMO = -0.96041006800689  LUMO = -0.387621154358604
  beta  nocc = 36  HOMO = -0.913109307566992  LUMO = -0.39446709925669
cycle= 8 E= -3426.89772595605  delta_E= -3.27e-05  |g|= 0.00211  |ddm|= 0.00692
  alpha nocc = 36  HOMO = -0.960310490702926  LUMO = -0.387593089933267
  beta  nocc = 36  HOMO = -0.913541349890852  LUMO = -0.39447083938223
cycle= 9 E= -3426.89779407579  delta_E= -6.81e-05  |g|= 0.0015  |ddm|= 0.0184
  alpha nocc = 36  HOMO = -0.960413707645866  LUMO = -0.387581288704776
  beta  nocc = 36  HOMO = -0.914476767433618  LUMO = -0.394498229957839
cycle= 10 E= -3426.89783499109  delta_E= -4.09e-05  |g|= 0.000926  |ddm|= 0.0192
  alpha nocc = 36  HOMO = -0.96038716555855  LUMO = -0.387579433728516
  beta  nocc = 36  HOMO = -0.914409902752124  LUMO = -0.39448652876033
cycle= 11 E= -3426.8978432659  delta_E= -8.27e-06  |g|= 0.000677  |ddm|= 0.00708
  alpha nocc = 36  HOMO = -0.960398029197677  LUMO = -0.38758598099127
  beta  nocc = 36  HOMO = -0.914470062374261  LUMO = -0.394476564814202
cycle= 12 E= -3426.89784633865  delta_E= -3.07e-06  |g|= 0.000587  |ddm|= 0.00322
  alpha nocc = 36  HOMO = -0.960404624779857  LUMO = -0.387588747838233
  beta  nocc = 36  HOMO = -0.914541768965324  LUMO = -0.394470842188209
cycle= 13 E= -3426.89784798489  delta_E= -1.65e-06  |g|= 0.000569  |ddm|= 0.00142
  alpha nocc = 36  HOMO = -0.960408720851469  LUMO = -0.387589307008297
  beta  nocc = 36  HOMO = -0.914565805331533  LUMO = -0.394465782658223
cycle= 14 E= -3426.89784991662  delta_E= -1.93e-06  |g|= 0.000543  |ddm|= 0.00166
  alpha nocc = 36  HOMO = -0.960397580335691  LUMO = -0.387589465280031
  beta  nocc = 36  HOMO = -0.914584263284684  LUMO = -0.394462904881393
cycle= 15 E= -3426.89785324113  delta_E= -3.32e-06  |g|= 0.000492  |ddm|= 0.00303
  alpha nocc = 36  HOMO = -0.960403159744726  LUMO = -0.38759068826974
  beta  nocc = 36  HOMO = -0.914667300453215  LUMO = -0.394468703765856
cycle= 16 E= -3426.89785721867  delta_E= -3.98e-06  |g|= 0.000457  |ddm|= 0.00401
  alpha nocc = 36  HOMO = -0.960380935953875  LUMO = -0.387586494692626
  beta  nocc = 36  HOMO = -0.914685627553649  LUMO = -0.394467420958407
cycle= 17 E= -3426.89785953661  delta_E= -2.32e-06  |g|= 0.000423  |ddm|= 0.00253
  alpha nocc = 36  HOMO = -0.960349910493677  LUMO = -0.387587163881565
  beta  nocc = 36  HOMO = -0.914685325840666  LUMO = -0.394469958548878
cycle= 18 E= -3426.89786151851  delta_E= -1.98e-06  |g|= 0.000404  |ddm|= 0.0022
  alpha nocc = 36  HOMO = -0.960369507615654  LUMO = -0.387586630378852
  beta  nocc = 36  HOMO = -0.914773422933576  LUMO = -0.394470061577041
cycle= 19 E= -3426.89786479439  delta_E= -3.28e-06  |g|= 0.000381  |ddm|= 0.00373
  alpha nocc = 36  HOMO = -0.960314294626959  LUMO = -0.387585059858019
  beta  nocc = 36  HOMO = -0.914897174888483  LUMO = -0.394465042969461
cycle= 20 E= -3426.89787077299  delta_E= -5.98e-06  |g|= 0.000352  |ddm|= 0.00744
  alpha nocc = 36  HOMO = -0.960298487725449  LUMO = -0.387585708609492
  beta  nocc = 36  HOMO = -0.915071899230751  LUMO = -0.394462807215649
cycle= 21 E= -3426.89787641535  delta_E= -5.64e-06  |g|= 0.000342  |ddm|= 0.00811
  alpha nocc = 36  HOMO = -0.960298076314625  LUMO = -0.387585570294876
  beta  nocc = 36  HOMO = -0.915064479804769  LUMO = -0.394463404393626
cycle= 22 E= -3426.89787859276  delta_E= -2.18e-06  |g|= 0.000336  |ddm|= 0.00335
  alpha nocc = 36  HOMO = -0.96028539826856  LUMO = -0.387585738600767
  beta  nocc = 36  HOMO = -0.915073850537419  LUMO = -0.394464313054777
cycle= 23 E= -3426.89788132581  delta_E= -2.73e-06  |g|= 0.000333  |ddm|= 0.00429
  alpha nocc = 36  HOMO = -0.960284137924158  LUMO = -0.387586145972589
  beta  nocc = 36  HOMO = -0.915131762330654  LUMO = -0.394463956714187
cycle= 24 E= -3426.89788333618  delta_E= -2.01e-06  |g|= 0.000327  |ddm|= 0.00321
  alpha nocc = 36  HOMO = -0.960295508663991  LUMO = -0.387586817125134
  beta  nocc = 36  HOMO = -0.915252844350164  LUMO = -0.39446300040916
cycle= 25 E= -3426.89788820232  delta_E= -4.87e-06  |g|= 0.000306  |ddm|= 0.00812
  alpha nocc = 36  HOMO = -0.960184447349819  LUMO = -0.387583179037312
  beta  nocc = 36  HOMO = -0.915834958942072  LUMO = -0.39444753738733
cycle= 26 E= -3426.89789854952  delta_E= -1.03e-05  |g|= 0.000323  |ddm|= 0.0234
  alpha nocc = 36  HOMO = -0.960177830080683  LUMO = -0.387585706376767
  beta  nocc = 36  HOMO = -0.91580174455554  LUMO = -0.394451406915959
cycle= 27 E= -3426.89790007741  delta_E= -1.53e-06  |g|= 0.000258  |ddm|= 0.00505
  alpha nocc = 36  HOMO = -0.960220469092603  LUMO = -0.387584550532645
  beta  nocc = 36  HOMO = -0.915519683291963  LUMO = -0.394455693021226
cycle= 28 E= -3426.89790050925  delta_E= -4.32e-07  |g|= 0.000186  |ddm|= 0.00144
  alpha nocc = 36  HOMO = -0.960208490622226  LUMO = -0.387585992787535
  beta  nocc = 36  HOMO = -0.915615103303378  LUMO = -0.394454678212278
cycle= 29 E= -3426.89790239237  delta_E= -1.88e-06  |g|= 0.000146  |ddm|= 0.00936
  alpha nocc = 36  HOMO = -0.960191537873553  LUMO = -0.387585656908462
  beta  nocc = 36  HOMO = -0.915652705419108  LUMO = -0.394451378814477
cycle= 30 E= -3426.89790298261  delta_E= -5.9e-07  |g|= 0.000125  |ddm|= 0.00471
  alpha nocc = 36  HOMO = -0.96021554397265  LUMO = -0.387586094663819
  beta  nocc = 36  HOMO = -0.915518106275707  LUMO = -0.394453713281129
cycle= 31 E= -3426.89790319613  delta_E= -2.14e-07  |g|= 8.82e-05  |ddm|= 0.00213
  alpha nocc = 36  HOMO = -0.960194418243775  LUMO = -0.387585955639463
  beta  nocc = 36  HOMO = -0.915697630945818  LUMO = -0.39444994876319
cycle= 32 E= -3426.8979034464  delta_E= -2.5e-07  |g|= 0.000123  |ddm|= 0.00392
  alpha nocc = 36  HOMO = -0.960209088797935  LUMO = -0.387585957041504
  beta  nocc = 36  HOMO = -0.915535949074982  LUMO = -0.394452863939547
cycle= 33 E= -3426.89790348609  delta_E= -3.97e-08  |g|= 6.82e-05  |ddm|= 0.000573
  alpha nocc = 36  HOMO = -0.96021649408871  LUMO = -0.387585977185423
  beta  nocc = 36  HOMO = -0.91549204864777  LUMO = -0.394454124948443
cycle= 34 E= -3426.89790353295  delta_E= -4.69e-08  |g|= 5.85e-05  |ddm|= 0.0013
  alpha nocc = 36  HOMO = -0.960223527194651  LUMO = -0.387585719050052
  beta  nocc = 36  HOMO = -0.915494130493448  LUMO = -0.394454403140118
cycle= 35 E= -3426.89790355371  delta_E= -2.08e-08  |g|= 5.22e-05  |ddm|= 0.0008
  alpha nocc = 36  HOMO = -0.960224476459662  LUMO = -0.387585859868902
  beta  nocc = 36  HOMO = -0.915488291468637  LUMO = -0.394455201372528
cycle= 36 E= -3426.89790357197  delta_E= -1.83e-08  |g|= 4.6e-05  |ddm|= 0.00153
  alpha nocc = 36  HOMO = -0.960230084016085  LUMO = -0.387585438788121
  beta  nocc = 36  HOMO = -0.915474915568295  LUMO = -0.394455318786726
cycle= 37 E= -3426.89790357491  delta_E= -2.94e-09  |g|= 3.99e-05  |ddm|= 0.000731
  alpha nocc = 36  HOMO = -0.960232571092727  LUMO = -0.387585631950911
  beta  nocc = 36  HOMO = -0.915474012842075  LUMO = -0.394455490865889
cycle= 38 E= -3426.89790357259  delta_E= 2.33e-09  |g|= 3.68e-05  |ddm|= 0.000628
  alpha nocc = 36  HOMO = -0.96022891004727  LUMO = -0.38758557066495
  beta  nocc = 36  HOMO = -0.915471857989422  LUMO = -0.394455015802637
cycle= 39 E= -3426.89790357394  delta_E= -1.35e-09  |g|= 3.27e-05  |ddm|= 0.000274
  alpha nocc = 36  HOMO = -0.960226709269104  LUMO = -0.387585782457528
  beta  nocc = 36  HOMO = -0.915482698217731  LUMO = -0.394454705416991
cycle= 40 E= -3426.89790357052  delta_E= 3.42e-09  |g|= 2.71e-05  |ddm|= 0.000668
  alpha nocc = 36  HOMO = -0.960225390480012  LUMO = -0.387585819806926
  beta  nocc = 36  HOMO = -0.915478063896795  LUMO = -0.394454748802933
cycle= 41 E= -3426.89790357128  delta_E= -7.57e-10  |g|= 2.33e-05  |ddm|= 0.000206
  alpha nocc = 36  HOMO = -0.960227015171797  LUMO = -0.387585659271456
  beta  nocc = 36  HOMO = -0.915477194892058  LUMO = -0.394454748284923
Extra cycle  E= -3426.89790357229  delta_E= -1.02e-09  |g|= 2.22e-05  |ddm|= 2.22e-05
converged SCF energy = -3426.89790357229  <S^2> = 1.9680502  2S+1 = 2.978624
checking UHF/UKS internal stability ...
UHF/UKS wavefunction is stable in the internal stability analysis
time for guess: 34.600

******** <class 'pyphf.util.SUHF'> ********
max_cycle = 100
verbose: 4, normal
chkfile0: 4353_ges.pchk # the file store hf for guess
chkfile: 4353_su.pchk # the file store suhf info
conv_tol: 1e-07
DIIS: <class 'pyscf.scf.diis.CDIIS'>
diis_start_cyc = 10
level shift: 0.300 a.u.
grids:  [0.06237655 0.31939555 0.74529195 1.28265786 1.85893479 2.39630071
 2.8221971  3.07921611] 
weights:  [0.15900941 0.34931531 0.49276925 0.56970235 0.56970235 0.49276925
 0.34931531 0.15900941]
S = 0.0, Sz = 0.0
Wigner small d:  1
value : [1. 1. 1. 1. 1. 1. 1. 1.]
time for Preparation before cyc: 0.112
**** Start Cycle 1 ****
time for NO, Ng: 0.828
time for Gg: 4.072
detC -1.0000000000000113
detNg [    1.001916     1.051675     1.321995     2.374058     7.229649    43.135564   528.165659 19677.272462]
xg [0.998087 0.950865 0.756433 0.42122  0.138319 0.023183 0.001893 0.000051]
ciS 0.6805627925955051
ciH -2634.8845226554554
S2 = 0.000000
Hsp + Hph =  -3871.625882758931
level shift: 0.300 a.u.
Alpha occ 36 vir 116; Beta occ 36 vir 116
Alpha energies:  [-1.077969 -1.06726  -1.037556 -1.013711 -0.987407 -0.960271] <- HOMO
         LUMO->  [-0.087575 -0.055783  0.006187  0.030856  0.078448  0.111071]
Beta energies:   [-1.228476 -1.216313 -1.0016   -0.940052 -0.934358 -0.915513] <- HOMO
         LUMO->  [-0.094444 -0.061474 -0.059167 -0.015235  0.078313  0.122018]
time for xg, H, S2, Yg, Feff: 0.198
 E(SUHF) =  -3426.91046280
**** Start Cycle 2 ****
time for NO, Ng: 0.821
time for Gg: 4.062
detC -1.000000000000003
detNg [    1.001928     1.051997     1.324131     2.384565     7.289154    43.662639   536.990524 20059.818799]
xg [0.998075 0.950573 0.755212 0.419364 0.13719  0.022903 0.001862 0.00005 ]
ciS 0.6783954086330707
ciH -2626.496325345757
S2 = 0.000000
Hsp + Hph =  -3871.630456105242
level shift: 0.300 a.u.
Alpha occ 36 vir 116; Beta occ 36 vir 116
Alpha energies:  [-1.079371 -1.070468 -1.038244 -1.013345 -0.989014 -0.960599] <- HOMO
         LUMO->  [-0.087632 -0.055968  0.007208  0.031858  0.078397  0.1107  ]
Beta energies:   [-1.229885 -1.218271 -1.001917 -0.939052 -0.934197 -0.914354] <- HOMO
         LUMO->  [-0.094455 -0.060222 -0.059102 -0.012997  0.078239  0.121903]
time for xg, H, S2, Yg, Feff: 0.196
 E =  -3426.91503614, delta E = -0.00457335, MaxD(dm) = 0.00353721, RMSD(dm) = 0.000128964
**** Start Cycle 3 ****
time for NO, Ng: 0.822
time for Gg: 4.056
detC -1.0000000000000013
detNg [    1.001937     1.052248     1.325777     2.392408     7.329556    43.92504    538.419407 20050.902385]
xg [0.998066 0.950346 0.754275 0.417989 0.136434 0.022766 0.001857 0.00005 ]
ciS 0.6768468823933503
ciH -2620.502282531603
S2 = 0.000000
Hsp + Hph =  -3871.6323450666277
level shift: 0.300 a.u.
Alpha occ 36 vir 116; Beta occ 36 vir 116
Alpha energies:  [-1.080405 -1.072667 -1.038937 -1.013324 -0.990632 -0.961367] <- HOMO
         LUMO->  [-0.087582 -0.056046  0.008296  0.03296   0.078451  0.110481]
Beta energies:   [-1.229884 -1.218685 -1.001934 -0.937886 -0.933872 -0.913435] <- HOMO
         LUMO->  [-0.094378 -0.059471 -0.058943 -0.011822  0.078243  0.121844]
time for xg, H, S2, Yg, Feff: 0.192
 E =  -3426.91692510, delta E = -0.00188896, MaxD(dm) = 0.00279835, RMSD(dm) = 9.39832e-05
**** Start Cycle 4 ****
time for NO, Ng: 0.822
time for Gg: 4.048
detC -0.9999999999999978
detNg [    1.001945     1.052451     1.327113     2.398803     7.362759    44.145643   539.827557 20057.848602]
xg [0.998059 0.950163 0.753515 0.416875 0.135819 0.022652 0.001852 0.00005 ]
ciS 0.6755895870417883
ciH -2615.63508688859
S2 = 0.000000
Hsp + Hph =  -3871.633217944789
level shift: 0.300 a.u.
Alpha occ 36 vir 116; Beta occ 36 vir 116
Alpha energies:  [-1.081393 -1.0744   -1.03969  -1.013575 -0.99209  -0.962198] <- HOMO
         LUMO->  [-0.087612 -0.056186  0.008498  0.03306   0.078447  0.110244]
Beta energies:   [-1.230902 -1.219991 -1.00182  -0.936699 -0.933472 -0.91248 ] <- HOMO
         LUMO->  [-0.094406 -0.059022 -0.058871 -0.011079  0.078176  0.121761]
time for xg, H, S2, Yg, Feff: 0.190
 E =  -3426.91779798, delta E = -0.000872878, MaxD(dm) = 0.00223368, RMSD(dm) = 7.22412e-05
**** Start Cycle 5 ****
time for NO, Ng: 0.823
time for Gg: 4.055
detC -0.9999999999999964
detNg [    1.001951     1.052614     1.328184     2.403947     7.389646    44.327687   541.125845 20072.970486]
xg [0.998053 0.950016 0.752908 0.415983 0.135324 0.022559 0.001848 0.00005 ]
ciS 0.6745815568975692
ciH -2611.7326677816254
S2 = 0.000000
Hsp + Hph =  -3871.6336684226912
level shift: 0.300 a.u.
Alpha occ 36 vir 116; Beta occ 36 vir 116
Alpha energies:  [-1.081985 -1.07557  -1.040404 -1.01385  -0.993449 -0.963051] <- HOMO
         LUMO->  [-0.08757  -0.056252  0.009002  0.033525  0.078506  0.110114]
Beta energies:   [-1.230927 -1.220242 -1.001555 -0.935541 -0.932981 -0.911576] <- HOMO
         LUMO->  [-0.094377 -0.058784 -0.05875  -0.010652  0.078158  0.121715]
time for xg, H, S2, Yg, Feff: 0.187
 E =  -3426.91824846, delta E = -0.000450478, MaxD(dm) = 0.00185818, RMSD(dm) = 5.82876e-05
**** Start Cycle 6 ****
time for NO, Ng: 0.820
time for Gg: 4.049
detC -1.0000000000000024
detNg [    1.001956     1.052746     1.329048     2.408105     7.411489    44.477546   542.270349 20090.614272]
xg [0.998048 0.949897 0.752418 0.415264 0.134926 0.022483 0.001844 0.00005 ]
ciS 0.6737689199739556
ciH -2608.586611882117
S2 = 0.000000
Hsp + Hph =  -3871.633930492002
level shift: 0.300 a.u.
Alpha occ 36 vir 116; Beta occ 36 vir 116
Alpha energies:  [-1.08258  -1.07656  -1.041155 -1.014263 -0.99468  -0.96388 ] <- HOMO
         LUMO->  [-0.087586 -0.056362  0.009017  0.033443  0.078518  0.109961]
Beta energies:   [-1.231629 -1.221105 -1.001296 -0.934491 -0.932521 -0.910704] <- HOMO
         LUMO->  [-0.094421 -0.058695 -0.058686 -0.010392  0.078088  0.12165 ]
time for xg, H, S2, Yg, Feff: 0.185
 E =  -3426.91851053, delta E = -0.000262069, MaxD(dm) = 0.00154151, RMSD(dm) = 4.88865e-05
**** Start Cycle 7 ****
time for NO, Ng: 0.820
time for Gg: 4.050
detC 1.0000000000000109
detNg [    1.00196      1.052852     1.329752     2.411494     7.429264    44.59836    543.147156 20101.899006]
xg [0.998044 0.949801 0.75202  0.414681 0.134603 0.022422 0.001841 0.00005 ]
ciS 0.6731094681088978
ciH -2606.0335703398737
S2 = 0.000000
Hsp + Hph =  -3871.634100856625
level shift: 0.300 a.u.
Alpha occ 36 vir 116; Beta occ 36 vir 116
Alpha energies:  [-1.08293  -1.077236 -1.041842 -1.01464  -0.995798 -0.964663] <- HOMO
         LUMO->  [-0.087554 -0.056421  0.009288  0.033668  0.07857   0.109879]
Beta energies:   [-1.231663 -1.221274 -1.000978 -0.933509 -0.932039 -0.909896] <- HOMO
         LUMO->  [-0.094426 -0.058665 -0.058611 -0.010257  0.078052  0.121609]
time for xg, H, S2, Yg, Feff: 0.182
 E =  -3426.91868089, delta E = -0.000170365, MaxD(dm) = 0.00132277, RMSD(dm) = 4.22769e-05
**** Start Cycle 8 ****
time for NO, Ng: 0.821
time for Gg: 4.048
detC 0.9999999999999896
detNg [    1.001963     1.052941     1.330337     2.414311     7.44404     44.698369   543.855261 20110.143289]
xg [0.998041 0.949721 0.751689 0.414197 0.134336 0.022372 0.001839 0.00005 ]
ciS 0.6725628162305354
ciH -2603.9172155904753
S2 = 0.000000
Hsp + Hph =  -3871.6342217437223
level shift: 0.300 a.u.
Alpha occ 36 vir 116; Beta occ 36 vir 116
Alpha energies:  [-1.083309 -1.077843 -1.042523 -1.015077 -0.9968   -0.965394] <- HOMO
         LUMO->  [-0.08756  -0.056508  0.009269  0.03357   0.078589  0.10978 ]
Beta energies:   [-1.232137 -1.221848 -1.000693 -0.932636 -0.931607 -0.90914 ] <- HOMO
         LUMO->  [-0.094475 -0.058697 -0.058571 -0.010187  0.077984  0.121555]
time for xg, H, S2, Yg, Feff: 0.195
 E =  -3426.91880178, delta E = -0.000120887, MaxD(dm) = 0.00119423, RMSD(dm) = 3.72957e-05
**** Start Cycle 9 ****
time for NO, Ng: 0.823
time for Gg: 4.061
detC 1.0000000000000104
detNg [    1.001966     1.053016     1.330831     2.416686     7.45644     44.780778   544.378305 20113.005368]
xg [0.998038 0.949653 0.75141  0.41379  0.134112 0.022331 0.001837 0.00005 ]
ciS 0.6721040047641642
ciH -2602.1409267259837
S2 = 0.000000
Hsp + Hph =  -3871.634312964782
level shift: 0.300 a.u.
Alpha occ 36 vir 116; Beta occ 36 vir 116
Alpha energies:  [-1.083541 -1.07827  -1.043136 -1.015465 -0.997699 -0.966067] <- HOMO
         LUMO->  [-0.087533 -0.05656   0.009436  0.033695  0.078635  0.109728]
Beta energies:   [-1.232166 -1.221963 -1.00039  -0.931831 -0.93118  -0.90845 ] <- HOMO
         LUMO->  [-0.094495 -0.058752 -0.058513 -0.010168  0.077941  0.121517]
time for xg, H, S2, Yg, Feff: 0.191
 E =  -3426.91889300, delta E = -9.12211e-05, MaxD(dm) = 0.00109844, RMSD(dm) = 3.3417e-05
**** Start Cycle 10 ****
time for NO, Ng: 0.822
time for Gg: 4.055
detC 0.9999999999999929
detNg [    1.001968     1.05308      1.331254     2.418723     7.467063    44.850687   544.794131 20113.645228]
xg [0.998036 0.949595 0.751171 0.413441 0.133921 0.022296 0.001836 0.00005 ]
ciS 0.6717113029597273
ciH -2600.6205771106343
S2 = 0.000000
Hsp + Hph =  -3871.634384670397
F(mod,ortho) updated with CDIIS
level shift: 0.300 a.u.
Alpha occ 36 vir 116; Beta occ 36 vir 116
Alpha energies:  [-1.083807 -1.078673 -1.043723 -1.015873 -0.998499 -0.966686] <- HOMO
         LUMO->  [-0.08753  -0.056627  0.009421  0.033619  0.078659  0.109664]
Beta energies:   [-1.232481 -1.222345 -1.000124 -0.931118 -0.9308   -0.907816] <- HOMO
         LUMO->  [-0.094543 -0.058824 -0.058483 -0.010172  0.077878  0.121472]
time for xg, H, S2, Yg, Feff: 0.193
 E =  -3426.91896471, delta E = -7.17056e-05, MaxD(dm) = 0.00099577, RMSD(dm) = 3.02183e-05
**** Start Cycle 11 ****
time for NO, Ng: 0.826
time for Gg: 4.057
detC 1.0000000000000029
detNg [    1.00197      1.053136     1.331622     2.420489     7.476219    44.909661   545.09301  20110.811154]
xg [0.998034 0.949545 0.750964 0.41314  0.133757 0.022267 0.001835 0.00005 ]
ciS 0.6713723444459266
ciH -2599.308292560645
S2 = -0.000000
Hsp + Hph =  -3871.634442592083
F(mod,ortho) updated with CDIIS
level shift: 0.300 a.u.
Alpha occ 36 vir 116; Beta occ 36 vir 116
Alpha energies:  [-1.084587 -1.079963 -1.046033 -1.017459 -1.00166  -0.969183] <- HOMO
         LUMO->  [-0.087424 -0.056817  0.009927  0.033975  0.07884   0.109521]
Beta energies:   [-1.232563 -1.222687 -0.998959 -0.929204 -0.928274 -0.905305] <- HOMO
         LUMO->  [-0.094661 -0.05915  -0.058298 -0.010279  0.077679  0.121318]
time for xg, H, S2, Yg, Feff: 0.189
 E =  -3426.91902263, delta E = -5.79217e-05, MaxD(dm) = 0.00300056, RMSD(dm) = 9.73794e-05
**** Start Cycle 12 ****
time for NO, Ng: 0.821
time for Gg: 4.052
detC 0.9999999999999958
detNg [    1.001977     1.053317     1.332814     2.426243     7.506388    45.111222   546.411674 20120.884044]
xg [0.998027 0.949382 0.750292 0.41216  0.13322  0.022167 0.00183  0.00005 ]
ciS 0.6702672694432632
ciH -2595.0299465837916
S2 = -0.000000
Hsp + Hph =  -3871.63459248021
F(mod,ortho) updated with CDIIS
level shift: 0.300 a.u.
Alpha occ 36 vir 116; Beta occ 36 vir 116
Alpha energies:  [-1.085109 -1.080567 -1.047115 -1.018314 -1.003041 -0.970357] <- HOMO
         LUMO->  [-0.087444 -0.056962  0.009769  0.033692  0.078871  0.109408]
Beta energies:   [-1.233335 -1.223569 -0.998384 -0.928436 -0.926946 -0.904119] <- HOMO
         LUMO->  [-0.094758 -0.059263 -0.058252 -0.010265  0.07754   0.121217]
time for xg, H, S2, Yg, Feff: 0.196
 E =  -3426.91917252, delta E = -0.000149888, MaxD(dm) = 0.00206139, RMSD(dm) = 6.58664e-05
**** Start Cycle 13 ****
time for NO, Ng: 0.821
time for Gg: 4.056
detC 0.9999999999999928
detNg [    1.001981     1.053436     1.3336       2.430027     7.526005    45.235901   546.974483 20110.772412]
xg [0.998023 0.949274 0.74985  0.411518 0.132873 0.022106 0.001828 0.00005 ]
ciS 0.6695466875035205
ciH -2592.2401639127606
S2 = -0.000000
Hsp + Hph =  -3871.634663115454
F(mod,ortho) updated with CDIIS
level shift: 0.300 a.u.
Alpha occ 36 vir 116; Beta occ 36 vir 116
Alpha energies:  [-1.085268 -1.08067  -1.047804 -1.018938 -1.003656 -0.970998] <- HOMO
         LUMO->  [-0.087432 -0.057032  0.00976   0.033632  0.07893   0.109397]
Beta energies:   [-1.233199 -1.223459 -0.997954 -0.927921 -0.926239 -0.903438] <- HOMO
         LUMO->  [-0.094825 -0.059498 -0.058227 -0.010473  0.077455  0.121172]
time for xg, H, S2, Yg, Feff: 0.183
 E =  -3426.91924315, delta E = -7.06352e-05, MaxD(dm) = 0.00175178, RMSD(dm) = 4.75454e-05
**** Start Cycle 14 ****
time for NO, Ng: 0.820
time for Gg: 4.053
detC 1.0000000000000075
detNg [    1.001983     1.053482     1.333898     2.431414     7.532445    45.257529   546.275406 20057.151041]
xg [0.998021 0.949233 0.749682 0.411283 0.132759 0.022096 0.001831 0.00005 ]
ciS 0.669292667173405
ciH -2591.256718664654
S2 = -0.000000
Hsp + Hph =  -3871.634705947395
F(mod,ortho) updated with CDIIS
level shift: 0.300 a.u.
Alpha occ 36 vir 116; Beta occ 36 vir 116
Alpha energies:  [-1.085785 -1.081072 -1.048933 -1.019907 -1.004933 -0.972299] <- HOMO
         LUMO->  [-0.087304 -0.057081  0.010055  0.033877  0.07907   0.109456]
Beta energies:   [-1.23318  -1.223529 -0.997305 -0.92705  -0.925058 -0.902403] <- HOMO
         LUMO->  [-0.094925 -0.059571 -0.058142 -0.01062   0.077289  0.121059]
time for xg, H, S2, Yg, Feff: 0.192
 E =  -3426.91928599, delta E = -4.28319e-05, MaxD(dm) = 0.00255327, RMSD(dm) = 7.02262e-05
**** Start Cycle 15 ****
time for NO, Ng: 0.822
time for Gg: 4.047
detC -1.0000000000000113
detNg [    1.001986     1.05357      1.334477     2.434167     7.546146    45.329566   545.985575 20011.616762]
xg [0.998018 0.949154 0.749357 0.410818 0.132518 0.022061 0.001832 0.00005 ]
ciS 0.6687779126774673
ciH -2589.263810334207
S2 = -0.000000
Hsp + Hph =  -3871.6347553525375
F(mod,ortho) updated with CDIIS
level shift: 0.300 a.u.
Alpha occ 36 vir 116; Beta occ 36 vir 116
Alpha energies:  [-1.086178 -1.08149  -1.049585 -1.020485 -1.005493 -0.972886] <- HOMO
         LUMO->  [-0.087261 -0.057124  0.010037  0.033803  0.079147  0.109444]
Beta energies:   [-1.233046 -1.223432 -0.997117 -0.926761 -0.924567 -0.901929] <- HOMO
         LUMO->  [-0.095038 -0.059836 -0.058153 -0.010906  0.077193  0.120981]
time for xg, H, S2, Yg, Feff: 0.186
 E =  -3426.91933539, delta E = -4.94051e-05, MaxD(dm) = 0.00220724, RMSD(dm) = 5.42199e-05
**** Start Cycle 16 ****
time for NO, Ng: 0.820
time for Gg: 4.045
detC 1.0000000000000095
detNg [    1.001988     1.053615     1.334767     2.435494     7.551902    45.337283   544.842339 19934.800728]
xg [0.998016 0.949114 0.749195 0.410594 0.132417 0.022057 0.001835 0.00005 ]
ciS 0.6685409173380144
ciH -2588.3462719767795
S2 = -0.000000
Hsp + Hph =  -3871.6347868175612
F(mod,ortho) updated with CDIIS
level shift: 0.300 a.u.
Alpha occ 36 vir 116; Beta occ 36 vir 116
Alpha energies:  [-1.086226 -1.081385 -1.049476 -1.020546 -1.005262 -0.97286 ] <- HOMO
         LUMO->  [-0.087262 -0.057138  0.009966  0.033715  0.079162  0.109452]
Beta energies:   [-1.232947 -1.223348 -0.996993 -0.926659 -0.924361 -0.90183 ] <- HOMO
         LUMO->  [-0.09507  -0.059782 -0.058171 -0.010906  0.077165  0.120967]
time for xg, H, S2, Yg, Feff: 0.187
 E =  -3426.91936686, delta E = -3.1465e-05, MaxD(dm) = 0.00132662, RMSD(dm) = 2.99382e-05
**** Start Cycle 17 ****
time for NO, Ng: 0.820
time for Gg: 4.046
detC -1.0000000000000053
detNg [    1.001988     1.053621     1.334803     2.435606     7.551493    45.309506   543.691565 19870.697464]
xg [0.998016 0.949108 0.749174 0.410575 0.132424 0.02207  0.001839 0.00005 ]
ciS 0.6685321318556944
ciH -2588.312268610151
S2 = -0.000000
Hsp + Hph =  -3871.634802990815
F(mod,ortho) updated with CDIIS
level shift: 0.300 a.u.
Alpha occ 36 vir 116; Beta occ 36 vir 116
Alpha energies:  [-1.086541 -1.081492 -1.049714 -1.020914 -1.005473 -0.973225] <- HOMO
         LUMO->  [-0.087232 -0.057153  0.010009  0.033733  0.079214  0.109483]
Beta energies:   [-1.232825 -1.223284 -0.996892 -0.926525 -0.924146 -0.901678] <- HOMO
         LUMO->  [-0.09512  -0.059847 -0.058174 -0.011015  0.077097  0.120923]
time for xg, H, S2, Yg, Feff: 0.185
 E =  -3426.91938303, delta E = -1.61733e-05, MaxD(dm) = 0.00216868, RMSD(dm) = 4.84877e-05
**** Start Cycle 18 ****
time for NO, Ng: 0.821
time for Gg: 4.046
detC -1.0000000000000024
detNg [    1.001988     1.053632     1.334873     2.435867     7.551638    45.279646   542.308076 19792.499153]
xg [0.998016 0.949098 0.749135 0.410531 0.132422 0.022085 0.001844 0.000051]
ciS 0.6684977934018383
ciH -2588.1793380706895
S2 = -0.000000
Hsp + Hph =  -3871.634826047837
F(mod,ortho) updated with CDIIS
level shift: 0.300 a.u.
Alpha occ 36 vir 116; Beta occ 36 vir 116
Alpha energies:  [-1.086804 -1.081326 -1.049485 -1.021045 -1.005148 -0.973267] <- HOMO
         LUMO->  [-0.087203 -0.057135  0.010059  0.033769  0.07926   0.109549]
Beta energies:   [-1.232558 -1.223087 -0.996831 -0.926502 -0.924054 -0.901769] <- HOMO
         LUMO->  [-0.09513  -0.059764 -0.05818  -0.011051  0.077063  0.120908]
time for xg, H, S2, Yg, Feff: 0.186
 E =  -3426.91940609, delta E = -2.3057e-05, MaxD(dm) = 0.00310917, RMSD(dm) = 6.86006e-05
**** Start Cycle 19 ****
time for NO, Ng: 0.821
time for Gg: 4.053
detC -0.9999999999999963
detNg [    1.001988     1.053621     1.334795     2.435367     7.546984    45.19806    539.835235 19663.273773]
xg [0.998016 0.949107 0.749178 0.410616 0.132503 0.022125 0.001852 0.000051]
ciS 0.6686181857314206
ciH -2588.6454717837655
S2 = -0.000000
Hsp + Hph =  -3871.634853832119
F(mod,ortho) updated with CDIIS
level shift: 0.300 a.u.
Alpha occ 36 vir 116; Beta occ 36 vir 116
Alpha energies:  [-1.086796 -1.081279 -1.049375 -1.020981 -1.00502  -0.973175] <- HOMO
         LUMO->  [-0.087209 -0.057126  0.010043  0.033756  0.07925   0.10955 ]
Beta energies:   [-1.232525 -1.223055 -0.996907 -0.926598 -0.92417  -0.901913] <- HOMO
         LUMO->  [-0.09512  -0.059756 -0.058186 -0.011076  0.077077  0.120916]
time for xg, H, S2, Yg, Feff: 0.192
 E =  -3426.91943387, delta E = -2.77843e-05, MaxD(dm) = 0.000932301, RMSD(dm) = 2.06259e-05
**** Start Cycle 20 ****
time for NO, Ng: 0.821
time for Gg: 4.065
detC -1.0000000000000027
detNg [    1.001987     1.05361      1.334716     2.434933     7.543885    45.157173   538.794162 19611.310254]
xg [0.998017 0.949118 0.749223 0.410689 0.132558 0.022145 0.001856 0.000051]
ciS 0.6687110543908812
ciH -2589.0050302446507
S2 = -0.000000
Hsp + Hph =  -3871.634861192681
F(mod,ortho) updated with CDIIS
level shift: 0.300 a.u.
Alpha occ 36 vir 116; Beta occ 36 vir 116
Alpha energies:  [-1.08722  -1.081167 -1.049156 -1.021196 -1.004851 -0.973371] <- HOMO
         LUMO->  [-0.087203 -0.05713   0.010126  0.033799  0.079273  0.109567]
Beta energies:   [-1.232462 -1.22311  -0.996835 -0.926558 -0.923804 -0.901976] <- HOMO
         LUMO->  [-0.09512  -0.059662 -0.058178 -0.011197  0.077053  0.120881]
time for xg, H, S2, Yg, Feff: 0.198
 E =  -3426.91944123, delta E = -7.36056e-06, MaxD(dm) =  0.0038568, RMSD(dm) = 8.4877e-05
**** Start Cycle 21 ****
time for NO, Ng: 0.821
time for Gg: 4.052
detC 1.0000000000000044
detNg [    1.001987     1.053606     1.334678     2.434599     7.539751    45.070422   535.976442 19462.43668 ]
xg [0.998017 0.949122 0.749244 0.410745 0.13263  0.022188 0.001866 0.000051]
ciS 0.6688043215248598
ciH -2589.3661417522817
S2 = -0.000000
Hsp + Hph =  -3871.6348839501834
F(mod,ortho) updated with CDIIS
level shift: 0.300 a.u.
Alpha occ 36 vir 116; Beta occ 36 vir 116
Alpha energies:  [-1.087315 -1.080999 -1.048842 -1.021113 -1.00454  -0.973218] <- HOMO
         LUMO->  [-0.087215 -0.05712   0.010152  0.033813  0.079257  0.109569]
Beta energies:   [-1.232352 -1.223066 -0.996907 -0.926672 -0.92379  -0.902204] <- HOMO
         LUMO->  [-0.095092 -0.059602 -0.058182 -0.011245  0.077081  0.120887]
time for xg, H, S2, Yg, Feff: 0.187
 E =  -3426.91946399, delta E = -2.27575e-05, MaxD(dm) = 0.00291924, RMSD(dm) = 6.42323e-05
**** Start Cycle 22 ****
time for NO, Ng: 0.821
time for Gg: 4.049
detC -1.0000000000000062
detNg [    1.001987     1.053588     1.334553     2.433866     7.53383     44.979854   533.450978 19333.915159]
xg [0.998017 0.949138 0.749314 0.410869 0.132735 0.022232 0.001875 0.000052]
ciS 0.668969949944116
ciH -2590.007401936012
S2 = -0.000000
Hsp + Hph =  -3871.634895038819
F(mod,ortho) updated with CDIIS
level shift: 0.300 a.u.
Alpha occ 36 vir 116; Beta occ 36 vir 116
Alpha energies:  [-1.087413 -1.080978 -1.048814 -1.021167 -1.004543 -0.973259] <- HOMO
         LUMO->  [-0.087228 -0.057133  0.010099  0.033736  0.079244  0.109551]
Beta energies:   [-1.232411 -1.223178 -0.996903 -0.926675 -0.923647 -0.902214] <- HOMO
         LUMO->  [-0.095091 -0.059599 -0.058184 -0.011277  0.077085  0.120877]
time for xg, H, S2, Yg, Feff: 0.185
 E =  -3426.91947508, delta E = -1.10886e-05, MaxD(dm) =  0.0017968, RMSD(dm) = 3.9343e-05
**** Start Cycle 23 ****
time for NO, Ng: 0.820
time for Gg: 4.052
detC -1.0000000000000009
detNg [    1.001986     1.053584     1.334518     2.433614     7.531233    44.931035   531.946692 19255.727759]
xg [0.998018 0.949142 0.749334 0.410911 0.13278  0.022256 0.00188  0.000052]
ciS 0.6690339090512367
ciH -2590.255030879067
S2 = -0.000000
Hsp + Hph =  -3871.6348989729568
F(mod,ortho) updated with CDIIS
level shift: 0.300 a.u.
Alpha occ 36 vir 116; Beta occ 36 vir 116
Alpha energies:  [-1.08739  -1.080881 -1.048655 -1.021079 -1.004395 -0.973146] <- HOMO
         LUMO->  [-0.087246 -0.05713   0.010011  0.033636  0.079217  0.109537]
Beta energies:   [-1.232418 -1.223217 -0.996963 -0.926774 -0.923668 -0.902379] <- HOMO
         LUMO->  [-0.095068 -0.059555 -0.058187 -0.011283  0.077113  0.120889]
time for xg, H, S2, Yg, Feff: 0.185
 E =  -3426.91947901, delta E = -3.93414e-06, MaxD(dm) = 0.000939457, RMSD(dm) = 2.09114e-05
**** Start Cycle 24 ****
time for NO, Ng: 0.824
time for Gg: 4.058
detC 1.0000000000000004
detNg [    1.001986     1.053573     1.334443     2.4332       7.528261    44.891608   530.950686 19206.494547]
xg [0.998018 0.949151 0.749376 0.410981 0.132833 0.022276 0.001883 0.000052]
ciS 0.669122840104879
ciH -2590.5993403431876
S2 = -0.000000
Hsp + Hph =  -3871.634900307894
F(mod,ortho) updated with CDIIS
level shift: 0.300 a.u.
Alpha occ 36 vir 116; Beta occ 36 vir 116
Alpha energies:  [-1.087377 -1.080882 -1.048624 -1.021018 -1.00439  -0.973079] <- HOMO
         LUMO->  [-0.08725  -0.057128  0.010037  0.033665  0.079208  0.109531]
Beta energies:   [-1.232422 -1.223236 -0.996984 -0.926797 -0.92366  -0.902401] <- HOMO
         LUMO->  [-0.095059 -0.059554 -0.058186 -0.01127   0.077126  0.120893]
time for xg, H, S2, Yg, Feff: 0.195
 E =  -3426.91948035, delta E = -1.33494e-06, MaxD(dm) = 0.00039544, RMSD(dm) = 8.8728e-06
**** Start Cycle 25 ****
time for NO, Ng: 0.821
time for Gg: 4.062
detC 1.0000000000000009
detNg [    1.001986     1.053568     1.334409     2.433015     7.526939    44.874114   530.510104 19184.747598]
xg [0.998018 0.949156 0.749395 0.411013 0.132856 0.022285 0.001885 0.000052]
ciS 0.6691624708072831
ciH -2590.7527762120008
S2 = -0.000000
Hsp + Hph =  -3871.634900693841
F(mod,ortho) updated with CDIIS
level shift: 0.300 a.u.
Alpha occ 36 vir 116; Beta occ 36 vir 116
Alpha energies:  [-1.087367 -1.080861 -1.048561 -1.02096  -1.004355 -0.97302 ] <- HOMO
         LUMO->  [-0.087259 -0.057126  0.010027  0.033654  0.079192  0.109521]
Beta energies:   [-1.232433 -1.223264 -0.99702  -0.926853 -0.923658 -0.902481] <- HOMO
         LUMO->  [-0.095046 -0.059535 -0.058188 -0.011274  0.077143  0.120899]
time for xg, H, S2, Yg, Feff: 0.193
 E =  -3426.91948073, delta E = -3.85947e-07, MaxD(dm) = 0.000238317, RMSD(dm) = 5.80695e-06
**** Start Cycle 26 ****
time for NO, Ng: 0.824
time for Gg: 4.063
detC 0.999999999999999
detNg [    1.001986     1.053563     1.334377     2.432845     7.525812    44.860939   530.210726 19170.420677]
xg [0.998018 0.94916  0.749413 0.411041 0.132876 0.022291 0.001886 0.000052]
ciS 0.6691979146157296
ciH -2590.8900018229124
S2 = -0.000000
Hsp + Hph =  -3871.6349008808065
F(mod,ortho) updated with CDIIS
level shift: 0.300 a.u.
Alpha occ 36 vir 116; Beta occ 36 vir 116
Alpha energies:  [-1.087372 -1.080858 -1.04855  -1.020945 -1.004363 -0.97301 ] <- HOMO
         LUMO->  [-0.087263 -0.057127  0.010028  0.033652  0.079186  0.109515]
Beta energies:   [-1.232441 -1.223284 -0.997019 -0.926858 -0.923613 -0.902492] <- HOMO
         LUMO->  [-0.095043 -0.059525 -0.058188 -0.011273  0.077147  0.1209  ]
time for xg, H, S2, Yg, Feff: 0.196
 E =  -3426.91948092, delta E = -1.86966e-07, MaxD(dm) = 0.000185301, RMSD(dm) = 4.2473e-06
**** Start Cycle 27 ****
time for NO, Ng: 0.821
time for Gg: 4.057
detC -1.0000000000000036
detNg [    1.001986     1.053562     1.334369     2.432797     7.525416    44.854777   530.038369 19161.681339]
xg [0.998018 0.949161 0.749418 0.41105  0.132883 0.022294 0.001887 0.000052]
ciS 0.6692088846312721
ciH -2590.9324737811557
S2 = -0.000000
Hsp + Hph =  -3871.634900975255
F(mod,ortho) updated with CDIIS
level shift: 0.300 a.u.
Alpha occ 36 vir 116; Beta occ 36 vir 116
Alpha energies:  [-1.087359 -1.080877 -1.048565 -1.02092  -1.004391 -0.972984] <- HOMO
         LUMO->  [-0.087266 -0.057127  0.010025  0.033647  0.079183  0.109512]
Beta energies:   [-1.232447 -1.223295 -0.997024 -0.926861 -0.923602 -0.902487] <- HOMO
         LUMO->  [-0.095041 -0.059533 -0.058189 -0.011262  0.077151  0.120901]
time for xg, H, S2, Yg, Feff: 0.188
 E =  -3426.91948101, delta E = -9.44483e-08, MaxD(dm) = 7.99425e-05, RMSD(dm) = 1.88263e-06
**** Start Cycle 28 ****
time for NO, Ng: 0.820
time for Gg: 4.054
detC -1.0000000000000104
detNg [    1.001986     1.053562     1.334367     2.432783     7.525281    44.852358   529.965742 19157.938045]
xg [0.998018 0.949161 0.749419 0.411052 0.132885 0.022295 0.001887 0.000052]
ciS 0.6692123352070536
ciH -2590.9458331772043
S2 = -0.000000
Hsp + Hph =  -3871.634901014741
F(mod,ortho) updated with CDIIS
level shift: 0.300 a.u.
Alpha occ 36 vir 116; Beta occ 36 vir 116
Alpha energies:  [-1.08736  -1.080882 -1.048571 -1.020909 -1.004403 -0.972978] <- HOMO
         LUMO->  [-0.087267 -0.057127  0.010027  0.033649  0.07918   0.109511]
Beta energies:   [-1.232447 -1.223298 -0.997028 -0.926869 -0.923589 -0.902501] <- HOMO
         LUMO->  [-0.09504  -0.059533 -0.058189 -0.011264  0.077153  0.120902]
time for xg, H, S2, Yg, Feff: 0.193
 E =  -3426.91948105, delta E = -3.94862e-08, MaxD(dm) = 5.27261e-05, RMSD(dm) = 1.27725e-06
**** Start Cycle 29 ****
time for NO, Ng: 0.822
time for Gg: 4.053
detC -1.0000000000000016
detNg [    1.001986     1.053561     1.334364     2.432768     7.52517     44.850825   529.925778 19155.948064]
xg [0.998018 0.949162 0.749421 0.411054 0.132887 0.022296 0.001887 0.000052]
ciS 0.6692155770178831
ciH -2590.9583843018154
S2 = -0.000000
Hsp + Hph =  -3871.6349010396366
F(mod,ortho) updated with CDIIS
level shift: 0.300 a.u.
Alpha occ 36 vir 116; Beta occ 36 vir 116
Alpha energies:  [-1.087348 -1.080885 -1.048578 -1.020889 -1.004407 -0.972957] <- HOMO
         LUMO->  [-0.087267 -0.057126  0.010028  0.03365   0.07918   0.109512]
Beta energies:   [-1.232446 -1.223293 -0.997027 -0.926868 -0.923585 -0.902501] <- HOMO
         LUMO->  [-0.095039 -0.059533 -0.05819  -0.011256  0.077154  0.120903]
time for xg, H, S2, Yg, Feff: 0.186
 E =  -3426.91948108, delta E = -2.48956e-08, MaxD(dm) = 4.16135e-05, RMSD(dm) = 1.00275e-06
**** Start Cycle 30 ****
time for NO, Ng: 0.820
time for Gg: 4.055
detC 0.9999999999999997
detNg [    1.001986     1.053561     1.334361     2.432754     7.525099    44.850367   529.923386 19155.955424]
xg [0.998018 0.949162 0.749422 0.411057 0.132889 0.022296 0.001887 0.000052]
ciS 0.6692182072552182
ciH -2590.9685676283584
S2 = -0.000000
Hsp + Hph =  -3871.63490105141
F(mod,ortho) updated with CDIIS
level shift: 0.300 a.u.
Alpha occ 36 vir 116; Beta occ 36 vir 116
Alpha energies:  [-1.087346 -1.080892 -1.048588 -1.020885 -1.004415 -0.972954] <- HOMO
[...]
time for xg, H, S2, Yg, Feff: 0.189
 E =  -3426.91948120, delta E = -5.4888e-10, MaxD(dm) = 1.9038e-05, RMSD(dm) = 3.77572e-07
**** Start Cycle 53 ****
time for NO, Ng: 0.822
time for Gg: 4.052
detC 0.9999999999999944
detNg [    1.001986     1.05356      1.334357     2.432722     7.524791    44.844811   529.756034 19147.32429 ]
xg [0.998018 0.949163 0.749425 0.411062 0.132894 0.022299 0.001888 0.000052]
ciS 0.669226024197503
ciH -2590.998832047516
S2 = -0.000000
Hsp + Hph =  -3871.634901159875
F(mod,ortho) updated with CDIIS
level shift: 0.300 a.u.
Alpha occ 36 vir 116; Beta occ 36 vir 116
Alpha energies:  [-1.087346 -1.080908 -1.048632 -1.02085  -1.004418 -0.972943] <- HOMO
         LUMO->  [-0.087266 -0.057126  0.010033  0.033653  0.079182  0.109515]
Beta energies:   [-1.232467 -1.223281 -0.99703  -0.92686  -0.92358  -0.902501] <- HOMO
         LUMO->  [-0.09504  -0.05954  -0.05819  -0.011254  0.077153  0.120908]
time for xg, H, S2, Yg, Feff: 0.184
 E =  -3426.91948120, delta E = -8.37645e-10, MaxD(dm) = 2.51736e-05, RMSD(dm) = 4.9456e-07
**** Start Cycle 54 ****
time for NO, Ng: 0.821
time for Gg: 4.056
detC 0.999999999999996
detNg [    1.001986     1.05356      1.334357     2.432722     7.524787    44.844734   529.753435 19147.187105]
xg [0.998018 0.949163 0.749425 0.411062 0.132894 0.022299 0.001888 0.000052]
ciS 0.6692260844789393
ciH -2590.999065435925
S2 = -0.000000
Hsp + Hph =  -3871.6349011609154
F(mod,ortho) updated with CDIIS
level shift: 0.300 a.u.
Alpha occ 36 vir 116; Beta occ 36 vir 116
Alpha energies:  [-1.087346 -1.080908 -1.048632 -1.02085  -1.004418 -0.972943] <- HOMO
         LUMO->  [-0.087266 -0.057126  0.010033  0.033652  0.079182  0.109515]
Beta energies:   [-1.232466 -1.223281 -0.99703  -0.92686  -0.92358  -0.902502] <- HOMO
         LUMO->  [-0.09504  -0.05954  -0.05819  -0.011254  0.077153  0.120908]
time for xg, H, S2, Yg, Feff: 0.188
 E =  -3426.91948120, delta E = -1.04046e-09, MaxD(dm) = 2.83728e-05, RMSD(dm) = 5.56378e-07
**** Start Cycle 55 ****
time for NO, Ng: 0.822
time for Gg: 4.047
detC 1.0000000000000147
detNg [    1.001986     1.05356      1.334357     2.432722     7.524782    44.844644   529.75072  19147.047067]
xg [0.998018 0.949163 0.749425 0.411062 0.132894 0.022299 0.001888 0.000052]
ciS 0.669226211099007
ciH -2590.999555663316
S2 = -0.000000
Hsp + Hph =  -3871.6349011619886
F(mod,ortho) updated with CDIIS
level shift: 0.300 a.u.
Alpha occ 36 vir 116; Beta occ 36 vir 116
Alpha energies:  [-1.087346 -1.080908 -1.048632 -1.02085  -1.004418 -0.972942] <- HOMO
         LUMO->  [-0.087266 -0.057127  0.010033  0.033652  0.079182  0.109515]
Beta energies:   [-1.232466 -1.223281 -0.99703  -0.926861 -0.923579 -0.902502] <- HOMO
         LUMO->  [-0.09504  -0.059541 -0.05819  -0.011254  0.077153  0.120908]
time for xg, H, S2, Yg, Feff: 0.185
 E =  -3426.91948120, delta E = -1.0732e-09, MaxD(dm) = 9.08461e-06, RMSD(dm) = 1.67191e-07
**** Start Cycle 56 ****
time for NO, Ng: 0.821
time for Gg: 4.052
detC -0.9999999999999984
detNg [    1.001986     1.05356      1.334357     2.432721     7.524779    44.844602   529.749652 19146.994452]
xg [0.998018 0.949163 0.749425 0.411062 0.132894 0.022299 0.001888 0.000052]
ciS 0.6692263080362877
ciH -2590.999930969303
S2 = -0.000000
Hsp + Hph =  -3871.6349011623292
F(mod,ortho) updated with CDIIS
level shift: 0.300 a.u.
Alpha occ 36 vir 116; Beta occ 36 vir 116
Alpha energies:  [-1.087347 -1.080908 -1.048632 -1.02085  -1.004418 -0.972942] <- HOMO
         LUMO->  [-0.087266 -0.057126  0.010033  0.033653  0.079182  0.109515]
Beta energies:   [-1.232466 -1.223281 -0.99703  -0.926861 -0.923579 -0.902503] <- HOMO
         LUMO->  [-0.09504  -0.059541 -0.05819  -0.011255  0.077153  0.120908]
time for xg, H, S2, Yg, Feff: 0.184
 E =  -3426.91948120, delta E = -3.40606e-10, MaxD(dm) = 3.55645e-05, RMSD(dm) = 7.00659e-07
**** Start Cycle 57 ****
time for NO, Ng: 0.821
time for Gg: 4.052
detC 1.0000000000000078
detNg [    1.001986     1.05356      1.334356     2.432721     7.524773    44.844492   529.746363 19146.824873]
xg [0.998018 0.949163 0.749425 0.411062 0.132894 0.022299 0.001888 0.000052]
ciS 0.6692264616881607
ciH -2591.000525854034
S2 = -0.000000
Hsp + Hph =  -3871.63490116349
F(mod,ortho) updated with CDIIS
level shift: 0.300 a.u.
Alpha occ 36 vir 116; Beta occ 36 vir 116
Alpha energies:  [-1.087346 -1.080908 -1.048632 -1.020849 -1.004418 -0.972942] <- HOMO
         LUMO->  [-0.087266 -0.057127  0.010033  0.033652  0.079182  0.109515]
Beta energies:   [-1.232466 -1.223281 -0.99703  -0.926861 -0.923579 -0.902503] <- HOMO
         LUMO->  [-0.09504  -0.059541 -0.05819  -0.011254  0.077153  0.120908]
time for xg, H, S2, Yg, Feff: 0.183
 E =  -3426.91948120, delta E = -1.16097e-09, MaxD(dm) = 2.44157e-05, RMSD(dm) = 4.66455e-07
**** Start Cycle 58 ****
time for NO, Ng: 0.820
time for Gg: 4.054
detC -1.0000000000000018
detNg [    1.001986     1.05356      1.334356     2.43272      7.524768    44.844414   529.74419  19146.714798]
xg [0.998018 0.949163 0.749425 0.411063 0.132894 0.022299 0.001888 0.000052]
ciS 0.6692266016712947
ciH -2591.0010678181193
S2 = -0.000000
Hsp + Hph =  -3871.6349011642346
F(mod,ortho) updated with CDIIS
level shift: 0.300 a.u.
Alpha occ 36 vir 116; Beta occ 36 vir 116
Alpha energies:  [-1.087346 -1.080908 -1.048633 -1.020848 -1.004418 -0.972941] <- HOMO
         LUMO->  [-0.087266 -0.057127  0.010033  0.033652  0.079182  0.109515]
Beta energies:   [-1.232466 -1.223281 -0.99703  -0.926861 -0.923578 -0.902503] <- HOMO
         LUMO->  [-0.09504  -0.059541 -0.05819  -0.011254  0.077153  0.120908]
time for xg, H, S2, Yg, Feff: 0.183
 E =  -3426.91948120, delta E = -7.44421e-10, MaxD(dm) = 2.58167e-05, RMSD(dm) = 4.97107e-07
**** Start Cycle 59 ****
time for NO, Ng: 0.821
time for Gg: 4.053
detC 1.0000000000000075
detNg [    1.001986     1.05356      1.334356     2.432719     7.524763    44.844335   529.741939 19146.600244]
xg [0.998018 0.949163 0.749425 0.411063 0.132895 0.022299 0.001888 0.000052]
ciS 0.6692267362436046
ciH -2591.001588833453
S2 = -0.000000
Hsp + Hph =  -3871.6349011649536
F(mod,ortho) updated with CDIIS
level shift: 0.300 a.u.
Alpha occ 36 vir 116; Beta occ 36 vir 116
Alpha energies:  [-1.087346 -1.080909 -1.048634 -1.020848 -1.004419 -0.97294 ] <- HOMO
         LUMO->  [-0.087266 -0.057127  0.010033  0.033652  0.079182  0.109515]
Beta energies:   [-1.232466 -1.223281 -0.99703  -0.926861 -0.923578 -0.902504] <- HOMO
         LUMO->  [-0.09504  -0.059541 -0.05819  -0.011254  0.077153  0.120908]
time for xg, H, S2, Yg, Feff: 0.183
 E =  -3426.91948120, delta E = -7.18956e-10, MaxD(dm) = 1.38884e-05, RMSD(dm) = 2.60767e-07
**** Start Cycle 60 ****
time for NO, Ng: 0.820
time for Gg: 4.055
detC -1.0000000000000047
detNg [    1.001986     1.05356      1.334356     2.432719     7.52476     44.844305   529.741332 19146.572586]
xg [0.998018 0.949163 0.749425 0.411063 0.132895 0.022299 0.001888 0.000052]
ciS 0.6692268347279063
ciH -2591.001970128958
S2 = -0.000000
Hsp + Hph =  -3871.63490116532
F(mod,ortho) updated with CDIIS
level shift: 0.300 a.u.
Alpha occ 36 vir 116; Beta occ 36 vir 116
Alpha energies:  [-1.087346 -1.080909 -1.048634 -1.020847 -1.004419 -0.972939] <- HOMO
         LUMO->  [-0.087266 -0.057127  0.010033  0.033652  0.079182  0.109515]
Beta energies:   [-1.232466 -1.223281 -0.99703  -0.926861 -0.923578 -0.902504] <- HOMO
         LUMO->  [-0.09504  -0.059541 -0.05819  -0.011254  0.077153  0.120908]
time for xg, H, S2, Yg, Feff: 0.187
 E =  -3426.91948120, delta E = -3.66526e-10, MaxD(dm) = 3.21732e-05, RMSD(dm) = 6.26449e-07
**** Start Cycle 61 ****
time for NO, Ng: 0.821
time for Gg: 4.058
detC 0.9999999999999971
detNg [    1.001986     1.05356      1.334356     2.432718     7.524756    44.844244   529.739592 19146.483848]
xg [0.998018 0.949163 0.749425 0.411063 0.132895 0.022299 0.001888 0.000052]
ciS 0.6692269346287569
ciH -2591.0023569090636
S2 = -0.000000
Hsp + Hph =  -3871.6349011660463
F(mod,ortho) updated with CDIIS
level shift: 0.300 a.u.
Alpha occ 36 vir 116; Beta occ 36 vir 116
Alpha energies:  [-1.087346 -1.080909 -1.048634 -1.020847 -1.004419 -0.972939] <- HOMO
         LUMO->  [-0.087266 -0.057127  0.010033  0.033652  0.079182  0.109515]
Beta energies:   [-1.232466 -1.223281 -0.99703  -0.926861 -0.923578 -0.902504] <- HOMO
         LUMO->  [-0.09504  -0.059541 -0.05819  -0.011254  0.077153  0.120908]
time for xg, H, S2, Yg, Feff: 0.186
 E =  -3426.91948120, delta E = -7.26232e-10, MaxD(dm) = 6.54834e-06, RMSD(dm) = 1.20275e-07
**** Start Cycle 62 ****
time for NO, Ng: 0.821
time for Gg: 4.054
detC 1.000000000000007
detNg [    1.001986     1.05356      1.334356     2.432718     7.524756    44.844244   529.739816 19146.497791]
xg [0.998018 0.949163 0.749425 0.411063 0.132895 0.022299 0.001888 0.000052]
ciS 0.6692269708735109
ciH -2591.002497235634
S2 = -0.000000
Hsp + Hph =  -3871.6349011662196
F(mod,ortho) updated with CDIIS
level shift: 0.300 a.u.
Alpha occ 36 vir 116; Beta occ 36 vir 116
Alpha energies:  [-1.087346 -1.080909 -1.048635 -1.020847 -1.004419 -0.97294 ] <- HOMO
         LUMO->  [-0.087266 -0.057126  0.010033  0.033652  0.079182  0.109515]
Beta energies:   [-1.232466 -1.223281 -0.99703  -0.926862 -0.923578 -0.902504] <- HOMO
         LUMO->  [-0.09504  -0.059541 -0.05819  -0.011254  0.077153  0.120908]
time for xg, H, S2, Yg, Feff: 0.185
 E =  -3426.91948120, delta E = -1.73259e-10, MaxD(dm) = 3.50934e-05, RMSD(dm) = 6.86388e-07
**** Start Cycle 63 ****
time for NO, Ng: 0.821
time for Gg: 4.054
detC 0.9999999999999996
detNg [    1.001986     1.05356      1.334356     2.432718     7.524756    44.844254   529.740028 19146.507841]
xg [0.998018 0.949163 0.749425 0.411063 0.132895 0.022299 0.001888 0.000052]
ciS 0.6692269435078119
ciH -2591.0023912860934
S2 = -0.000000
Hsp + Hph =  -3871.6349011668995
F(mod,ortho) updated with CDIIS
level shift: 0.300 a.u.
Alpha occ 36 vir 116; Beta occ 36 vir 116
Alpha energies:  [-1.087346 -1.080909 -1.048635 -1.020847 -1.004419 -0.97294 ] <- HOMO
         LUMO->  [-0.087266 -0.057126  0.010033  0.033652  0.079182  0.109515]
Beta energies:   [-1.232466 -1.223281 -0.99703  -0.926861 -0.923578 -0.902503] <- HOMO
         LUMO->  [-0.09504  -0.059541 -0.05819  -0.011254  0.077153  0.120908]
time for xg, H, S2, Yg, Feff: 0.193
 E =  -3426.91948120, delta E = -6.79847e-10, MaxD(dm) = 3.9913e-05, RMSD(dm) = 7.73158e-07
**** Start Cycle 64 ****
time for NO, Ng: 0.822
time for Gg: 4.051
detC 1.000000000000003
detNg [    1.001986     1.05356      1.334356     2.432719     7.524759    44.844287   529.740949 19146.554413]
xg [0.998018 0.949163 0.749425 0.411063 0.132895 0.022299 0.001888 0.000052]
ciS 0.6692268828882314
ciH -2591.002156589633
S2 = -0.000000
Hsp + Hph =  -3871.634901167532
F(mod,ortho) updated with CDIIS
level shift: 0.300 a.u.
Alpha occ 36 vir 116; Beta occ 36 vir 116
Alpha energies:  [-1.087345 -1.080909 -1.048635 -1.020847 -1.004419 -0.97294 ] <- HOMO
         LUMO->  [-0.087266 -0.057126  0.010033  0.033653  0.079182  0.109515]
Beta energies:   [-1.232466 -1.223281 -0.99703  -0.926861 -0.923578 -0.902503] <- HOMO
         LUMO->  [-0.09504  -0.059541 -0.05819  -0.011254  0.077153  0.120908]
time for xg, H, S2, Yg, Feff: 0.188
 E =  -3426.91948121, delta E = -6.32554e-10, MaxD(dm) = 7.57392e-06, RMSD(dm) = 1.79477e-07
**** Start Cycle 65 ****
time for NO, Ng: 0.821
time for Gg: 4.051
detC -1.0000000000000204
detNg [    1.001986     1.05356      1.334356     2.432719     7.524762    44.844347   529.742741 19146.646765]
xg [0.998018 0.949163 0.749425 0.411063 0.132895 0.022299 0.001888 0.000052]
ciS 0.6692267985337932
ciH -2591.001830000029
S2 = -0.000000
Hsp + Hph =  -3871.6349011675056
F(mod,ortho) updated with CDIIS
level shift: 0.300 a.u.
Alpha occ 36 vir 116; Beta occ 36 vir 116
Alpha energies:  [-1.087345 -1.080909 -1.048634 -1.020847 -1.004419 -0.972941] <- HOMO
         LUMO->  [-0.087266 -0.057126  0.010033  0.033652  0.079182  0.109515]
Beta energies:   [-1.232467 -1.223281 -0.99703  -0.926861 -0.923579 -0.902503] <- HOMO
         LUMO->  [-0.09504  -0.059541 -0.05819  -0.011254  0.077153  0.120908]
time for xg, H, S2, Yg, Feff: 0.183
 E =  -3426.91948121, delta E = 2.63753e-11, MaxD(dm) = 2.89081e-05, RMSD(dm) = 5.72163e-07
**** Start Cycle 66 ****
time for NO, Ng: 0.820
time for Gg: 4.050
detC 1.0000000000000058
detNg [    1.001986     1.05356      1.334356     2.43272      7.524765    44.84439    529.74377  19146.696796]
xg [0.998018 0.949163 0.749425 0.411063 0.132895 0.022299 0.001888 0.000052]
ciS 0.6692266913246084
ciH -2591.0014149254503
S2 = -0.000000
Hsp + Hph =  -3871.6349011678694
F(mod,ortho) updated with CDIIS
level shift: 0.300 a.u.
Alpha occ 36 vir 116; Beta occ 36 vir 116
Alpha energies:  [-1.087345 -1.080909 -1.048635 -1.020847 -1.004419 -0.972941] <- HOMO
         LUMO->  [-0.087266 -0.057126  0.010033  0.033653  0.079182  0.109515]
Beta energies:   [-1.232467 -1.223281 -0.997031 -0.926861 -0.923579 -0.902502] <- HOMO
         LUMO->  [-0.09504  -0.059541 -0.05819  -0.011254  0.077153  0.120908]
time for xg, H, S2, Yg, Feff: 0.184
 E =  -3426.91948121, delta E = -3.63798e-10, MaxD(dm) = 1.95585e-05, RMSD(dm) = 3.77733e-07
**** Start Cycle 67 ****
time for NO, Ng: 0.820
time for Gg: 4.052
detC 1.000000000000002
detNg [    1.001986     1.05356      1.334356     2.43272      7.52477     44.844456   529.745654 19146.792551]
xg [0.998018 0.949163 0.749425 0.411063 0.132894 0.022299 0.001888 0.000052]
ciS 0.6692265773634668
ciH -2591.000973709665
S2 = -0.000000
Hsp + Hph =  -3871.6349011680895
F(mod,ortho) updated with CDIIS
level shift: 0.300 a.u.
Alpha occ 36 vir 116; Beta occ 36 vir 116
Alpha energies:  [-1.087345 -1.080909 -1.048635 -1.020847 -1.004419 -0.972941] <- HOMO
         LUMO->  [-0.087266 -0.057126  0.010033  0.033653  0.079182  0.109515]
Beta energies:   [-1.232467 -1.223281 -0.997031 -0.926861 -0.923579 -0.902502] <- HOMO
         LUMO->  [-0.09504  -0.059541 -0.05819  -0.011254  0.077153  0.120908]
time for xg, H, S2, Yg, Feff: 0.186
 E =  -3426.91948121, delta E = -2.20098e-10, MaxD(dm) = 1.35056e-05, RMSD(dm) = 2.59107e-07
**** Start Cycle 68 ****
time for NO, Ng: 0.821
time for Gg: 4.053
detC -1.000000000000004
detNg [    1.001986     1.05356      1.334356     2.43272      7.524773    44.8445     529.746779 19146.84865 ]
xg [0.998018 0.949163 0.749425 0.411062 0.132894 0.022299 0.001888 0.000052]
ciS 0.6692264872688145
ciH -2591.0006248961463
S2 = -0.000000
Hsp + Hph =  -3871.634901168212
F(mod,ortho) updated with CDIIS
level shift: 0.300 a.u.
Alpha occ 36 vir 116; Beta occ 36 vir 116
Alpha energies:  [-1.087345 -1.080909 -1.048635 -1.020848 -1.004419 -0.972942] <- HOMO
         LUMO->  [-0.087266 -0.057127  0.010033  0.033653  0.079182  0.109515]
Beta energies:   [-1.232467 -1.223281 -0.997031 -0.92686  -0.92358  -0.902501] <- HOMO
         LUMO->  [-0.09504  -0.059541 -0.05819  -0.011254  0.077153  0.120908]
time for xg, H, S2, Yg, Feff: 0.186
 E =  -3426.91948121, delta E = -1.22327e-10, MaxD(dm) = 5.42434e-06, RMSD(dm) = 1.07339e-07
**** Start Cycle 69 ****
time for NO, Ng: 0.821
time for Gg: 4.050
detC -1.000000000000008
detNg [    1.001986     1.05356      1.334357     2.432721     7.524776    44.844549   529.74811  19146.915511]
xg [0.998018 0.949163 0.749425 0.411062 0.132894 0.022299 0.001888 0.000052]
ciS 0.6692263907779288
ciH -2591.0002513186946
S2 = -0.000000
Hsp + Hph =  -3871.634901168256
F(mod,ortho) updated with CDIIS
level shift: 0.300 a.u.
Alpha occ 36 vir 116; Beta occ 36 vir 116
Alpha energies:  [-1.087345 -1.080909 -1.048635 -1.020848 -1.004419 -0.972942] <- HOMO
         LUMO->  [-0.087266 -0.057127  0.010033  0.033653  0.079182  0.109515]
Beta energies:   [-1.232467 -1.223281 -0.997031 -0.92686  -0.92358  -0.902501] <- HOMO
         LUMO->  [-0.09504  -0.059541 -0.05819  -0.011254  0.077153  0.120908]
time for xg, H, S2, Yg, Feff: 0.183
 E =  -3426.91948121, delta E = -4.41105e-11, MaxD(dm) = 8.85603e-06, RMSD(dm) = 1.71196e-07
**** Start Cycle 70 ****
time for NO, Ng: 0.821
time for Gg: 4.051
detC -1.0000000000000069
detNg [    1.001986     1.05356      1.334357     2.432721     7.524778    44.84457    529.748659 19146.942752]
xg [0.998018 0.949163 0.749425 0.411062 0.132894 0.022299 0.001888 0.000052]
ciS 0.6692263447077276
ciH -2591.0000729517355
S2 = -0.000000
Hsp + Hph =  -3871.634901168314
F(mod,ortho) updated with CDIIS
level shift: 0.300 a.u.
Alpha occ 36 vir 116; Beta occ 36 vir 116
Alpha energies:  [-1.087345 -1.080909 -1.048635 -1.020848 -1.004419 -0.972942] <- HOMO
         LUMO->  [-0.087266 -0.057127  0.010033  0.033653  0.079182  0.109515]
Beta energies:   [-1.232467 -1.223281 -0.997031 -0.92686  -0.92358  -0.902501] <- HOMO
         LUMO->  [-0.09504  -0.059541 -0.05819  -0.011254  0.077153  0.120908]
time for xg, H, S2, Yg, Feff: 0.185

***************
SUHF converged at cycle 70
Final E(SUHF) =  -3426.91948121, delta E = -5.82077e-11, MaxD(dm) = 1.14916e-06, RMSD(dm) = 2.20661e-08
**** Extra Cycle 71 ****
detC -0.9999999999999936
detNg [    1.001986     1.05356      1.334357     2.432721     7.524779    44.844585   529.749067 19146.963303]
xg [0.998018 0.949163 0.749425 0.411062 0.132894 0.022299 0.001888 0.000052]
ciS 0.669226316536975
ciH -2590.999963884874
S2 = -0.000000
Hsp + Hph =  -3871.6349011683265
Alpha occ 36 vir 116; Beta occ 36 vir 116
Alpha energies:  [-1.087345 -1.080909 -1.048635 -1.020848 -1.004419 -0.972942] <- HOMO
         LUMO->  [-0.387266 -0.357127 -0.289967 -0.266347 -0.220818 -0.190485]
Beta energies:   [-1.232467 -1.223281 -0.997031 -0.92686  -0.92358  -0.902501] <- HOMO
         LUMO->  [-0.39504  -0.359541 -0.35819  -0.311254 -0.222847 -0.179092]
Extra E(SUHF) =  -3426.91948121, delta E = -1.22782e-11, MaxD(dm) = 7.53459e-07, RMSD(dm) = 1.48175e-08
time for cyc: 359.540
******* suhf density *****
time for Ngg: 0.008
time for Pgg: 0.038
time for xgg: 0.001
Clebsch-Gordan coeff: < 0 0 0 0 | 0 0 > = 1
Clebsch-Gordan coeff: < 0 0 1 0 | 0 0 > = 0
xggint 1.0
time for dm: 0.077
SUHF NO occ alpha:  1.000000  1.000000  1.000000  1.000000  1.000000  1.000000  1.000000  1.000000  1.000000  1.000000  0.999999  0.999999  0.999998  0.999998  0.999995  0.999995  0.999981  0.999974  0.999943  0.999932  0.999907  0.999901  0.999893  0.999891  0.999876  0.999875  0.999834  0.999833  0.998899  0.998479  0.998466  0.998102  0.998059  0.997055  0.674698  0.500000  0.500000  0.325302  0.002945  0.001941  0.001898  0.001534  0.001521  0.001101  0.000167  0.000166  0.000125  0.000124  0.000109  0.000107  0.000099  0.000093  0.000068  0.000057  0.000026  0.000019  0.000005  0.000005  0.000002  0.000002  ...
SUHF NO occ beta:   1.000000  1.000000  1.000000  1.000000  1.000000  1.000000  1.000000  1.000000  1.000000  1.000000  0.999999  0.999999  0.999998  0.999998  0.999995  0.999995  0.999981  0.999974  0.999943  0.999932  0.999907  0.999901  0.999893  0.999891  0.999876  0.999875  0.999834  0.999833  0.998899  0.998479  0.998466  0.998102  0.998059  0.997055  0.674698  0.500000  0.500000  0.325302  0.002945  0.001941  0.001898  0.001534  0.001521  0.001101  0.000167  0.000166  0.000125  0.000124  0.000109  0.000107  0.000099  0.000093  0.000068  0.000057  0.000026  0.000019  0.000005  0.000005  0.000002  0.000002  ...
SUHF NO occ total:  2.000000  2.000000  2.000000  2.000000  2.000000  2.000000  2.000000  2.000000  2.000000  2.000000  1.999998  1.999998  1.999997  1.999996  1.999990  1.999989  1.999961  1.999948  1.999887  1.999864  1.999814  1.999801  1.999786  1.999781  1.999752  1.999751  1.999668  1.999666  1.997797  1.996959  1.996932  1.996204  1.996118  1.994110  1.349396  1.000000  1.000000  0.650604  0.005890  0.003882  0.003796  0.003068  0.003041  0.002203  0.000334  0.000332  0.000249  0.000248  0.000219  0.000214  0.000199  0.000186  0.000136  0.000113  0.000052  0.000039  0.000011  0.000010  0.000004  0.000003  0.000002  0.000002  ...
core 34, active 4, external 114
time for natorb: 0.007
time tot: 359.737
