#INFO: **** input file is /share/home/srwang/ExSCF/examples/10-Cu2O2-stability.py ****
from pyscf import lib
from pyphf import suscf, guess

lib.num_threads(8)

# structure from dx.doi.org/10.1021/ct300689e | J. Chem. Theory Comput. 2012, 8, 4944−4949
xyz = '''
 Cu                 1.4    0.0     0.0
 Cu                -1.4    0.0     0.0
 O                  0.0    1.15    0.0
 O                  0.0   -1.15    0.0
'''
mf = guess.mix(xyz, 'def2-tzvp', charge=2, conv='tight')
# stability check of UHF will be performed

mf2 = suscf.SUHF(mf)
mf2.level_shift = 0.2
mf2.max_cycle = 100
#mf2.conv_tol = 1e-6
mf2.kernel()

# E = -3426.9194811

#INFO: ******************** input file end ********************


System: uname_result(system='Linux', node='xc02n12', release='3.10.0-1127.el7.x86_64', version='#1 SMP Tue Feb 18 16:39:12 EST 2020', machine='x86_64', processor='x86_64')  Threads 8
Python 3.7.4 (default, Aug 13 2019, 20:35:49) 
[GCC 7.3.0]
numpy 1.17.2  scipy 1.4.1
Date: Sun Jul  4 21:32:29 2021
PySCF version 1.7.6a1
PySCF path  /share/home/srwang/pyscf/pyscf
GIT HEAD      ref: refs/heads/master
GIT master branch  80f71dfe77ac5f9caae26788acf76446987635bd

[CONFIG] conf_file /share/home/srwang/.pyscf_conf.py
[INPUT] verbose = 4
[INPUT] num. atoms = 4
[INPUT] num. electrons = 72
[INPUT] charge = 2
[INPUT] spin (= nelec alpha-beta = 2S) = 0
[INPUT] symmetry False subgroup None
[INPUT] Mole.unit = angstrom
[INPUT]  1 Cu     1.400000000000   0.000000000000   0.000000000000 AA    2.645616574391   0.000000000000   0.000000000000 Bohr
[INPUT]  2 Cu    -1.400000000000   0.000000000000   0.000000000000 AA   -2.645616574391   0.000000000000   0.000000000000 Bohr
[INPUT]  3 O      0.000000000000   1.150000000000   0.000000000000 AA    0.000000000000   2.173185043250   0.000000000000 Bohr
[INPUT]  4 O      0.000000000000  -1.150000000000   0.000000000000 AA    0.000000000000  -2.173185043250   0.000000000000 Bohr

nuclear repulsion = 444.71541996192
number of shells = 52
number of NR pGTOs = 276
number of NR cGTOs = 152
basis = def2-tzvp
ecp = {}
CPU time:         1.66


******** <class 'pyscf.scf.hf.RHF'> ********
method = RHF
initial guess = minao
damping factor = 0
level_shift factor = 0
DIIS = <class 'pyscf.scf.diis.CDIIS'>
diis_start_cycle = 1
diis_space = 8
SCF conv_tol = 1e-05
SCF conv_tol_grad = None
SCF max_cycles = 50
direct_scf = True
direct_scf_tol = 1e-13
chkfile to save SCF result = /share/home/srwang/ExSCF/examples/tmpole1unn6
max_memory 4000 MB (current use 105 MB)
Set gradient conv threshold to 0.00316228
init E= -3426.65751445459
  HOMO = -0.321937791461462  LUMO = -0.25676951893448
cycle= 1 E= -3425.40259372256  delta_E= 1.25  |g|= 3.57  |ddm|= 2.13
  HOMO = -0.848664689654627  LUMO = -0.722554210128428
cycle= 2 E= -3424.05952509318  delta_E= 1.34  |g|= 5.51  |ddm|= 2.65
  HOMO = -0.998135496428842  LUMO = -0.620723478883083
cycle= 3 E= -3426.53867611467  delta_E= -2.48  |g|= 0.486  |ddm|=  1.7
  HOMO = -0.934926736461438  LUMO = -0.538781776573286
cycle= 4 E= -3426.56201987874  delta_E= -0.0233  |g|= 0.105  |ddm|= 0.184
  HOMO = -0.95094223497881  LUMO = -0.547482833293707
cycle= 5 E= -3426.56367605768  delta_E= -0.00166  |g|= 0.0392  |ddm|= 0.0512
  HOMO = -0.946796714264588  LUMO = -0.544526986973373
cycle= 6 E= -3426.56410887327  delta_E= -0.000433  |g|= 0.0201  |ddm|= 0.0314
  HOMO = -0.945899271471956  LUMO = -0.544278069925533
cycle= 7 E= -3426.56423966751  delta_E= -0.000131  |g|= 0.00923  |ddm|= 0.0206
  HOMO = -0.945190968159207  LUMO = -0.544082937810254
cycle= 8 E= -3426.5642642825  delta_E= -2.46e-05  |g|= 0.0029  |ddm|= 0.0103
  HOMO = -0.945031812927769  LUMO = -0.544044473219424
cycle= 9 E= -3426.56426611732  delta_E= -1.83e-06  |g|= 0.000352  |ddm|= 0.00269
  HOMO = -0.945042156972109  LUMO = -0.544051768376135
Extra cycle  E= -3426.56426615969  delta_E= -4.24e-08  |g|= 0.000276  |ddm|= 0.000291
converged SCF energy = -3426.56426615969
**** generating mix guess ****
rotating angle: 0.25 pi


******** <class 'pyscf.scf.uhf.UHF'> ********
method = UHF
initial guess = minao
damping factor = 0
level_shift factor = 0
DIIS = <class 'pyscf.scf.diis.CDIIS'>
diis_start_cycle = 1
diis_space = 8
SCF conv_tol = 1e-09
SCF conv_tol_grad = None
SCF max_cycles = 100
direct_scf = True
direct_scf_tol = 1e-13
chkfile to save SCF result = /share/home/srwang/ExSCF/examples/tmpcdgx8yq0
max_memory 4000 MB (current use 678 MB)
number electrons alpha = 36  beta = 36
Set gradient conv threshold to 3.16228e-05
init E= -3773.08809666459
  alpha nocc = 36  HOMO = 20.688381933372  LUMO = 20.7697679092123
  beta  nocc = 36  HOMO = 20.688381933372  LUMO = 20.7697679092123
cycle= 1 E= -1937.50805557156  delta_E= 1.84e+03  |g|= 19.3  |ddm|=  693
  alpha nocc = 36  HOMO = -14.6220109660194  LUMO = -14.6178502498527
  beta  nocc = 36  HOMO = -14.6220109660194  LUMO = -14.6178502498527
cycle= 2 E= -3260.9087934431  delta_E= -1.32e+03  |g|= 15.2  |ddm|=  692
  alpha nocc = 36  HOMO = -4.58521050604292  LUMO = -4.41919768001258
  beta  nocc = 36  HOMO = -4.58521050604292  LUMO = -4.41919768001258
cycle= 3 E= -3388.66392814375  delta_E= -128  |g|= 13.5  |ddm|= 18.7
  alpha nocc = 36  HOMO = -2.80906390741937  LUMO = -2.69550168812048
  beta  nocc = 36  HOMO = -2.80906390741937  LUMO = -2.69550168812049
cycle= 4 E= -3399.59791934312  delta_E= -10.9  |g|=   12  |ddm|= 2.78
  alpha nocc = 36  HOMO = -2.85036236591715  LUMO = -2.55570452865566
  beta  nocc = 36  HOMO = -2.85036236591715  LUMO = -2.55570452865568
cycle= 5 E= -3402.50460058975  delta_E= -2.91  |g|= 11.5  |ddm|= 0.51
  alpha nocc = 36  HOMO = -2.42433359895043  LUMO = -1.97005667080189
  beta  nocc = 36  HOMO = -2.42433359895042  LUMO = -1.97005667080192
cycle= 6 E= -3410.37235816464  delta_E= -7.87  |g|= 9.84  |ddm|= 1.19
  alpha nocc = 36  HOMO = -2.03210872539544  LUMO = -1.4087193161684
  beta  nocc = 36  HOMO = -2.03210872539543  LUMO = -1.40871931616844
cycle= 7 E= -3415.15798316779  delta_E= -4.79  |g|= 8.51  |ddm|= 1.11
  alpha nocc = 36  HOMO = -1.92533494916967  LUMO = -1.24880232929518
  beta  nocc = 36  HOMO = -1.92533494916966  LUMO = -1.24880232929521
cycle= 8 E= -3417.60071622277  delta_E= -2.44  |g|= 7.61  |ddm|= 0.515
  alpha nocc = 36  HOMO = -1.45146810346796  LUMO = -0.776568228785011
  beta  nocc = 36  HOMO = -1.45146810346794  LUMO = -0.776568228784927
cycle= 9 E= -3419.49389405561  delta_E= -1.89  |g|=  6.9  |ddm|= 0.881
  alpha nocc = 36  HOMO = -0.940350151209296  LUMO = -0.315631349027013
  beta  nocc = 36  HOMO = -0.940350151209273  LUMO = -0.315631349026997
cycle= 10 E= -3426.39272746755  delta_E= -6.9  |g|= 0.695  |ddm|= 1.76
  alpha nocc = 36  HOMO = -0.879812030011506  LUMO = -0.50028574160306
  beta  nocc = 36  HOMO = -0.879812030011508  LUMO = -0.500285741603062
cycle= 11 E= -3426.59584940516  delta_E= -0.203  |g|= 0.516  |ddm|= 0.53
  alpha nocc = 36  HOMO = -0.969190324507457  LUMO = -0.464706463020476
  beta  nocc = 36  HOMO = -0.969190324507461  LUMO = -0.464706463020481
cycle= 12 E= -3426.64592109502  delta_E= -0.0501  |g|= 0.0759  |ddm|= 0.183
  alpha nocc = 36  HOMO = -0.968896941010725  LUMO = -0.469936191926143
  beta  nocc = 36  HOMO = -0.968896941010732  LUMO = -0.469936191926148
cycle= 13 E= -3426.65701305518  delta_E= -0.0111  |g|= 0.0578  |ddm|= 0.132
  alpha nocc = 36  HOMO = -0.967299642278577  LUMO = -0.46613187311547
  beta  nocc = 36  HOMO = -0.967299642278587  LUMO = -0.466131873115469
cycle= 14 E= -3426.66420188877  delta_E= -0.00719  |g|= 0.0225  |ddm|= 0.145
  alpha nocc = 36  HOMO = -0.962960582892733  LUMO = -0.47154949701953
  beta  nocc = 36  HOMO = -0.962960582892738  LUMO = -0.471549497019528
cycle= 15 E= -3426.66637445506  delta_E= -0.00217  |g|= 0.0185  |ddm|= 0.0925
  alpha nocc = 36  HOMO = -0.958795305712757  LUMO = -0.472547281334802
  beta  nocc = 36  HOMO = -0.958795305712766  LUMO = -0.472547281334803
cycle= 16 E= -3426.66691857408  delta_E= -0.000544  |g|= 0.00671  |ddm|= 0.0425
  alpha nocc = 36  HOMO = -0.956626794999087  LUMO = -0.472569598195146
  beta  nocc = 36  HOMO = -0.956626794999095  LUMO = -0.472569598195146
cycle= 17 E= -3426.66707186017  delta_E= -0.000153  |g|= 0.00281  |ddm|= 0.0303
  alpha nocc = 36  HOMO = -0.955642912789467  LUMO = -0.472748887615491
  beta  nocc = 36  HOMO = -0.955642912789478  LUMO = -0.472748887615494
cycle= 18 E= -3426.66708736482  delta_E= -1.55e-05  |g|= 0.00116  |ddm|= 0.00682
  alpha nocc = 36  HOMO = -0.95534892297095  LUMO = -0.472572186045847
  beta  nocc = 36  HOMO = -0.955348922970972  LUMO = -0.472572186045845
cycle= 19 E= -3426.66709053205  delta_E= -3.17e-06  |g|= 0.000531  |ddm|= 0.00299
  alpha nocc = 36  HOMO = -0.955348973129819  LUMO = -0.472549569112045
  beta  nocc = 36  HOMO = -0.955348973129844  LUMO = -0.472549569112043
cycle= 20 E= -3426.66709128119  delta_E= -7.49e-07  |g|= 0.000274  |ddm|= 0.00141
  alpha nocc = 36  HOMO = -0.95539075999571  LUMO = -0.472559313486145
  beta  nocc = 36  HOMO = -0.95539075999575  LUMO = -0.472559313486153
cycle= 21 E= -3426.66709149515  delta_E= -2.14e-07  |g|= 0.000154  |ddm|= 0.000723
  alpha nocc = 36  HOMO = -0.955373679578224  LUMO = -0.472537695265558
  beta  nocc = 36  HOMO = -0.95537367957827  LUMO = -0.472537695265553
cycle= 22 E= -3426.66709157315  delta_E= -7.8e-08  |g|= 0.000115  |ddm|= 0.000469
  alpha nocc = 36  HOMO = -0.955402417480532  LUMO = -0.472551228255675
  beta  nocc = 36  HOMO = -0.955402417480585  LUMO = -0.472551228255667
cycle= 23 E= -3426.66709160656  delta_E= -3.34e-08  |g|= 4.03e-05  |ddm|= 0.000413
  alpha nocc = 36  HOMO = -0.955398815455766  LUMO = -0.472545294557216
  beta  nocc = 36  HOMO = -0.955398815455854  LUMO = -0.472545294557212
cycle= 24 E= -3426.66709161083  delta_E= -4.27e-09  |g|= 3.11e-05  |ddm|= 0.000182
  alpha nocc = 36  HOMO = -0.955400239470834  LUMO = -0.472547226131778
  beta  nocc = 36  HOMO = -0.955400239470926  LUMO = -0.472547226131776
cycle= 25 E= -3426.66709161123  delta_E= -4.03e-10  |g|= 2.01e-05  |ddm|= 4.04e-05
  alpha nocc = 36  HOMO = -0.955400766520355  LUMO = -0.47254865161202
  beta  nocc = 36  HOMO = -0.955400766520466  LUMO = -0.472548651612015
Extra cycle  E= -3426.66709161129  delta_E= -6.28e-11  |g|= 2.86e-05  |ddm|= 1.57e-05
converged SCF energy = -3426.66709161129  <S^2> = 1.8635506  2S+1 = 2.9076111
**** checking UHF/UKS internal stability ...
tol 0.0001  toloose 0.01
max_cycle 50  max_space 12  max_memory 2000  incore True
davidson 0 1  |r|= 4.19  e= [2.72285594]  max|de|= 2.72  lindep= 0.981
davidson 1 2  |r|= 0.825  e= [2.19284788]  max|de|= -0.53  lindep=    1
davidson 2 3  |r|= 0.248  e= [1.80546054]  max|de|= -0.387  lindep=    1
davidson 3 4  |r|= 0.308  e= [1.39101675]  max|de|= -0.414  lindep=    1
davidson 4 5  |r|= 0.435  e= [0.90576211]  max|de|= -0.485  lindep= 0.998
davidson 5 6  |r|= 1.35  e= [0.52311268]  max|de|= -0.383  lindep= 0.984
davidson 6 7  |r|= 0.497  e= [0.27828701]  max|de|= -0.245  lindep= 0.971
davidson 7 8  |r|= 0.295  e= [0.06836669]  max|de|= -0.21  lindep= 0.991
davidson 8 9  |r|= 0.264  e= [0.02802999]  max|de|= -0.0403  lindep= 0.951
davidson 9 10  |r|= 0.177  e= [0.01521029]  max|de|= -0.0128  lindep= 0.968
davidson 10 11  |r|= 0.109  e= [0.00707542]  max|de|= -0.00813  lindep= 0.928
davidson 11 12  |r|= 0.0668  e= [0.00208675]  max|de|= -0.00499  lindep= 0.951
davidson 12 1  |r|= 0.0668  e= [0.00208675]  max|de|= -2.03e-15  lindep=    1
davidson 13 2  |r|= 0.083  e= [-0.0002261]  max|de|= -0.00231  lindep= 0.898
davidson 14 3  |r|= 0.163  e= [-0.00567903]  max|de|= -0.00545  lindep= 0.952
davidson 15 4  |r|= 0.319  e= [-0.02496653]  max|de|= -0.0193  lindep= 0.99
davidson 16 5  |r|= 0.304  e= [-0.07493444]  max|de|= -0.05  lindep= 0.936
davidson 17 6  |r|= 0.229  e= [-0.12088818]  max|de|= -0.046  lindep= 0.936
davidson 18 7  |r|= 0.273  e= [-0.15568641]  max|de|= -0.0348  lindep= 0.955
davidson 19 8  |r|= 0.228  e= [-0.17057394]  max|de|= -0.0149  lindep= 0.904
davidson 20 9  |r|= 0.0996  e= [-0.18099987]  max|de|= -0.0104  lindep= 0.959
davidson 21 10  |r|= 0.0502  e= [-0.18403762]  max|de|= -0.00304  lindep= 0.954
davidson 22 11  |r|= 0.023  e= [-0.18474074]  max|de|= -0.000703  lindep= 0.925
davidson 23 12  |r|= 0.0121  e= [-0.184915]  max|de|= -0.000174  lindep= 0.907
davidson 24 1  |r|= 0.0121  e= [-0.184915]  max|de|= 1.36e-15  lindep=    1
root 0 converged  |r|= 0.0079  e= -0.18495311113667223  max|de|= -3.81e-05
converged 25 2  |r|= 0.0079  e= [-0.18495311]  max|de|= -3.81e-05
UHF/UKS wavefunction has an internal instability.


******** <class 'pyscf.scf.uhf.UHF'> ********
method = UHF
initial guess = minao
damping factor = 0
level_shift factor = 0
DIIS = <class 'pyscf.scf.diis.CDIIS'>
diis_start_cycle = 1
diis_space = 8
SCF conv_tol = 1e-09
SCF conv_tol_grad = None
SCF max_cycles = 100
direct_scf = True
direct_scf_tol = 1e-13
chkfile to save SCF result = /share/home/srwang/ExSCF/examples/tmpcdgx8yq0
max_memory 4000 MB (current use 1292 MB)
number electrons alpha = 36  beta = 36
Set gradient conv threshold to 3.16228e-05
init E= -3426.66098398916
  alpha nocc = 36  HOMO = -0.880753827340098  LUMO = -0.420244693786065
  beta  nocc = 36  HOMO = -0.948381250352656  LUMO = -0.413234025879708
cycle= 1 E= -3426.7350021765  delta_E= -0.074  |g|= 0.342  |ddm|= 0.288
  alpha nocc = 36  HOMO = -0.885665185104401  LUMO = -0.369361778535425
  beta  nocc = 36  HOMO = -0.968120014538047  LUMO = -0.427748152715373
cycle= 2 E= -3426.76488022856  delta_E= -0.0299  |g|= 0.489  |ddm|= 0.285
  alpha nocc = 36  HOMO = -0.899911948590027  LUMO = -0.378762849837606
  beta  nocc = 36  HOMO = -0.950472260838665  LUMO = -0.41864194844166
cycle= 3 E= -3426.80619470388  delta_E= -0.0413  |g|= 0.124  |ddm|= 0.117
  alpha nocc = 36  HOMO = -0.940018555249741  LUMO = -0.388958978306905
  beta  nocc = 36  HOMO = -0.910542928614401  LUMO = -0.407553674435391
cycle= 4 E= -3426.84501918585  delta_E= -0.0388  |g|= 0.0664  |ddm|= 0.258
  alpha nocc = 36  HOMO = -0.949042422042726  LUMO = -0.39311985368798
  beta  nocc = 36  HOMO = -0.913372890707001  LUMO = -0.417592979384169
cycle= 5 E= -3426.85662658398  delta_E= -0.0116  |g|= 0.0495  |ddm|= 0.155
  alpha nocc = 36  HOMO = -0.95163479001729  LUMO = -0.388199402657468
  beta  nocc = 36  HOMO = -0.914323950884279  LUMO = -0.41714870385911
cycle= 6 E= -3426.85884075594  delta_E= -0.00221  |g|= 0.0473  |ddm|= 0.0534
  alpha nocc = 36  HOMO = -0.94883264502285  LUMO = -0.390650412076716
  beta  nocc = 36  HOMO = -0.906016049744224  LUMO = -0.416074305815221
cycle= 7 E= -3426.86288778602  delta_E= -0.00405  |g|= 0.0241  |ddm|= 0.0882
  alpha nocc = 36  HOMO = -0.953113336959929  LUMO = -0.388954543321473
  beta  nocc = 36  HOMO = -0.908128523609084  LUMO = -0.418455804151893
cycle= 8 E= -3426.86548664211  delta_E= -0.0026  |g|= 0.0236  |ddm|= 0.0598
  alpha nocc = 36  HOMO = -0.957163248841529  LUMO = -0.386927451564717
  beta  nocc = 36  HOMO = -0.909631317288816  LUMO = -0.417012052160266
cycle= 9 E= -3426.8689835523  delta_E= -0.0035  |g|= 0.0251  |ddm|= 0.0967
  alpha nocc = 36  HOMO = -0.955460828596166  LUMO = -0.387479799812401
  beta  nocc = 36  HOMO = -0.905144478396797  LUMO = -0.412187488822655
cycle= 10 E= -3426.87204709768  delta_E= -0.00306  |g|= 0.0162  |ddm|= 0.104
  alpha nocc = 36  HOMO = -0.954579498223619  LUMO = -0.38757613823853
  beta  nocc = 36  HOMO = -0.904864954678899  LUMO = -0.414849690251427
cycle= 11 E= -3426.87305243522  delta_E= -0.00101  |g|= 0.0143  |ddm|= 0.0427
  alpha nocc = 36  HOMO = -0.955878853834076  LUMO = -0.386506106677673
  beta  nocc = 36  HOMO = -0.907649181042115  LUMO = -0.40792586770042
cycle= 12 E= -3426.87567391874  delta_E= -0.00262  |g|= 0.0148  |ddm|= 0.164
  alpha nocc = 36  HOMO = -0.955333005177852  LUMO = -0.386655440415441
  beta  nocc = 36  HOMO = -0.908458271033759  LUMO = -0.414850297294694
cycle= 13 E= -3426.87592530826  delta_E= -0.000251  |g|= 0.00926  |ddm|= 0.0168
  alpha nocc = 36  HOMO = -0.955012182421962  LUMO = -0.386422629645477
  beta  nocc = 36  HOMO = -0.908970430452637  LUMO = -0.410726462226844
cycle= 14 E= -3426.87658298863  delta_E= -0.000658  |g|= 0.0105  |ddm|= 0.0762
  alpha nocc = 36  HOMO = -0.954557063800857  LUMO = -0.38662229653491
  beta  nocc = 36  HOMO = -0.909154434367991  LUMO = -0.418211503138584
cycle= 15 E= -3426.87681573519  delta_E= -0.000233  |g|= 0.00524  |ddm|= 0.0229
  alpha nocc = 36  HOMO = -0.954031213546795  LUMO = -0.386760780367467
  beta  nocc = 36  HOMO = -0.909401998880419  LUMO = -0.424475510408931
cycle= 16 E= -3426.87715963737  delta_E= -0.000344  |g|= 0.00523  |ddm|= 0.0622
  alpha nocc = 36  HOMO = -0.95432248134383  LUMO = -0.386698242542853
  beta  nocc = 36  HOMO = -0.909279662156978  LUMO = -0.422921112510522
cycle= 17 E= -3426.87719111732  delta_E= -3.15e-05  |g|= 0.00404  |ddm|= 0.00536
  alpha nocc = 36  HOMO = -0.954455888712105  LUMO = -0.386704478782343
  beta  nocc = 36  HOMO = -0.908983319932294  LUMO = -0.424102846276044
cycle= 18 E= -3426.8772916161  delta_E= -0.0001  |g|= 0.00444  |ddm|= 0.02
  alpha nocc = 36  HOMO = -0.954759114497971  LUMO = -0.386639819853068
  beta  nocc = 36  HOMO = -0.908975041511227  LUMO = -0.421643849854314
cycle= 19 E= -3426.87734768092  delta_E= -5.61e-05  |g|= 0.00284  |ddm|= 0.0105
  alpha nocc = 36  HOMO = -0.954809369079445  LUMO = -0.386590120931525
  beta  nocc = 36  HOMO = -0.90893315509536  LUMO = -0.419996105407208
cycle= 20 E= -3426.87742513134  delta_E= -7.75e-05  |g|= 0.00224  |ddm|= 0.0167
  alpha nocc = 36  HOMO = -0.9547271900188  LUMO = -0.386595580909084
  beta  nocc = 36  HOMO = -0.908988908264443  LUMO = -0.420140121147427
cycle= 21 E= -3426.87745290397  delta_E= -2.78e-05  |g|= 0.00211  |ddm|= 0.00653
  alpha nocc = 36  HOMO = -0.954744437518626  LUMO = -0.386590945984786
  beta  nocc = 36  HOMO = -0.909042357552105  LUMO = -0.419934052742471
cycle= 22 E= -3426.87745594229  delta_E= -3.04e-06  |g|= 0.0021  |ddm|= 0.00197
  alpha nocc = 36  HOMO = -0.95481708858823  LUMO = -0.386585307956626
  beta  nocc = 36  HOMO = -0.909023554088207  LUMO = -0.419909813238641
cycle= 23 E= -3426.87744764528  delta_E= 8.3e-06  |g|= 0.00208  |ddm|= 0.00366
  alpha nocc = 36  HOMO = -0.954778449484816  LUMO = -0.386591397215308
  beta  nocc = 36  HOMO = -0.908915330833717  LUMO = -0.419950701364427
cycle= 24 E= -3426.87743518627  delta_E= 1.25e-05  |g|= 0.00209  |ddm|= 0.00826
  alpha nocc = 36  HOMO = -0.954712905574582  LUMO = -0.386570720295229
  beta  nocc = 36  HOMO = -0.908921962483081  LUMO = -0.419974176143422
cycle= 25 E= -3426.87743221003  delta_E= 2.98e-06  |g|= 0.00187  |ddm|= 0.00691
  alpha nocc = 36  HOMO = -0.954715024840131  LUMO = -0.38659341003636
  beta  nocc = 36  HOMO = -0.909124193762757  LUMO = -0.420106596975805
cycle= 26 E= -3426.87741588604  delta_E= 1.63e-05  |g|= 0.00164  |ddm|= 0.0082
  alpha nocc = 36  HOMO = -0.954449874067646  LUMO = -0.386590033044348
  beta  nocc = 36  HOMO = -0.909106068529488  LUMO = -0.419939534228259
cycle= 27 E= -3426.87742993084  delta_E= -1.4e-05  |g|= 0.000782  |ddm|= 0.0259
  alpha nocc = 36  HOMO = -0.954512204228773  LUMO = -0.386603504691463
  beta  nocc = 36  HOMO = -0.90923555234053  LUMO = -0.419983598690863
cycle= 28 E= -3426.87743078228  delta_E= -8.51e-07  |g|= 0.000304  |ddm|= 0.0129
  alpha nocc = 36  HOMO = -0.954559313928038  LUMO = -0.386597210478668
  beta  nocc = 36  HOMO = -0.909072038347027  LUMO = -0.420083722254347
cycle= 29 E= -3426.87743129181  delta_E= -5.1e-07  |g|= 0.000162  |ddm|= 0.00401
  alpha nocc = 36  HOMO = -0.954580493538412  LUMO = -0.386595242531599
  beta  nocc = 36  HOMO = -0.90910461198887  LUMO = -0.42007003055359
cycle= 30 E= -3426.87743135365  delta_E= -6.18e-08  |g|= 0.000122  |ddm|= 0.00096
  alpha nocc = 36  HOMO = -0.954587097647587  LUMO = -0.386594420542125
  beta  nocc = 36  HOMO = -0.909105780902231  LUMO = -0.420072389893572
cycle= 31 E= -3426.87743139088  delta_E= -3.72e-08  |g|= 0.000102  |ddm|= 0.000486
  alpha nocc = 36  HOMO = -0.95458887101545  LUMO = -0.386593827946536
  beta  nocc = 36  HOMO = -0.909097259433182  LUMO = -0.420070609902448
cycle= 32 E= -3426.87743141302  delta_E= -2.21e-08  |g|= 9.6e-05  |ddm|= 0.000142
  alpha nocc = 36  HOMO = -0.954590571290871  LUMO = -0.386593792536823
  beta  nocc = 36  HOMO = -0.909094556997989  LUMO = -0.42007017755821
cycle= 33 E= -3426.87743143913  delta_E= -2.61e-08  |g|= 9.42e-05  |ddm|= 0.000141
  alpha nocc = 36  HOMO = -0.954592685119946  LUMO = -0.386593630527613
  beta  nocc = 36  HOMO = -0.909092292820354  LUMO = -0.420070210311299
cycle= 34 E= -3426.87743147065  delta_E= -3.15e-08  |g|= 9.26e-05  |ddm|= 0.000164
  alpha nocc = 36  HOMO = -0.954592760893052  LUMO = -0.386593637207974
  beta  nocc = 36  HOMO = -0.909092364789461  LUMO = -0.420070261978298
cycle= 35 E= -3426.87743147894  delta_E= -8.29e-09  |g|= 9.23e-05  |ddm|= 4.25e-05
  alpha nocc = 36  HOMO = -0.954593135745755  LUMO = -0.386593712199736
  beta  nocc = 36  HOMO = -0.909091998780765  LUMO = -0.42007039543137
cycle= 36 E= -3426.87743145173  delta_E= 2.72e-08  |g|= 9.31e-05  |ddm|= 0.000141
  alpha nocc = 36  HOMO = -0.954593213984335  LUMO = -0.386593517873286
  beta  nocc = 36  HOMO = -0.9090902127893  LUMO = -0.420069831476334
cycle= 37 E= -3426.87743143114  delta_E= 2.06e-08  |g|= 9.35e-05  |ddm|= 0.000116
  alpha nocc = 36  HOMO = -0.954594872919539  LUMO = -0.386593519089739
  beta  nocc = 36  HOMO = -0.909089863815878  LUMO = -0.420070417160435
cycle= 38 E= -3426.87743142303  delta_E= 8.11e-09  |g|= 9.28e-05  |ddm|= 0.00013
  alpha nocc = 36  HOMO = -0.954595200348914  LUMO = -0.386593285149621
  beta  nocc = 36  HOMO = -0.90909040603319  LUMO = -0.420070377734121
cycle= 39 E= -3426.87743144922  delta_E= -2.62e-08  |g|= 9.06e-05  |ddm|= 0.000243
  alpha nocc = 36  HOMO = -0.954594120744302  LUMO = -0.386593381812213
  beta  nocc = 36  HOMO = -0.909090482683305  LUMO = -0.420070131695269
cycle= 40 E= -3426.87743146104  delta_E= -1.18e-08  |g|= 8.99e-05  |ddm|= 9.12e-05
  alpha nocc = 36  HOMO = -0.954594147364502  LUMO = -0.386593407127235
  beta  nocc = 36  HOMO = -0.909090711656574  LUMO = -0.420070218513672
cycle= 41 E= -3426.87743146283  delta_E= -1.79e-09  |g|= 8.99e-05  |ddm|= 1.21e-05
  alpha nocc = 36  HOMO = -0.954594797960201  LUMO = -0.386593337847542
  beta  nocc = 36  HOMO = -0.90909080828795  LUMO = -0.420070402713486
cycle= 42 E= -3426.87743146351  delta_E= -6.88e-10  |g|= 8.97e-05  |ddm|= 2.51e-05
  alpha nocc = 36  HOMO = -0.954595208044194  LUMO = -0.386593245712826
  beta  nocc = 36  HOMO = -0.909090859243443  LUMO = -0.420070470310689
cycle= 43 E= -3426.87743146467  delta_E= -1.15e-09  |g|= 8.93e-05  |ddm|= 6.47e-05
  alpha nocc = 36  HOMO = -0.954593979103395  LUMO = -0.386593308778119
  beta  nocc = 36  HOMO = -0.909089358126421  LUMO = -0.420069794230927
cycle= 44 E= -3426.87743148118  delta_E= -1.65e-08  |g|= 8.78e-05  |ddm|= 0.000151
  alpha nocc = 36  HOMO = -0.954594184796262  LUMO = -0.38659336914311
  beta  nocc = 36  HOMO = -0.909089924635489  LUMO = -0.420070101973047
cycle= 45 E= -3426.87743149299  delta_E= -1.18e-08  |g|= 8.71e-05  |ddm|= 8.69e-05
  alpha nocc = 36  HOMO = -0.954594352820499  LUMO = -0.386593489182604
  beta  nocc = 36  HOMO = -0.909090707607577  LUMO = -0.420070419824101
cycle= 46 E= -3426.87743150401  delta_E= -1.1e-08  |g|= 8.69e-05  |ddm|= 6.01e-05
  alpha nocc = 36  HOMO = -0.954594732822452  LUMO = -0.38659354755458
  beta  nocc = 36  HOMO = -0.90909081238865  LUMO = -0.420070642284643
cycle= 47 E= -3426.8774314919  delta_E= 1.21e-08  |g|= 8.72e-05  |ddm|= 6.41e-05
  alpha nocc = 36  HOMO = -0.954594326447108  LUMO = -0.386593422250608
  beta  nocc = 36  HOMO = -0.90908958180796  LUMO = -0.420070055258604
cycle= 48 E= -3426.87743144349  delta_E= 4.84e-08  |g|= 8.76e-05  |ddm|= 0.000269
  alpha nocc = 36  HOMO = -0.954591421685487  LUMO = -0.386593654420568
  beta  nocc = 36  HOMO = -0.909090608329075  LUMO = -0.420069434397005
cycle= 49 E= -3426.87743141898  delta_E= 2.45e-08  |g|= 8.67e-05  |ddm|= 0.000191
  alpha nocc = 36  HOMO = -0.954592774905166  LUMO = -0.386593866642034
  beta  nocc = 36  HOMO = -0.909096339585655  LUMO = -0.420071226485752
cycle= 50 E= -3426.87743140808  delta_E= 1.09e-08  |g|= 8.48e-05  |ddm|= 0.000181
  alpha nocc = 36  HOMO = -0.95458808443997  LUMO = -0.386593779311199
  beta  nocc = 36  HOMO = -0.909095055068786  LUMO = -0.420069018704655
cycle= 51 E= -3426.87743139569  delta_E= 1.24e-08  |g|= 8.33e-05  |ddm|= 0.000335
  alpha nocc = 36  HOMO = -0.954587578461406  LUMO = -0.386593809557161
  beta  nocc = 36  HOMO = -0.9090953744437  LUMO = -0.420069159241753
cycle= 52 E= -3426.87743140856  delta_E= -1.29e-08  |g|= 8e-05  |ddm|= 0.000393
  alpha nocc = 36  HOMO = -0.954591417744477  LUMO = -0.386593618462092
  beta  nocc = 36  HOMO = -0.909097206327544  LUMO = -0.420070986514159
cycle= 53 E= -3426.8774314145  delta_E= -5.94e-09  |g|= 7.42e-05  |ddm|= 0.000333
  alpha nocc = 36  HOMO = -0.954591185377644  LUMO = -0.386593644878156
  beta  nocc = 36  HOMO = -0.909095480269057  LUMO = -0.420070535288651
cycle= 54 E= -3426.87743141711  delta_E= -2.61e-09  |g|= 7.39e-05  |ddm|= 4.46e-05
  alpha nocc = 36  HOMO = -0.954590574946004  LUMO = -0.38659368070571
  beta  nocc = 36  HOMO = -0.90909735581838  LUMO = -0.42007089018371
cycle= 55 E= -3426.87743141218  delta_E= 4.92e-09  |g|= 7.36e-05  |ddm|= 6.42e-05
  alpha nocc = 36  HOMO = -0.954587283685575  LUMO = -0.386593195023166
  beta  nocc = 36  HOMO = -0.909096533128857  LUMO = -0.420069390734228
cycle= 56 E= -3426.87743139744  delta_E= 1.47e-08  |g|= 7.38e-05  |ddm|= 0.000193
  alpha nocc = 36  HOMO = -0.95458975432577  LUMO = -0.386593542802474
  beta  nocc = 36  HOMO = -0.909099356552787  LUMO = -0.420071539844949
cycle= 57 E= -3426.87743137718  delta_E= 2.03e-08  |g|= 6.98e-05  |ddm|= 0.000381
  alpha nocc = 36  HOMO = -0.954592571243661  LUMO = -0.386593579761636
  beta  nocc = 36  HOMO = -0.909096363060804  LUMO = -0.420071569173119
cycle= 58 E= -3426.8774313525  delta_E= 2.47e-08  |g|= 6.76e-05  |ddm|= 0.000343
  alpha nocc = 36  HOMO = -0.954591806056517  LUMO = -0.386593574002904
  beta  nocc = 36  HOMO = -0.909092886418571  LUMO = -0.420070317016118
cycle= 59 E= -3426.87743135472  delta_E= -2.21e-09  |g|= 6.72e-05  |ddm|= 6.69e-05
  alpha nocc = 36  HOMO = -0.954592061973563  LUMO = -0.386593571131119
  beta  nocc = 36  HOMO = -0.909092907323407  LUMO = -0.420070298975694
cycle= 60 E= -3426.87743136025  delta_E= -5.53e-09  |g|= 6.69e-05  |ddm|= 4.41e-05
  alpha nocc = 36  HOMO = -0.954591997858716  LUMO = -0.386593583844253
  beta  nocc = 36  HOMO = -0.909092888446198  LUMO = -0.420070348692223
cycle= 61 E= -3426.87743134719  delta_E= 1.31e-08  |g|= 6.78e-05  |ddm|= 0.000124
  alpha nocc = 36  HOMO = -0.954591954364378  LUMO = -0.38659358419152
  beta  nocc = 36  HOMO = -0.90909281952018  LUMO = -0.420070333347974
cycle= 62 E= -3426.87743134111  delta_E= 6.09e-09  |g|= 6.8e-05  |ddm|= 4.7e-05
  alpha nocc = 36  HOMO = -0.954592081760201  LUMO = -0.386593581885755
  beta  nocc = 36  HOMO = -0.90909270374245  LUMO = -0.420070318219289
cycle= 63 E= -3426.87743133679  delta_E= 4.32e-09  |g|= 6.82e-05  |ddm|= 3.29e-05
  alpha nocc = 36  HOMO = -0.954592208789619  LUMO = -0.386593566776897
  beta  nocc = 36  HOMO = -0.909092269650685  LUMO = -0.420070237955249
cycle= 64 E= -3426.87743134033  delta_E= -3.54e-09  |g|= 6.81e-05  |ddm|= 3.36e-05
  alpha nocc = 36  HOMO = -0.954592005696826  LUMO = -0.38659354029178
  beta  nocc = 36  HOMO = -0.909092339478028  LUMO = -0.420070182090312
cycle= 65 E= -3426.87743133881  delta_E= 1.52e-09  |g|= 6.81e-05  |ddm|= 1.51e-05
  alpha nocc = 36  HOMO = -0.954591814963655  LUMO = -0.386593558878787
  beta  nocc = 36  HOMO = -0.90909291232224  LUMO = -0.420070308818702
cycle= 66 E= -3426.87743133753  delta_E= 1.28e-09  |g|= 6.81e-05  |ddm|= 1.22e-05
  alpha nocc = 36  HOMO = -0.954592214630803  LUMO = -0.386593557205515
  beta  nocc = 36  HOMO = -0.909092978507022  LUMO = -0.420070449592357
cycle= 67 E= -3426.87743133583  delta_E= 1.7e-09  |g|= 6.82e-05  |ddm|= 2.34e-05
  alpha nocc = 36  HOMO = -0.954592244431236  LUMO = -0.386593565308607
  beta  nocc = 36  HOMO = -0.909093519778331  LUMO = -0.420070642207653
cycle= 68 E= -3426.87743133584  delta_E= -1.46e-11  |g|= 6.81e-05  |ddm|= 2.1e-05
  alpha nocc = 36  HOMO = -0.954592163997275  LUMO = -0.386593579597349
  beta  nocc = 36  HOMO = -0.909092864204903  LUMO = -0.420070404455071
cycle= 69 E= -3426.87743134827  delta_E= -1.24e-08  |g|= 6.75e-05  |ddm|= 0.000102
  alpha nocc = 36  HOMO = -0.954591678548816  LUMO = -0.386593571013943
  beta  nocc = 36  HOMO = -0.909092764938179  LUMO = -0.420070294874155
cycle= 70 E= -3426.87743132987  delta_E= 1.84e-08  |g|= 6.85e-05  |ddm|= 0.000146
  alpha nocc = 36  HOMO = -0.954592428850704  LUMO = -0.386593590979242
  beta  nocc = 36  HOMO = -0.909092507802304  LUMO = -0.420070479388338
cycle= 71 E= -3426.87743129161  delta_E= 3.83e-08  |g|= 6.96e-05  |ddm|= 0.000299
  alpha nocc = 36  HOMO = -0.954594014730326  LUMO = -0.386593547357777
  beta  nocc = 36  HOMO = -0.90909165062144  LUMO = -0.42007056954791
cycle= 72 E= -3426.8774312613  delta_E= 3.03e-08  |g|= 7.02e-05  |ddm|= 0.000243
  alpha nocc = 36  HOMO = -0.954593275205895  LUMO = -0.386593494496132
  beta  nocc = 36  HOMO = -0.909090556455488  LUMO = -0.420070005272888
cycle= 73 E= -3426.8774312493  delta_E= 1.2e-08  |g|= 7.04e-05  |ddm|= 0.000116
  alpha nocc = 36  HOMO = -0.954594762413091  LUMO = -0.386593442009478
  beta  nocc = 36  HOMO = -0.909092922918972  LUMO = -0.420070968175041
cycle= 74 E= -3426.87743123504  delta_E= 1.43e-08  |g|= 6.92e-05  |ddm|= 0.000175
  alpha nocc = 36  HOMO = -0.954591846083032  LUMO = -0.38659332224011
  beta  nocc = 36  HOMO = -0.90909500256561  LUMO = -0.420070288245698
cycle= 75 E= -3426.87743122077  delta_E= 1.43e-08  |g|= 6.66e-05  |ddm|= 0.000366
  alpha nocc = 36  HOMO = -0.954589557678482  LUMO = -0.386593805465987
  beta  nocc = 36  HOMO = -0.909096138731342  LUMO = -0.420070218447358
cycle= 76 E= -3426.87743121459  delta_E= 6.18e-09  |g|= 6.32e-05  |ddm|= 0.000562
  alpha nocc = 36  HOMO = -0.954590126835877  LUMO = -0.3865936596726
  beta  nocc = 36  HOMO = -0.909095911565357  LUMO = -0.420070269474228
cycle= 77 E= -3426.87743121182  delta_E= 2.77e-09  |g|= 6.13e-05  |ddm|= 0.000315
  alpha nocc = 36  HOMO = -0.954591698392136  LUMO = -0.386593767474379
  beta  nocc = 36  HOMO = -0.909094178624299  LUMO = -0.42007051150374
cycle= 78 E= -3426.87743122204  delta_E= -1.02e-08  |g|= 5.98e-05  |ddm|= 0.000132
  alpha nocc = 36  HOMO = -0.954591144547124  LUMO = -0.38659363180055
  beta  nocc = 36  HOMO = -0.909093354575892  LUMO = -0.420069928224027
cycle= 79 E= -3426.87743122  delta_E= 2.04e-09  |g|= 5.96e-05  |ddm|= 2.65e-05
  alpha nocc = 36  HOMO = -0.954591336675816  LUMO = -0.386593608763176
  beta  nocc = 36  HOMO = -0.909093574471223  LUMO = -0.420070130627196
cycle= 80 E= -3426.87743122771  delta_E= -7.71e-09  |g|= 5.93e-05  |ddm|= 9.6e-05
  alpha nocc = 36  HOMO = -0.954592622591159  LUMO = -0.386593566443892
  beta  nocc = 36  HOMO = -0.909093393704708  LUMO = -0.420070295400923
cycle= 81 E= -3426.87743121455  delta_E= 1.32e-08  |g|= 5.99e-05  |ddm|= 0.000222
  alpha nocc = 36  HOMO = -0.95459310254829  LUMO = -0.386593617310498
  beta  nocc = 36  HOMO = -0.909094081821323  LUMO = -0.42007077427549
cycle= 82 E= -3426.87743121924  delta_E= -4.69e-09  |g|= 6.02e-05  |ddm|= 8.81e-05
  alpha nocc = 36  HOMO = -0.954592674810274  LUMO = -0.386593642194288
  beta  nocc = 36  HOMO = -0.90909341148987  LUMO = -0.4200705274139
cycle= 83 E= -3426.87743122369  delta_E= -4.45e-09  |g|= 6e-05  |ddm|= 5.04e-05
  alpha nocc = 36  HOMO = -0.954591838061451  LUMO = -0.38659356328862
  beta  nocc = 36  HOMO = -0.909093820813553  LUMO = -0.420070237302083
cycle= 84 E= -3426.87743121091  delta_E= 1.28e-08  |g|= 6.02e-05  |ddm|= 0.000176
  alpha nocc = 36  HOMO = -0.954591230840619  LUMO = -0.386593696164371
  beta  nocc = 36  HOMO = -0.909094139145095  LUMO = -0.420070193830062
cycle= 85 E= -3426.87743119112  delta_E= 1.98e-08  |g|= 6.09e-05  |ddm|= 0.000251
  alpha nocc = 36  HOMO = -0.954591363352708  LUMO = -0.38659368057421
  beta  nocc = 36  HOMO = -0.909094126830997  LUMO = -0.420070259786936
cycle= 86 E= -3426.87743118959  delta_E= 1.53e-09  |g|= 6.09e-05  |ddm|= 3.51e-05
  alpha nocc = 36  HOMO = -0.954592102642467  LUMO = -0.38659370684007
  beta  nocc = 36  HOMO = -0.909094124313926  LUMO = -0.420070556650776
cycle= 87 E= -3426.87743119274  delta_E= -3.15e-09  |g|= 6.07e-05  |ddm|= 4.26e-05
  alpha nocc = 36  HOMO = -0.954592327457516  LUMO = -0.386593744887452
  beta  nocc = 36  HOMO = -0.9090943404759  LUMO = -0.420070719074409
cycle= 88 E= -3426.87743119276  delta_E= -2.32e-11  |g|= 6.07e-05  |ddm|= 8.19e-06
  alpha nocc = 36  HOMO = -0.954590604081044  LUMO = -0.386593873544229
  beta  nocc = 36  HOMO = -0.909093252538343  LUMO = -0.420069868786577
cycle= 89 E= -3426.87743117993  delta_E= 1.28e-08  |g|= 6.14e-05  |ddm|= 0.000147
  alpha nocc = 36  HOMO = -0.954591012594014  LUMO = -0.386594015281213
  beta  nocc = 36  HOMO = -0.909088871294255  LUMO = -0.420068936605489
cycle= 90 E= -3426.87743115404  delta_E= 2.59e-08  |g|= 5.98e-05  |ddm|= 0.000316
  alpha nocc = 36  HOMO = -0.954598849883663  LUMO = -0.386593769399469
  beta  nocc = 36  HOMO = -0.909089638294309  LUMO = -0.420071693785291
cycle= 91 E= -3426.87743115434  delta_E= -2.91e-10  |g|= 5.38e-05  |ddm|= 0.000308
  alpha nocc = 36  HOMO = -0.954597016019427  LUMO = -0.386593056909714
  beta  nocc = 36  HOMO = -0.909083323522495  LUMO = -0.420069202775965
cycle= 92 E= -3426.87743116405  delta_E= -9.71e-09  |g|= 4.48e-05  |ddm|= 0.000398
  alpha nocc = 36  HOMO = -0.954600250187584  LUMO = -0.386592814197851
  beta  nocc = 36  HOMO = -0.909087096822278  LUMO = -0.420071243250715
cycle= 93 E= -3426.877431176  delta_E= -1.2e-08  |g|= 3.59e-05  |ddm|= 0.000441
  alpha nocc = 36  HOMO = -0.954598083317477  LUMO = -0.386592605227182
  beta  nocc = 36  HOMO = -0.909090276969848  LUMO = -0.420071311177258
cycle= 94 E= -3426.87743118538  delta_E= -9.37e-09  |g|= 2.62e-05  |ddm|= 0.000481
  alpha nocc = 36  HOMO = -0.954594771124743  LUMO = -0.386593294688356
  beta  nocc = 36  HOMO = -0.909091353390085  LUMO = -0.420070643169804
cycle= 95 E= -3426.87743118471  delta_E= 6.66e-10  |g|= 2.5e-05  |ddm|= 0.000228
  alpha nocc = 36  HOMO = -0.954594568474164  LUMO = -0.386593091970665
  beta  nocc = 36  HOMO = -0.909091795548525  LUMO = -0.420070577873934
Extra cycle  E= -3426.87743118569  delta_E= -9.81e-10  |g|= 2.43e-05  |ddm|= 2.37e-05
converged SCF energy = -3426.87743118569  <S^2> = 1.9502213  2S+1 = 2.9666286
**** checking UHF/UKS internal stability ...
tol 0.0001  toloose 0.01
max_cycle 50  max_space 12  max_memory 2000  incore True
davidson 0 1  |r|= 4.38  e= [3.03850578]  max|de|= 3.04  lindep= 0.985
davidson 1 2  |r|= 0.71  e= [2.51872467]  max|de|= -0.52  lindep= 0.999
davidson 2 3  |r|= 0.288  e= [2.09355764]  max|de|= -0.425  lindep= 0.999
davidson 3 4  |r|= 0.442  e= [1.56063094]  max|de|= -0.533  lindep=    1
davidson 4 5  |r|= 0.257  e= [1.13836545]  max|de|= -0.422  lindep=    1
davidson 5 6  |r|= 0.314  e= [0.66667993]  max|de|= -0.472  lindep= 0.999
davidson 6 7  |r|= 0.471  e= [0.10139818]  max|de|= -0.565  lindep= 0.998
davidson 7 8  |r|= 0.243  e= [-0.00585281]  max|de|= -0.107  lindep= 0.982
davidson 8 9  |r|= 0.096  e= [-0.01515233]  max|de|= -0.0093  lindep= 0.992
davidson 9 10  |r|= 0.0452  e= [-0.016712]  max|de|= -0.00156  lindep= 0.931
davidson 10 11  |r|= 0.0193  e= [-0.01710431]  max|de|= -0.000392  lindep= 0.966
davidson 11 12  |r|= 0.0225  e= [-0.0173014]  max|de|= -0.000197  lindep= 0.933
davidson 12 1  |r|= 0.0225  e= [-0.0173014]  max|de|= 2.53e-16  lindep=    1
davidson 13 2  |r|= 0.0154  e= [-0.01742866]  max|de|= -0.000127  lindep= 0.954
davidson 14 3  |r|= 0.027  e= [-0.01763559]  max|de|= -0.000207  lindep= 0.986
davidson 15 4  |r|= 0.0281  e= [-0.0178956]  max|de|= -0.00026  lindep= 0.933
davidson 16 5  |r|= 0.0184  e= [-0.01809218]  max|de|= -0.000197  lindep= 0.964
root 0 converged  |r|= 0.00663  e= -0.018167361669528568  max|de|= -7.52e-05
converged 17 6  |r|= 0.00663  e= [-0.01816736]  max|de|= -7.52e-05
UHF/UKS wavefunction has an internal instability.


******** <class 'pyscf.scf.uhf.UHF'> ********
method = UHF
initial guess = minao
damping factor = 0
level_shift factor = 0
DIIS = <class 'pyscf.scf.diis.CDIIS'>
diis_start_cycle = 1
diis_space = 8
SCF conv_tol = 1e-09
SCF conv_tol_grad = None
SCF max_cycles = 100
direct_scf = True
direct_scf_tol = 1e-13
chkfile to save SCF result = /share/home/srwang/ExSCF/examples/tmpcdgx8yq0
max_memory 4000 MB (current use 1293 MB)
number electrons alpha = 36  beta = 36
Set gradient conv threshold to 3.16228e-05
init E= -3426.87626943637
  alpha nocc = 36  HOMO = -0.941835313679045  LUMO = -0.387874287300858
  beta  nocc = 36  HOMO = -0.892813886882065  LUMO = -0.410567224080132
cycle= 1 E= -3426.8828199897  delta_E= -0.00655  |g|= 0.0336  |ddm|= 0.0692
  alpha nocc = 36  HOMO = -0.947531886455231  LUMO = -0.387769479752948
  beta  nocc = 36  HOMO = -0.894973030445798  LUMO = -0.41325961834811
cycle= 2 E= -3426.88336114689  delta_E= -0.000541  |g|= 0.0129  |ddm|= 0.023
  alpha nocc = 36  HOMO = -0.947293792335423  LUMO = -0.387583613020823
  beta  nocc = 36  HOMO = -0.893753061183985  LUMO = -0.413002913648878
cycle= 3 E= -3426.88348791115  delta_E= -0.000127  |g|= 0.0111  |ddm|= 0.0135
  alpha nocc = 36  HOMO = -0.948007600931814  LUMO = -0.387769141501018
  beta  nocc = 36  HOMO = -0.89443597960986  LUMO = -0.41344135434922
cycle= 4 E= -3426.88353590921  delta_E= -4.8e-05  |g|= 0.00474  |ddm|= 0.00463
  alpha nocc = 36  HOMO = -0.948265339430915  LUMO = -0.387738495506758
  beta  nocc = 36  HOMO = -0.894788682583598  LUMO = -0.413510066023848
cycle= 5 E= -3426.88358829123  delta_E= -5.24e-05  |g|= 0.00424  |ddm|= 0.00536
  alpha nocc = 36  HOMO = -0.947992534290777  LUMO = -0.387745760290456
  beta  nocc = 36  HOMO = -0.894572865759741  LUMO = -0.413373354684307
cycle= 6 E= -3426.88362975459  delta_E= -4.15e-05  |g|= 0.00415  |ddm|= 0.00427
  alpha nocc = 36  HOMO = -0.947740674249526  LUMO = -0.387784331943157
  beta  nocc = 36  HOMO = -0.894426233202531  LUMO = -0.413209227811881
cycle= 7 E= -3426.88376162238  delta_E= -0.000132  |g|= 0.00406  |ddm|= 0.0136
  alpha nocc = 36  HOMO = -0.945685542955802  LUMO = -0.387909738353555
  beta  nocc = 36  HOMO = -0.895035565988792  LUMO = -0.410887051219059
cycle= 8 E= -3426.88436739287  delta_E= -0.000606  |g|= 0.00404  |ddm|= 0.0662
  alpha nocc = 36  HOMO = -0.945526338008645  LUMO = -0.387930577377942
  beta  nocc = 36  HOMO = -0.893999025357869  LUMO = -0.411092265171076
cycle= 9 E= -3426.88446689627  delta_E= -9.95e-05  |g|= 0.00387  |ddm|= 0.0114
  alpha nocc = 36  HOMO = -0.943295408916567  LUMO = -0.388099866219616
  beta  nocc = 36  HOMO = -0.8957591883116  LUMO = -0.407949163172051
cycle= 10 E= -3426.88512114367  delta_E= -0.000654  |g|= 0.00487  |ddm|= 0.0817
  alpha nocc = 36  HOMO = -0.943513792237295  LUMO = -0.388102316730496
  beta  nocc = 36  HOMO = -0.891651835974615  LUMO = -0.409159477703589
cycle= 11 E= -3426.88527610057  delta_E= -0.000155  |g|= 0.00365  |ddm|= 0.0197
  alpha nocc = 36  HOMO = -0.942087222027926  LUMO = -0.388187447022195
  beta  nocc = 36  HOMO = -0.893389036968915  LUMO = -0.406826605635166
cycle= 12 E= -3426.88563762375  delta_E= -0.000362  |g|= 0.0045  |ddm|= 0.0513
  alpha nocc = 36  HOMO = -0.94289968397608  LUMO = -0.388181346173307
  beta  nocc = 36  HOMO = -0.889264249821329  LUMO = -0.408763480429833
cycle= 13 E= -3426.88563684781  delta_E= 7.76e-07  |g|= 0.00341  |ddm|= 0.00441
  alpha nocc = 36  HOMO = -0.942719084431268  LUMO = -0.38818644289092
  beta  nocc = 36  HOMO = -0.890355427397815  LUMO = -0.408296978005659
cycle= 14 E= -3426.8856258307  delta_E= 1.1e-05  |g|= 0.00358  |ddm|= 0.00163
  alpha nocc = 36  HOMO = -0.943432618207466  LUMO = -0.388157000356652
  beta  nocc = 36  HOMO = -0.88774964758401  LUMO = -0.409790585147959
cycle= 15 E= -3426.88557942814  delta_E= 4.64e-05  |g|= 0.00333  |ddm|= 0.007
  alpha nocc = 36  HOMO = -0.943225427232325  LUMO = -0.388151054710485
  beta  nocc = 36  HOMO = -0.888109117651174  LUMO = -0.409476492200722
cycle= 16 E= -3426.88555853006  delta_E= 2.09e-05  |g|= 0.00322  |ddm|= 0.00601
  alpha nocc = 36  HOMO = -0.942688238647702  LUMO = -0.38819576714934
  beta  nocc = 36  HOMO = -0.887053850205451  LUMO = -0.408956121008059
cycle= 17 E= -3426.88572317896  delta_E= -0.000165  |g|= 0.00299  |ddm|= 0.0365
  alpha nocc = 36  HOMO = -0.940326274669017  LUMO = -0.388304472676219
  beta  nocc = 36  HOMO = -0.890366020621859  LUMO = -0.40556094349071
cycle= 18 E= -3426.88601241841  delta_E= -0.000289  |g|= 0.00362  |ddm|= 0.0681
  alpha nocc = 36  HOMO = -0.940886388881326  LUMO = -0.388300207778197
  beta  nocc = 36  HOMO = -0.886641585927825  LUMO = -0.407105363360641
cycle= 19 E= -3426.8860120566  delta_E= 3.62e-07  |g|= 0.00257  |ddm|= 0.00629
  alpha nocc = 36  HOMO = -0.933589055349507  LUMO = -0.38862683865226
  beta  nocc = 36  HOMO = -0.905800326324045  LUMO = -0.39788905937944
cycle= 20 E= -3426.88642658234  delta_E= -0.000415  |g|= 0.0127  |ddm|= 0.174
  alpha nocc = 36  HOMO = -0.935721398878886  LUMO = -0.388542280890994
  beta  nocc = 36  HOMO = -0.89640391885971  LUMO = -0.400445546906362
cycle= 21 E= -3426.88640197721  delta_E= 2.46e-05  |g|= 0.00772  |ddm|= 0.033
  alpha nocc = 36  HOMO = -0.935321395647885  LUMO = -0.388560325560728
  beta  nocc = 36  HOMO = -0.898356724597499  LUMO = -0.399827324124037
cycle= 22 E= -3426.88641645409  delta_E= -1.45e-05  |g|= 0.00869  |ddm|= 0.0089
  alpha nocc = 36  HOMO = -0.936664047528018  LUMO = -0.388544205597856
  beta  nocc = 36  HOMO = -0.891192574463941  LUMO = -0.402061887171486
cycle= 23 E= -3426.88640956895  delta_E= 6.89e-06  |g|= 0.0054  |ddm|= 0.0133
  alpha nocc = 36  HOMO = -0.935428476419361  LUMO = -0.388589533203698
  beta  nocc = 36  HOMO = -0.892063436028495  LUMO = -0.400726957032972
cycle= 24 E= -3426.88651165733  delta_E= -0.000102  |g|= 0.00574  |ddm|= 0.0449
  alpha nocc = 36  HOMO = -0.932541628239565  LUMO = -0.388712403859271
  beta  nocc = 36  HOMO = -0.900127003064394  LUMO = -0.397052364795808
cycle= 25 E= -3426.88663434611  delta_E= -0.000123  |g|= 0.0101  |ddm|= 0.0984
  alpha nocc = 36  HOMO = -0.934770384907742  LUMO = -0.388670141311328
  beta  nocc = 36  HOMO = -0.88596270172985  LUMO = -0.40060442181491
cycle= 26 E= -3426.88667781102  delta_E= -4.35e-05  |g|= 0.00279  |ddm|= 0.00946
  alpha nocc = 36  HOMO = -0.935072768470782  LUMO = -0.388673636043954
  beta  nocc = 36  HOMO = -0.883126577130866  LUMO = -0.401338478194709
cycle= 27 E= -3426.8866896163  delta_E= -1.18e-05  |g|= 0.00184  |ddm|= 0.0144
  alpha nocc = 36  HOMO = -0.935066848681418  LUMO = -0.388685192799071
  beta  nocc = 36  HOMO = -0.881336383448769  LUMO = -0.401575729209086
cycle= 28 E= -3426.88670763802  delta_E= -1.8e-05  |g|= 0.000893  |ddm|= 0.0187
  alpha nocc = 36  HOMO = -0.935023385507748  LUMO = -0.388694292730806
  beta  nocc = 36  HOMO = -0.88096818206047  LUMO = -0.401464229498928
cycle= 29 E= -3426.88671645026  delta_E= -8.81e-06  |g|= 0.000818  |ddm|= 0.0104
  alpha nocc = 36  HOMO = -0.935172725739589  LUMO = -0.388694957334855
  beta  nocc = 36  HOMO = -0.879987858901184  LUMO = -0.401787134884049
cycle= 30 E= -3426.88671931389  delta_E= -2.86e-06  |g|= 0.00067  |ddm|= 0.00257
  alpha nocc = 36  HOMO = -0.93480605155422  LUMO = -0.388703310860574
  beta  nocc = 36  HOMO = -0.881401139998352  LUMO = -0.401054074401421
cycle= 31 E= -3426.88672608917  delta_E= -6.78e-06  |g|= 0.000918  |ddm|= 0.00738
  alpha nocc = 36  HOMO = -0.934860232601215  LUMO = -0.388700615403018
  beta  nocc = 36  HOMO = -0.880605666465627  LUMO = -0.40122177019338
cycle= 32 E= -3426.88673250936  delta_E= -6.42e-06  |g|= 0.000658  |ddm|= 0.00712
  alpha nocc = 36  HOMO = -0.934683108146664  LUMO = -0.388715139002139
  beta  nocc = 36  HOMO = -0.880256209955431  LUMO = -0.400989348058687
cycle= 33 E= -3426.88674730964  delta_E= -1.48e-05  |g|= 0.000504  |ddm|= 0.0186
  alpha nocc = 36  HOMO = -0.934254361632765  LUMO = -0.388724670713169
  beta  nocc = 36  HOMO = -0.880447086238162  LUMO = -0.400355069874591
cycle= 34 E= -3426.88676305238  delta_E= -1.57e-05  |g|= 0.000575  |ddm|= 0.0253
  alpha nocc = 36  HOMO = -0.934260058709392  LUMO = -0.388726748920926
  beta  nocc = 36  HOMO = -0.879831160009174  LUMO = -0.400447469844679
cycle= 35 E= -3426.88676676848  delta_E= -3.72e-06  |g|= 0.000384  |ddm|= 0.00689
  alpha nocc = 36  HOMO = -0.934297228900289  LUMO = -0.388728889993442
  beta  nocc = 36  HOMO = -0.87951755594259  LUMO = -0.40052957098685
cycle= 36 E= -3426.88676804688  delta_E= -1.28e-06  |g|= 0.000309  |ddm|= 0.00236
  alpha nocc = 36  HOMO = -0.934270127057309  LUMO = -0.388729867869681
  beta  nocc = 36  HOMO = -0.879497207357275  LUMO = -0.400494525412802
cycle= 37 E= -3426.88676911026  delta_E= -1.06e-06  |g|= 0.000303  |ddm|= 0.00198
  alpha nocc = 36  HOMO = -0.934318505241059  LUMO = -0.388729044074602
  beta  nocc = 36  HOMO = -0.879303204854068  LUMO = -0.400605049884712
cycle= 38 E= -3426.88676871218  delta_E= 3.98e-07  |g|= 0.000288  |ddm|= 0.00175
  alpha nocc = 36  HOMO = -0.934302168994064  LUMO = -0.388728809343966
  beta  nocc = 36  HOMO = -0.879501709513413  LUMO = -0.400554235663136
cycle= 39 E= -3426.88676822787  delta_E= 4.84e-07  |g|= 0.000282  |ddm|= 0.00133
  alpha nocc = 36  HOMO = -0.934328086754924  LUMO = -0.38872761381985
  beta  nocc = 36  HOMO = -0.879461821614944  LUMO = -0.400604351062394
cycle= 40 E= -3426.8867674894  delta_E= 7.38e-07  |g|= 0.000273  |ddm|= 0.00168
  alpha nocc = 36  HOMO = -0.934331352172  LUMO = -0.388727694828645
  beta  nocc = 36  HOMO = -0.879447053949608  LUMO = -0.40061128190327
cycle= 41 E= -3426.88676746088  delta_E= 2.85e-08  |g|= 0.000273  |ddm|= 5.63e-05
  alpha nocc = 36  HOMO = -0.93433845276032  LUMO = -0.388727032592073
  beta  nocc = 36  HOMO = -0.879445335749224  LUMO = -0.400622826793658
cycle= 42 E= -3426.88676716798  delta_E= 2.93e-07  |g|= 0.000273  |ddm|= 0.000556
  alpha nocc = 36  HOMO = -0.934363450502988  LUMO = -0.388726626883149
  beta  nocc = 36  HOMO = -0.879448211002228  LUMO = -0.400662468012533
cycle= 43 E= -3426.88676601555  delta_E= 1.15e-06  |g|= 0.000273  |ddm|= 0.00211
  alpha nocc = 36  HOMO = -0.934362687834016  LUMO = -0.388726871538218
  beta  nocc = 36  HOMO = -0.879444275563735  LUMO = -0.400663220066154
cycle= 44 E= -3426.88676599815  delta_E= 1.74e-08  |g|= 0.000273  |ddm|= 0.000292
  alpha nocc = 36  HOMO = -0.934320933889549  LUMO = -0.388728738999435
  beta  nocc = 36  HOMO = -0.87941938138947  LUMO = -0.400601577526374
cycle= 45 E= -3426.88676770853  delta_E= -1.71e-06  |g|= 0.000275  |ddm|= 0.00333
  alpha nocc = 36  HOMO = -0.934188565836104  LUMO = -0.388735172872837
  beta  nocc = 36  HOMO = -0.87941365161727  LUMO = -0.400383981173453
cycle= 46 E= -3426.88677303257  delta_E= -5.32e-06  |g|= 0.000272  |ddm|= 0.0106
  alpha nocc = 36  HOMO = -0.934152672837997  LUMO = -0.388737372092397
  beta  nocc = 36  HOMO = -0.879339244858353  LUMO = -0.400324239414351
cycle= 47 E= -3426.88677514474  delta_E= -2.11e-06  |g|= 0.00027  |ddm|= 0.00466
  alpha nocc = 36  HOMO = -0.934116264947719  LUMO = -0.388738842971019
  beta  nocc = 36  HOMO = -0.879303193766565  LUMO = -0.400264775485766
cycle= 48 E= -3426.88677679045  delta_E= -1.65e-06  |g|= 0.000269  |ddm|= 0.00358
  alpha nocc = 36  HOMO = -0.934159304515996  LUMO = -0.388736649202145
  beta  nocc = 36  HOMO = -0.879263523787022  LUMO = -0.400349748541633
cycle= 49 E= -3426.88677518137  delta_E= 1.61e-06  |g|= 0.000268  |ddm|= 0.00349
  alpha nocc = 36  HOMO = -0.934034672349328  LUMO = -0.388740071590967
  beta  nocc = 36  HOMO = -0.879718036798055  LUMO = -0.400080029974579
cycle= 50 E= -3426.88677725975  delta_E= -2.08e-06  |g|= 0.000363  |ddm|= 0.00481
  alpha nocc = 36  HOMO = -0.933970863385792  LUMO = -0.388740914981393
  beta  nocc = 36  HOMO = -0.879966229831855  LUMO = -0.399950758995618
cycle= 51 E= -3426.88677767086  delta_E= -4.11e-07  |g|= 0.000465  |ddm|= 0.00199
  alpha nocc = 36  HOMO = -0.934092212823186  LUMO = -0.388738278771762
  beta  nocc = 36  HOMO = -0.879562242369775  LUMO = -0.400201970283194
cycle= 52 E= -3426.88677563532  delta_E= 2.04e-06  |g|= 0.000312  |ddm|= 0.00493
  alpha nocc = 36  HOMO = -0.934113389366818  LUMO = -0.388737446767491
  beta  nocc = 36  HOMO = -0.879495333478154  LUMO = -0.400245776440773
cycle= 53 E= -3426.88677523373  delta_E= 4.02e-07  |g|= 0.000296  |ddm|= 0.000971
  alpha nocc = 36  HOMO = -0.934184788261135  LUMO = -0.388735087065369
  beta  nocc = 36  HOMO = -0.879305668448885  LUMO = -0.400382536563504
cycle= 54 E= -3426.88677398508  delta_E= 1.25e-06  |g|= 0.000269  |ddm|= 0.00303
  alpha nocc = 36  HOMO = -0.934179528651064  LUMO = -0.388735642470504
  beta  nocc = 36  HOMO = -0.879286434551434  LUMO = -0.400375967078695
cycle= 55 E= -3426.88677422224  delta_E= -2.37e-07  |g|= 0.000268  |ddm|= 0.0006
  alpha nocc = 36  HOMO = -0.934170063638683  LUMO = -0.388735671706592
  beta  nocc = 36  HOMO = -0.879273806035661  LUMO = -0.400359098136685
cycle= 56 E= -3426.88677464087  delta_E= -4.19e-07  |g|= 0.000266  |ddm|= 0.000891
  alpha nocc = 36  HOMO = -0.934149122183552  LUMO = -0.388737557919307
  beta  nocc = 36  HOMO = -0.879269846944387  LUMO = -0.400314315524874
cycle= 57 E= -3426.88677577698  delta_E= -1.14e-06  |g|= 0.000263  |ddm|= 0.00248
  alpha nocc = 36  HOMO = -0.934116891622092  LUMO = -0.388738553864298
  beta  nocc = 36  HOMO = -0.879239667198557  LUMO = -0.400266799435473
cycle= 58 E= -3426.88677705518  delta_E= -1.28e-06  |g|= 0.000259  |ddm|= 0.00276
  alpha nocc = 36  HOMO = -0.934083314178457  LUMO = -0.388740169561855
  beta  nocc = 36  HOMO = -0.879220986816201  LUMO = -0.400209891408375
cycle= 59 E= -3426.8867786416  delta_E= -1.59e-06  |g|= 0.000254  |ddm|= 0.00347
  alpha nocc = 36  HOMO = -0.93407969245724  LUMO = -0.388740238029068
  beta  nocc = 36  HOMO = -0.879209079410873  LUMO = -0.400205166349022
cycle= 60 E= -3426.88677888916  delta_E= -2.48e-07  |g|= 0.000254  |ddm|= 0.000516
  alpha nocc = 36  HOMO = -0.934101787760228  LUMO = -0.388739583106596
  beta  nocc = 36  HOMO = -0.879223822676371  LUMO = -0.400240174453554
cycle= 61 E= -3426.88677794397  delta_E= 9.45e-07  |g|= 0.000254  |ddm|= 0.00202
  alpha nocc = 36  HOMO = -0.934124010144905  LUMO = -0.388738822762372
  beta  nocc = 36  HOMO = -0.879256836382125  LUMO = -0.400276084386279
cycle= 62 E= -3426.88677665146  delta_E= 1.29e-06  |g|= 0.000255  |ddm|= 0.00268
  alpha nocc = 36  HOMO = -0.934156711651748  LUMO = -0.388736938239401
  beta  nocc = 36  HOMO = -0.879261580275853  LUMO = -0.400334586227458
cycle= 63 E= -3426.88677525686  delta_E= 1.39e-06  |g|= 0.000253  |ddm|= 0.00306
  alpha nocc = 36  HOMO = -0.93417345942359  LUMO = -0.38873582427952
  beta  nocc = 36  HOMO = -0.879280197412734  LUMO = -0.400357308848389
cycle= 64 E= -3426.88677465241  delta_E= 6.04e-07  |g|= 0.000251  |ddm|= 0.00136
  alpha nocc = 36  HOMO = -0.934197546186474  LUMO = -0.388734846240635
  beta  nocc = 36  HOMO = -0.879306253739074  LUMO = -0.40040046299947
cycle= 65 E= -3426.88677344523  delta_E= 1.21e-06  |g|= 0.000248  |ddm|= 0.00267
  alpha nocc = 36  HOMO = -0.934209518593748  LUMO = -0.388733642249013
  beta  nocc = 36  HOMO = -0.879319034882415  LUMO = -0.400422908878448
cycle= 66 E= -3426.88677285474  delta_E= 5.9e-07  |g|= 0.000243  |ddm|= 0.00139
  alpha nocc = 36  HOMO = -0.934219638054571  LUMO = -0.388733555836462
  beta  nocc = 36  HOMO = -0.879327662299949  LUMO = -0.400438841985613
cycle= 67 E= -3426.88677250923  delta_E= 3.46e-07  |g|= 0.000241  |ddm|= 0.000869
  alpha nocc = 36  HOMO = -0.934213683715063  LUMO = -0.38873381008758
  beta  nocc = 36  HOMO = -0.879312803744366  LUMO = -0.400431527210448
cycle= 68 E= -3426.88677279359  delta_E= -2.84e-07  |g|= 0.000239  |ddm|= 0.000582
  alpha nocc = 36  HOMO = -0.934207257126888  LUMO = -0.388734288005685
  beta  nocc = 36  HOMO = -0.87931741674792  LUMO = -0.400416732102099
cycle= 69 E= -3426.88677313507  delta_E= -3.41e-07  |g|= 0.000238  |ddm|= 0.000711
  alpha nocc = 36  HOMO = -0.934179468841177  LUMO = -0.388735168390709
  beta  nocc = 36  HOMO = -0.879293818870394  LUMO = -0.400374259140997
cycle= 70 E= -3426.88677427649  delta_E= -1.14e-06  |g|= 0.000236  |ddm|= 0.00241
  alpha nocc = 36  HOMO = -0.934182759333983  LUMO = -0.388734983335899
  beta  nocc = 36  HOMO = -0.879300565737595  LUMO = -0.400379690212007
cycle= 71 E= -3426.88677406195  delta_E= 2.15e-07  |g|= 0.000236  |ddm|= 0.000433
  alpha nocc = 36  HOMO = -0.934173177143798  LUMO = -0.388735601544286
  beta  nocc = 36  HOMO = -0.879283470361968  LUMO = -0.40036500633951
cycle= 72 E= -3426.88677462399  delta_E= -5.62e-07  |g|= 0.000237  |ddm|= 0.00116
  alpha nocc = 36  HOMO = -0.934184287304472  LUMO = -0.388734952429689
  beta  nocc = 36  HOMO = -0.879291365741263  LUMO = -0.400381642797769
cycle= 73 E= -3426.88677418392  delta_E= 4.4e-07  |g|= 0.000236  |ddm|= 0.00095
  alpha nocc = 36  HOMO = -0.934201026549582  LUMO = -0.388734344694585
  beta  nocc = 36  HOMO = -0.879307364477053  LUMO = -0.400410705469029
cycle= 74 E= -3426.88677336123  delta_E= 8.23e-07  |g|= 0.000235  |ddm|= 0.00179
  alpha nocc = 36  HOMO = -0.934204890249087  LUMO = -0.388733965944429
  beta  nocc = 36  HOMO = -0.879311543466637  LUMO = -0.400417363338522
cycle= 75 E= -3426.88677317875  delta_E= 1.82e-07  |g|= 0.000234  |ddm|= 0.000427
  alpha nocc = 36  HOMO = -0.934198005486847  LUMO = -0.388734236845921
  beta  nocc = 36  HOMO = -0.879305505221245  LUMO = -0.400405016067513
cycle= 76 E= -3426.88677345145  delta_E= -2.73e-07  |g|= 0.000234  |ddm|= 0.000653
  alpha nocc = 36  HOMO = -0.934201797995602  LUMO = -0.388734533051823
  beta  nocc = 36  HOMO = -0.879303740888831  LUMO = -0.400406608249529
cycle= 77 E= -3426.88677345321  delta_E= -1.76e-09  |g|= 0.000234  |ddm|= 0.000246
  alpha nocc = 36  HOMO = -0.934202379335002  LUMO = -0.388734502267304
  beta  nocc = 36  HOMO = -0.87930069024419  LUMO = -0.400410541271715
cycle= 78 E= -3426.88677333166  delta_E= 1.22e-07  |g|= 0.000235  |ddm|= 0.000363
  alpha nocc = 36  HOMO = -0.934218635677923  LUMO = -0.388733981203561
  beta  nocc = 36  HOMO = -0.879325856881737  LUMO = -0.400435281886988
cycle= 79 E= -3426.88677254232  delta_E= 7.89e-07  |g|= 0.000236  |ddm|= 0.0016
  alpha nocc = 36  HOMO = -0.934225698980992  LUMO = -0.388733485703536
  beta  nocc = 36  HOMO = -0.879334879082689  LUMO = -0.400449309503042
cycle= 80 E= -3426.88677209777  delta_E= 4.45e-07  |g|= 0.000236  |ddm|= 0.000874
  alpha nocc = 36  HOMO = -0.934246394477858  LUMO = -0.388731896304554
  beta  nocc = 36  HOMO = -0.879351075023439  LUMO = -0.400486649739161
cycle= 81 E= -3426.88677091932  delta_E= 1.18e-06  |g|= 0.000232  |ddm|= 0.0024
  alpha nocc = 36  HOMO = -0.934259802382741  LUMO = -0.388731686588314
  beta  nocc = 36  HOMO = -0.879350862867168  LUMO = -0.400497980555217
cycle= 82 E= -3426.88677071965  delta_E= 2e-07  |g|= 0.000225  |ddm|= 0.000645
  alpha nocc = 36  HOMO = -0.934257369845373  LUMO = -0.388732316596378
  beta  nocc = 36  HOMO = -0.879347305160231  LUMO = -0.40049635110837
cycle= 83 E= -3426.88677073688  delta_E= -1.72e-08  |g|= 0.000222  |ddm|= 0.000522
  alpha nocc = 36  HOMO = -0.93424288658497  LUMO = -0.388731881968022
  beta  nocc = 36  HOMO = -0.879334070659403  LUMO = -0.400476813919473
cycle= 84 E= -3426.88677128787  delta_E= -5.51e-07  |g|= 0.000213  |ddm|= 0.00133
  alpha nocc = 36  HOMO = -0.934218733100674  LUMO = -0.388733746484453
  beta  nocc = 36  HOMO = -0.879323470761584  LUMO = -0.400441087322126
cycle= 85 E= -3426.88677231415  delta_E= -1.03e-06  |g|= 0.000205  |ddm|= 0.00225
  alpha nocc = 36  HOMO = -0.934173247519582  LUMO = -0.388734498624214
  beta  nocc = 36  HOMO = -0.879298951187157  LUMO = -0.400379268676279
cycle= 86 E= -3426.88677389694  delta_E= -1.58e-06  |g|= 0.000202  |ddm|= 0.00351
  alpha nocc = 36  HOMO = -0.934132378629054  LUMO = -0.388735904447447
  beta  nocc = 36  HOMO = -0.879265003713392  LUMO = -0.400318953237812
cycle= 87 E= -3426.88677542352  delta_E= -1.53e-06  |g|= 0.000196  |ddm|= 0.00344
  alpha nocc = 36  HOMO = -0.934048239339058  LUMO = -0.388740200940515
  beta  nocc = 36  HOMO = -0.879239175234324  LUMO = -0.400151209374955
cycle= 88 E= -3426.88677931682  delta_E= -3.89e-06  |g|= 0.000198  |ddm|= 0.00931
  alpha nocc = 36  HOMO = -0.93395761914368  LUMO = -0.38874298495303
  beta  nocc = 36  HOMO = -0.879176125649265  LUMO = -0.400007805518479
cycle= 89 E= -3426.88678234837  delta_E= -3.03e-06  |g|= 0.000192  |ddm|= 0.00807
  alpha nocc = 36  HOMO = -0.933941920279852  LUMO = -0.38874423344876
  beta  nocc = 36  HOMO = -0.879115896875491  LUMO = -0.39998617432751
cycle= 90 E= -3426.88678329529  delta_E= -9.47e-07  |g|= 0.000185  |ddm|= 0.00256
  alpha nocc = 36  HOMO = -0.933626401399124  LUMO = -0.388757279679552
  beta  nocc = 36  HOMO = -0.879474386822648  LUMO = -0.39934491958494
cycle= 91 E= -3426.88679158834  delta_E= -8.29e-06  |g|= 0.000348  |ddm|= 0.0262
  alpha nocc = 36  HOMO = -0.933580744454771  LUMO = -0.388759870812908
  beta  nocc = 36  HOMO = -0.879405523193229  LUMO = -0.39927477740526
cycle= 92 E= -3426.88679321353  delta_E= -1.63e-06  |g|= 0.000335  |ddm|= 0.00567
  alpha nocc = 36  HOMO = -0.933200098334631  LUMO = -0.388770065380277
  beta  nocc = 36  HOMO = -0.880238639592992  LUMO = -0.398455854306443
cycle= 93 E= -3426.8867992583  delta_E= -6.04e-06  |g|= 0.000787  |ddm|= 0.0264
  alpha nocc = 36  HOMO = -0.933212927517755  LUMO = -0.388769923230196
  beta  nocc = 36  HOMO = -0.880129566088599  LUMO = -0.398488731566819
cycle= 94 E= -3426.88679949416  delta_E= -2.36e-07  |g|= 0.00074  |ddm|= 0.000989
  alpha nocc = 36  HOMO = -0.933380045536623  LUMO = -0.388767543532881
  beta  nocc = 36  HOMO = -0.87938095301577  LUMO = -0.398893063330575
cycle= 95 E= -3426.88679849998  delta_E= 9.94e-07  |g|= 0.000361  |ddm|= 0.00587
  alpha nocc = 36  HOMO = -0.93345039713597  LUMO = -0.388766835044385
  beta  nocc = 36  HOMO = -0.878931405899947  LUMO = -0.399061860834994
cycle= 96 E= -3426.88679882413  delta_E= -3.24e-07  |g|= 0.000182  |ddm|= 0.0015
  alpha nocc = 36  HOMO = -0.933381192545788  LUMO = -0.388770259433795
  beta  nocc = 36  HOMO = -0.879068803434063  LUMO = -0.398894558329148
cycle= 97 E= -3426.88680010244  delta_E= -1.28e-06  |g|= 0.000244  |ddm|= 0.00638
  alpha nocc = 36  HOMO = -0.933478904186183  LUMO = -0.388768228314813
  beta  nocc = 36  HOMO = -0.878584269589554  LUMO = -0.399130051041408
cycle= 98 E= -3426.88679973188  delta_E= 3.71e-07  |g|= 0.000143  |ddm|= 0.00194
  alpha nocc = 36  HOMO = -0.933417763436774  LUMO = -0.388770071502317
  beta  nocc = 36  HOMO = -0.878806027422297  LUMO = -0.398975644577652
cycle= 99 E= -3426.88680057681  delta_E= -8.45e-07  |g|= 0.000138  |ddm|= 0.00365
  alpha nocc = 36  HOMO = -0.933380716443279  LUMO = -0.388772083153451
  beta  nocc = 36  HOMO = -0.878795574712066  LUMO = -0.3988812999098
cycle= 100 E= -3426.88680179869  delta_E= -1.22e-06  |g|= 0.000138  |ddm|= 0.00632
SCF not converged.
SCF energy = -3426.88680179869 after 100 cycles  <S^2> = 2.0138393  2S+1 = 3.009212
**** checking UHF/UKS internal stability ...
tol 0.0001  toloose 0.01
max_cycle 50  max_space 12  max_memory 2000  incore True
davidson 0 1  |r|= 4.36  e= [2.99497589]  max|de|= 2.99  lindep= 0.998
davidson 1 2  |r|= 0.383  e= [2.48215763]  max|de|= -0.513  lindep=    1
davidson 2 3  |r|= 0.213  e= [2.06920883]  max|de|= -0.413  lindep= 0.999
davidson 3 4  |r|= 0.279  e= [1.58281314]  max|de|= -0.486  lindep=    1
davidson 4 5  |r|= 0.457  e= [1.00806652]  max|de|= -0.575  lindep= 0.998
davidson 5 6  |r|= 0.695  e= [0.33964821]  max|de|= -0.668  lindep= 0.999
davidson 6 7  |r|= 0.68  e= [0.15509536]  max|de|= -0.185  lindep= 0.946
davidson 7 8  |r|= 0.167  e= [0.0802016]  max|de|= -0.0749  lindep= 0.967
davidson 8 9  |r|= 0.12  e= [0.06731693]  max|de|= -0.0129  lindep= 0.965
davidson 9 10  |r|= 0.112  e= [0.0598177]  max|de|= -0.0075  lindep= 0.913
davidson 10 11  |r|= 0.257  e= [-0.0188708]  max|de|= -0.0787  lindep= 0.963
davidson 11 12  |r|= 0.101  e= [-0.03813041]  max|de|= -0.0193  lindep= 0.979
davidson 12 1  |r|= 0.101  e= [-0.03813041]  max|de|= -5.41e-16  lindep=    1
davidson 13 2  |r|= 0.0475  e= [-0.03968061]  max|de|= -0.00155  lindep= 0.964
davidson 14 3  |r|= 0.0301  e= [-0.04023507]  max|de|= -0.000554  lindep= 0.967
davidson 15 4  |r|= 0.0103  e= [-0.04037431]  max|de|= -0.000139  lindep= 0.98
root 0 converged  |r|= 0.00829  e= -0.04041312302369975  max|de|= -3.88e-05
converged 16 5  |r|= 0.00829  e= [-0.04041312]  max|de|= -3.88e-05
UHF/UKS wavefunction has an internal instability.


******** <class 'pyscf.scf.uhf.UHF'> ********
method = UHF
initial guess = minao
damping factor = 0
level_shift factor = 0
DIIS = <class 'pyscf.scf.diis.CDIIS'>
diis_start_cycle = 1
diis_space = 8
SCF conv_tol = 1e-09
SCF conv_tol_grad = None
SCF max_cycles = 100
direct_scf = True
direct_scf_tol = 1e-13
chkfile to save SCF result = /share/home/srwang/ExSCF/examples/tmpcdgx8yq0
max_memory 4000 MB (current use 1294 MB)
number electrons alpha = 36  beta = 36
Set gradient conv threshold to 3.16228e-05
init E= -3426.88759631908
  alpha nocc = 36  HOMO = -0.958482519502886  LUMO = -0.387582358333274
  beta  nocc = 36  HOMO = -0.913163842267263  LUMO = -0.395080016206627
cycle= 1 E= -3426.89542125158  delta_E= -0.00782  |g|= 0.0387  |ddm|= 0.0844
  alpha nocc = 36  HOMO = -0.953028999158938  LUMO = -0.38758445609053
  beta  nocc = 36  HOMO = -0.898991015228739  LUMO = -0.394464619555423
cycle= 2 E= -3426.89618963285  delta_E= -0.000768  |g|= 0.0151  |ddm|= 0.0299
  alpha nocc = 36  HOMO = -0.962802006785522  LUMO = -0.3876694094358
  beta  nocc = 36  HOMO = -0.903040862407102  LUMO = -0.394731091846332
cycle= 3 E= -3426.89633706967  delta_E= -0.000147  |g|= 0.00946  |ddm|= 0.0156
  alpha nocc = 36  HOMO = -0.961568891461381  LUMO = -0.387726499632239
  beta  nocc = 36  HOMO = -0.899706618876224  LUMO = -0.394699083719368
cycle= 4 E= -3426.89638598919  delta_E= -4.89e-05  |g|= 0.00391  |ddm|= 0.00711
  alpha nocc = 36  HOMO = -0.962223883670122  LUMO = -0.387657933796581
  beta  nocc = 36  HOMO = -0.899108544975144  LUMO = -0.394654509230743
cycle= 5 E= -3426.89640274572  delta_E= -1.68e-05  |g|= 0.00326  |ddm|= 0.00407
  alpha nocc = 36  HOMO = -0.963147600040027  LUMO = -0.38770591887972
  beta  nocc = 36  HOMO = -0.8989136482648  LUMO = -0.394757045896553
cycle= 6 E= -3426.89641772457  delta_E= -1.5e-05  |g|= 0.00177  |ddm|= 0.00415
  alpha nocc = 36  HOMO = -0.963418536098338  LUMO = -0.387679791262259
  beta  nocc = 36  HOMO = -0.898868518243439  LUMO = -0.394795703270679
cycle= 7 E= -3426.89643318855  delta_E= -1.55e-05  |g|= 0.00159  |ddm|= 0.00434
  alpha nocc = 36  HOMO = -0.963674024820083  LUMO = -0.387664171783398
  beta  nocc = 36  HOMO = -0.898956395791801  LUMO = -0.394838752392656
cycle= 8 E= -3426.89644932064  delta_E= -1.61e-05  |g|= 0.00145  |ddm|= 0.00491
  alpha nocc = 36  HOMO = -0.964181323460616  LUMO = -0.38763623950144
  beta  nocc = 36  HOMO = -0.899468111719949  LUMO = -0.39491762344669
cycle= 9 E= -3426.89647979097  delta_E= -3.05e-05  |g|= 0.00116  |ddm|= 0.011
  alpha nocc = 36  HOMO = -0.964722165240461  LUMO = -0.387601060384281
  beta  nocc = 36  HOMO = -0.900321566396847  LUMO = -0.394984794137231
cycle= 10 E= -3426.89650850136  delta_E= -2.87e-05  |g|= 0.000803  |ddm|= 0.0153
  alpha nocc = 36  HOMO = -0.964921913620606  LUMO = -0.387604655148112
  beta  nocc = 36  HOMO = -0.900620677604379  LUMO = -0.395015932264597
cycle= 11 E= -3426.89651706172  delta_E= -8.56e-06  |g|= 0.000669  |ddm|= 0.0068
  alpha nocc = 36  HOMO = -0.96497124926712  LUMO = -0.387602800303454
  beta  nocc = 36  HOMO = -0.900770578732866  LUMO = -0.395018808623802
cycle= 12 E= -3426.89652051954  delta_E= -3.46e-06  |g|= 0.000645  |ddm|= 0.00287
  alpha nocc = 36  HOMO = -0.964969197961562  LUMO = -0.387602311590609
  beta  nocc = 36  HOMO = -0.900790156448625  LUMO = -0.395017692522548
cycle= 13 E= -3426.89652211814  delta_E= -1.6e-06  |g|= 0.000641  |ddm|= 0.00111
  alpha nocc = 36  HOMO = -0.96496632989967  LUMO = -0.387602032205485
  beta  nocc = 36  HOMO = -0.900805672462822  LUMO = -0.395017095499794
cycle= 14 E= -3426.89652404448  delta_E= -1.93e-06  |g|= 0.000634  |ddm|= 0.00133
  alpha nocc = 36  HOMO = -0.964961884263521  LUMO = -0.387600760208929
  beta  nocc = 36  HOMO = -0.900823729394479  LUMO = -0.395015753812073
cycle= 15 E= -3426.89652602391  delta_E= -1.98e-06  |g|= 0.000632  |ddm|= 0.00137
  alpha nocc = 36  HOMO = -0.964968049177837  LUMO = -0.387600274247081
  beta  nocc = 36  HOMO = -0.90083182870009  LUMO = -0.395017054303288
cycle= 16 E= -3426.89652626122  delta_E= -2.37e-07  |g|= 0.000631  |ddm|= 0.000198
  alpha nocc = 36  HOMO = -0.964961825017358  LUMO = -0.387600809511649
  beta  nocc = 36  HOMO = -0.900820128206027  LUMO = -0.395015861934944
cycle= 17 E= -3426.8965262087  delta_E= 5.25e-08  |g|= 0.000631  |ddm|= 0.000144
  alpha nocc = 36  HOMO = -0.964957368622499  LUMO = -0.387601413179069
  beta  nocc = 36  HOMO = -0.90081567137335  LUMO = -0.395014707682546
cycle= 18 E= -3426.89652591114  delta_E= 2.98e-07  |g|= 0.000632  |ddm|= 0.000249
  alpha nocc = 36  HOMO = -0.96496133054898  LUMO = -0.387601302450102
  beta  nocc = 36  HOMO = -0.900818893942549  LUMO = -0.395015399506375
cycle= 19 E= -3426.89652585339  delta_E= 5.78e-08  |g|= 0.000632  |ddm|= 7.6e-05
  alpha nocc = 36  HOMO = -0.964964706260183  LUMO = -0.387600663058269
  beta  nocc = 36  HOMO = -0.900831217507744  LUMO = -0.39501598329413
cycle= 20 E= -3426.89652588953  delta_E= -3.61e-08  |g|= 0.000631  |ddm|= 0.000226
  alpha nocc = 36  HOMO = -0.964975967344312  LUMO = -0.38760104695309
  beta  nocc = 36  HOMO = -0.900844273923867  LUMO = -0.395018790764758
cycle= 21 E= -3426.89652525118  delta_E= 6.38e-07  |g|= 0.000629  |ddm|= 0.000599
  alpha nocc = 36  HOMO = -0.965005183672969  LUMO = -0.387600816447572
  beta  nocc = 36  HOMO = -0.900864581481428  LUMO = -0.395020812992824
cycle= 22 E= -3426.89652417745  delta_E= 1.07e-06  |g|= 0.00063  |ddm|= 0.000834
  alpha nocc = 36  HOMO = -0.965050370298546  LUMO = -0.387600610377523
  beta  nocc = 36  HOMO = -0.900870028242215  LUMO = -0.39502586716466
cycle= 23 E= -3426.89651906674  delta_E= 5.11e-06  |g|= 0.000632  |ddm|= 0.0038
  alpha nocc = 36  HOMO = -0.965113444074181  LUMO = -0.387602786511129
  beta  nocc = 36  HOMO = -0.90087889431966  LUMO = -0.395035909526107
cycle= 24 E= -3426.89650655894  delta_E= 1.25e-05  |g|= 0.000607  |ddm|= 0.0095
  alpha nocc = 36  HOMO = -0.965222006331456  LUMO = -0.387598230979291
  beta  nocc = 36  HOMO = -0.90155623514959  LUMO = -0.39503293664203
cycle= 25 E= -3426.89646651056  delta_E= 4e-05  |g|= 0.00074  |ddm|= 0.0355
  alpha nocc = 36  HOMO = -0.965218455456761  LUMO = -0.387599349904459
  beta  nocc = 36  HOMO = -0.901970119656086  LUMO = -0.395022922578933
cycle= 26 E= -3426.89646283523  delta_E= 3.68e-06  |g|= 0.000922  |ddm|= 0.00365
  alpha nocc = 36  HOMO = -0.965139657204809  LUMO = -0.387594058675644
  beta  nocc = 36  HOMO = -0.902240352345447  LUMO = -0.395013260620926
cycle= 27 E= -3426.89643819682  delta_E= 2.46e-05  |g|= 0.00109  |ddm|= 0.0317
  alpha nocc = 36  HOMO = -0.965244653785474  LUMO = -0.387595925564912
  beta  nocc = 36  HOMO = -0.901452946538972  LUMO = -0.395042511853922
cycle= 28 E= -3426.8964410201  delta_E= -2.82e-06  |g|= 0.000727  |ddm|= 0.00336
  alpha nocc = 36  HOMO = -0.965187521397927  LUMO = -0.387591239214344
  beta  nocc = 36  HOMO = -0.90192228570692  LUMO = -0.395022928302071
cycle= 29 E= -3426.89643370454  delta_E= 7.32e-06  |g|= 0.000908  |ddm|= 0.0124
  alpha nocc = 36  HOMO = -0.965297034505064  LUMO = -0.387590442681564
  beta  nocc = 36  HOMO = -0.901223222462549  LUMO = -0.395047137207635
cycle= 30 E= -3426.89643268857  delta_E= 1.02e-06  |g|= 0.000577  |ddm|= 0.00397
  alpha nocc = 36  HOMO = -0.965433056544996  LUMO = -0.387594376990581
  beta  nocc = 36  HOMO = -0.900495467164016  LUMO = -0.39507472515192
cycle= 31 E= -3426.89642795453  delta_E= 4.73e-06  |g|= 0.000306  |ddm|= 0.0144
  alpha nocc = 36  HOMO = -0.96554800641882  LUMO = -0.387593325850134
  beta  nocc = 36  HOMO = -0.899752076981308  LUMO = -0.3950967442906
cycle= 32 E= -3426.89642522671  delta_E= 2.73e-06  |g|= 0.000367  |ddm|= 0.0128
  alpha nocc = 36  HOMO = -0.965450514896484  LUMO = -0.387598628811684
  beta  nocc = 36  HOMO = -0.900083589337554  LUMO = -0.39508158582483
cycle= 33 E= -3426.89642412418  delta_E= 1.1e-06  |g|= 0.000164  |ddm|= 0.0113
  alpha nocc = 36  HOMO = -0.96543201039306  LUMO = -0.387598852396931
  beta  nocc = 36  HOMO = -0.900032154886237  LUMO = -0.395079260101855
cycle= 34 E= -3426.89642401424  delta_E= 1.1e-07  |g|= 0.00015  |ddm|= 0.00532
  alpha nocc = 36  HOMO = -0.96538198393329  LUMO = -0.387599109450616
  beta  nocc = 36  HOMO = -0.900235514528178  LUMO = -0.395069053360859
cycle= 35 E= -3426.8964240488  delta_E= -3.46e-08  |g|= 0.000109  |ddm|= 0.00383
  alpha nocc = 36  HOMO = -0.96537754371299  LUMO = -0.387598674798905
  beta  nocc = 36  HOMO = -0.900161450147424  LUMO = -0.395069125578762
cycle= 36 E= -3426.89642413473  delta_E= -8.59e-08  |g|= 8.43e-05  |ddm|= 0.00153
  alpha nocc = 36  HOMO = -0.965381138512771  LUMO = -0.387599104381856
  beta  nocc = 36  HOMO = -0.900146002670046  LUMO = -0.395069832736969
cycle= 37 E= -3426.89642417758  delta_E= -4.29e-08  |g|= 7.86e-05  |ddm|= 0.000542
  alpha nocc = 36  HOMO = -0.965384503752206  LUMO = -0.387598988643653
  beta  nocc = 36  HOMO = -0.900074200480123  LUMO = -0.395071768778568
cycle= 38 E= -3426.89642418507  delta_E= -7.49e-09  |g|= 8.18e-05  |ddm|= 0.000907
  alpha nocc = 36  HOMO = -0.965372563956421  LUMO = -0.387599139786869
  beta  nocc = 36  HOMO = -0.900126813774873  LUMO = -0.395069721301156
cycle= 39 E= -3426.89642418982  delta_E= -4.75e-09  |g|= 6.54e-05  |ddm|= 0.000709
  alpha nocc = 36  HOMO = -0.965360471156621  LUMO = -0.387599551223564
  beta  nocc = 36  HOMO = -0.900161607765547  LUMO = -0.395068345116156
cycle= 40 E= -3426.89642421059  delta_E= -2.08e-08  |g|= 4.87e-05  |ddm|= 0.00185
  alpha nocc = 36  HOMO = -0.965360324210715  LUMO = -0.387599280645868
  beta  nocc = 36  HOMO = -0.900144163511392  LUMO = -0.39506862289172
cycle= 41 E= -3426.89642422923  delta_E= -1.86e-08  |g|= 4.19e-05  |ddm|= 0.000761
  alpha nocc = 36  HOMO = -0.965365571213888  LUMO = -0.387599151811061
  beta  nocc = 36  HOMO = -0.900137477789777  LUMO = -0.395069286832357
cycle= 42 E= -3426.8964242466  delta_E= -1.74e-08  |g|= 3.16e-05  |ddm|= 0.00043
  alpha nocc = 36  HOMO = -0.965365213871603  LUMO = -0.387599041032671
  beta  nocc = 36  HOMO = -0.900135725915347  LUMO = -0.395069526544383
cycle= 43 E= -3426.89642425426  delta_E= -7.66e-09  |g|= 2.55e-05  |ddm|= 0.000264
  alpha nocc = 36  HOMO = -0.96536536477256  LUMO = -0.387598803738126
  beta  nocc = 36  HOMO = -0.900142558935207  LUMO = -0.395069616806286
cycle= 44 E= -3426.89642426274  delta_E= -8.48e-09  |g|= 2.14e-05  |ddm|= 0.000735
  alpha nocc = 36  HOMO = -0.965365214276263  LUMO = -0.387599019345655
  beta  nocc = 36  HOMO = -0.900143393233452  LUMO = -0.395070107405923
cycle= 45 E= -3426.89642426947  delta_E= -6.73e-09  |g|= 1.36e-05  |ddm|= 0.000565
  alpha nocc = 36  HOMO = -0.965363735771027  LUMO = -0.387598939421861
  beta  nocc = 36  HOMO = -0.900142363249312  LUMO = -0.395069919093671
cycle= 46 E= -3426.89642427233  delta_E= -2.86e-09  |g|= 1.03e-05  |ddm|= 0.000207
  alpha nocc = 36  HOMO = -0.965364077516605  LUMO = -0.387599018241112
  beta  nocc = 36  HOMO = -0.900143345552379  LUMO = -0.395069893468291
cycle= 47 E= -3426.89642427401  delta_E= -1.67e-09  |g|= 9.31e-06  |ddm|= 0.000117
  alpha nocc = 36  HOMO = -0.965363530037817  LUMO = -0.387599019239534
  beta  nocc = 36  HOMO = -0.900142608873599  LUMO = -0.395069729261437
cycle= 48 E= -3426.89642427469  delta_E= -6.86e-10  |g|= 8.59e-06  |ddm|= 4.23e-05
  alpha nocc = 36  HOMO = -0.965363793268057  LUMO = -0.387599052188385
  beta  nocc = 36  HOMO = -0.900143019166216  LUMO = -0.395069764331154
Extra cycle  E= -3426.89642427483  delta_E= -1.36e-10  |g|= 8.38e-06  |ddm|= 8.31e-06
converged SCF energy = -3426.89642427483  <S^2> = 1.9791946  2S+1 = 2.9860975
**** checking UHF/UKS internal stability ...
tol 0.0001  toloose 0.01
max_cycle 50  max_space 12  max_memory 2000  incore True
davidson 0 1  |r|= 4.38  e= [2.98753958]  max|de|= 2.99  lindep= 0.991
davidson 1 2  |r|= 0.674  e= [2.49082684]  max|de|= -0.497  lindep=    1
davidson 2 3  |r|= 0.296  e= [2.07016247]  max|de|= -0.421  lindep=    1
davidson 3 4  |r|= 0.324  e= [1.59254683]  max|de|= -0.478  lindep=    1
davidson 4 5  |r|= 0.292  e= [1.15648099]  max|de|= -0.436  lindep= 0.999
davidson 5 6  |r|= 0.242  e= [0.72631398]  max|de|= -0.43  lindep=    1
davidson 6 7  |r|= 0.599  e= [0.47543487]  max|de|= -0.251  lindep= 0.954
davidson 7 8  |r|= 0.549  e= [0.12654281]  max|de|= -0.349  lindep= 0.991
davidson 8 9  |r|= 0.285  e= [0.03977743]  max|de|= -0.0868  lindep= 0.979
davidson 9 10  |r|= 0.194  e= [0.009964]  max|de|= -0.0298  lindep= 0.953
davidson 10 11  |r|= 0.109  e= [0.00292401]  max|de|= -0.00704  lindep= 0.935
davidson 11 12  |r|= 0.084  e= [-0.00054662]  max|de|= -0.00347  lindep= 0.903
davidson 12 1  |r|= 0.084  e= [-0.00054662]  max|de|= 7.49e-16  lindep= 0.997
davidson 13 2  |r|= 0.0583  e= [-0.00215684]  max|de|= -0.00161  lindep= 0.908
davidson 14 3  |r|= 0.0776  e= [-0.00377144]  max|de|= -0.00161  lindep= 0.954
davidson 15 4  |r|= 0.0396  e= [-0.00526781]  max|de|= -0.0015  lindep= 0.934
davidson 16 5  |r|= 0.0254  e= [-0.00587331]  max|de|= -0.000606  lindep= 0.95
davidson 17 6  |r|= 0.01  e= [-0.00606051]  max|de|= -0.000187  lindep= 0.956
root 0 converged  |r|= 0.00663  e= -0.006110277785499472  max|de|= -4.98e-05
converged 18 7  |r|= 0.00663  e= [-0.00611028]  max|de|= -4.98e-05
UHF/UKS wavefunction has an internal instability.


******** <class 'pyscf.scf.uhf.UHF'> ********
method = UHF
initial guess = minao
damping factor = 0
level_shift factor = 0
DIIS = <class 'pyscf.scf.diis.CDIIS'>
diis_start_cycle = 1
diis_space = 8
SCF conv_tol = 1e-09
SCF conv_tol_grad = None
SCF max_cycles = 100
direct_scf = True
direct_scf_tol = 1e-13
chkfile to save SCF result = /share/home/srwang/ExSCF/examples/tmpcdgx8yq0
max_memory 4000 MB (current use 1295 MB)
number electrons alpha = 36  beta = 36
Set gradient conv threshold to 3.16228e-05
init E= -3426.88086198685
  alpha nocc = 36  HOMO = -0.956462370285274  LUMO = -0.387835471556325
  beta  nocc = 36  HOMO = -0.923280443969674  LUMO = -0.394342457346062
cycle= 1 E= -3426.89536999994  delta_E= -0.0145  |g|= 0.0459  |ddm|= 0.0929
  alpha nocc = 36  HOMO = -0.950790340496308  LUMO = -0.387560080541974
  beta  nocc = 36  HOMO = -0.915679147225174  LUMO = -0.394268682634631
cycle= 2 E= -3426.89708876629  delta_E= -0.00172  |g|= 0.0201  |ddm|= 0.0378
  alpha nocc = 36  HOMO = -0.959525767966872  LUMO = -0.387706089377833
  beta  nocc = 36  HOMO = -0.918696307017653  LUMO = -0.39447168472569
cycle= 3 E= -3426.8974426579  delta_E= -0.000354  |g|= 0.0137  |ddm|= 0.0199
  alpha nocc = 36  HOMO = -0.958210671560454  LUMO = -0.387542908005065
  beta  nocc = 36  HOMO = -0.915062742734688  LUMO = -0.394345739786759
cycle= 4 E= -3426.89757155471  delta_E= -0.000129  |g|= 0.00587  |ddm|= 0.0112
  alpha nocc = 36  HOMO = -0.958959748796334  LUMO = -0.38766753083247
  beta  nocc = 36  HOMO = -0.913861590142736  LUMO = -0.394490965034381
cycle= 5 E= -3426.89761233012  delta_E= -4.08e-05  |g|= 0.00478  |ddm|= 0.00633
  alpha nocc = 36  HOMO = -0.959938816145224  LUMO = -0.387616436143714
  beta  nocc = 36  HOMO = -0.913032756229898  LUMO = -0.394445684832613
cycle= 6 E= -3426.89764995811  delta_E= -3.76e-05  |g|= 0.00277  |ddm|= 0.00691
  alpha nocc = 36  HOMO = -0.959938263260185  LUMO = -0.387623603243146
  beta  nocc = 36  HOMO = -0.912665248143529  LUMO = -0.394454484168708
cycle= 7 E= -3426.89768337813  delta_E= -3.34e-05  |g|= 0.00244  |ddm|= 0.00635
  alpha nocc = 36  HOMO = -0.960321787326366  LUMO = -0.387621978493068
  beta  nocc = 36  HOMO = -0.913010361309741  LUMO = -0.394472210287615
cycle= 8 E= -3426.89771917251  delta_E= -3.58e-05  |g|= 0.00217  |ddm|= 0.00733
  alpha nocc = 36  HOMO = -0.960273137702907  LUMO = -0.38759178113495
  beta  nocc = 36  HOMO = -0.913514960301271  LUMO = -0.394474702574674
cycle= 9 E= -3426.89779442166  delta_E= -7.52e-05  |g|= 0.00152  |ddm|= 0.0199
  alpha nocc = 36  HOMO = -0.960410162924049  LUMO = -0.387579512812025
  beta  nocc = 36  HOMO = -0.914522891044777  LUMO = -0.394502052457631
cycle= 10 E= -3426.89783745532  delta_E= -4.3e-05  |g|= 0.000918  |ddm|= 0.0203
  alpha nocc = 36  HOMO = -0.960387901221226  LUMO = -0.387577960806959
  beta  nocc = 36  HOMO = -0.914437135816676  LUMO = -0.394488985531224
cycle= 11 E= -3426.89784525882  delta_E= -7.8e-06  |g|= 0.000656  |ddm|= 0.00705
  alpha nocc = 36  HOMO = -0.960395555800441  LUMO = -0.387584890098398
  beta  nocc = 36  HOMO = -0.914510125158788  LUMO = -0.394478749608089
cycle= 12 E= -3426.89784799948  delta_E= -2.74e-06  |g|= 0.000567  |ddm|= 0.0031
  alpha nocc = 36  HOMO = -0.960402257590691  LUMO = -0.387587693920497
  beta  nocc = 36  HOMO = -0.914584414126496  LUMO = -0.39447243234837
cycle= 13 E= -3426.89784944929  delta_E= -1.45e-06  |g|= 0.000546  |ddm|= 0.00128
  alpha nocc = 36  HOMO = -0.960400718291641  LUMO = -0.387587468462306
  beta  nocc = 36  HOMO = -0.914583572181142  LUMO = -0.394465046360458
cycle= 14 E= -3426.89785167145  delta_E= -2.22e-06  |g|= 0.000525  |ddm|= 0.00193
  alpha nocc = 36  HOMO = -0.960397568074879  LUMO = -0.387591553724194
  beta  nocc = 36  HOMO = -0.914616507940907  LUMO = -0.394466780704748
cycle= 15 E= -3426.89785468049  delta_E= -3.01e-06  |g|= 0.000497  |ddm|= 0.00277
  alpha nocc = 36  HOMO = -0.960404642046188  LUMO = -0.387588264852778
  beta  nocc = 36  HOMO = -0.914741574132716  LUMO = -0.394464101373281
cycle= 16 E= -3426.89786095778  delta_E= -6.28e-06  |g|= 0.000418  |ddm|= 0.00652
  alpha nocc = 36  HOMO = -0.960341399150769  LUMO = -0.387587648589244
  beta  nocc = 36  HOMO = -0.914757062963458  LUMO = -0.394465315908452
cycle= 17 E= -3426.89786537141  delta_E= -4.41e-06  |g|= 0.000379  |ddm|= 0.00538
  alpha nocc = 36  HOMO = -0.960346559099594  LUMO = -0.387587133804199
  beta  nocc = 36  HOMO = -0.914805008269457  LUMO = -0.394467171990173
cycle= 18 E= -3426.8978679467  delta_E= -2.58e-06  |g|= 0.000366  |ddm|= 0.00334
  alpha nocc = 36  HOMO = -0.960321559624195  LUMO = -0.387586457991296
  beta  nocc = 36  HOMO = -0.914838963244514  LUMO = -0.394465665319315
cycle= 19 E= -3426.89787020981  delta_E= -2.26e-06  |g|= 0.000358  |ddm|= 0.00287
  alpha nocc = 36  HOMO = -0.960312111659599  LUMO = -0.387585096022791
  beta  nocc = 36  HOMO = -0.914952201093194  LUMO = -0.394463138035961
cycle= 20 E= -3426.8978742813  delta_E= -4.07e-06  |g|= 0.000345  |ddm|= 0.00533
  alpha nocc = 36  HOMO = -0.960290187642728  LUMO = -0.387585146021764
  beta  nocc = 36  HOMO = -0.915123606345359  LUMO = -0.394460816039329
cycle= 21 E= -3426.89787996187  delta_E= -5.68e-06  |g|= 0.000331  |ddm|= 0.00818
  alpha nocc = 36  HOMO = -0.960271542796145  LUMO = -0.387584828816222
  beta  nocc = 36  HOMO = -0.915110408752865  LUMO = -0.394460829048195
cycle= 22 E= -3426.89788277925  delta_E= -2.82e-06  |g|= 0.000315  |ddm|= 0.00436
  alpha nocc = 36  HOMO = -0.960261639898244  LUMO = -0.387587156511725
  beta  nocc = 36  HOMO = -0.915149166203279  LUMO = -0.394462523898827
cycle= 23 E= -3426.89788689666  delta_E= -4.12e-06  |g|= 0.000301  |ddm|= 0.00678
  alpha nocc = 36  HOMO = -0.960254370233604  LUMO = -0.387587212291392
  beta  nocc = 36  HOMO = -0.91522914707206  LUMO = -0.39446100598255
[...]
**** Start Cycle 25 ****
time for NO, Ng: 0.924
time for Gg: 4.502
detC 1.0000000000000022
detNg [    1.001986     1.053559     1.334354     2.432742     7.525437    44.862526   530.372598 19180.083773]
xg [0.998018 0.949163 0.749426 0.411059 0.132883 0.02229  0.001885 0.000052]
ciS 0.6692154317323504
ciH -2590.957821600961
S2 = -0.000000
Hsp + Hph =  -3871.6349007283543
F(mod,ortho) updated with CDIIS
level shift: 0.200 a.u.
Alpha occ 36 vir 116; Beta occ 36 vir 116
Alpha energies:  [-1.087326 -1.080852 -1.04849  -1.020864 -1.004321 -0.972919] <- HOMO
         LUMO->  [-0.187267 -0.157119 -0.089983 -0.066354 -0.020821  0.009516]
Beta energies:   [-1.23244  -1.223279 -0.997079 -0.926927 -0.9237   -0.902549] <- HOMO
         LUMO->  [-0.195035 -0.159528 -0.158194 -0.111253 -0.022841  0.020908]
time for xg, H, S2, Yg, Feff: 0.183
 E =  -3426.91948077, delta E = -4.08083e-07, MaxD(dm) = 0.00027309, RMSD(dm) = 6.04061e-06
**** Start Cycle 26 ****
time for NO, Ng: 0.922
time for Gg: 4.494
detC 0.9999999999999915
detNg [    1.001985     1.053556     1.334333     2.432627     7.524621    44.851914   530.108808 19167.114208]
xg [0.998018 0.949166 0.749438 0.411078 0.132897 0.022296 0.001886 0.000052]
ciS 0.6692400835297913
ciH -2591.0532644689215
S2 = -0.000000
Hsp + Hph =  -3871.634900890662
F(mod,ortho) updated with CDIIS
level shift: 0.200 a.u.
Alpha occ 36 vir 116; Beta occ 36 vir 116
Alpha energies:  [-1.08733  -1.080833 -1.048473 -1.020852 -1.004307 -0.972909] <- HOMO
         LUMO->  [-0.18727  -0.15712  -0.089977 -0.06635  -0.020825  0.009514]
Beta energies:   [-1.232439 -1.223285 -0.997066 -0.926922 -0.923655 -0.902562] <- HOMO
         LUMO->  [-0.195031 -0.159511 -0.158193 -0.111252 -0.022838  0.020909]
time for xg, H, S2, Yg, Feff: 0.186
 E =  -3426.91948093, delta E = -1.62308e-07, MaxD(dm) = 0.00019895, RMSD(dm) = 4.41529e-06
**** Start Cycle 27 ****
time for NO, Ng: 0.922
time for Gg: 4.490
detC -1.0000000000000022
detNg [    1.001985     1.053555     1.334325     2.432579     7.524232    44.845918   529.942048 19158.670035]
xg [0.998019 0.949167 0.749443 0.411086 0.132904 0.022299 0.001887 0.000052]
ciS 0.6692509352162135
ciH -2591.095278298724
S2 = -0.000000
Hsp + Hph =  -3871.6349009831783
F(mod,ortho) updated with CDIIS
level shift: 0.200 a.u.
Alpha occ 36 vir 116; Beta occ 36 vir 116
Alpha energies:  [-1.087333 -1.080854 -1.0485   -1.020844 -1.00434  -0.972901] <- HOMO
         LUMO->  [-0.187271 -0.157121 -0.089973 -0.066348 -0.020826  0.009512]
Beta energies:   [-1.232436 -1.223288 -0.997065 -0.926916 -0.923637 -0.902554] <- HOMO
         LUMO->  [-0.195031 -0.159522 -0.158193 -0.11125  -0.022837  0.020908]
time for xg, H, S2, Yg, Feff: 0.182
 E =  -3426.91948102, delta E = -9.25165e-08, MaxD(dm) = 0.000162169, RMSD(dm) = 3.61281e-06
**** Start Cycle 28 ****
time for NO, Ng: 0.922
time for Gg: 4.489
detC 1.0000000000000069
detNg [    1.001985     1.053555     1.334325     2.432577     7.524122    44.842755   529.830651 19152.738877]
xg [0.998019 0.949167 0.749442 0.411087 0.132906 0.0223   0.001887 0.000052]
ciS 0.6692525934224836
ciH -2591.1016983074483
S2 = -0.000000
Hsp + Hph =  -3871.634901042133
F(mod,ortho) updated with CDIIS
level shift: 0.200 a.u.
Alpha occ 36 vir 116; Beta occ 36 vir 116
Alpha energies:  [-1.087345 -1.080863 -1.048525 -1.020856 -1.004363 -0.972919] <- HOMO
         LUMO->  [-0.187271 -0.157123 -0.089974 -0.066351 -0.020826  0.009511]
Beta energies:   [-1.232441 -1.223294 -0.997055 -0.926908 -0.923605 -0.902554] <- HOMO
         LUMO->  [-0.195032 -0.159523 -0.158193 -0.111258 -0.022839  0.020907]
time for xg, H, S2, Yg, Feff: 0.181
 E =  -3426.91948108, delta E = -5.89548e-08, MaxD(dm) = 9.67044e-05, RMSD(dm) = 2.21558e-06
**** Start Cycle 29 ****
time for NO, Ng: 0.922
time for Gg: 4.486
detC -1.0000000000000162
detNg [    1.001985     1.053557     1.334333     2.432609     7.524244    44.842405   529.785415 19150.007785]
xg [0.998018 0.949166 0.749438 0.411081 0.132904 0.0223   0.001888 0.000052]
ciS 0.669247072638526
ciH -2591.0803238718017
S2 = -0.000000
Hsp + Hph =  -3871.6349010783006
F(mod,ortho) updated with CDIIS
level shift: 0.200 a.u.
Alpha occ 36 vir 116; Beta occ 36 vir 116
Alpha energies:  [-1.087352 -1.08087  -1.048539 -1.020854 -1.004374 -0.972916] <- HOMO
         LUMO->  [-0.18727  -0.157124 -0.08997  -0.066349 -0.020825  0.009511]
Beta energies:   [-1.232439 -1.223294 -0.997045 -0.926896 -0.923582 -0.902545] <- HOMO
         LUMO->  [-0.195033 -0.159525 -0.158192 -0.111255 -0.02284   0.020906]
time for xg, H, S2, Yg, Feff: 0.180
 E =  -3426.91948112, delta E = -3.61674e-08, MaxD(dm) = 0.000152353, RMSD(dm) = 3.41797e-06
**** Start Cycle 30 ****
time for NO, Ng: 0.923
time for Gg: 4.495
detC -1.0000000000000047
detNg [    1.001985     1.053557     1.334336     2.432622     7.52423     44.840247   529.694263 19145.007233]
xg [0.998018 0.949165 0.749436 0.411079 0.132904 0.022301 0.001888 0.000052]
ciS 0.6692455735968889
ciH -2591.0745201477935
S2 = -0.000000
Hsp + Hph =  -3871.6349011050647
F(mod,ortho) updated with CDIIS
level shift: 0.200 a.u.
Alpha occ 36 vir 116; Beta occ 36 vir 116
Alpha energies:  [-1.087352 -1.080881 -1.048562 -1.020854 -1.004392 -0.972919] <- HOMO
         LUMO->  [-0.18727  -0.157125 -0.089972 -0.066352 -0.020824  0.009512]
Beta energies:   [-1.232443 -1.223294 -0.997039 -0.926887 -0.923572 -0.902536] <- HOMO
         LUMO->  [-0.195035 -0.15953  -0.158192 -0.111255 -0.022842  0.020905]
time for xg, H, S2, Yg, Feff: 0.182
 E =  -3426.91948114, delta E = -2.67642e-08, MaxD(dm) = 6.41356e-05, RMSD(dm) = 1.41473e-06
**** Start Cycle 31 ****
time for NO, Ng: 0.922
time for Gg: 4.492
detC -0.9999999999999927
detNg [    1.001986     1.053558     1.334341     2.432645     7.524323    44.840247   529.671288 19143.559064]
xg [0.998018 0.949165 0.749433 0.411075 0.132902 0.022301 0.001888 0.000052]
ciS 0.6692415883513212
ciH -2591.0590907417595
S2 = -0.000000
Hsp + Hph =  -3871.6349011197017
F(mod,ortho) updated with CDIIS
level shift: 0.200 a.u.
Alpha occ 36 vir 116; Beta occ 36 vir 116
Alpha energies:  [-1.087361 -1.080885 -1.048574 -1.020861 -1.004399 -0.972928] <- HOMO
         LUMO->  [-0.187269 -0.157125 -0.089969 -0.06635  -0.020822  0.009513]
Beta energies:   [-1.232441 -1.223291 -0.997034 -0.926883 -0.923562 -0.902537] <- HOMO
         LUMO->  [-0.195036 -0.159531 -0.158191 -0.11126  -0.022843  0.020904]
time for xg, H, S2, Yg, Feff: 0.180
 E =  -3426.91948116, delta E = -1.4637e-08, MaxD(dm) = 7.52733e-05, RMSD(dm) = 1.67452e-06
**** Start Cycle 32 ****
time for NO, Ng: 0.922
time for Gg: 4.491
detC 1.0000000000000104
detNg [    1.001986     1.053558     1.334345     2.432658     7.524357    44.839631   529.635947 19141.544235]
xg [0.998018 0.949164 0.749432 0.411073 0.132902 0.022302 0.001888 0.000052]
ciS 0.6692395393526568
ciH -2591.0511577723028
S2 = -0.000000
Hsp + Hph =  -3871.634901127598
F(mod,ortho) updated with CDIIS
level shift: 0.200 a.u.
Alpha occ 36 vir 116; Beta occ 36 vir 116
Alpha energies:  [-1.08736  -1.080893 -1.048592 -1.02086  -1.004408 -0.97293 ] <- HOMO
         LUMO->  [-0.187268 -0.157126 -0.089969 -0.066351 -0.020821  0.009514]
Beta energies:   [-1.232445 -1.223289 -0.997028 -0.926873 -0.923558 -0.902526] <- HOMO
         LUMO->  [-0.195038 -0.159534 -0.158191 -0.111259 -0.022845  0.020904]
time for xg, H, S2, Yg, Feff: 0.183
 E =  -3426.91948117, delta E = -7.89623e-09, MaxD(dm) = 4.81093e-05, RMSD(dm) = 1.14054e-06
**** Start Cycle 33 ****
time for NO, Ng: 0.922
time for Gg: 4.487
detC -0.99999999999999
detNg [    1.001986     1.053559     1.334348     2.432675     7.524442    44.840004   529.631389 19141.128068]
xg [0.998018 0.949164 0.74943  0.41107  0.1329   0.022302 0.001888 0.000052]
ciS 0.6692362737630823
ciH -2591.038514608261
S2 = -0.000000
Hsp + Hph =  -3871.6349011373522
F(mod,ortho) updated with CDIIS
level shift: 0.200 a.u.
Alpha occ 36 vir 116; Beta occ 36 vir 116
Alpha energies:  [-1.087358 -1.080896 -1.048601 -1.020862 -1.00441  -0.972935] <- HOMO
         LUMO->  [-0.187267 -0.157126 -0.089967 -0.066349 -0.02082   0.009515]
Beta energies:   [-1.232445 -1.223283 -0.997025 -0.926868 -0.923559 -0.902521] <- HOMO
         LUMO->  [-0.195039 -0.159535 -0.158191 -0.111258 -0.022846  0.020904]
time for xg, H, S2, Yg, Feff: 0.182
 E =  -3426.91948118, delta E = -9.75433e-09, MaxD(dm) = 3.23958e-05, RMSD(dm) = 7.67513e-07
**** Start Cycle 34 ****
time for NO, Ng: 0.922
time for Gg: 4.488
detC 1.0000000000000082
detNg [    1.001986     1.053559     1.334351     2.432689     7.524526    44.840844   529.64753  19141.855555]
xg [0.998018 0.949163 0.749428 0.411068 0.132899 0.022301 0.001888 0.000052]
ciS 0.6692335110609946
ciH -2591.027818439363
S2 = -0.000000
Hsp + Hph =  -3871.634901144713
F(mod,ortho) updated with CDIIS
level shift: 0.200 a.u.
Alpha occ 36 vir 116; Beta occ 36 vir 116
Alpha energies:  [-1.087359 -1.080902 -1.048613 -1.020863 -1.004416 -0.972939] <- HOMO
         LUMO->  [-0.187266 -0.157126 -0.089968 -0.066349 -0.020819  0.009515]
Beta energies:   [-1.232448 -1.223282 -0.997025 -0.926865 -0.923563 -0.902516] <- HOMO
         LUMO->  [-0.19504  -0.159538 -0.158191 -0.111259 -0.022847  0.020904]
time for xg, H, S2, Yg, Feff: 0.180
 E =  -3426.91948118, delta E = -7.36054e-09, MaxD(dm) = 3.1026e-05, RMSD(dm) = 7.45341e-07
**** Start Cycle 35 ****
time for NO, Ng: 0.922
time for Gg: 4.491
detC 0.9999999999999969
detNg [    1.001986     1.05356      1.334353     2.4327       7.524594    44.841583   529.66309  19142.581082]
xg [0.998018 0.949163 0.749427 0.411066 0.132898 0.022301 0.001888 0.000052]
ciS 0.6692313118735411
ciH -2591.019303992449
S2 = -0.000000
Hsp + Hph =  -3871.634901150668
F(mod,ortho) updated with CDIIS
level shift: 0.200 a.u.
Alpha occ 36 vir 116; Beta occ 36 vir 116
Alpha energies:  [-1.087358 -1.080901 -1.048616 -1.020863 -1.004414 -0.972942] <- HOMO
         LUMO->  [-0.187266 -0.157127 -0.089967 -0.066349 -0.020818  0.009515]
Beta energies:   [-1.23245  -1.22328  -0.997023 -0.926862 -0.923563 -0.902512] <- HOMO
         LUMO->  [-0.19504  -0.159537 -0.15819  -0.111258 -0.022848  0.020904]
time for xg, H, S2, Yg, Feff: 0.192
 E =  -3426.91948119, delta E = -5.95537e-09, MaxD(dm) =  2.717e-05, RMSD(dm) = 6.18517e-07
**** Start Cycle 36 ****
time for NO, Ng: 0.922
time for Gg: 4.493
detC 1.0000000000000056
detNg [    1.001986     1.05356      1.334355     2.432708     7.524648    44.84224    529.678558 19143.329068]
xg [0.998018 0.949163 0.749426 0.411065 0.132897 0.0223   0.001888 0.000052]
ciS 0.6692296392650969
ciH -2591.012828266065
S2 = -0.000000
Hsp + Hph =  -3871.6349011549173
F(mod,ortho) updated with CDIIS
level shift: 0.200 a.u.
Alpha occ 36 vir 116; Beta occ 36 vir 116
Alpha energies:  [-1.087356 -1.080905 -1.048622 -1.020863 -1.004419 -0.972944] <- HOMO
         LUMO->  [-0.187266 -0.157127 -0.089967 -0.066348 -0.020818  0.009515]
Beta energies:   [-1.232451 -1.223279 -0.997024 -0.92686  -0.923566 -0.902508] <- HOMO
         LUMO->  [-0.19504  -0.15954  -0.15819  -0.111258 -0.022848  0.020905]
time for xg, H, S2, Yg, Feff: 0.183
 E =  -3426.91948119, delta E = -4.24916e-09, MaxD(dm) = 2.51136e-05, RMSD(dm) = 5.76902e-07
**** Start Cycle 37 ****
time for NO, Ng: 0.922
time for Gg: 4.495
detC -1.0
detNg [    1.001986     1.05356      1.334356     2.432715     7.524698    44.842831   529.692171 19143.982765]
xg [0.998018 0.949163 0.749425 0.411063 0.132896 0.0223   0.001888 0.000052]
ciS 0.6692280775051427
ciH -2591.006781704
S2 = -0.000000
Hsp + Hph =  -3871.634901158327
F(mod,ortho) updated with CDIIS
level shift: 0.200 a.u.
Alpha occ 36 vir 116; Beta occ 36 vir 116
Alpha energies:  [-1.087356 -1.080907 -1.048628 -1.020863 -1.00442  -0.97295 ] <- HOMO
         LUMO->  [-0.187266 -0.157127 -0.089967 -0.066348 -0.020817  0.009515]
Beta energies:   [-1.232456 -1.223279 -0.997024 -0.926858 -0.92357  -0.902505] <- HOMO
         LUMO->  [-0.195041 -0.15954  -0.15819  -0.111259 -0.022849  0.020905]
time for xg, H, S2, Yg, Feff: 0.188
 E =  -3426.91948120, delta E = -3.4097e-09, MaxD(dm) = 4.16766e-05, RMSD(dm) = 9.55494e-07
**** Start Cycle 38 ****
time for NO, Ng: 0.921
time for Gg: 4.490
detC -0.9999999999999986
detNg [    1.001986     1.05356      1.334358     2.432724     7.524758    44.84362    529.711956 19144.957569]
xg [0.998018 0.949163 0.749424 0.411062 0.132895 0.0223   0.001888 0.000052]
ciS 0.6692262824730744
ciH -2590.9998319981896
S2 = -0.000000
Hsp + Hph =  -3871.6349011628004
F(mod,ortho) updated with CDIIS
level shift: 0.200 a.u.
Alpha occ 36 vir 116; Beta occ 36 vir 116
Alpha energies:  [-1.087354 -1.080907 -1.048629 -1.02086  -1.00442  -0.972947] <- HOMO
         LUMO->  [-0.187266 -0.157127 -0.089967 -0.066348 -0.020818  0.009515]
Beta energies:   [-1.232458 -1.22328  -0.997024 -0.926857 -0.92357  -0.902501] <- HOMO
         LUMO->  [-0.195041 -0.15954  -0.15819  -0.111257 -0.022849  0.020906]
time for xg, H, S2, Yg, Feff: 0.183
 E =  -3426.91948120, delta E = -4.47335e-09, MaxD(dm) = 1.76164e-05, RMSD(dm) = 4.15629e-07
**** Start Cycle 39 ****
time for NO, Ng: 0.922
time for Gg: 4.493
detC 0.9999999999999969
detNg [    1.001986     1.05356      1.334358     2.432726     7.524778    44.8439     529.71926  19145.321139]
xg [0.998018 0.949162 0.749424 0.411061 0.132894 0.0223   0.001888 0.000052]
ciS 0.6692256897668463
ciH -2590.9975372570925
S2 = -0.000000
Hsp + Hph =  -3871.634901164328
F(mod,ortho) updated with CDIIS
level shift: 0.200 a.u.
Alpha occ 36 vir 116; Beta occ 36 vir 116
Alpha energies:  [-1.087351 -1.080909 -1.048634 -1.020858 -1.004421 -0.972949] <- HOMO
         LUMO->  [-0.187266 -0.157127 -0.089967 -0.066348 -0.020817  0.009515]
Beta energies:   [-1.232463 -1.22328  -0.997026 -0.926856 -0.923574 -0.902498] <- HOMO
         LUMO->  [-0.195041 -0.159541 -0.15819  -0.111256 -0.022849  0.020906]
time for xg, H, S2, Yg, Feff: 0.180
 E =  -3426.91948120, delta E = -1.5275e-09, MaxD(dm) = 3.78825e-05, RMSD(dm) = 8.7211e-07
**** Start Cycle 40 ****
time for NO, Ng: 0.922
time for Gg: 4.491
detC 1.000000000000003
detNg [    1.001986     1.053561     1.334359     2.43273      7.524811    44.844414   529.733673 19146.052128]
xg [0.998018 0.949162 0.749424 0.411061 0.132894 0.022299 0.001888 0.000052]
ciS 0.6692247819120157
ciH -2590.9940223761455
S2 = -0.000000
Hsp + Hph =  -3871.634901166568
F(mod,ortho) updated with CDIIS
level shift: 0.200 a.u.
Alpha occ 36 vir 116; Beta occ 36 vir 116
Alpha energies:  [-1.087351 -1.080909 -1.048634 -1.020858 -1.004421 -0.97295 ] <- HOMO
         LUMO->  [-0.187266 -0.157127 -0.089967 -0.066348 -0.020818  0.009515]
Beta energies:   [-1.232463 -1.22328  -0.997027 -0.926857 -0.923574 -0.902499] <- HOMO
         LUMO->  [-0.195041 -0.159541 -0.15819  -0.111257 -0.022848  0.020907]
time for xg, H, S2, Yg, Feff: 0.194
 E =  -3426.91948120, delta E = -2.24009e-09, MaxD(dm) = 9.91683e-06, RMSD(dm) = 2.38589e-07
**** Start Cycle 41 ****
time for NO, Ng: 0.923
time for Gg: 4.493
detC 1.0000000000000078
detNg [    1.001986     1.053561     1.334359     2.432731     7.524818    44.844543   529.737623 19146.256513]
xg [0.998018 0.949162 0.749424 0.411061 0.132894 0.022299 0.001888 0.000052]
ciS 0.6692246102896895
ciH -2590.9933579174476
S2 = -0.000000
Hsp + Hph =  -3871.6349011670027
F(mod,ortho) updated with CDIIS
level shift: 0.200 a.u.
Alpha occ 36 vir 116; Beta occ 36 vir 116
Alpha energies:  [-1.087349 -1.08091  -1.048636 -1.020855 -1.004421 -0.972948] <- HOMO
         LUMO->  [-0.187266 -0.157127 -0.089967 -0.066348 -0.020818  0.009515]
Beta energies:   [-1.232466 -1.223281 -0.997028 -0.926857 -0.923576 -0.902497] <- HOMO
         LUMO->  [-0.195041 -0.159541 -0.15819  -0.111255 -0.022848  0.020907]
time for xg, H, S2, Yg, Feff: 0.182
 E =  -3426.91948121, delta E = -4.34738e-10, MaxD(dm) = 1.97678e-05, RMSD(dm) = 4.5956e-07
**** Start Cycle 42 ****
time for NO, Ng: 0.922
time for Gg: 4.491
detC 1.0000000000000004
detNg [    1.001986     1.053561     1.334359     2.432731     7.524824    44.844716   529.743663 19146.577506]
xg [0.998018 0.949162 0.749424 0.411061 0.132893 0.022299 0.001888 0.000052]
ciS 0.6692245111421653
ciH -2590.9929740548023
S2 = -0.000000
Hsp + Hph =  -3871.634901167555
F(mod,ortho) updated with CDIIS
level shift: 0.200 a.u.
Alpha occ 36 vir 116; Beta occ 36 vir 116
Alpha energies:  [-1.087348 -1.080909 -1.048636 -1.020853 -1.00442  -0.972947] <- HOMO
         LUMO->  [-0.187266 -0.157127 -0.089967 -0.066347 -0.020818  0.009515]
Beta energies:   [-1.232466 -1.223281 -0.997028 -0.926857 -0.923577 -0.902498] <- HOMO
         LUMO->  [-0.195041 -0.159541 -0.15819  -0.111255 -0.022848  0.020907]
time for xg, H, S2, Yg, Feff: 0.180
 E =  -3426.91948121, delta E = -5.52518e-10, MaxD(dm) = 1.00897e-05, RMSD(dm) = 2.41279e-07
**** Start Cycle 43 ****
time for NO, Ng: 0.922
time for Gg: 4.491
detC 1.0000000000000129
detNg [    1.001986     1.05356      1.334358     2.43273      7.524819    44.844745   529.746046 19146.717732]
xg [0.998018 0.949162 0.749424 0.411061 0.132894 0.022299 0.001888 0.000052]
ciS 0.6692247326809828
ciH -2590.9938317723454
S2 = -0.000000
Hsp + Hph =  -3871.634901167742
F(mod,ortho) updated with CDIIS
level shift: 0.200 a.u.
Alpha occ 36 vir 116; Beta occ 36 vir 116
Alpha energies:  [-1.087348 -1.08091  -1.048636 -1.020852 -1.004421 -0.972946] <- HOMO
         LUMO->  [-0.187266 -0.157127 -0.089967 -0.066347 -0.020818  0.009515]
Beta energies:   [-1.232467 -1.223281 -0.997029 -0.926858 -0.923578 -0.902499] <- HOMO
         LUMO->  [-0.195041 -0.159541 -0.15819  -0.111255 -0.022848  0.020907]
time for xg, H, S2, Yg, Feff: 0.180
 E =  -3426.91948121, delta E = -1.86901e-10, MaxD(dm) = 4.89686e-06, RMSD(dm) = 1.23506e-07
**** Start Cycle 44 ****
time for NO, Ng: 0.922
time for Gg: 4.487
detC 0.9999999999999978
detNg [    1.001986     1.05356      1.334358     2.432728     7.524812    44.844721   529.746841 19146.775972]
xg [0.998018 0.949162 0.749424 0.411061 0.132894 0.022299 0.001888 0.000052]
ciS 0.6692250273845466
ciH -2590.9949727570006
S2 = -0.000000
Hsp + Hph =  -3871.63490116782
F(mod,ortho) updated with CDIIS
level shift: 0.200 a.u.
Alpha occ 36 vir 116; Beta occ 36 vir 116
Alpha energies:  [-1.087347 -1.080909 -1.048635 -1.02085  -1.004419 -0.972944] <- HOMO
         LUMO->  [-0.187266 -0.157127 -0.089967 -0.066347 -0.020818  0.009514]
Beta energies:   [-1.232467 -1.223281 -0.99703  -0.926859 -0.923578 -0.9025  ] <- HOMO
         LUMO->  [-0.195041 -0.159541 -0.15819  -0.111255 -0.022848  0.020908]
time for xg, H, S2, Yg, Feff: 0.180
 E =  -3426.91948121, delta E = -7.77618e-11, MaxD(dm) = 3.85541e-06, RMSD(dm) = 1.11579e-07
**** Start Cycle 45 ****
time for NO, Ng: 0.923
time for Gg: 4.485
detC 0.9999999999999984
detNg [    1.001986     1.05356      1.334357     2.432725     7.524797    44.844629   529.746413 19146.780941]
xg [0.998018 0.949163 0.749424 0.411062 0.132894 0.022299 0.001888 0.000052]
ciS 0.6692255662892103
ciH -2590.9970591991505
S2 = -0.000000
Hsp + Hph =  -3871.6349011678876
F(mod,ortho) updated with CDIIS
level shift: 0.200 a.u.
Alpha occ 36 vir 116; Beta occ 36 vir 116
Alpha energies:  [-1.087346 -1.080909 -1.048635 -1.020849 -1.004419 -0.972943] <- HOMO
         LUMO->  [-0.187266 -0.157127 -0.089967 -0.066347 -0.020818  0.009514]
Beta energies:   [-1.232467 -1.223281 -0.99703  -0.92686  -0.923579 -0.9025  ] <- HOMO
         LUMO->  [-0.19504  -0.159541 -0.15819  -0.111254 -0.022847  0.020908]
time for xg, H, S2, Yg, Feff: 0.180

***************
SUHF converged at cycle 45
Final E(SUHF) =  -3426.91948121, delta E = -6.77574e-11, MaxD(dm) = 2.04296e-06, RMSD(dm) = 6.50914e-08
**** Extra Cycle 46 ****
detC 1.000000000000002
detNg [    1.001986     1.05356      1.334357     2.432724     7.524788    44.844576   529.746273 19146.790408]
xg [0.998018 0.949163 0.749425 0.411062 0.132894 0.022299 0.001888 0.000052]
ciS 0.6692258931655026
ciH -2590.9983247448354
S2 = -0.000000
Hsp + Hph =  -3871.634901167922
