#INFO: **** input file is /share/home/srwang/ExSCF/examples/20-mom.py ****
from pyphf import suscf, guess
from pyscf import lib

lib.num_threads(4)
xyz = ''' O 0.0 0.0 0.0; H 0.0 -0.757 0.587; H 0.0 0.757 0.587'''
bas = '6-31gs'
mf = guess.gen(xyz, bas, 0, 0)

mf2 = suscf.SUHF(mf)
#mf2.verbose = 8
#mf2.printmo = True
mf2.kernel()
mo = mf2.mo_reg

mf3 = suscf.SUHF(mf)
mf3.setmom =  [[4],[5]], [[],[]]
mf3.mom_reforb = mo
#mf3.printmo = True
#mf3.verbose = 8
#mf3.diis_on = False
mf3.diis_start_cyc = 10
mf3.kernel()


#INFO: ******************** input file end ********************


System: uname_result(system='Linux', node='xn01', release='3.10.0-1127.el7.x86_64', version='#1 SMP Tue Feb 18 16:39:12 EST 2020', machine='x86_64', processor='x86_64')  Threads 4
Python 3.7.4 (default, Aug 13 2019, 20:35:49) 
[GCC 7.3.0]
numpy 1.17.2  scipy 1.4.1
Date: Thu Jun 24 22:33:03 2021
PySCF version 1.7.6a1
PySCF path  /share/home/srwang/pyscf/pyscf
GIT HEAD      ref: refs/heads/master
GIT master branch  80f71dfe77ac5f9caae26788acf76446987635bd

[CONFIG] conf_file None
[INPUT] verbose = 4
[INPUT] num. atoms = 3
[INPUT] num. electrons = 10
[INPUT] charge = 0
[INPUT] spin (= nelec alpha-beta = 2S) = 0
[INPUT] symmetry False subgroup None
[INPUT] Mole.unit = angstrom
[INPUT]  1 O      0.000000000000   0.000000000000   0.000000000000 AA    0.000000000000   0.000000000000   0.000000000000 Bohr
[INPUT]  2 H      0.000000000000  -0.757000000000   0.587000000000 AA    0.000000000000  -1.430522676296   1.109269235120 Bohr
[INPUT]  3 H      0.000000000000   0.757000000000   0.587000000000 AA    0.000000000000   1.430522676296   1.109269235120 Bohr

nuclear repulsion = 9.18825841774611
number of shells = 10
number of NR pGTOs = 35
number of NR cGTOs = 18
basis = 6-31gs
ecp = {}
CPU time:         1.07


******** <class 'pyscf.scf.uhf.UHF'> ********
method = UHF
initial guess = minao
damping factor = 0
level_shift factor = 0
DIIS = <class 'pyscf.scf.diis.CDIIS'>
diis_start_cycle = 1
diis_space = 8
SCF conv_tol = 1e-09
SCF conv_tol_grad = None
SCF max_cycles = 50
direct_scf = True
direct_scf_tol = 1e-13
chkfile to save SCF result = /share/home/srwang/ExSCF/examples/tmpg5fayba2
max_memory 4000 MB (current use 106 MB)
number electrons alpha = 5  beta = 5
Set gradient conv threshold to 3.16228e-05
init E= -75.7958352202839
  alpha nocc = 5  HOMO = -0.487025279840053  LUMO = 0.11513786800973
  beta  nocc = 5  HOMO = -0.486038412002902  LUMO = 0.116009359247698
cycle= 1 E= -75.9694511025344  delta_E= -0.174  |g|= 0.314  |ddm|= 0.835
  alpha nocc = 5  HOMO = -0.412642421854739  LUMO = 0.216546450922722
  beta  nocc = 5  HOMO = -0.41244700182585  LUMO = 0.216852847677641
cycle= 2 E= -75.9993668319055  delta_E= -0.0299  |g|= 0.166  |ddm|= 0.275
  alpha nocc = 5  HOMO = -0.507463988613833  LUMO = 0.20811834769028
  beta  nocc = 5  HOMO = -0.507329866092284  LUMO = 0.208345290053574
cycle= 3 E= -76.0088138802268  delta_E= -0.00945  |g|= 0.0243  |ddm|= 0.11
  alpha nocc = 5  HOMO = -0.496252202818418  LUMO = 0.214547628417288
  beta  nocc = 5  HOMO = -0.496184454279913  LUMO = 0.214615133097748
cycle= 4 E= -76.0090867461563  delta_E= -0.000273  |g|= 0.00365  |ddm|= 0.0147
  alpha nocc = 5  HOMO = -0.497277322447403  LUMO = 0.214601633655918
  beta  nocc = 5  HOMO = -0.497258494858082  LUMO = 0.214599802159896
cycle= 5 E= -76.0090987017715  delta_E= -1.2e-05  |g|= 0.000608  |ddm|= 0.0042
  alpha nocc = 5  HOMO = -0.497549229942683  LUMO = 0.214527957576277
  beta  nocc = 5  HOMO = -0.49754983104106  LUMO = 0.214521821352934
cycle= 6 E= -76.009099099675  delta_E= -3.98e-07  |g|= 8.75e-05  |ddm|= 0.00101
  alpha nocc = 5  HOMO = -0.497578429799139  LUMO = 0.214532391479446
  beta  nocc = 5  HOMO = -0.497582022504413  LUMO = 0.214529541468929
cycle= 7 E= -76.0090991078838  delta_E= -8.21e-09  |g|= 1.8e-05  |ddm|= 0.000143
  alpha nocc = 5  HOMO = -0.49757692405923  LUMO = 0.214531034224435
  beta  nocc = 5  HOMO = -0.497579913563045  LUMO = 0.214530039220996
cycle= 8 E= -76.0090991084251  delta_E= -5.41e-10  |g|= 8.57e-06  |ddm|= 3.61e-05
  alpha nocc = 5  HOMO = -0.497577461237443  LUMO = 0.214530866238845
  beta  nocc = 5  HOMO = -0.49757974204541  LUMO = 0.214530280261929
Extra cycle  E= -76.009099108516  delta_E= -9.09e-11  |g|= 5.83e-06  |ddm|= 1.05e-05
converged SCF energy = -76.009099108516  <S^2> = 4.6332715e-10  2S+1 = 1

******** <class 'pyphf.suscf.SUHF'> ********
Date: Thu Jun 24 22:33:04 2021
pyphf version 0.4.0
pyphf path  /share/home/srwang/ExSCF
GIT ORIG_HEAD 198e48480b188f02e90f0e6e8cbbe5568091e1c6
GIT HEAD (branch main) c5b8632dfe575b1dd41f6e63305c6831938c670e
max_cycle = 70
verbose: 4, normal
conv_tol: 1e-07
chkfile0: 24366_ges.pchk # the file store hf for guess
chkfile: 24366_su.pchk # the file store suhf info
DIIS: <class 'pyscf.scf.diis.CDIIS'>
diis_start_cyc = 10
grids:  [0.06237655 0.31939555 0.74529195 1.28265786 1.85893479 2.39630071
 2.8221971  3.07921611] 
weights:  [0.15900941 0.34931531 0.49276925 0.56970235 0.56970235 0.49276925
 0.34931531 0.15900941]
S = 0.0, Sz = 0.0
Wigner small d:  1
value : [1. 1. 1. 1. 1. 1. 1. 1.]
time for Preparation before cyc: 0.104
**** Start Cycle 1 ****
time for NO, Ng: 0.016
time for Gg: 0.042
detC -1.0000000000000027
detNg [1. 1. 1. 1. 1. 1. 1. 1.]
xg [1. 1. 1. 1. 1. 1. 1. 1.]
ciS 1.9999999995366726
ciH -170.39471501328848
S2 = -0.000000
Hsp + Hph =  -85.19735752638138
Alpha occ 5 vir 13; Beta occ 5 vir 13
Alpha energies:  [-20.55502   -1.341065  -0.706166  -0.571043  -0.497577] <- HOMO
         LUMO->  [0.214531 0.30433  1.021718 1.163606 1.168268 1.197608]
Beta energies:   [-20.555022  -1.341069  -0.706168  -0.571047  -0.497579] <- HOMO
         LUMO->  [0.21453  0.30433  1.02172  1.163607 1.168267 1.197605]
time for xg, H, S2, Yg, Feff: 0.018
 E =    -76.00909911
**** Start Cycle 2 ****
time for NO, Ng: 0.014
time for Gg: 0.042
detC 0.9999999999999999
detNg [1. 1. 1. 1. 1. 1. 1. 1.]
xg [1. 1. 1. 1. 1. 1. 1. 1.]
ciS 1.9999999994063682
ciH -170.39471500221327
S2 = 0.000000
Hsp + Hph =  -85.19735752639457
Alpha occ 5 vir 13; Beta occ 5 vir 13
Alpha energies:  [-20.555021  -1.341065  -0.706166  -0.571043  -0.497577] <- HOMO
         LUMO->  [0.214531 0.30433  1.021718 1.163605 1.168268 1.197608]
Beta energies:   [-20.555022  -1.34107   -0.706168  -0.571047  -0.497579] <- HOMO
         LUMO->  [0.21453  0.30433  1.021721 1.163608 1.168267 1.197605]
time for xg, H, S2, Yg, Feff: 0.018
 E =    -76.00909911, delta E = -1.31877e-11, MaxD(dm) = 7.90693e-07, RMSD(dm) = 1.33948e-07
**** Start Cycle 3 ****
time for NO, Ng: 0.014
time for Gg: 0.042
detC 0.9999999999999989
detNg [1. 1. 1. 1. 1. 1. 1. 1.]
xg [1. 1. 1. 1. 1. 1. 1. 1.]
ciS 1.9999999992343598
ciH -170.3947149875931
S2 = 0.000000
Hsp + Hph =  -85.19735752641182
Alpha occ 5 vir 13; Beta occ 5 vir 13
Alpha energies:  [-20.55502   -1.341065  -0.706166  -0.571042  -0.497577] <- HOMO
         LUMO->  [0.214531 0.30433  1.021718 1.163605 1.168269 1.197609]
Beta energies:   [-20.555022  -1.34107   -0.706168  -0.571048  -0.497579] <- HOMO
         LUMO->  [0.21453  0.30433  1.021721 1.163608 1.168267 1.197605]
time for xg, H, S2, Yg, Feff: 0.018
 E =    -76.00909911, delta E = -1.7252e-11, MaxD(dm) = 8.50603e-07, RMSD(dm) = 1.5442e-07
**** Start Cycle 4 ****
time for NO, Ng: 0.014
time for Gg: 0.042
detC 0.9999999999999957
detNg [1. 1. 1. 1. 1. 1. 1. 1.]
xg [1. 1. 1. 1. 1. 1. 1. 1.]
ciS 1.9999999990069104
ciH -170.39471496826098
S2 = 0.000000
Hsp + Hph =  -85.19735752643481
Alpha occ 5 vir 13; Beta occ 5 vir 13
Alpha energies:  [-20.55502   -1.341064  -0.706165  -0.571042  -0.497577] <- HOMO
         LUMO->  [0.214531 0.30433  1.021718 1.163605 1.168269 1.197609]
Beta energies:   [-20.555023  -1.34107   -0.706168  -0.571048  -0.49758 ] <- HOMO
         LUMO->  [0.21453  0.30433  1.021721 1.163608 1.168267 1.197605]
time for xg, H, S2, Yg, Feff: 0.018
 E =    -76.00909911, delta E = -2.29932e-11, MaxD(dm) = 9.99432e-07, RMSD(dm) = 1.78468e-07
**** Start Cycle 5 ****
time for NO, Ng: 0.014
time for Gg: 0.042
detC -1.0000000000000062
detNg [1. 1. 1. 1. 1. 1. 1. 1.]
xg [1. 1. 1. 1. 1. 1. 1. 1.]
ciS 1.9999999987057713
ciH -170.3947149426662
S2 = -0.000000
Hsp + Hph =  -85.19735752646554
Alpha occ 5 vir 13; Beta occ 5 vir 13
Alpha energies:  [-20.55502   -1.341064  -0.706165  -0.571042  -0.497577] <- HOMO
         LUMO->  [0.214531 0.30433  1.021717 1.163605 1.168269 1.197609]
Beta energies:   [-20.555023  -1.341071  -0.706169  -0.571049  -0.49758 ] <- HOMO
         LUMO->  [0.21453  0.304329 1.021721 1.163608 1.168267 1.197604]
time for xg, H, S2, Yg, Feff: 0.018
 E =    -76.00909911, delta E = -3.07239e-11, MaxD(dm) = 1.15196e-06, RMSD(dm) = 2.06338e-07
**** Start Cycle 6 ****
time for NO, Ng: 0.014
time for Gg: 0.042
detC 0.9999999999999994
detNg [1. 1. 1. 1. 1. 1. 1. 1.]
xg [1. 1. 1. 1. 1. 1. 1. 1.]
ciS 1.9999999983063317
ciH -170.39471490871733
S2 = 0.000000
Hsp + Hph =  -85.19735752650669
Alpha occ 5 vir 13; Beta occ 5 vir 13
Alpha energies:  [-20.55502   -1.341063  -0.706165  -0.571041  -0.497576] <- HOMO
         LUMO->  [0.214531 0.30433  1.021717 1.163604 1.168269 1.19761 ]
Beta energies:   [-20.555023  -1.341072  -0.706169  -0.571049  -0.49758 ] <- HOMO
         LUMO->  [0.21453  0.304329 1.021722 1.163609 1.168267 1.197604]
time for xg, H, S2, Yg, Feff: 0.018
 E =    -76.00909911, delta E = -4.11546e-11, MaxD(dm) = 1.34063e-06, RMSD(dm) = 2.38607e-07
**** Start Cycle 7 ****
time for NO, Ng: 0.014
time for Gg: 0.042
detC -1.000000000000002
detNg [1. 1. 1. 1. 1. 1. 1. 1.]
xg [1. 1. 1. 1. 1. 1. 1. 1.]
ciS 1.99999999777605
ciH -170.39471486364886
S2 = -0.000000
Hsp + Hph =  -85.19735752656176
Alpha occ 5 vir 13; Beta occ 5 vir 13
Alpha energies:  [-20.555019  -1.341063  -0.706164  -0.571041  -0.497576] <- HOMO
         LUMO->  [0.214531 0.30433  1.021717 1.163604 1.168269 1.19761 ]
Beta energies:   [-20.555023  -1.341072  -0.706169  -0.57105   -0.49758 ] <- HOMO
         LUMO->  [0.21453  0.304329 1.021722 1.163609 1.168266 1.197603]
time for xg, H, S2, Yg, Feff: 0.018
 E =    -76.00909911, delta E = -5.50671e-11, MaxD(dm) = 1.55783e-06, RMSD(dm) = 2.75963e-07
**** Start Cycle 8 ****
time for NO, Ng: 0.014
time for Gg: 0.042
detC -1.0000000000000027
detNg [1. 1. 1. 1. 1. 1. 1. 1.]
xg [1. 1. 1. 1. 1. 1. 1. 1.]
ciS 1.9999999970711615
ciH -170.3947148037418
S2 = -0.000000
Hsp + Hph =  -85.19735752663556
Alpha occ 5 vir 13; Beta occ 5 vir 13
Alpha energies:  [-20.555019  -1.341062  -0.706164  -0.57104   -0.497576] <- HOMO
         LUMO->  [0.214531 0.30433  1.021716 1.163604 1.168269 1.197611]
Beta energies:   [-20.555024  -1.341073  -0.70617   -0.57105   -0.497581] <- HOMO
         LUMO->  [0.21453  0.304329 1.021723 1.163609 1.168266 1.197603]
time for xg, H, S2, Yg, Feff: 0.018
 E =    -76.00909911, delta E = -7.3797e-11, MaxD(dm) = 1.81162e-06, RMSD(dm) = 3.19208e-07
**** Start Cycle 9 ****
time for NO, Ng: 0.014
time for Gg: 0.041
detC 1.0000000000000013
detNg [1. 1. 1. 1. 1. 1. 1. 1.]
xg [1. 1. 1. 1. 1. 1. 1. 1.]
ciS 1.9999999961332255
ciH -170.39471472402968
S2 = -0.000000
Hsp + Hph =  -85.19735752673434
Alpha occ 5 vir 13; Beta occ 5 vir 13
Alpha energies:  [-20.555019  -1.341061  -0.706163  -0.571039  -0.497575] <- HOMO
         LUMO->  [0.214531 0.30433  1.021716 1.163603 1.16827  1.197611]
Beta energies:   [-20.555024  -1.341074  -0.70617   -0.571051  -0.497581] <- HOMO
         LUMO->  [0.21453  0.304329 1.021723 1.16361  1.168266 1.197602]
time for xg, H, S2, Yg, Feff: 0.018
 E =    -76.00909911, delta E = -9.87797e-11, MaxD(dm) = 2.10673e-06, RMSD(dm) = 3.69274e-07
**** Start Cycle 10 ****
time for NO, Ng: 0.014
time for Gg: 0.041
detC -1.0000000000000002
detNg [1. 1. 1. 1. 1. 1. 1. 1.]
xg [1. 1. 1. 1. 1. 1. 1. 1.]
ciS 1.9999999948840865
ciH -170.39471461787105
S2 = 0.000000
Hsp + Hph =  -85.19735752686668
F(mod,ortho) updated with CDIIS
Alpha occ 5 vir 13; Beta occ 5 vir 13
Alpha energies:  [-20.555018  -1.34106   -0.706163  -0.571038  -0.497575] <- HOMO
         LUMO->  [0.214531 0.304331 1.021715 1.163603 1.16827  1.197612]
Beta energies:   [-20.555025  -1.341075  -0.706171  -0.571052  -0.497582] <- HOMO
         LUMO->  [0.21453  0.304329 1.021724 1.16361  1.168266 1.197602]
time for xg, H, S2, Yg, Feff: 0.018
 E =    -76.00909911, delta E = -1.32346e-10, MaxD(dm) = 2.44957e-06, RMSD(dm) = 4.2724e-07
**** Start Cycle 11 ****
time for NO, Ng: 0.014
time for Gg: 0.041
detC 0.9999999999999996
detNg [1. 1. 1. 1. 1. 1. 1. 1.]
xg [1. 1. 1. 1. 1. 1. 1. 1.]
ciS 1.9999999932191543
ciH -170.39471447637794
S2 = 0.000000
Hsp + Hph =  -85.19735752704403
F(mod,ortho) updated with CDIIS
Alpha occ 5 vir 13; Beta occ 5 vir 13
Alpha energies:  [-20.555022  -1.341067  -0.706167  -0.571045  -0.497579] <- HOMO
         LUMO->  [0.214531 0.304329 1.02172  1.163607 1.168268 1.197607]
Beta energies:   [-20.555021  -1.341067  -0.706167  -0.571046  -0.497578] <- HOMO
         LUMO->  [0.214531 0.30433  1.021719 1.163606 1.168268 1.197607]
time for xg, H, S2, Yg, Feff: 0.018
 E =    -76.00909911, delta E = -1.77351e-10, MaxD(dm) = 1.80027e-05, RMSD(dm) = 3.12475e-06
**** Start Cycle 12 ****
time for NO, Ng: 0.014
time for Gg: 0.044
detC -0.9999999999999992
detNg [1. 1. 1. 1. 1. 1. 1. 1.]
xg [1. 1. 1. 1. 1. 1. 1. 1.]
ciS 1.999999999928181
ciH -170.39471504657234
S2 = 0.000000
Hsp + Hph =  -85.19735752634556
F(mod,ortho) updated with CDIIS
Alpha occ 5 vir 13; Beta occ 5 vir 13
Alpha energies:  [-20.555021  -1.341067  -0.706167  -0.571045  -0.497579] <- HOMO
         LUMO->  [0.214531 0.304329 1.02172  1.163607 1.168268 1.197607]
Beta energies:   [-20.555021  -1.341067  -0.706166  -0.571046  -0.497578] <- HOMO
         LUMO->  [0.21453  0.30433  1.021719 1.163606 1.168268 1.197607]
time for xg, H, S2, Yg, Feff: 0.019

***************
SUHF converged at cycle 12
Final E(SUHF) =    -76.00909911, delta E = 6.98478e-10, MaxD(dm) = 1.27552e-07, RMSD(dm) = 2.02767e-08
time for cyc: 0.889
******* suhf density *****
Clebsch-Gordan coeff: < 0 0 0 0 | 0 0 > = 1
Clebsch-Gordan coeff: < 0 0 1 0 | 0 0 > = 0
xggint 1.0
time for 1pdm: 0.016
SUHF NO occ alpha:  1.000000  1.000000  1.000000  1.000000  1.000000  ...
SUHF NO occ beta:   1.000000  1.000000  1.000000  1.000000  1.000000  ...
SUHF NO occ total:  2.000000  2.000000  2.000000  2.000000  2.000000  ...
core 5, active 0, external 13
time for natorb: 0.001
time tot: 1.011
Date: Thu Jun 24 22:33:05 2021

******** <class 'pyphf.suscf.SUHF'> ********
Date: Thu Jun 24 22:33:05 2021
pyphf version 0.4.0
pyphf path  /share/home/srwang/ExSCF
GIT ORIG_HEAD 198e48480b188f02e90f0e6e8cbbe5568091e1c6
GIT HEAD (branch main) c5b8632dfe575b1dd41f6e63305c6831938c670e
max_cycle = 70
verbose: 4, normal
conv_tol: 1e-07
chkfile0: 24366_ges.pchk # the file store hf for guess
chkfile: 24366_su.pchk # the file store suhf info
DIIS: <class 'pyscf.scf.diis.CDIIS'>
diis_start_cyc = 10
grids:  [0.062377 0.319396 0.745292 1.282658 1.858935 2.396301 2.822197 3.079216] 
weights:  [0.159009 0.349315 0.492769 0.569702 0.569702 0.492769 0.349315 0.159009]
S = 0.0, Sz = 0.0
Wigner small d:  1
value : [1. 1. 1. 1. 1. 1. 1. 1.]
Excitation: Alpha  [4]  ->  [5]
             Beta  []  ->  []
Former occ pattern: Alpha [1 1 1 1 1 0 0 0 0 0 0 0 0 0 0 0 0 0]
                     Beta [1 1 1 1 1 0 0 0 0 0 0 0 0 0 0 0 0 0]
New occ pattern:    Alpha [1 1 1 1 0 1 0 0 0 0 0 0 0 0 0 0 0 0]
                     Beta [1 1 1 1 1 0 0 0 0 0 0 0 0 0 0 0 0 0]
time for Preparation before cyc: 0.006
**** Start Cycle 1 ****
time for NO, Ng: 0.014
time for Gg: 0.041
detC -1.0000000000000027
detNg [1. 1. 1. 1. 1. 1. 1. 1.]
xg [1. 1. 1. 1. 1. 1. 1. 1.]
ciS 1.9999999995366726
ciH -170.39471501328848
S2 = -0.000000
Hsp + Hph =  -85.19735752638138
Alpha occ 5 vir 13; Beta occ 5 vir 13
Alpha energies:  [-20.55502   -1.341065  -0.706166  -0.571043  -0.497577] <- HOMO
         LUMO->  [0.214531 0.30433  1.021718 1.163606 1.168268 1.197608]
Beta energies:   [-20.555022  -1.341069  -0.706168  -0.571047  -0.497579] <- HOMO
         LUMO->  [0.21453  0.30433  1.02172  1.163607 1.168267 1.197605]
time for xg, H, S2, Yg, Feff: 0.018
 E =    -76.00909911
**** Start Cycle 2 ****
time for NO, Ng: 0.016
time for Gg: 0.043
detC 0.9999999999999999
detNg [1. 1. 1. 1. 1. 1. 1. 1.]
xg [1. 1. 1. 1. 1. 1. 1. 1.]
ciS 1.9999999994063682
ciH -170.39471500221327
S2 = 0.000000
Hsp + Hph =  -85.19735752639457
Alpha occ 5 vir 13; Beta occ 5 vir 13
Alpha energies:  [-20.555021  -1.341065  -0.706166  -0.571043  -0.497577] <- HOMO
         LUMO->  [0.214531 0.30433  1.021718 1.163605 1.168268 1.197608]
Beta energies:   [-20.555022  -1.34107   -0.706168  -0.571047  -0.497579] <- HOMO
         LUMO->  [0.21453  0.30433  1.021721 1.163608 1.168267 1.197605]
time for xg, H, S2, Yg, Feff: 0.018
 E =    -76.00909911, delta E = -1.31877e-11, MaxD(dm) = 7.90693e-07, RMSD(dm) = 1.33948e-07
**** Start Cycle 3 ****
time for NO, Ng: 0.014
time for Gg: 0.042
detC 0.9999999999999989
detNg [1. 1. 1. 1. 1. 1. 1. 1.]
xg [1. 1. 1. 1. 1. 1. 1. 1.]
ciS 1.9999999992343598
ciH -170.3947149875931
S2 = 0.000000
Hsp + Hph =  -85.19735752641182
Alpha occ 5 vir 13; Beta occ 5 vir 13
Alpha energies:  [-20.55502   -1.341065  -0.706166  -0.571042  -0.497577] <- HOMO
         LUMO->  [0.214531 0.30433  1.021718 1.163605 1.168269 1.197609]
Beta energies:   [-20.555022  -1.34107   -0.706168  -0.571048  -0.497579] <- HOMO
         LUMO->  [0.21453  0.30433  1.021721 1.163608 1.168267 1.197605]
time for xg, H, S2, Yg, Feff: 0.018
 E =    -76.00909911, delta E = -1.7252e-11, MaxD(dm) = 8.50603e-07, RMSD(dm) = 1.5442e-07
**** Start Cycle 4 ****
time for NO, Ng: 0.014
time for Gg: 0.041
detC 0.9999999999999957
detNg [1. 1. 1. 1. 1. 1. 1. 1.]
xg [1. 1. 1. 1. 1. 1. 1. 1.]
ciS 1.9999999990069104
ciH -170.39471496826098
S2 = 0.000000
Hsp + Hph =  -85.19735752643481
Alpha occ 5 vir 13; Beta occ 5 vir 13
Alpha energies:  [-20.55502   -1.341064  -0.706165  -0.571042  -0.497577] <- HOMO
         LUMO->  [0.214531 0.30433  1.021718 1.163605 1.168269 1.197609]
Beta energies:   [-20.555023  -1.34107   -0.706168  -0.571048  -0.49758 ] <- HOMO
         LUMO->  [0.21453  0.30433  1.021721 1.163608 1.168267 1.197605]
time for xg, H, S2, Yg, Feff: 0.018
 E =    -76.00909911, delta E = -2.29932e-11, MaxD(dm) = 9.99432e-07, RMSD(dm) = 1.78468e-07
**** Start Cycle 5 ****
time for NO, Ng: 0.014
time for Gg: 0.042
detC -1.0000000000000062
detNg [1. 1. 1. 1. 1. 1. 1. 1.]
xg [1. 1. 1. 1. 1. 1. 1. 1.]
ciS 1.9999999987057713
ciH -170.3947149426662
S2 = -0.000000
Hsp + Hph =  -85.19735752646554
Overlap:  [1. 1. 1. 1. 0. 1. 0. 0. 0. 0. 0. 0. 0. 0. 0. 0. 0. 0.] 
 [1. 1. 1. 1. 1. 0. 0. 0. 0. 0. 0. 0. 0. 0. 0. 0. 0. 0.]
 New alpha occ pattern:  [1 1 1 1 0 1 0 0 0 0 0 0 0 0 0 0 0 0]
 New beta occ pattern:   [1 1 1 1 1 0 0 0 0 0 0 0 0 0 0 0 0 0]
 Current alpha mo_energy(sorted):  [-20.55502   -1.341064  -0.706165  -0.571042  -0.497577   0.214531   0.30433    1.021718   1.163605   1.168269   1.197609   1.380897   1.660045   2.020307
   2.033772   2.0676     2.629687   2.945751]
 Current beta mo_energy(sorted):   [-20.555023  -1.34107   -0.706168  -0.571048  -0.49758    0.21453    0.30433    1.021721   1.163608   1.168267   1.197605   1.380893   1.660043   2.020305
   2.033771   2.067598   2.629687   2.94575 ]
Alpha occ 5 vir 13; Beta occ 5 vir 13
Alpha energies:  [-20.55502   -1.341064  -0.706165  -0.571042  -0.497577] <- HOMO
         LUMO->  [0.214531 0.30433  1.021717 1.163605 1.168269 1.197609]
Beta energies:   [-20.555023  -1.341071  -0.706169  -0.571049  -0.49758 ] <- HOMO
         LUMO->  [0.21453  0.304329 1.021721 1.163608 1.168267 1.197604]
time for xg, H, S2, Yg, Feff: 0.019
 E =    -76.00909911, delta E = -3.07239e-11, MaxD(dm) =   0.994812, RMSD(dm) =  0.0555556
**** Start Cycle 6 ****
time for NO, Ng: 0.014
time for Gg: 0.042
detC 0.9999999999999992
detNg [   1.000973    1.025943    1.152811    1.557429    2.793951    7.544037   39.54553  1028.390706]
xg [0.999028 0.974713 0.867445 0.642084 0.357916 0.132555 0.025287 0.000972]
ciS 0.9999999996958857
ciH -84.82890954435067
S2 = 0.000000
Hsp + Hph =  -84.82890957014835
Overlap:  [1. 1. 1. 1. 0. 1. 0. 0. 0. 0. 0. 0. 0. 0. 0. 0. 0. 0.] 
 [1. 1. 1. 1. 1. 0. 0. 0. 0. 0. 0. 0. 0. 0. 0. 0. 0. 0.]
 New alpha occ pattern:  [1 1 1 1 0 1 0 0 0 0 0 0 0 0 0 0 0 0]
 New beta occ pattern:   [1 1 1 1 1 0 0 0 0 0 0 0 0 0 0 0 0 0]
 Current alpha mo_energy(sorted):  [-20.55502   -1.341064  -0.706165  -0.571042  -0.497577   0.214531   0.30433    1.021717   1.163605   1.168269   1.197609   1.380898   1.660045   2.020308
   2.033772   2.0676     2.629687   2.945751]
 Current beta mo_energy(sorted):   [-20.555023  -1.341071  -0.706169  -0.571049  -0.49758    0.21453    0.304329   1.021721   1.163608   1.168267   1.197604   1.380893   1.660043   2.020305
   2.033771   2.067598   2.629687   2.945749]
Alpha occ 5 vir 13; Beta occ 5 vir 13
Alpha energies:  [-21.128423  -1.581914  -0.948772  -0.871887  -0.14271 ] <- HOMO
         LUMO->  [-0.139304  0.17703   0.89337   0.924693  1.000718  1.048762]
Beta energies:   [-21.14681   -1.674879  -0.96159   -0.905533  -0.879519] <- HOMO
         LUMO->  [0.183549 0.262702 0.874392 0.902795 0.934837 1.035421]
time for xg, H, S2, Yg, Feff: 0.019
 E =    -75.64065115, delta E =   0.368448, MaxD(dm) =  0.0878475, RMSD(dm) =  0.0140302
**** Start Cycle 7 ****
time for NO, Ng: 0.014
time for Gg: 0.041
detC -0.9999999999999976
detNg [   1.000976    1.026014    1.153226    1.558943    2.798826    7.561828   39.650346 1031.184586]
xg [0.999025 0.974646 0.867133 0.64146  0.357293 0.132243 0.02522  0.00097 ]
ciS 0.9990956419563048
ciH -84.81888563241465
S2 = 0.000000
Hsp + Hph =  -84.89566170695416
Overlap:  [0.999998 0.997819 0.991007 0.993319 0.       0.994064 0.006358 0.000341 0.008588 0.       0.002261 0.002287 0.003588 0.000299 0.       0.       0.000064
 0.000006] 
 [1.       0.994958 0.98448  0.991736 0.988837 0.008974 0.012869 0.008113 0.000274 0.005642 0.0008   0.00234  0.000489 0.       0.000125 0.000151 0.000174
 0.000036]
 New alpha occ pattern:  [1 1 1 1 0 1 0 0 0 0 0 0 0 0 0 0 0 0]
 New beta occ pattern:   [1 1 1 1 1 0 0 0 0 0 0 0 0 0 0 0 0 0]
 Current alpha mo_energy(sorted):  [-21.128423  -1.581914  -0.948772  -0.871887  -0.14271   -0.139304   0.17703    0.89337    0.924693   1.000718   1.048762   1.143236   1.45064    1.780064
   1.817807   1.845931   2.436458   2.725518]
 Current beta mo_energy(sorted):   [-21.14681   -1.674879  -0.96159   -0.905533  -0.879519   0.183549   0.262702   0.874392   0.902795   0.934837   1.035421   1.148472   1.425948   1.724924
   1.756874   1.75909    2.384329   2.729181]
Alpha occ 5 vir 13; Beta occ 5 vir 13
Alpha energies:  [-20.560327  -1.381347  -0.796876  -0.674959  -0.118598] <- HOMO
         LUMO->  [0.057928 0.216852 0.959778 1.075695 1.121078 1.209579]
Beta energies:   [-20.58587   -1.482947  -0.805197  -0.712619  -0.693483] <- HOMO
         LUMO->  [0.215816 0.304341 0.973056 1.01566  1.094225 1.109485]
time for xg, H, S2, Yg, Feff: 0.019
 E =    -75.70740329, delta E = -0.0667521, MaxD(dm) =   0.990698, RMSD(dm) =   0.055847
**** Start Cycle 8 ****
time for NO, Ng: 0.014
time for Gg: 0.042
detC 0.9999999999999977
detNg [1.000055 1.001428 1.007525 1.020534 1.037336 1.050989 1.057591 1.059098]
xg [0.999945 0.998574 0.992531 0.979879 0.964007 0.951485 0.945545 0.9442  ]
ciS 1.9439578120781746
ciH -165.56701398929084
S2 = 0.000000
Hsp + Hph =  -85.17006539987233
Overlap:  [0.999998 0.998533 0.998917 0.997914 0.996241 0.       0.000519 0.000239 0.004411 0.000335 0.       0.00032  0.001728 0.000387 0.       0.       0.000453
 0.000005] 
 [0.999998 0.995668 0.989205 0.996635 0.994106 0.007225 0.0094   0.000508 0.003247 0.001626 0.000826 0.00087  0.000021 0.       0.0002   0.000118 0.000331
 0.000018]
 New alpha occ pattern:  [1 1 1 1 1 0 0 0 0 0 0 0 0 0 0 0 0 0]
 New beta occ pattern:   [1 1 1 1 1 0 0 0 0 0 0 0 0 0 0 0 0 0]
 Current alpha mo_energy(sorted):  [-20.560327  -1.381347  -0.796876  -0.674959  -0.118598   0.057928   0.216852   0.959778   1.075695   1.121078   1.209579   1.299978   1.571732   1.935329
   1.973834   2.005263   2.565724   2.853571]
 Current beta mo_energy(sorted):   [-20.58587   -1.482947  -0.805197  -0.712619  -0.693483   0.215816   0.304341   0.973056   1.01566    1.094225   1.109485   1.299382   1.56132    1.87784
   1.911285   1.914431   2.50274    2.858677]
Alpha occ 5 vir 13; Beta occ 5 vir 13
Alpha energies:  [-20.378157  -1.276822  -0.669233  -0.514764  -0.358411] <- HOMO
         LUMO->  [0.212348 0.309192 1.031861 1.17038  1.251841 1.273669]
Beta energies:   [-20.397689  -1.304074  -0.673643  -0.52123   -0.463982] <- HOMO
         LUMO->  [0.212555 0.298926 1.039492 1.172543 1.1966   1.245543]
time for xg, H, S2, Yg, Feff: 0.019
 E =    -75.98180698, delta E =  -0.274404, MaxD(dm) =  0.0511639, RMSD(dm) = 0.00833171
**** Start Cycle 9 ****
time for NO, Ng: 0.014
time for Gg: 0.041
detC -1.0000000000000036
detNg [1.000064 1.001676 1.008837 1.02416  1.044041 1.060268 1.068139 1.069937]
xg [0.999936 0.998327 0.991241 0.97641  0.957817 0.943158 0.936208 0.934634]
ciS 1.9343213045939622
ciH -164.7962605269047
S2 = 0.000000
Hsp + Hph =  -85.19590831963536
Overlap:  [0.999998 0.998904 0.99825  0.999361 0.       0.99967  0.00147  0.00005  0.00072  0.000371 0.       0.000219 0.000211 0.000234 0.       0.       0.00053
 0.000011] 
 [0.999998 0.998589 0.998422 0.999552 0.99465  0.000735 0.001512 0.000035 0.000318 0.005349 0.000038 0.000026 0.00018  0.000244 0.       0.       0.000347
 0.000004]
 New alpha occ pattern:  [1 1 1 1 0 1 0 0 0 0 0 0 0 0 0 0 0 0]
 New beta occ pattern:   [1 1 1 1 1 0 0 0 0 0 0 0 0 0 0 0 0 0]
 Current alpha mo_energy(sorted):  [-20.378157  -1.276822  -0.669233  -0.514764  -0.358411   0.212348   0.309192   1.031861   1.17038    1.251841   1.273669   1.437603   1.689729   2.06881
   2.08682    2.121523   2.675415   2.983588]
 Current beta mo_energy(sorted):   [-20.397689  -1.304074  -0.673643  -0.52123   -0.463982   0.212555   0.298926   1.039492   1.172543   1.1966     1.245543   1.419035   1.699882   2.070486
   2.077813   2.116242   2.658365   2.983626]
Alpha occ 5 vir 13; Beta occ 5 vir 13
Alpha energies:  [-20.645954  -1.354092  -0.724396  -0.601209  -0.442958] <- HOMO
         LUMO->  [0.203971 0.295604 1.004034 1.142514 1.169815 1.173274]
Beta energies:   [-20.668063  -1.391127  -0.744474  -0.609494  -0.586507] <- HOMO
         LUMO->  [0.207653 0.292785 1.013223 1.114522 1.14641  1.16579 ]
time for xg, H, S2, Yg, Feff: 0.019
 E =    -76.00764990, delta E = -0.0258429, MaxD(dm) =   0.989358, RMSD(dm) =  0.0556637
**** Start Cycle 10 ****
time for NO, Ng: 0.014
time for Gg: 0.042
detC 0.999999999999998
detNg [   1.000987    1.026299    1.154907    1.565094    2.818691    7.634491   40.078906 1042.610821]
xg [0.999014 0.974375 0.86587  0.638939 0.354775 0.130985 0.024951 0.000959]
ciS 0.995441195089171
ciH -84.49350921935496
S2 = 0.000000
Hsp + Hph =  -84.88046268949728
F(mod,ortho) updated with CDIIS
Overlap:  [0.999997 0.998927 0.999063 0.999598 0.       0.999908 0.000887 0.000023 0.000382 0.       0.000274 0.000018 0.000229 0.000249 0.       0.       0.000435
 0.000009] 
 [0.999998 0.998161 0.996545 0.999116 0.985126 0.001024 0.003008 0.000078 0.014869 0.000285 0.000693 0.000359 0.000066 0.000238 0.       0.000006 0.000419
 0.00001 ]
 New alpha occ pattern:  [1 1 1 1 0 1 0 0 0 0 0 0 0 0 0 0 0 0]
 New beta occ pattern:   [1 1 1 1 1 0 0 0 0 0 0 0 0 0 0 0 0 0]
 Current alpha mo_energy(sorted):  [-20.645954  -1.354092  -0.724396  -0.601209  -0.442958   0.203971   0.295604   1.004034   1.142514   1.169815   1.173274   1.357703   1.630289   1.993308
   2.012614   2.044099   2.614484   2.921642]
 Current beta mo_energy(sorted):   [-20.668063  -1.391127  -0.744474  -0.609494  -0.586507   0.207653   0.292785   1.013223   1.114522   1.14641    1.16579    1.339785   1.636541   1.994335
   2.002608   2.038876   2.59793    2.921471]
Alpha occ 5 vir 13; Beta occ 5 vir 13
Alpha energies:  [-20.932078  -1.501815  -0.877022  -0.80077   -0.130866] <- HOMO
         LUMO->  [-0.062631  0.193754  0.911097  0.979134  1.072656  1.073176]
Beta energies:   [-20.96565   -1.622105  -0.920288  -0.89135   -0.817603] <- HOMO
         LUMO->  [0.200465 0.284327 0.89876  0.929938 0.986749 1.0645  ]
time for xg, H, S2, Yg, Feff: 0.019
 E =    -75.69220427, delta E =   0.315446, MaxD(dm) =   0.999001, RMSD(dm) =  0.0561344
**** Start Cycle 11 ****
time for NO, Ng: 0.014
time for Gg: 0.042
detC -1.0000000000000004
detNg [1.000062 1.001623 1.00855  1.023333 1.04243  1.057948 1.065454 1.067166]
xg [0.999938 0.99838  0.991522 0.977199 0.959297 0.945226 0.938567 0.937062]
ciS 1.936634763318126
ciH -164.85518720751543
S2 = 0.000000
Hsp + Hph =  -85.12456263310146
F(mod,ortho) updated with CDIIS
Overlap:  [0.999995 0.997475 0.998839 0.996208 0.995985 0.       0.000411 0.00015  0.004714 0.       0.001492 0.000598 0.002834 0.000705 0.       0.       0.000591
 0.000003] 
 [0.999998 0.992987 0.979924 0.986185 0.99084  0.008679 0.017235 0.013656 0.000476 0.004488 0.001794 0.002306 0.000185 0.       0.000356 0.000159 0.000674
 0.000059]
 New alpha occ pattern:  [1 1 1 1 1 0 0 0 0 0 0 0 0 0 0 0 0 0]
 New beta occ pattern:   [1 1 1 1 1 0 0 0 0 0 0 0 0 0 0 0 0 0]
 Current alpha mo_energy(sorted):  [-20.932078  -1.501815  -0.877022  -0.80077   -0.130866  -0.062631   0.193754   0.911097   0.979134   1.072656   1.073176   1.203663   1.494095   1.82874
   1.871331   1.897533   2.481553   2.76761 ]
 Current beta mo_energy(sorted):   [-20.96565   -1.622105  -0.920288  -0.89135   -0.817603   0.200465   0.284327   0.89876    0.929938   0.986749   1.0645     1.193208   1.472172   1.770716
   1.806217   1.80779    2.419162   2.771674]
Alpha occ 5 vir 13; Beta occ 5 vir 13
Alpha energies:  [-20.652234  -1.392252  -0.778979  -0.67001   -0.149179] <- HOMO
         LUMO->  [-0.005806  0.244788  0.962861  1.0912    1.125577  1.169894]
Beta energies:   [-20.682076  -1.477044  -0.805656  -0.708843  -0.684504] <- HOMO
         LUMO->  [0.210975 0.295384 0.97902  1.015851 1.099398 1.114855]
time for xg, H, S2, Yg, Feff: 0.020
 E =    -75.93630422, delta E =    -0.2441, MaxD(dm) =  0.0337721, RMSD(dm) = 0.00545253
**** Start Cycle 12 ****
time for NO, Ng: 0.014
time for Gg: 0.041
detC -0.9999999999999982
detNg [1.000069 1.001804 1.009511 1.02599  1.047344 1.064751 1.073188 1.075114]
xg [0.999931 0.998199 0.990579 0.974668 0.954796 0.939186 0.931803 0.930134]
ciS 1.9296295824255725
ciH -164.37369127478445
S2 = 0.000000
Hsp + Hph =  -85.18406474063501
F(mod,ortho) updated with CDIIS
Overlap:  [0.999996 0.998095 0.999718 0.998615 0.       0.998736 0.000255 0.000017 0.001598 0.000654 0.       0.000002 0.00103  0.000554 0.       0.       0.000722
 0.000009] 
 [0.999997 0.995691 0.989016 0.990486 0.996543 0.003959 0.009512 0.000378 0.009457 0.001433 0.001315 0.001067 0.000053 0.       0.000357 0.000057 0.000654
 0.000027]
 New alpha occ pattern:  [1 1 1 1 0 1 0 0 0 0 0 0 0 0 0 0 0 0]
 New beta occ pattern:   [1 1 1 1 1 0 0 0 0 0 0 0 0 0 0 0 0 0]
 Current alpha mo_energy(sorted):  [-20.652234  -1.392252  -0.778979  -0.67001   -0.149179  -0.005806   0.244788   0.962861   1.0912     1.125577   1.169894   1.310089   1.580646   1.933824
   1.968866   1.997609   2.566904   2.861465]
 Current beta mo_energy(sorted):   [-20.682076  -1.477044  -0.805656  -0.708843  -0.684504   0.210975   0.295384   0.97902    1.015851   1.099398   1.114855   1.290973   1.570776   1.900299
   1.920962   1.938543   2.517348   2.863839]
Alpha occ 5 vir 13; Beta occ 5 vir 13
Alpha energies:  [-20.597097  -1.35111   -0.730591  -0.610237  -0.316289] <- HOMO
         LUMO->  [0.125308 0.281692 0.992669 1.133368 1.166014 1.191032]
Beta energies:   [-20.624413  -1.407817  -0.756492  -0.621729  -0.612935] <- HOMO
         LUMO->  [0.211468 0.294567 1.007247 1.087833 1.142094 1.154866]
time for xg, H, S2, Yg, Feff: 0.020
 E =    -75.99580632, delta E = -0.0595021, MaxD(dm) =   0.996048, RMSD(dm) =  0.0556279
**** Start Cycle 13 ****
time for NO, Ng: 0.014
time for Gg: 0.042
detC 1.0000000000000013
detNg [   1.001       1.026649    1.156978    1.572702    2.843392    7.725232   40.615183 1056.915599]
xg [0.999001 0.974042 0.86432  0.635849 0.351693 0.129446 0.024621 0.000946]
ciS 0.9909644457423292
ciH -84.12261778739811
S2 = 0.000000
Hsp + Hph =  -84.88964276047467
F(mod,ortho) updated with CDIIS
Overlap:  [0.999996 0.998154 0.998105 0.999159 0.       0.999698 0.001704 0.000023 0.000653 0.000676 0.       0.000155 0.000413 0.000489 0.       0.       0.000762
 0.000013] 
 [0.999996 0.996913 0.992547 0.998523 0.988528 0.001566 0.006436 0.000241 0.01146  0.000725 0.001092 0.000757 0.000094 0.       0.000403 0.000013 0.000688
 0.000019]
 New alpha occ pattern:  [1 1 1 1 0 1 0 0 0 0 0 0 0 0 0 0 0 0]
 New beta occ pattern:   [1 1 1 1 1 0 0 0 0 0 0 0 0 0 0 0 0 0]
 Current alpha mo_energy(sorted):  [-20.597097  -1.35111   -0.730591  -0.610237  -0.316289   0.125308   0.281692   0.992669   1.133368   1.166014   1.191032   1.358954   1.624159   1.98443
   2.011222   2.041162   2.608109   2.91099 ]
 Current beta mo_energy(sorted):   [-20.624413  -1.407817  -0.756492  -0.621729  -0.612935   0.211468   0.294567   1.007247   1.087833   1.142094   1.154866   1.333557   1.62266    1.977088
   1.981173   2.01557    2.577286   2.911533]
Alpha occ 5 vir 13; Beta occ 5 vir 13
Alpha energies:  [-20.602535  -1.353784  -0.733568  -0.614549  -0.303813] <- HOMO
         LUMO->  [0.11517  0.279023 0.989922 1.129952 1.162422 1.189274]
Beta energies:   [-20.630581  -1.413863  -0.761684  -0.626955  -0.619974] <- HOMO
         LUMO->  [0.211404 0.294101 1.005513 1.083033 1.140048 1.150363]
time for xg, H, S2, Yg, Feff: 0.020
 E =    -75.70138434, delta E =   0.294422, MaxD(dm) = 0.00390732, RMSD(dm) = 0.000457145
**** Start Cycle 14 ****
time for NO, Ng: 0.014
time for Gg: 0.042
detC -0.9999999999999969
detNg [   1.001003    1.026722    1.15741     1.574292    2.848575    7.744326   40.728188 1059.930884]
xg [0.998998 0.973973 0.863998 0.635206 0.351053 0.129127 0.024553 0.000943]
ciS 0.990034605313149
ciH -84.04615709110509
S2 = 0.000000
Hsp + Hph =  -84.89214077978738
F(mod,ortho) updated with CDIIS
Overlap:  [0.999996 0.998021 0.99797  0.999073 0.       0.99961  0.001825 0.000023 0.000726 0.000763 0.       0.000169 0.000468 0.000534 0.       0.       0.000811
 0.000014] 
 [0.999996 0.996644 0.991478 0.998298 0.988859 0.00176  0.007339 0.000284 0.011126 0.000733 0.001307 0.000877 0.0001   0.       0.000432 0.000015 0.00073
 0.000021]
 New alpha occ pattern:  [1 1 1 1 0 1 0 0 0 0 0 0 0 0 0 0 0 0]
 New beta occ pattern:   [1 1 1 1 1 0 0 0 0 0 0 0 0 0 0 0 0 0]
 Current alpha mo_energy(sorted):  [-20.602535  -1.353784  -0.733568  -0.614549  -0.303813   0.11517    0.279023   0.989922   1.129952   1.162422   1.189274   1.355911   1.620929   1.980513
   2.008285   2.037925   2.604857   2.907134]
 Current beta mo_energy(sorted):   [-20.630581  -1.413863  -0.761684  -0.626955  -0.619974   0.211404   0.294101   1.005513   1.083033   1.140048   1.150363   1.329015   1.618031   1.970857
   1.976532   2.009626   2.572389   2.907687]
Alpha occ 5 vir 13; Beta occ 5 vir 13
Alpha energies:  [-20.67096   -1.389409  -0.776807  -0.677715  -0.100933] <- HOMO
         LUMO->  [-0.041057  0.239847  0.952068  1.075311  1.117122  1.17026 ]
Beta energies:   [-20.710503  -1.501193  -0.839852  -0.728759  -0.706109] <- HOMO
         LUMO->  [0.214639 0.294295 0.982949 1.011368 1.082402 1.117941]
time for xg, H, S2, Yg, Feff: 0.020
 E =    -75.70388236, delta E = -0.00249802, MaxD(dm) =  0.0545402, RMSD(dm) =  0.0062619
**** Start Cycle 15 ****
time for NO, Ng: 0.014
time for Gg: 0.042
detC 1.0000000000000027
detNg [   1.00105     1.027983    1.164904    1.602173    2.940579    8.086758   42.764707 1114.331227]
xg [0.998951 0.972779 0.85844  0.624153 0.340069 0.123659 0.023384 0.000897]
ciS 0.9740523769554534
ciH -82.71295733937005
S2 = 0.000000
Hsp + Hph =  -84.9163343740321
F(mod,ortho) updated with CDIIS
Overlap:  [0.999994 0.996334 0.995607 0.997657 0.       0.996811 0.004023 0.000022 0.003202 0.001838 0.       0.000309 0.001626 0.001197 0.       0.       0.001341
 0.000039] 
 [0.999995 0.992212 0.969986 0.991928 0.992712 0.006663 0.02539  0.001242 0.007994 0.003641 0.002655 0.003313 0.000191 0.       0.000791 0.000078 0.001139
 0.000069]
 New alpha occ pattern:  [1 1 1 1 0 1 0 0 0 0 0 0 0 0 0 0 0 0]
 New beta occ pattern:   [1 1 1 1 1 0 0 0 0 0 0 0 0 0 0 0 0 0]
 Current alpha mo_energy(sorted):  [-20.67096   -1.389409  -0.776807  -0.677715  -0.100933  -0.041057   0.239847   0.952068   1.075311   1.117122   1.17026    1.311599   1.57533    1.926094
   1.966975   1.992591   2.559593   2.85273 ]
 Current beta mo_energy(sorted):   [-20.710503  -1.501193  -0.839852  -0.728759  -0.706109   0.214639   0.294295   0.982949   1.011368   1.082402   1.117941   1.26826    1.5543     1.880546
   1.908746   1.922537   2.503752   2.853642]
Alpha occ 5 vir 13; Beta occ 5 vir 13
Alpha energies:  [-20.701918  -1.406959  -0.793214  -0.70265   -0.101047] <- HOMO
         LUMO->  [-0.029894  0.223207  0.935077  1.049026  1.098863  1.159191]
Beta energies:   [-20.74586   -1.535623  -0.862359  -0.7718    -0.737838] <- HOMO
         LUMO->  [0.213222 0.287229 0.973155 0.981826 1.053894 1.107189]
time for xg, H, S2, Yg, Feff: 0.020
 E =    -75.72807596, delta E = -0.0241936, MaxD(dm) =   0.994582, RMSD(dm) =  0.0555981
**** Start Cycle 16 ****
time for NO, Ng: 0.014
time for Gg: 0.042
detC 1.0000000000000002
detNg [1.000143 1.003734 1.019788 1.054693 1.101108 1.139954 1.159114 1.163519]
xg [0.999857 0.99628  0.980596 0.948143 0.908176 0.877228 0.862728 0.859462]
ciS 1.857146996489695
ciH -158.1755983686404
S2 = 0.000000
Hsp + Hph =  -85.17128620815564
F(mod,ortho) updated with CDIIS
Overlap:  [0.999994 0.99614  0.994188 0.997356 0.995042 0.       0.005282 0.000055 0.004701 0.001945 0.       0.000423 0.002191 0.001353 0.       0.       0.001277
 0.000052] 
 [0.999995 0.990801 0.959452 0.99279  0.989254 0.009806 0.03403  0.001924 0.007095 0.005034 0.00306  0.0045   0.000182 0.       0.000807 0.000115 0.001061
 0.000094]
 New alpha occ pattern:  [1 1 1 1 1 0 0 0 0 0 0 0 0 0 0 0 0 0]
 New beta occ pattern:   [1 1 1 1 1 0 0 0 0 0 0 0 0 0 0 0 0 0]
 Current alpha mo_energy(sorted):  [-20.701918  -1.406959  -0.793214  -0.70265   -0.101047  -0.029894   0.223207   0.935077   1.049026   1.098863   1.159191   1.293124   1.554941   1.902962
   1.948051   1.972565   2.539325   2.829852]
 Current beta mo_energy(sorted):   [-20.74586   -1.535623  -0.862359  -0.7718    -0.737838   0.213222   0.287229   0.973155   0.981826   1.053894   1.107189   1.241681   1.527397   1.843927
   1.87989    1.887089   2.476031   2.830253]
Alpha occ 5 vir 13; Beta occ 5 vir 13
Alpha energies:  [-20.684207  -1.399301  -0.786067  -0.689158  -0.071444] <- HOMO
         LUMO->  [-0.06738   0.231471  0.946313  1.06346   1.109503  1.164326]
Beta energies:   [-20.723046  -1.512383  -0.839573  -0.745151  -0.717105] <- HOMO
         LUMO->  [0.212752 0.28921  0.977606 0.997464 1.070778 1.112526]
time for xg, H, S2, Yg, Feff: 0.020
 E =    -75.98302779, delta E =  -0.254952, MaxD(dm) =  0.0229223, RMSD(dm) = 0.00234037
**** Start Cycle 17 ****
time for NO, Ng: 0.014
time for Gg: 0.042
detC 1.0000000000000042
detNg [1.000115 1.002996 1.015842 1.043572 1.080034 1.1102   1.124964 1.128348]
xg [0.999885 0.997013 0.984405 0.958247 0.925897 0.900738 0.888917 0.886251]
ciS 1.8846934084664868
ciH -160.53097230004175
S2 = 0.000000
Hsp + Hph =  -85.17617325921489
F(mod,ortho) updated with CDIIS
Overlap:  [0.999995 0.996821 0.996799 0.997767 0.       0.995921 0.003006 0.000008 0.004024 0.001471 0.       0.000149 0.001833 0.001064 0.       0.       0.001104
 0.000038] 
 [0.999996 0.992621 0.970539 0.992176 0.992081 0.007553 0.025026 0.001327 0.00773  0.003635 0.002404 0.00304  0.000129 0.       0.000647 0.000094 0.000935
 0.000068]
 New alpha occ pattern:  [1 1 1 1 0 1 0 0 0 0 0 0 0 0 0 0 0 0]
 New beta occ pattern:   [1 1 1 1 1 0 0 0 0 0 0 0 0 0 0 0 0 0]
 Current alpha mo_energy(sorted):  [-20.684207  -1.399301  -0.786067  -0.689158  -0.071444  -0.06738    0.231471   0.946313   1.06346    1.109503   1.164326   1.30096    1.565287   1.915971
   1.957771   1.983707   2.550565   2.842658]
 Current beta mo_energy(sorted):   [-20.723046  -1.512383  -0.839573  -0.745151  -0.717105   0.212752   0.28921    0.977606   0.997464   1.070778   1.112526   1.258972   1.543739   1.865655
   1.896451   1.907294   2.49247    2.844101]
Alpha occ 5 vir 13; Beta occ 5 vir 13
Alpha energies:  [-20.684349  -1.400606  -0.79144   -0.689569  -0.069932] <- HOMO
         LUMO->  [-0.067487  0.232147  0.947899  1.063761  1.110849  1.164701]
Beta energies:   [-20.721779  -1.512381  -0.842977  -0.744492  -0.716742] <- HOMO
         LUMO->  [0.213065 0.292568 0.977009 0.997497 1.072733 1.111685]
time for xg, H, S2, Yg, Feff: 0.020
 E =    -75.98791484, delta E = -0.00488705, MaxD(dm) =   0.994751, RMSD(dm) =  0.0555592
**** Start Cycle 18 ****
time for NO, Ng: 0.014
time for Gg: 0.042
detC -0.9999999999999959
detNg [   1.001035    1.027602    1.162632    1.593672    2.912321    7.980956   42.13368  1097.463963]
xg [0.998966 0.97314  0.860117 0.627482 0.343369 0.125298 0.023734 0.000911]
ciS 0.9788598925197413
ciH -83.12206880500881
S2 = 0.000000
Hsp + Hph =  -84.91722813470207
F(mod,ortho) updated with CDIIS
Overlap:  [0.999995 0.996881 0.997443 0.997683 0.       0.995946 0.002482 0.       0.004137 0.001403 0.       0.000035 0.001837 0.00101  0.       0.       0.001108
 0.00004 ] 
 [0.999996 0.992877 0.971977 0.99192  0.9924   0.007374 0.024216 0.00116  0.007988 0.003366 0.002316 0.002576 0.000118 0.       0.000613 0.000093 0.00094
 0.000071]
 New alpha occ pattern:  [1 1 1 1 0 1 0 0 0 0 0 0 0 0 0 0 0 0]
 New beta occ pattern:   [1 1 1 1 1 0 0 0 0 0 0 0 0 0 0 0 0 0]
 Current alpha mo_energy(sorted):  [-20.684349  -1.400606  -0.79144   -0.689569  -0.069932  -0.067487   0.232147   0.947899   1.063761   1.110849   1.164701   1.300387   1.56501    1.916744
   1.957962   1.984201   2.551215   2.842806]
 Current beta mo_energy(sorted):   [-20.721779  -1.512381  -0.842977  -0.744492  -0.716742   0.213065   0.292568   0.977009   0.997497   1.072733   1.111685   1.26291    1.544736   1.866331
   1.897139   1.907663   2.493073   2.844735]
Alpha occ 5 vir 13; Beta occ 5 vir 13
Alpha energies:  [-20.680513  -1.397928  -0.788961  -0.685856  -0.079377] <- HOMO
         LUMO->  [-0.059855  0.234686  0.949303  1.066626  1.112474  1.165971]
Beta energies:   [-20.718315  -1.508528  -0.840401  -0.740211  -0.713408] <- HOMO
         LUMO->  [0.213061 0.292249 0.978572 1.000434 1.075418 1.113186]
time for xg, H, S2, Yg, Feff: 0.020
 E =    -75.72896972, delta E =   0.258945, MaxD(dm) = 0.00188463, RMSD(dm) = 0.000228939
**** Start Cycle 19 ****
time for NO, Ng: 0.014
time for Gg: 0.042
detC 1.0000000000000042
detNg [   1.001036    1.027621    1.162745    1.594094    2.913722    7.986198   42.164923 1098.293737]
xg [0.998965 0.973122 0.860034 0.627316 0.343204 0.125216 0.023716 0.000911]
ciS 0.9786196520910507
ciH -83.10133043153698
S2 = 0.000000
Hsp + Hph =  -84.91688293196594
F(mod,ortho) updated with CDIIS
Overlap:  [0.999995 0.996916 0.997238 0.99776  0.       0.996146 0.002672 0.       0.003923 0.001398 0.       0.000048 0.001757 0.001003 0.       0.       0.001101
 0.000041] 
 [0.999996 0.992976 0.972166 0.991569 0.992587 0.007156 0.02403  0.001151 0.008343 0.003315 0.002297 0.002583 0.000123 0.       0.000614 0.000088 0.000935
 0.000071]
 New alpha occ pattern:  [1 1 1 1 0 1 0 0 0 0 0 0 0 0 0 0 0 0]
 New beta occ pattern:   [1 1 1 1 1 0 0 0 0 0 0 0 0 0 0 0 0 0]
 Current alpha mo_energy(sorted):  [-20.680513  -1.397928  -0.788961  -0.685856  -0.079377  -0.059855   0.234686   0.949303   1.066626   1.112474   1.165971   1.303572   1.567324   1.919256
   1.960083   1.986315   2.553315   2.845457]
 Current beta mo_energy(sorted):   [-20.718315  -1.508528  -0.840401  -0.740211  -0.713408   0.213061   0.292249   0.978572   1.000434   1.075418   1.113186   1.264984   1.547439   1.870411
   1.900202   1.911752   2.496016   2.847136]
Alpha occ 5 vir 13; Beta occ 5 vir 13
Alpha energies:  [-20.696593  -1.407282  -0.798002  -0.699754  -0.088106] <- HOMO
         LUMO->  [-0.045006  0.225966  0.94206   1.054088  1.104342  1.160251]
Beta energies:   [-20.734856  -1.523895  -0.850204  -0.758495  -0.727794] <- HOMO
         LUMO->  [0.212436 0.290064 0.973128 0.987889 1.062434 1.107229]
time for xg, H, S2, Yg, Feff: 0.020
 E =    -75.72862451, delta E = 0.000345203, MaxD(dm) =   0.994643, RMSD(dm) =  0.0555609
**** Start Cycle 20 ****
time for NO, Ng: 0.014
time for Gg: 0.041
detC -1.0000000000000033
detNg [1.000112 1.002928 1.015478 1.042551 1.078112 1.107501 1.121875 1.125169]
xg [0.999888 0.997081 0.984758 0.959186 0.927548 0.902933 0.891365 0.888756]
ciS 1.8872605088634065
ciH -160.73959443565258
S2 = 0.000000
Hsp + Hph =  -85.17085674221903
F(mod,ortho) updated with CDIIS
Overlap:  [0.999995 0.996668 0.997521 0.997478 0.995367 0.000019 0.002387 0.       0.004684 0.001479 0.       0.000052 0.002082 0.001087 0.       0.       0.001144
 0.000039] 
 [0.999996 0.992307 0.969562 0.992558 0.991345 0.008332 0.026033 0.001322 0.007336 0.003801 0.002484 0.003009 0.000116 0.       0.000652 0.000106 0.000967
 0.000073]
 New alpha occ pattern:  [1 1 1 1 1 0 0 0 0 0 0 0 0 0 0 0 0 0]
 New beta occ pattern:   [1 1 1 1 1 0 0 0 0 0 0 0 0 0 0 0 0 0]
 Current alpha mo_energy(sorted):  [-20.696593  -1.407282  -0.798002  -0.699754  -0.088106  -0.045006   0.225966   0.94206    1.054088   1.104342   1.160251   1.292729   1.557636   1.908031
   1.950909   1.976963   2.54372    2.834422]
 Current beta mo_energy(sorted):   [-20.734856  -1.523895  -0.850204  -0.758495  -0.727794   0.212436   0.290064   0.973128   0.987889   1.062434   1.107229   1.253409   1.535142   1.853476
   1.886967   1.89497    2.483164   2.836562]
Alpha occ 5 vir 13; Beta occ 5 vir 13
Alpha energies:  [-20.718709  -1.422408  -0.816207  -0.720332  -0.12713 ] <- HOMO
         LUMO->  [0.005314 0.213811 0.934253 1.037311 1.095704 1.153459]
Beta energies:   [-20.75548   -1.543997  -0.864864  -0.784136  -0.746292] <- HOMO
         LUMO->  [0.211926 0.290077 0.964191 0.97162  1.047174 1.097383]
time for xg, H, S2, Yg, Feff: 0.020
 E =    -75.98259832, delta E =  -0.253974, MaxD(dm) =   0.994294, RMSD(dm) =  0.0555546
**** Start Cycle 21 ****
time for NO, Ng: 0.014
time for Gg: 0.044
detC 0.9999999999999982
detNg [  1.001034   1.027555   1.162345   1.592525   2.907807   7.954183  41.583244 836.073433]
xg [0.998967 0.973184 0.86033  0.627934 0.343902 0.12572  0.024048 0.001196]
ciS 0.9796521009273877
ciH -83.19115624919398
S2 = 0.000000
Hsp + Hph =  -84.91908114160226
F(mod,ortho) updated with CDIIS
Overlap:  [0.999994 0.996248 0.998631 0.996742 0.994147 0.00035  0.001312 0.000015 0.005942 0.001572 0.       0.000002 0.002615 0.001142 0.       0.       0.001247
 0.000039] 
 [0.999996 0.991737 0.968807 0.993654 0.99015  0.009693 0.027016 0.001279 0.00621  0.004003 0.002617 0.002817 0.000087 0.       0.000673 0.000135 0.001045
 0.00008 ]
 New alpha occ pattern:  [1 1 1 1 1 0 0 0 0 0 0 0 0 0 0 0 0 0]
 New beta occ pattern:   [1 1 1 1 1 0 0 0 0 0 0 0 0 0 0 0 0 0]
 Current alpha mo_energy(sorted):  [-20.718709  -1.422408  -0.816207  -0.720332  -0.12713    0.005314   0.213811   0.934253   1.037311   1.095704   1.153459   1.27662    1.544148   1.8934
   1.938655   1.964857   2.531436   2.819363]
 Current beta mo_energy(sorted):   [-20.75548   -1.543997  -0.864864  -0.784136  -0.746292   0.211926   0.290077   0.964191   0.97162    1.047174   1.097383   1.241996   1.520003   1.831211
   1.869875   1.872523   2.466208   2.823   ]
Alpha occ 5 vir 13; Beta occ 5 vir 13
Alpha energies:  [-20.722392  -1.42661   -0.824487  -0.725288  -0.134988] <- HOMO
         LUMO->  [0.017582 0.211787 0.935071 1.035214 1.096813 1.153184]
Beta energies:   [-20.756904  -1.547792  -0.872011  -0.787672  -0.748652] <- HOMO
         LUMO->  [0.212698 0.295302 0.961756 0.969843 1.047329 1.094926]
time for xg, H, S2, Yg, Feff: 0.020
 E =    -75.73082272, delta E =   0.251776, MaxD(dm) = 0.00902076, RMSD(dm) = 0.000974939
**** Start Cycle 22 ****
time for NO, Ng: 0.014
time for Gg: 0.041
detC -1.000000000000001
detNg [  1.001028   1.027395   1.16139    1.588903   2.895221   7.898828  40.928637 689.669984]
xg [0.998973 0.973335 0.861037 0.629365 0.345397 0.126601 0.024433 0.00145 ]
ciS 0.9818425825679992
ciH -83.37677678691855
S2 = 0.000000
Hsp + Hph =  -84.91868072053612
F(mod,ortho) updated with CDIIS
Overlap:  [0.999994 0.996066 0.99904  0.996297 0.993792 0.000654 0.000761 0.000068 0.00635  0.00163  0.000001 0.000091 0.002746 0.001128 0.       0.       0.001343
 0.00004 ] 
 [0.999996 0.991789 0.970576 0.993948 0.990512 0.009506 0.025991 0.001063 0.005911 0.003722 0.002604 0.002286 0.000079 0.       0.000669 0.000142 0.001123
 0.000084]
 New alpha occ pattern:  [1 1 1 1 1 0 0 0 0 0 0 0 0 0 0 0 0 0]
 New beta occ pattern:   [1 1 1 1 1 0 0 0 0 0 0 0 0 0 0 0 0 0]
 Current alpha mo_energy(sorted):  [-20.722392  -1.42661   -0.824487  -0.725288  -0.134988   0.017582   0.211787   0.935071   1.035214   1.096813   1.153184   1.272977   1.542286   1.892028
   1.937309   1.963773   2.530599   2.817126]
 Current beta mo_energy(sorted):   [-20.756904  -1.547792  -0.872011  -0.787672  -0.748652   0.212698   0.295302   0.961756   0.969843   1.047329   1.094926   1.244721   1.518964   1.8282
   1.86822    1.869236   2.464267   2.821815]
Alpha occ 5 vir 13; Beta occ 5 vir 13
Alpha energies:  [-20.733675  -1.431067  -0.822353  -0.734191  -0.160282] <- HOMO
         LUMO->  [0.047558 0.207742 0.922462 1.024535 1.084805 1.149112]
Beta energies:   [-20.775817  -1.567217  -0.891108  -0.807429  -0.767253] <- HOMO
         LUMO->  [0.212578 0.290582 0.958481 0.962362 1.031477 1.095939]
time for xg, H, S2, Yg, Feff: 0.020
 E =    -75.73042230, delta E = 0.000400421, MaxD(dm) =  0.0279911, RMSD(dm) = 0.00325592
**** Start Cycle 23 ****
time for NO, Ng: 0.014
time for Gg: 0.042
detC -1.000000000000001
detNg [  1.001057   1.028181   1.16608    1.606476   2.953699   8.117046  42.186283 703.997887]
xg [0.998944 0.972591 0.857574 0.622481 0.338559 0.123198 0.023704 0.00142 ]
ciS 0.9718904700627441
ciH -82.53318520671392
S2 = 0.000000
Hsp + Hph =  -84.92025361807045
F(mod,ortho) updated with CDIIS
Overlap:  [0.999995 0.995723 0.997208 0.99676  0.992964 0.000663 0.002503 0.000027 0.006389 0.001806 0.000001 0.000224 0.003008 0.001403 0.       0.       0.001287
 0.000038] 
 [0.999996 0.990167 0.958095 0.994514 0.986889 0.012217 0.03439  0.005327 0.00218  0.005488 0.003263 0.005246 0.000105 0.       0.000161 0.000812 0.001062
 0.000088]
 New alpha occ pattern:  [1 1 1 1 1 0 0 0 0 0 0 0 0 0 0 0 0 0]
 New beta occ pattern:   [1 1 1 1 1 0 0 0 0 0 0 0 0 0 0 0 0 0]
 Current alpha mo_energy(sorted):  [-20.733675  -1.431067  -0.822353  -0.734191  -0.160282   0.047558   0.207742   0.922462   1.024535   1.084805   1.149112   1.272325   1.535871   1.882356
   1.930107   1.955092   2.521973   2.808252]
 Current beta mo_energy(sorted):   [-20.775817  -1.567217  -0.891108  -0.807429  -0.767253   0.212578   0.290582   0.958481   0.962362   1.031477   1.095939   1.225695   1.504677   1.811104
   1.853738   1.854957   2.452398   2.810474]
Alpha occ 5 vir 13; Beta occ 5 vir 13
Alpha energies:  [-20.733973  -1.428849  -0.816216  -0.732705  -0.162833] <- HOMO
         LUMO->  [0.048871 0.208476 0.917862 1.023412 1.081238 1.148751]
Beta energies:   [-20.780421  -1.572548  -0.897304  -0.811355  -0.771625] <- HOMO
         LUMO->  [0.213058 0.288278 0.956202 0.964594 1.0277   1.098649]
time for xg, H, S2, Yg, Feff: 0.020
 E =    -75.73199520, delta E = -0.0015729, MaxD(dm) =  0.0166269, RMSD(dm) = 0.00184026
**** Start Cycle 24 ****
time for NO, Ng: 0.014
time for Gg: 0.042
detC -1.0000000000000002
detNg [  1.001081   1.028807   1.16983    1.620672   3.001441   8.294176  43.086445 674.508921]
xg [0.998921 0.972    0.854825 0.617028 0.333173 0.120567 0.023209 0.001483]
ciS 0.9640538328858658
ciH -81.86818092566334
S2 = 0.000000
Hsp + Hph =  -84.92075663512838
F(mod,ortho) updated with CDIIS
Overlap:  [0.999994 0.995686 0.994484 0.99717  0.992679 0.000772 0.004594 0.000165 0.006111 0.001913 0.000001 0.000714 0.002906 0.001522 0.       0.       0.001246
 0.000042] 
 [0.999996 0.989447 0.949723 0.994484 0.985422 0.013078 0.040473 0.00536  0.002914 0.006356 0.003682 0.006794 0.000137 0.       0.000163 0.000856 0.001019
 0.000097]
 New alpha occ pattern:  [1 1 1 1 1 0 0 0 0 0 0 0 0 0 0 0 0 0]
 New beta occ pattern:   [1 1 1 1 1 0 0 0 0 0 0 0 0 0 0 0 0 0]
 Current alpha mo_energy(sorted):  [-20.733973  -1.428849  -0.816216  -0.732705  -0.162833   0.048871   0.208476   0.917862   1.023412   1.081238   1.148751   1.274993   1.535895   1.881126
   1.929704   1.953562   2.520535   2.807421]
 Current beta mo_energy(sorted):   [-20.780421  -1.572548  -0.897304  -0.811355  -0.771625   0.213058   0.288278   0.956202   0.964594   1.0277     1.098649   1.217959   1.501085   1.807684
   1.851418   1.852329   2.450232   2.807854]
Alpha occ 5 vir 13; Beta occ 5 vir 13
Alpha energies:  [-20.723394  -1.421511  -0.805786  -0.722784  -0.145962] <- HOMO
         LUMO->  [0.026057 0.214251 0.920516 1.031072 1.084806 1.151825]
Beta energies:   [-20.771417  -1.564774  -0.890317  -0.80015   -0.764071] <- HOMO
         LUMO->  [0.213445 0.287521 0.963217 0.969159 1.033773 1.104158]
time for xg, H, S2, Yg, Feff: 0.020
 E =    -75.73249822, delta E = -0.000503017, MaxD(dm) = 0.00877086, RMSD(dm) =   0.001022
**** Start Cycle 25 ****
time for NO, Ng: 0.014
time for Gg: 0.041
detC 1.0000000000000033
detNg [  1.001089   1.029021   1.171113   1.62546    3.016556   8.333543  42.618305 512.516236]
xg [0.998913 0.971797 0.853888 0.61521  0.331504 0.119997 0.023464 0.001951]
ciS 0.9616559399182335
ciH -81.66511902855024
S2 = 0.000000
Hsp + Hph =  -84.9213483103884
F(mod,ortho) updated with CDIIS
Overlap:  [0.999995 0.996044 0.992536 0.997616 0.992501 0.001345 0.006176 0.000275 0.005506 0.001846 0.000001 0.000969 0.002547 0.001466 0.       0.       0.001133
 0.000045] 
 [0.999996 0.989711 0.948248 0.994007 0.985733 0.012549 0.041596 0.005851 0.003148 0.006411 0.003682 0.006912 0.000166 0.       0.000816 0.000146 0.000932
 0.000097]
 New alpha occ pattern:  [1 1 1 1 1 0 0 0 0 0 0 0 0 0 0 0 0 0]
 New beta occ pattern:   [1 1 1 1 1 0 0 0 0 0 0 0 0 0 0 0 0 0]
 Current alpha mo_energy(sorted):  [-20.723394  -1.421511  -0.805786  -0.722784  -0.145962   0.026057   0.214251   0.920516   1.031072   1.084806   1.151825   1.282737   1.542423   1.887954
   1.935432   1.958819   2.526123   2.814377]
 Current beta mo_energy(sorted):   [-20.771417  -1.564774  -0.890317  -0.80015   -0.764071   0.213445   0.287521   0.963217   0.969159   1.033773   1.104158   1.221421   1.507395   1.817181
   1.859614   1.861385   2.457725   2.813493]
Alpha occ 5 vir 13; Beta occ 5 vir 13
Alpha energies:  [-20.717206  -1.417225  -0.800887  -0.718013  -0.136906] <- HOMO
         LUMO->  [0.015034 0.216898 0.922592 1.035006 1.087425 1.153844]
Beta energies:   [-20.765361  -1.559042  -0.884446  -0.79475   -0.758224] <- HOMO
         LUMO->  [0.213765 0.287103 0.966526 0.970703 1.03775  1.105928]
time for xg, H, S2, Yg, Feff: 0.020
 E =    -75.73308989, delta E = -0.000591675, MaxD(dm) =  0.0195145, RMSD(dm) = 0.00159964
**** Start Cycle 26 ****
time for NO, Ng: 0.014
time for Gg: 0.042
detC 1.0000000000000013
detNg [   1.001092    1.02911     1.17167     1.627844    3.027395    8.414523   44.637962 1089.922007]
xg [0.998909 0.971713 0.853483 0.614309 0.330317 0.118842 0.022402 0.000917]
ciS 0.9598580972677259
ciH -81.51187482364989
S2 = 0.000000
Hsp + Hph =  -84.92075553217364
F(mod,ortho) updated with CDIIS
Overlap:  [0.999994 0.995973 0.991975 0.997613 0.994017 0.000075 0.006679 0.000276 0.005275 0.001919 0.       0.001023 0.002468 0.001486 0.       0.       0.00118
 0.000047] 
 [0.999995 0.989723 0.948571 0.993689 0.986399 0.012    0.041492 0.006177 0.003087 0.006216 0.003682 0.006753 0.000171 0.       0.000843 0.000135 0.000969
 0.000097]
 New alpha occ pattern:  [1 1 1 1 1 0 0 0 0 0 0 0 0 0 0 0 0 0]
 New beta occ pattern:   [1 1 1 1 1 0 0 0 0 0 0 0 0 0 0 0 0 0]
 Current alpha mo_energy(sorted):  [-20.717206  -1.417225  -0.800887  -0.718013  -0.136906   0.015034   0.216898   0.922592   1.035006   1.087425   1.153844   1.285625   1.54562    1.89121
   1.93851    1.961811   2.529112   2.817849]
 Current beta mo_energy(sorted):   [-20.765361  -1.559042  -0.884446  -0.79475   -0.758224   0.213765   0.287103   0.966526   0.970703   1.03775    1.105928   1.22341    1.511361   1.822476
   1.8638     1.866668   2.461492   2.81691 ]
Alpha occ 5 vir 13; Beta occ 5 vir 13
Alpha energies:  [-20.717915  -1.416975  -0.800167  -0.71785   -0.13844 ] <- HOMO
         LUMO->  [0.016279 0.216166 0.921629 1.034018 1.086617 1.153584]
Beta energies:   [-20.766877  -1.561315  -0.888732  -0.796279  -0.76038 ] <- HOMO
         LUMO->  [0.213885 0.287544 0.965679 0.971244 1.036689 1.106282]
time for xg, H, S2, Yg, Feff: 0.020
 E =    -75.73249711, delta E = 0.000592778, MaxD(dm) =  0.0051274, RMSD(dm) = 0.000522301
**** Start Cycle 27 ****
time for NO, Ng: 0.014
time for Gg: 0.041
detC 1.0000000000000007
detNg [   1.001097    1.029242    1.172467    1.630914    3.038084    8.457915   44.994067 1172.040373]
xg [0.998904 0.971589 0.852902 0.613153 0.329155 0.118232 0.022225 0.000853]
ciS 0.9581603695907548
ciH -81.3676820514784
S2 = 0.000000
Hsp + Hph =  -84.9207341838108
F(mod,ortho) updated with CDIIS
Overlap:  [0.999994 0.995967 0.991282 0.997651 0.994015 0.000003 0.007255 0.000319 0.005287 0.001963 0.       0.001094 0.002434 0.001511 0.       0.       0.001174
 0.000049] 
 [0.999995 0.989516 0.946971 0.993664 0.985947 0.012274 0.042708 0.006202 0.003216 0.006457 0.003803 0.007003 0.000188 0.       0.000854 0.000135 0.000966
 0.000101]
 New alpha occ pattern:  [1 1 1 1 1 0 0 0 0 0 0 0 0 0 0 0 0 0]
 New beta occ pattern:   [1 1 1 1 1 0 0 0 0 0 0 0 0 0 0 0 0 0]
 Current alpha mo_energy(sorted):  [-20.717915  -1.416975  -0.800167  -0.71785   -0.13844    0.016279   0.216166   0.921629   1.034018   1.086617   1.153584   1.286302   1.545343   1.89084
   1.938226   1.961265   2.528522   2.817324]
 Current beta mo_energy(sorted):   [-20.766877  -1.561315  -0.888732  -0.796279  -0.76038    0.213885   0.287544   0.965679   0.971244   1.036689   1.106282   1.223668   1.510183   1.821132
   1.862794   1.865653   2.460607   2.816047]
Alpha occ 5 vir 13; Beta occ 5 vir 13
Alpha energies:  [-20.718039  -1.416892  -0.800297  -0.718061  -0.138922] <- HOMO
         LUMO->  [0.017099 0.216068 0.921143 1.033885 1.086257 1.153538]
Beta energies:   [-20.76741   -1.562115  -0.888682  -0.797108  -0.761166] <- HOMO
         LUMO->  [0.213848 0.287433 0.96505  0.971226 1.035851 1.106293]
time for xg, H, S2, Yg, Feff: 0.020
 E =    -75.73247577, delta E = 2.13484e-05, MaxD(dm) = 0.00125744, RMSD(dm) = 0.000146873
**** Start Cycle 28 ****
time for NO, Ng: 0.014
time for Gg: 0.042
detC -1.0000000000000016
detNg [   1.001098    1.029267    1.172614    1.631479    3.040027    8.465444   45.041927 1175.288879]
xg [0.998904 0.971565 0.852795 0.612941 0.328944 0.118127 0.022202 0.000851]
ciS 0.9578533424665249
ciH -81.34161122417166
S2 = 0.000000
Hsp + Hph =  -84.92073641953638
F(mod,ortho) updated with CDIIS
Overlap:  [0.999994 0.995999 0.991147 0.997688 0.994036 0.       0.007363 0.000337 0.005232 0.001974 0.       0.001103 0.002397 0.001516 0.       0.       0.001164
 0.00005 ] 
 [0.999995 0.989454 0.946713 0.993644 0.985725 0.012395 0.042915 0.006222 0.003264 0.006576 0.003848 0.007005 0.000197 0.       0.000853 0.000135 0.000957
 0.000102]
 New alpha occ pattern:  [1 1 1 1 1 0 0 0 0 0 0 0 0 0 0 0 0 0]
 New beta occ pattern:   [1 1 1 1 1 0 0 0 0 0 0 0 0 0 0 0 0 0]
 Current alpha mo_energy(sorted):  [-20.718039  -1.416892  -0.800297  -0.718061  -0.138922   0.017099   0.216068   0.921143   1.033885   1.086257   1.153538   1.286145   1.54522    1.890472
   1.937921   1.960892   2.528228   2.817032]
 Current beta mo_energy(sorted):   [-20.76741   -1.562115  -0.888682  -0.797108  -0.761166   0.213848   0.287433   0.96505    0.971226   1.035851   1.106293   1.222983   1.50968    1.820534
   1.862303   1.865106   2.460208   2.815643]
Alpha occ 5 vir 13; Beta occ 5 vir 13
Alpha energies:  [-20.71802   -1.41679   -0.800544  -0.717916  -0.139067] <- HOMO
         LUMO->  [0.017468 0.216041 0.920926 1.033983 1.086142 1.153574]
Beta energies:   [-20.767594  -1.562458  -0.888777  -0.797291  -0.761543] <- HOMO
         LUMO->  [0.213749 0.287465 0.964922 0.971296 1.035562 1.106293]
time for xg, H, S2, Yg, Feff: 0.020
 E =    -75.73247800, delta E = -2.23573e-06, MaxD(dm) = 0.000361163, RMSD(dm) = 7.01118e-05
**** Start Cycle 29 ****
time for NO, Ng: 0.014
time for Gg: 0.041
detC 0.999999999999996
detNg [   1.001098    1.029269    1.172625    1.631519    3.040157    8.465916   45.044562 1175.228087]
xg [0.998903 0.971564 0.852787 0.612926 0.32893  0.118121 0.0222   0.000851]
ciS 0.957832376452948
ciH -81.33983233358234
S2 = 0.000000
Hsp + Hph =  -84.92073804688101
F(mod,ortho) updated with CDIIS
Overlap:  [0.999994 0.996014 0.991174 0.997718 0.994062 0.       0.007326 0.000348 0.005182 0.001978 0.       0.001103 0.002371 0.00152  0.       0.       0.00116
 0.00005 ] 
 [0.999995 0.98941  0.9467   0.99364  0.985591 0.012457 0.042891 0.006226 0.003293 0.006657 0.00388  0.007013 0.000203 0.       0.000854 0.000134 0.000953
 0.000102]
 New alpha occ pattern:  [1 1 1 1 1 0 0 0 0 0 0 0 0 0 0 0 0 0]
 New beta occ pattern:   [1 1 1 1 1 0 0 0 0 0 0 0 0 0 0 0 0 0]
 Current alpha mo_energy(sorted):  [-20.71802   -1.41679   -0.800544  -0.717916  -0.139067   0.017468   0.216041   0.920926   1.033983   1.086142   1.153574   1.286066   1.545238   1.890394
   1.937847   1.960822   2.528157   2.816978]
 Current beta mo_energy(sorted):   [-20.767594  -1.562458  -0.888777  -0.797291  -0.761543   0.213749   0.287465   0.964922   0.971296   1.035562   1.106293   1.22292    1.509493   1.820406
   1.862197   1.864983   2.460118   2.815536]
Alpha occ 5 vir 13; Beta occ 5 vir 13
Alpha energies:  [-20.717858  -1.416658  -0.800768  -0.717711  -0.138984] <- HOMO
         LUMO->  [0.017625 0.216104 0.920864 1.03419  1.086161 1.153671]
Beta energies:   [-20.767536  -1.56244   -0.888565  -0.797279  -0.761601] <- HOMO
         LUMO->  [0.213689 0.287465 0.964939 0.97137  1.035487 1.106316]
time for xg, H, S2, Yg, Feff: 0.020
 E =    -75.73247963, delta E = -1.62734e-06, MaxD(dm) = 0.000350689, RMSD(dm) = 5.51217e-05
**** Start Cycle 30 ****
time for NO, Ng: 0.014
time for Gg: 0.041
detC -1.0000000000000007
detNg [   1.001098    1.029261    1.172582    1.631351    3.039573    8.463648   45.03096  1175.017941]
xg [0.998904 0.97157  0.852819 0.612989 0.328994 0.118152 0.022207 0.000851]
ciS 0.957923807697669
ciH -81.34759728184378
S2 = 0.000000
Hsp + Hph =  -84.9207386100565
F(mod,ortho) updated with CDIIS
Overlap:  [0.999994 0.996014 0.991255 0.997738 0.994089 0.       0.007242 0.000352 0.005141 0.001982 0.       0.001103 0.002358 0.001522 0.       0.       0.001163
 0.000049] 
 [0.999995 0.989385 0.946804 0.993636 0.985531 0.01247  0.042773 0.00623  0.003305 0.006703 0.0039   0.007018 0.000205 0.       0.000856 0.000134 0.000954
 0.000101]
 New alpha occ pattern:  [1 1 1 1 1 0 0 0 0 0 0 0 0 0 0 0 0 0]
 New beta occ pattern:   [1 1 1 1 1 0 0 0 0 0 0 0 0 0 0 0 0 0]
 Current alpha mo_energy(sorted):  [-20.717858  -1.416658  -0.800768  -0.717711  -0.138984   0.017625   0.216104   0.920864   1.03419    1.086161   1.153671   1.286039   1.545318   1.890409
   1.937869   1.96087    2.528192   2.817024]
 Current beta mo_energy(sorted):   [-20.767536  -1.56244   -0.888565  -0.797279  -0.761601   0.213689   0.287465   0.964939   0.97137    1.035487   1.106316   1.222933   1.50951    1.820487
   1.862259   1.865034   2.460167   2.815579]
Alpha occ 5 vir 13; Beta occ 5 vir 13
Alpha energies:  [-20.717795  -1.416604  -0.800803  -0.717596  -0.138915] <- HOMO
         LUMO->  [0.017625 0.216091 0.920857 1.034262 1.086184 1.153708]
Beta energies:   [-20.767504  -1.562409  -0.888489  -0.797293  -0.761632] <- HOMO
         LUMO->  [0.21368  0.287473 0.964942 0.971399 1.03546  1.106319]
time for xg, H, S2, Yg, Feff: 0.020
 E =    -75.73248019, delta E = -5.63175e-07, MaxD(dm) = 0.000140434, RMSD(dm) = 1.90126e-05
**** Start Cycle 31 ****
time for NO, Ng: 0.014
time for Gg: 0.042
detC 1.0000000000000027
detNg [   1.001097    1.029259    1.172567    1.631293    3.039369    8.462849   45.026099 1174.890031]
xg [0.998904 0.971573 0.85283  0.613011 0.329016 0.118164 0.022209 0.000851]
ciS 0.9579557122995096
ciH -81.35030673360242
S2 = 0.000000
Hsp + Hph =  -84.92073870338575
F(mod,ortho) updated with CDIIS
Overlap:  [0.999994 0.99601  0.991282 0.997744 0.994096 0.       0.007217 0.000352 0.005127 0.001986 0.       0.0011   0.002355 0.001522 0.       0.       0.001166
 0.000049] 
 [0.999995 0.989376 0.946856 0.993632 0.985509 0.012471 0.042724 0.006234 0.003304 0.006724 0.003908 0.007014 0.000204 0.       0.000856 0.000134 0.000956
 0.000101]
 New alpha occ pattern:  [1 1 1 1 1 0 0 0 0 0 0 0 0 0 0 0 0 0]
 New beta occ pattern:   [1 1 1 1 1 0 0 0 0 0 0 0 0 0 0 0 0 0]
 Current alpha mo_energy(sorted):  [-20.717795  -1.416604  -0.800803  -0.717596  -0.138915   0.017625   0.216091   0.920857   1.034262   1.086184   1.153708   1.28603    1.545337   1.890423
   1.937884   1.960895   2.528205   2.817043]
 Current beta mo_energy(sorted):   [-20.767504  -1.562409  -0.888489  -0.797293  -0.761632   0.21368    0.287473   0.964942   0.971399   1.03546    1.106319   1.222981   1.509534   1.820525
   1.862288   1.865057   2.460188   2.815605]
Alpha occ 5 vir 13; Beta occ 5 vir 13
Alpha energies:  [-20.717796  -1.416598  -0.800833  -0.717531  -0.138906] <- HOMO
         LUMO->  [0.017621 0.216092 0.920847 1.034298 1.086188 1.153709]
Beta energies:   [-20.767531  -1.562425  -0.888484  -0.797315  -0.761705] <- HOMO
         LUMO->  [0.213673 0.287486 0.964933 0.971412 1.035411 1.106315]
time for xg, H, S2, Yg, Feff: 0.020
 E =    -75.73248029, delta E = -9.33292e-08, MaxD(dm) = 0.000102105, RMSD(dm) = 1.1687e-05
**** Start Cycle 32 ****
time for NO, Ng: 0.014
time for Gg: 0.042
detC -1.0000000000000004
detNg [   1.001097    1.02926     1.172573    1.631314    3.039438    8.463111   45.027668 1174.93196 ]
xg [0.998904 0.971572 0.852826 0.613003 0.329008 0.11816  0.022209 0.000851]
ciS 0.9579445443524441
ciH -81.3493583783376
S2 = 0.000000
Hsp + Hph =  -84.92073873997427
F(mod,ortho) updated with CDIIS
Overlap:  [0.999994 0.996009 0.991281 0.997748 0.994097 0.       0.007219 0.000352 0.005121 0.001988 0.       0.0011   0.002355 0.00152  0.       0.       0.001167
 0.000049] 
 [0.999995 0.989372 0.946864 0.99363  0.985484 0.012477 0.042719 0.006236 0.003305 0.006744 0.003912 0.007012 0.000204 0.       0.000855 0.000134 0.000957
 0.000101]
 New alpha occ pattern:  [1 1 1 1 1 0 0 0 0 0 0 0 0 0 0 0 0 0]
 New beta occ pattern:   [1 1 1 1 1 0 0 0 0 0 0 0 0 0 0 0 0 0]
 Current alpha mo_energy(sorted):  [-20.717796  -1.416598  -0.800833  -0.717531  -0.138906   0.017621   0.216092   0.920847   1.034298   1.086188   1.153709   1.286032   1.545332   1.890425
   1.937881   1.960898   2.528199   2.817045]
 Current beta mo_energy(sorted):   [-20.767531  -1.562425  -0.888484  -0.797315  -0.761705   0.213673   0.287486   0.964933   0.971412   1.035411   1.106315   1.222995   1.509531   1.820526
   1.862286   1.865052   2.460187   2.815602]
Alpha occ 5 vir 13; Beta occ 5 vir 13
Alpha energies:  [-20.717793  -1.416589  -0.800822  -0.71749   -0.138922] <- HOMO
         LUMO->  [0.017635 0.216092 0.920828 1.034315 1.086182 1.153707]
Beta energies:   [-20.767553  -1.562453  -0.888501  -0.79733   -0.761768] <- HOMO
         LUMO->  [0.213672 0.287483 0.964924 0.971421 1.035364 1.106321]
time for xg, H, S2, Yg, Feff: 0.020
 E =    -75.73248032, delta E = -3.65885e-08, MaxD(dm) = 7.30312e-05, RMSD(dm) = 9.04671e-06
**** Start Cycle 33 ****
time for NO, Ng: 0.014
time for Gg: 0.042
detC 1.0000000000000007
detNg [   1.001098    1.029262    1.172586    1.631364    3.039609    8.463766   45.031618 1175.037251]
xg [0.998904 0.97157  0.852816 0.612984 0.32899  0.118151 0.022207 0.000851]
ciS 0.9579175244552003
ciH -81.3470638396881
S2 = 0.000000
Hsp + Hph =  -84.92073875144199
F(mod,ortho) updated with CDIIS
Overlap:  [0.999994 0.99601  0.991271 0.997751 0.994099 0.       0.007227 0.000352 0.005116 0.00199  0.       0.001101 0.002355 0.001519 0.       0.       0.001167
 0.000049] 
 [0.999995 0.98937  0.946843 0.99363  0.985464 0.012483 0.042734 0.006237 0.003306 0.006759 0.003914 0.007015 0.000204 0.       0.000854 0.000133 0.000957
 0.000101]
 New alpha occ pattern:  [1 1 1 1 1 0 0 0 0 0 0 0 0 0 0 0 0 0]
 New beta occ pattern:   [1 1 1 1 1 0 0 0 0 0 0 0 0 0 0 0 0 0]
 Current alpha mo_energy(sorted):  [-20.717793  -1.416589  -0.800822  -0.71749   -0.138922   0.017635   0.216092   0.920828   1.034315   1.086182   1.153707   1.286039   1.54533    1.890423
   1.937875   1.960893   2.52819    2.817044]
 Current beta mo_energy(sorted):   [-20.767553  -1.562453  -0.888501  -0.79733   -0.761768   0.213672   0.287483   0.964924   0.971421   1.035364   1.106321   1.22298    1.509519   1.820515
   1.862276   1.865041   2.46018    2.815588]
Alpha occ 5 vir 13; Beta occ 5 vir 13
Alpha energies:  [-20.717785  -1.416588  -0.80082   -0.717465  -0.138916] <- HOMO
         LUMO->  [0.017626 0.216092 0.920824 1.034327 1.086184 1.153708]
Beta energies:   [-20.767554  -1.562459  -0.888507  -0.79733   -0.761786] <- HOMO
         LUMO->  [0.213671 0.28748  0.964924 0.971422 1.035351 1.10632 ]
time for xg, H, S2, Yg, Feff: 0.020
 E =    -75.73248033, delta E = -1.14677e-08, MaxD(dm) = 3.35403e-05, RMSD(dm) = 3.4818e-06
**** Start Cycle 34 ****
time for NO, Ng: 0.014
time for Gg: 0.042
detC 0.9999999999999991
detNg [   1.001098    1.029262    1.172588    1.631371    3.039635    8.463865   45.032216 1175.053451]
xg [0.998904 0.97157  0.852815 0.612981 0.328987 0.118149 0.022206 0.000851]
ciS 0.9579133932514478
ciH -81.34671301684152
S2 = 0.000000
Hsp + Hph =  -84.9207387535591
F(mod,ortho) updated with CDIIS
Overlap:  [0.999994 0.996011 0.99127  0.997752 0.9941   0.       0.007227 0.000352 0.005114 0.00199  0.       0.001102 0.002354 0.001518 0.       0.       0.001167
 0.000049] 
 [0.999995 0.989371 0.946841 0.993629 0.985458 0.012483 0.042736 0.006237 0.003306 0.006765 0.003913 0.007016 0.000204 0.       0.000854 0.000133 0.000957
 0.000101]
 New alpha occ pattern:  [1 1 1 1 1 0 0 0 0 0 0 0 0 0 0 0 0 0]
 New beta occ pattern:   [1 1 1 1 1 0 0 0 0 0 0 0 0 0 0 0 0 0]
 Current alpha mo_energy(sorted):  [-20.717785  -1.416588  -0.80082   -0.717465  -0.138916   0.017626   0.216092   0.920824   1.034327   1.086184   1.153708   1.286043   1.54533    1.890424
   1.937873   1.960892   2.528189   2.817046]
 Current beta mo_energy(sorted):   [-20.767554  -1.562459  -0.888507  -0.79733   -0.761786   0.213671   0.28748    0.964924   0.971422   1.035351   1.10632    1.222974   1.509517   1.820516
   1.862276   1.865041   2.460181   2.815585]
Alpha occ 5 vir 13; Beta occ 5 vir 13
Alpha energies:  [-20.717782  -1.416587  -0.800819  -0.717455  -0.138915] <- HOMO
         LUMO->  [0.017627 0.216094 0.920825 1.034332 1.086187 1.15371 ]
Beta energies:   [-20.767552  -1.562459  -0.888507  -0.797327  -0.761791] <- HOMO
         LUMO->  [0.213671 0.287481 0.964925 0.971423 1.035347 1.106322]
time for xg, H, S2, Yg, Feff: 0.020
 E =    -75.73248034, delta E = -2.11712e-09, MaxD(dm) = 1.3965e-05, RMSD(dm) = 1.74287e-06
**** Start Cycle 35 ****
time for NO, Ng: 0.014
time for Gg: 0.042
detC -0.9999999999999992
detNg [   1.001098    1.029262    1.172587    1.631369    3.039626    8.463829   45.031994 1175.047885]
xg [0.998904 0.97157  0.852815 0.612982 0.328988 0.11815  0.022206 0.000851]
ciS 0.9579148642064239
ciH -81.34683793174374
S2 = 0.000000
Hsp + Hph =  -84.9207387538921
F(mod,ortho) updated with CDIIS
Overlap:  [0.999994 0.996011 0.991271 0.997752 0.9941   0.       0.007226 0.000352 0.005113 0.00199  0.       0.001102 0.002354 0.001518 0.       0.       0.001167
 0.000049] 
 [0.999995 0.989372 0.946842 0.993629 0.985456 0.012483 0.042734 0.006237 0.003306 0.006767 0.003913 0.007017 0.000204 0.       0.000854 0.000133 0.000957
 0.000101]
 New alpha occ pattern:  [1 1 1 1 1 0 0 0 0 0 0 0 0 0 0 0 0 0]
 New beta occ pattern:   [1 1 1 1 1 0 0 0 0 0 0 0 0 0 0 0 0 0]
 Current alpha mo_energy(sorted):  [-20.717782  -1.416587  -0.800819  -0.717455  -0.138915   0.017627   0.216094   0.920825   1.034332   1.086187   1.15371    1.286044   1.545331   1.890426
   1.937874   1.960892   2.528189   2.817048]
 Current beta mo_energy(sorted):   [-20.767552  -1.562459  -0.888507  -0.797327  -0.761791   0.213671   0.287481   0.964925   0.971423   1.035347   1.106322   1.222975   1.509519   1.820519
   1.862278   1.865043   2.460184   2.815586]
Alpha occ 5 vir 13; Beta occ 5 vir 13
Alpha energies:  [-20.717777  -1.416588  -0.800821  -0.71745   -0.138915] <- HOMO
         LUMO->  [0.017628 0.216094 0.920829 1.034335 1.08619  1.153712]
Beta energies:   [-20.767546  -1.562454  -0.888504  -0.797322  -0.761789] <- HOMO
         LUMO->  [0.213671 0.287481 0.964928 0.971422 1.035349 1.10632 ]
time for xg, H, S2, Yg, Feff: 0.020
 E =    -75.73248034, delta E = -3.32989e-10, MaxD(dm) = 9.32726e-06, RMSD(dm) = 1.38052e-06
**** Start Cycle 36 ****
time for NO, Ng: 0.014
time for Gg: 0.042
detC 0.9999999999999998
detNg [   1.001098    1.029262    1.172585    1.63136     3.039597    8.463717   45.031315 1175.029617]
xg [0.998904 0.97157  0.852817 0.612985 0.328991 0.118151 0.022207 0.000851]
ciS 0.9579194356834424
ciH -81.34722614523912
S2 = 0.000000
Hsp + Hph =  -84.92073875419459
F(mod,ortho) updated with CDIIS
Overlap:  [0.999994 0.996011 0.991274 0.997752 0.9941   0.       0.007224 0.000352 0.005113 0.00199  0.       0.001102 0.002355 0.001518 0.       0.       0.001167
 0.000049] 
 [0.999995 0.989372 0.946847 0.993629 0.985457 0.012482 0.04273  0.006237 0.003305 0.006768 0.003912 0.007017 0.000204 0.       0.000854 0.000133 0.000957
 0.000101]
 New alpha occ pattern:  [1 1 1 1 1 0 0 0 0 0 0 0 0 0 0 0 0 0]
 New beta occ pattern:   [1 1 1 1 1 0 0 0 0 0 0 0 0 0 0 0 0 0]
 Current alpha mo_energy(sorted):  [-20.717777  -1.416588  -0.800821  -0.71745   -0.138915   0.017628   0.216094   0.920829   1.034335   1.08619    1.153712   1.286043   1.545331   1.890427
   1.937875   1.960894   2.528191   2.817049]
 Current beta mo_energy(sorted):   [-20.767546  -1.562454  -0.888504  -0.797322  -0.761789   0.213671   0.287481   0.964928   0.971422   1.035349   1.10632    1.222978   1.509522   1.820523
   1.862281   1.865046   2.460186   2.815588]
Alpha occ 5 vir 13; Beta occ 5 vir 13
Alpha energies:  [-20.717778  -1.416589  -0.800822  -0.71745   -0.138915] <- HOMO
         LUMO->  [0.017628 0.216094 0.920829 1.034335 1.086191 1.153712]
Beta energies:   [-20.767546  -1.562453  -0.888503  -0.797322  -0.761789] <- HOMO
         LUMO->  [0.213671 0.287481 0.964928 0.971422 1.035348 1.106319]
time for xg, H, S2, Yg, Feff: 0.020
 E =    -75.73248034, delta E = -3.02492e-10, MaxD(dm) = 7.16942e-06, RMSD(dm) = 6.78706e-07
**** Start Cycle 37 ****
time for NO, Ng: 0.014
time for Gg: 0.042
detC 1.0000000000000002
detNg [   1.001098    1.029262    1.172584    1.631358    3.03959     8.463689   45.031148 1175.024586]
xg [0.998904 0.97157  0.852817 0.612986 0.328992 0.118152 0.022207 0.000851]
ciS 0.9579205570082632
ciH -81.34732136922108
S2 = 0.000000
Hsp + Hph =  -84.92073875445536
F(mod,ortho) updated with CDIIS
Overlap:  [0.999994 0.996011 0.991274 0.997752 0.9941   0.       0.007223 0.000352 0.005113 0.00199  0.       0.001102 0.002355 0.001518 0.       0.       0.001167
 0.000049] 
 [0.999995 0.989372 0.946849 0.99363  0.985457 0.012482 0.042729 0.006237 0.003305 0.006768 0.003912 0.007017 0.000204 0.       0.000854 0.000133 0.000957
 0.000101]
 New alpha occ pattern:  [1 1 1 1 1 0 0 0 0 0 0 0 0 0 0 0 0 0]
 New beta occ pattern:   [1 1 1 1 1 0 0 0 0 0 0 0 0 0 0 0 0 0]
 Current alpha mo_energy(sorted):  [-20.717778  -1.416589  -0.800822  -0.71745   -0.138915   0.017628   0.216094   0.920829   1.034335   1.086191   1.153712   1.286043   1.545331   1.890427
   1.937874   1.960894   2.528191   2.817049]
 Current beta mo_energy(sorted):   [-20.767546  -1.562453  -0.888503  -0.797322  -0.761789   0.213671   0.287481   0.964928   0.971422   1.035348   1.106319   1.222979   1.509522   1.820523
   1.862281   1.865046   2.460186   2.815588]
Alpha occ 5 vir 13; Beta occ 5 vir 13
Alpha energies:  [-20.717779  -1.416589  -0.800822  -0.717451  -0.138915] <- HOMO
         LUMO->  [0.017628 0.216094 0.920829 1.034334 1.08619  1.153711]
Beta energies:   [-20.767547  -1.562453  -0.888503  -0.797322  -0.761789] <- HOMO
         LUMO->  [0.213671 0.287481 0.964928 0.971422 1.035349 1.106319]
time for xg, H, S2, Yg, Feff: 0.020
 E =    -75.73248034, delta E = -2.60769e-10, MaxD(dm) = 1.43488e-05, RMSD(dm) = 1.15954e-06
**** Start Cycle 38 ****
time for NO, Ng: 0.014
time for Gg: 0.041
detC -0.9999999999999963
detNg [   1.001098    1.029262    1.172584    1.631358    3.03959     8.463692   45.031166 1175.025878]
xg [0.998904 0.97157  0.852817 0.612986 0.328992 0.118152 0.022207 0.000851]
ciS 0.9579204478939092
ciH -81.34731210278875
S2 = 0.000000
Hsp + Hph =  -84.92073875407874
F(mod,ortho) updated with CDIIS
Overlap:  [0.999994 0.996011 0.991274 0.997752 0.9941   0.       0.007223 0.000352 0.005113 0.00199  0.       0.001102 0.002355 0.001518 0.       0.       0.001167
 0.000049] 
 [0.999995 0.989372 0.946848 0.99363  0.985457 0.012482 0.042729 0.006237 0.003305 0.006768 0.003912 0.007017 0.000204 0.       0.000854 0.000133 0.000957
 0.000101]
 New alpha occ pattern:  [1 1 1 1 1 0 0 0 0 0 0 0 0 0 0 0 0 0]
 New beta occ pattern:   [1 1 1 1 1 0 0 0 0 0 0 0 0 0 0 0 0 0]
 Current alpha mo_energy(sorted):  [-20.717779  -1.416589  -0.800822  -0.717451  -0.138915   0.017628   0.216094   0.920829   1.034334   1.08619    1.153711   1.286042   1.545331   1.890427
   1.937874   1.960894   2.52819    2.817049]
 Current beta mo_energy(sorted):   [-20.767547  -1.562453  -0.888503  -0.797322  -0.761789   0.213671   0.287481   0.964928   0.971422   1.035349   1.106319   1.222978   1.509522   1.820523
   1.862281   1.865046   2.460186   2.815588]
Alpha occ 5 vir 13; Beta occ 5 vir 13
Alpha energies:  [-20.717778  -1.416589  -0.800823  -0.717451  -0.138915] <- HOMO
         LUMO->  [0.017629 0.216093 0.92083  1.034335 1.086191 1.153712]
Beta energies:   [-20.767545  -1.562452  -0.888502  -0.797321  -0.761788] <- HOMO
         LUMO->  [0.213671 0.287482 0.964929 0.971421 1.035349 1.106319]
time for xg, H, S2, Yg, Feff: 0.020
 E =    -75.73248034, delta E = 3.76616e-10, MaxD(dm) = 4.17748e-06, RMSD(dm) = 4.91621e-07
**** Start Cycle 39 ****
time for NO, Ng: 0.014
time for Gg: 0.041
detC 1.0000000000000062
detNg [   1.001098    1.029262    1.172583    1.631355    3.03958     8.463651   45.03092  1175.019346]
xg [0.998904 0.97157  0.852818 0.612987 0.328993 0.118152 0.022207 0.000851]
ciS 0.9579221099607016
ciH -81.34745324671871
S2 = 0.000000
Hsp + Hph =  -84.9207387540684
F(mod,ortho) updated with CDIIS
Overlap:  [0.999994 0.996011 0.991275 0.997752 0.9941   0.       0.007222 0.000352 0.005113 0.00199  0.       0.001102 0.002355 0.001518 0.       0.       0.001167
 0.000049] 
 [0.999995 0.989372 0.94685  0.99363  0.985457 0.012482 0.042728 0.006237 0.003305 0.006767 0.003912 0.007016 0.000204 0.       0.000854 0.000133 0.000957
 0.000101]
 New alpha occ pattern:  [1 1 1 1 1 0 0 0 0 0 0 0 0 0 0 0 0 0]
 New beta occ pattern:   [1 1 1 1 1 0 0 0 0 0 0 0 0 0 0 0 0 0]
 Current alpha mo_energy(sorted):  [-20.717778  -1.416589  -0.800823  -0.717451  -0.138915   0.017629   0.216093   0.92083    1.034335   1.086191   1.153712   1.286042   1.545331   1.890427
   1.937874   1.960895   2.528191   2.817049]
 Current beta mo_energy(sorted):   [-20.767545  -1.562452  -0.888502  -0.797321  -0.761788   0.213671   0.287482   0.964929   0.971421   1.035349   1.106319   1.22298    1.509523   1.820523
   1.862281   1.865046   2.460186   2.815589]
Alpha occ 5 vir 13; Beta occ 5 vir 13
Alpha energies:  [-20.717779  -1.416589  -0.800824  -0.717452  -0.138915] <- HOMO
         LUMO->  [0.017629 0.216093 0.92083  1.034335 1.086191 1.153712]
Beta energies:   [-20.767546  -1.562452  -0.888501  -0.797321  -0.761788] <- HOMO
         LUMO->  [0.213671 0.287482 0.964929 0.971421 1.035349 1.106318]
time for xg, H, S2, Yg, Feff: 0.021
 E =    -75.73248034, delta E = 1.03455e-11, MaxD(dm) = 2.58972e-06, RMSD(dm) = 2.5783e-07
**** Start Cycle 40 ****
time for NO, Ng: 0.014
time for Gg: 0.042
detC -1.0000000000000013
detNg [   1.001098    1.029262    1.172583    1.631354    3.039574    8.46363    45.030789 1175.015824]
xg [0.998904 0.97157  0.852818 0.612988 0.328993 0.118153 0.022207 0.000851]
ciS 0.9579229975556982
ciH -81.34752862194854
S2 = 0.000000
Hsp + Hph =  -84.9207387540757
F(mod,ortho) updated with CDIIS
Overlap:  [0.999994 0.996011 0.991275 0.997752 0.9941   0.       0.007222 0.000352 0.005113 0.00199  0.       0.001102 0.002355 0.001518 0.       0.       0.001167
 0.000049] 
 [0.999995 0.989372 0.946851 0.99363  0.985457 0.012482 0.042727 0.006237 0.003305 0.006767 0.003912 0.007016 0.000204 0.       0.000854 0.000133 0.000957
 0.000101]
 New alpha occ pattern:  [1 1 1 1 1 0 0 0 0 0 0 0 0 0 0 0 0 0]
 New beta occ pattern:   [1 1 1 1 1 0 0 0 0 0 0 0 0 0 0 0 0 0]
 Current alpha mo_energy(sorted):  [-20.717779  -1.416589  -0.800824  -0.717452  -0.138915   0.017629   0.216093   0.92083    1.034335   1.086191   1.153712   1.286041   1.545331   1.890427
   1.937874   1.960895   2.528191   2.817049]
 Current beta mo_energy(sorted):   [-20.767546  -1.562452  -0.888501  -0.797321  -0.761788   0.213671   0.287482   0.964929   0.971421   1.035349   1.106318   1.22298    1.509523   1.820523
   1.862281   1.865046   2.460186   2.815589]
Alpha occ 5 vir 13; Beta occ 5 vir 13
Alpha energies:  [-20.717779  -1.416589  -0.800824  -0.717452  -0.138915] <- HOMO
         LUMO->  [0.017628 0.216093 0.92083  1.034335 1.086191 1.153711]
Beta energies:   [-20.767546  -1.562452  -0.888501  -0.797321  -0.761788] <- HOMO
         LUMO->  [0.213671 0.287482 0.964929 0.971421 1.035349 1.106318]
time for xg, H, S2, Yg, Feff: 0.020
 E =    -75.73248034, delta E = -7.30438e-12, MaxD(dm) = 1.3385e-06, RMSD(dm) = 1.04761e-07
**** Start Cycle 41 ****
time for NO, Ng: 0.014
time for Gg: 0.041
detC -0.9999999999999982
detNg [   1.001098    1.029262    1.172583    1.631353    3.039573    8.463626   45.030768 1175.015257]
xg [0.998904 0.97157  0.852818 0.612988 0.328994 0.118153 0.022207 0.000851]
ciS 0.9579231412882947
ciH -81.34754082782847
S2 = 0.000000
Hsp + Hph =  -84.92073875407743
F(mod,ortho) updated with CDIIS
Overlap:  [0.999994 0.996011 0.991276 0.997752 0.9941   0.       0.007222 0.000352 0.005113 0.00199  0.       0.001102 0.002355 0.001518 0.       0.       0.001167
 0.000049] 
 [0.999995 0.989372 0.946851 0.99363  0.985457 0.012482 0.042727 0.006237 0.003305 0.006767 0.003912 0.007016 0.000204 0.       0.000854 0.000133 0.000957
 0.000101]
 New alpha occ pattern:  [1 1 1 1 1 0 0 0 0 0 0 0 0 0 0 0 0 0]
 New beta occ pattern:   [1 1 1 1 1 0 0 0 0 0 0 0 0 0 0 0 0 0]
 Current alpha mo_energy(sorted):  [-20.717779  -1.416589  -0.800824  -0.717452  -0.138915   0.017628   0.216093   0.92083    1.034335   1.086191   1.153711   1.286041   1.545331   1.890427
   1.937874   1.960895   2.528191   2.817049]
 Current beta mo_energy(sorted):   [-20.767546  -1.562452  -0.888501  -0.797321  -0.761788   0.213671   0.287482   0.964929   0.971421   1.035349   1.106318   1.222981   1.509523   1.820523
   1.862281   1.865046   2.460186   2.815589]
Alpha occ 5 vir 13; Beta occ 5 vir 13
Alpha energies:  [-20.717779  -1.416589  -0.800824  -0.717452  -0.138915] <- HOMO
         LUMO->  [0.017628 0.216093 0.92083  1.034335 1.086191 1.153711]
Beta energies:   [-20.767546  -1.562452  -0.888501  -0.797321  -0.761788] <- HOMO
         LUMO->  [0.213671 0.287482 0.964929 0.971421 1.035349 1.106318]
time for xg, H, S2, Yg, Feff: 0.020

***************
SUHF converged at cycle 41
Final E(SUHF) =    -75.73248034, delta E = -1.73372e-12, MaxD(dm) = 1.20512e-06, RMSD(dm) = 8.44896e-08
time for cyc: 3.088
******* suhf density *****
Clebsch-Gordan coeff: < 0 0 0 0 | 0 0 > = 1
Clebsch-Gordan coeff: < 0 0 1 0 | 0 0 > = 0
xggint 1.0
time for 1pdm: 0.016
SUHF NO occ alpha:  1.000000  0.999590  0.998200  0.990369  0.500000  0.500000  0.009631  0.001800  0.000410  ...
SUHF NO occ beta:   1.000000  0.999590  0.998200  0.990369  0.500000  0.500000  0.009631  0.001800  0.000410  ...
SUHF NO occ total:  1.999999  1.999180  1.996401  1.980738  1.000001  0.999999  0.019262  0.003599  0.000820  ...
core 4, active 2, external 12
time for natorb: 0.001
time tot: 3.111
Date: Thu Jun 24 22:33:08 2021
