HF file generated by AutoMR of MOKIT
Stability RHF                                                         def2SVP
Number of atoms                            I                6
Info1-9                                    I   N=           9
          16          15           0           0           0         110
           7           1           2
Charge                                     I                0
Multiplicity                               I                1
Number of electrons                        I               16
Number of alpha electrons                  I                8
Number of beta electrons                   I                8
Number of basis functions                  I               48
Number of independent functions            I               48
Number of point charges in /Mol/           I                0
Number of translation vectors              I                0
Atomic numbers                             I   N=           6
           6           1           1           6           1           1
Nuclear charges                            R   N=           6
  6.00000000E+00  1.00000000E+00  1.00000000E+00  6.00000000E+00  1.00000000E+00
  1.00000000E+00
Current cartesian coordinates              R   N=          18
  1.38396550E+00 -2.26767136E-05 -3.77945227E-05  2.46002280E+00 -1.23735110E+00
  1.23745881E+00  2.46004926E+00  1.23748338E+00 -1.23732086E+00 -1.38396550E+00
 -2.26767136E-05  3.77945227E-05 -2.46002280E+00 -1.23735110E+00 -1.23746070E+00
 -2.46004926E+00  1.23748338E+00  1.23732086E+00
Force Field                                I                0
Int Atom Types                             I   N=           6
           0           0           0           0           0           0
MM charges                                 R   N=           6
  0.00000000E+00  0.00000000E+00  0.00000000E+00  0.00000000E+00  0.00000000E+00
  0.00000000E+00
Integer atomic weights                     I   N=           6
          12           1           1          12           1           1
Real atomic weights                        R   N=           6
  1.20000000E+01  1.00782504E+00  1.00782504E+00  1.20000000E+01  1.00782504E+00
  1.00782504E+00
Atom fragment info                         I   N=           6
           0           0           0           0           0           0
Atom residue num                           I   N=           6
           0           0           0           0           0           0
Nuclear spins                              I   N=           6
           0           1           1           0           1           1
Nuclear ZEff                               R   N=           6
 -3.60000000E+00 -1.00000000E+00 -1.00000000E+00 -3.60000000E+00 -1.00000000E+00
 -1.00000000E+00
Nuclear QMom                               R   N=           6
  0.00000000E+00  0.00000000E+00  0.00000000E+00  0.00000000E+00  0.00000000E+00
  0.00000000E+00
Nuclear GFac                               R   N=           6
  0.00000000E+00  2.79284600E+00  2.79284600E+00  0.00000000E+00  2.79284600E+00
  2.79284600E+00
MicOpt                                     I   N=           6
          -1          -1          -1          -1          -1          -1
Number of contracted shells                I               24
Number of primitive shells                 I               44
Pure/Cartesian d shells                    I                0
Pure/Cartesian f shells                    I                0
Highest angular momentum                   I                2
Largest degree of contraction              I                5
Shell types                                I   N=          24
           0           0           0           1           1          -2
           0           0           1           0           0           1
           0           0           0           1           1          -2
           0           0           1           0           0           1
Number of primitives per shell             I   N=          24
           5           1           1           3           1           1
           3           1           1           3           1           1
           5           1           1           3           1           1
           3           1           1           3           1           1
Shell to atom map                          I   N=          24
           1           1           1           1           1           1
           2           2           2           3           3           3
           4           4           4           4           4           4
           5           5           5           6           6           6
Primitive exponents                        R   N=          44
  1.23840169E+03  1.86290050E+02  4.22511763E+01  1.16765579E+01  3.59305065E+00
  4.02451474E-01  1.30901827E-01  9.46809706E+00  2.01035451E+00  5.47710047E-01
  1.52686138E-01  8.00000000E-01  1.30107010E+01  1.96225720E+00  4.44537960E-01
  1.21949620E-01  8.00000000E-01  1.30107010E+01  1.96225720E+00  4.44537960E-01
  1.21949620E-01  8.00000000E-01  1.23840169E+03  1.86290050E+02  4.22511763E+01
  1.16765579E+01  3.59305065E+00  4.02451474E-01  1.30901827E-01  9.46809706E+00
  2.01035451E+00  5.47710047E-01  1.52686138E-01  8.00000000E-01  1.30107010E+01
  1.96225720E+00  4.44537960E-01  1.21949620E-01  8.00000000E-01  1.30107010E+01
  1.96225720E+00  4.44537960E-01  1.21949620E-01  8.00000000E-01
Contraction coefficients                   R   N=          44
  5.51736505E-03  4.10888286E-02  1.82253821E-01  4.68284594E-01  4.45758173E-01
  1.00000000E+00  1.00000000E+00  5.68883320E-02  3.12940593E-01  7.60650165E-01
  1.00000000E+00  1.00000000E+00  3.34854848E-02  2.34721871E-01  8.13770285E-01
  1.00000000E+00  1.00000000E+00  3.34854848E-02  2.34721871E-01  8.13770285E-01
  1.00000000E+00  1.00000000E+00  5.51736505E-03  4.10888286E-02  1.82253821E-01
  4.68284594E-01  4.45758173E-01  1.00000000E+00  1.00000000E+00  5.68883320E-02
  3.12940593E-01  7.60650165E-01  1.00000000E+00  1.00000000E+00  3.34854848E-02
  2.34721871E-01  8.13770285E-01  1.00000000E+00  1.00000000E+00  3.34854848E-02
  2.34721871E-01  8.13770285E-01  1.00000000E+00  1.00000000E+00
Coordinates of each shell                  R   N=          72
  1.38396550E+00 -2.26767136E-05 -3.77945227E-05  1.38396550E+00 -2.26767136E-05
 -3.77945227E-05  1.38396550E+00 -2.26767136E-05 -3.77945227E-05  1.38396550E+00
 -2.26767136E-05 -3.77945227E-05  1.38396550E+00 -2.26767136E-05 -3.77945227E-05
  1.38396550E+00 -2.26767136E-05 -3.77945227E-05  2.46002280E+00 -1.23735110E+00
  1.23745881E+00  2.46002280E+00 -1.23735110E+00  1.23745881E+00  2.46002280E+00
 -1.23735110E+00  1.23745881E+00  2.46004926E+00  1.23748338E+00 -1.23732086E+00
  2.46004926E+00  1.23748338E+00 -1.23732086E+00  2.46004926E+00  1.23748338E+00
 -1.23732086E+00 -1.38396550E+00 -2.26767136E-05  3.77945227E-05 -1.38396550E+00
 -2.26767136E-05  3.77945227E-05 -1.38396550E+00 -2.26767136E-05  3.77945227E-05
 -1.38396550E+00 -2.26767136E-05  3.77945227E-05 -1.38396550E+00 -2.26767136E-05
  3.77945227E-05 -1.38396550E+00 -2.26767136E-05  3.77945227E-05 -2.46002280E+00
 -1.23735110E+00 -1.23746070E+00 -2.46002280E+00 -1.23735110E+00 -1.23746070E+00
 -2.46002280E+00 -1.23735110E+00 -1.23746070E+00 -2.46004926E+00  1.23748338E+00
  1.23732086E+00 -2.46004926E+00  1.23748338E+00  1.23732086E+00 -2.46004926E+00
  1.23748338E+00  1.23732086E+00
Constraint Structure                       R   N=          18
  1.38396550E+00 -2.26767136E-05 -3.77945227E-05  2.46002280E+00 -1.23735110E+00
  1.23745881E+00  2.46004926E+00  1.23748338E+00 -1.23732086E+00 -1.38396550E+00
 -2.26767136E-05  3.77945227E-05 -2.46002280E+00 -1.23735110E+00 -1.23746070E+00
 -2.46004926E+00  1.23748338E+00  1.23732086E+00
Num ILSW                                   I              100
ILSW                                       I   N=         100
           0           0           0           0           2           1
           0           0           0           0           0          -1
           0           0           0           0           0           0
           0           0           0           0           0           0
           1           1           0           0           0           0
           0           0      100000           0          -1           0
           0           0           0           0           0           0
           0           0           0           1           0           0
           0           0           1           0           0           0
           0           0           4          40           0           0
           0           0           0           0           0           0
           0           0           0           0           0           0
           0           0           0           0           0           0
           0           0           0           0           0           0
           0           0           0           0           0           0
           0           0           0           0           0           0
           0           0           0           0
Num RLSW                                   I               40
RLSW                                       R   N=          40
  1.00000000E+00  1.00000000E+00  1.00000000E+00  1.00000000E+00  1.00000000E+00
  0.00000000E+00  0.00000000E+00  1.00000000E+00  0.00000000E+00  0.00000000E+00
  0.00000000E+00  0.00000000E+00  1.00000000E+00  0.00000000E+00  0.00000000E+00
  0.00000000E+00  0.00000000E+00  1.00000000E+00  0.00000000E+00  0.00000000E+00
  0.00000000E+00  0.00000000E+00  1.00000000E+00  0.00000000E+00  0.00000000E+00
  0.00000000E+00  0.00000000E+00  1.00000000E+00  0.00000000E+00  0.00000000E+00
  0.00000000E+00  0.00000000E+00  1.00000000E+00  0.00000000E+00  0.00000000E+00
  0.00000000E+00  0.00000000E+00  0.00000000E+00  1.00000000E+00  1.00000000E+00
ECP-MxAtEC                                 I           250000
ECP-MaxLECP                                I               10
ECP-MaxAtL                                 I          2250000
ECP-MxTECP                                 I         11250000
ECP-LenNCZ                                 I                0
ECP-KFirst                                 I   N=          60
           0           0           0           0           0           0
           0           0           0           0           0           0
           0           0           0           0           0           0
           0           0           0           0           0           0
           0           0           0           0           0           0
           0           0           0           0           0           0
           0           0           0           0           0           0
           0           0           0           0           0           0
           0           0           0           0           0           0
           0           0           0           0           0           0
ECP-KLast                                  I   N=          60
           0           0           0           0           0           0
           0           0           0           0           0           0
           0           0           0           0           0           0
           0           0           0           0           0           0
           0           0           0           0           0           0
           0           0           0           0           0           0
           0           0           0           0           0           0
           0           0           0           0           0           0
           0           0           0           0           0           0
           0           0           0           0           0           0
ECP-LMax                                   I   N=           6
           0           0           0           0           0           0
ECP-LPSkip                                 I   N=           6
           1           1           1           1           1           1
ECP-RNFroz                                 R   N=           6
  0.00000000E+00  0.00000000E+00  0.00000000E+00  0.00000000E+00  0.00000000E+00
  0.00000000E+00
ECP-NLP                                    I                0
ECP-CLP1                                   R      0.000000000000000E+00
ECP-CLP2                                   R      0.000000000000000E+00
ECP-ZLP                                    R      0.000000000000000E+00
MxBond                                     I                3
NBond                                      I   N=           6
           3           1           1           3           1           1
IBond                                      I   N=          18
           2           3           4           1           0           0
           1           0           0           1           5           6
           4           0           0           4           0           0
RBond                                      R   N=          18
  1.00000000E+00  1.00000000E+00  1.00000000E+00  1.00000000E+00  0.00000000E+00
  0.00000000E+00  1.00000000E+00  0.00000000E+00  0.00000000E+00  1.00000000E+00
  1.00000000E+00  1.00000000E+00  1.00000000E+00  0.00000000E+00  0.00000000E+00
  1.00000000E+00  0.00000000E+00  0.00000000E+00
Virial Ratio                               R      2.005223171566842E+00
SCF Energy                                 R     -7.791452399003296E+01
Total Energy                               R     -7.791452399003296E+01
S**2                                       R      1.034283752909358E+00
S**2 after annihilation                    R      2.761764311757678E-01
RMS Density                                R      4.699708711937538E-09
External E-field                           R   N=          35
  0.00000000E+00  0.00000000E+00  0.00000000E+00  0.00000000E+00  0.00000000E+00
  0.00000000E+00  0.00000000E+00  0.00000000E+00  0.00000000E+00  0.00000000E+00
  0.00000000E+00  0.00000000E+00  0.00000000E+00  0.00000000E+00  0.00000000E+00
  0.00000000E+00  0.00000000E+00  0.00000000E+00  0.00000000E+00  0.00000000E+00
  0.00000000E+00  0.00000000E+00  0.00000000E+00  0.00000000E+00  0.00000000E+00
  0.00000000E+00  0.00000000E+00  0.00000000E+00  0.00000000E+00  0.00000000E+00
  0.00000000E+00  0.00000000E+00  0.00000000E+00  0.00000000E+00  0.00000000E+00
IOpCl                                      I                0
IROHF                                      I                0
Alpha Orbital Energies                     R   N=          48
  1.99999865E+00  1.99999788E+00  1.98849178E+00  1.98728795E+00  1.98728776E+00
  1.98728296E+00  1.98165196E+00  1.00004095E+00  9.99959050E-01  1.83480393E-02
  1.27170421E-02  1.27122405E-02  1.27120499E-02  1.15082183E-02  2.12328748E-06
  1.35378184E-06  6.04326418E-16  3.88230100E-16  2.64149411E-16  2.27641469E-16
  1.90506930E-16  1.31802203E-16  9.42614928E-17  9.00535433E-17  6.72534434E-17
  3.92929590E-17  3.60754265E-17  3.20151930E-17  2.09106337E-17  1.46848290E-17
  2.67450886E-18  1.23807240E-18 -3.59508803E-18 -7.56292386E-18 -1.40588800E-17
 -1.68511093E-17 -2.35828354E-17 -2.74053374E-17 -3.00836230E-17 -5.31916268E-17
 -6.72673438E-17 -1.05402930E-16 -1.08464565E-16 -1.14848209E-16 -2.28983513E-16
 -3.23283717E-16 -3.34762346E-16 -3.48710368E-16
Alpha MO coefficients                      R   N=        2304
 -7.04278818E-01 -1.67964475E-02  1.54615862E-02 -2.96250699E-03 -2.81346124E-08
  2.96610635E-08  5.26872575E-04  4.88942451E-08  4.97396212E-07 -2.45771355E-04
 -6.62187354E-08  8.10697540E-04  4.25718829E-04 -7.19964110E-08  3.75259227E-03
 -3.86507362E-03 -3.65558332E-04  6.77862815E-04 -6.78000027E-04  3.75268215E-03
 -3.86475982E-03 -3.65610660E-04 -6.78006804E-04  6.77837727E-04 -7.04278601E-01
 -1.67964405E-02  1.54615744E-02  2.96250878E-03 -2.68310952E-08 -2.76033263E-08
 -5.26871160E-04  5.10269901E-08 -4.97239215E-07 -2.45772483E-04 -6.63177037E-08
 -8.10697389E-04  4.25719544E-04  7.25334853E-08  3.75258511E-03 -3.86506870E-03
  3.65558712E-04  6.77863051E-04  6.78001444E-04  3.75268117E-03 -3.86475869E-03
  3.65610451E-04 -6.78006438E-04 -6.77837216E-04 -7.02727099E-01 -2.16936880E-02
  2.23021194E-02  2.62350807E-03 -1.16282095E-08 -5.83992051E-08 -1.46034111E-03
  4.17668996E-07  1.61403260E-07  6.11004530E-04  4.37581847E-09  9.19495433E-04
 -1.05824011E-03 -1.11541020E-07  4.47715803E-03 -2.79307348E-03 -7.55474264E-04
  8.71759951E-04 -8.71917158E-04  4.47722528E-03 -2.79339396E-03 -7.55435409E-04
 -8.71951755E-04  8.71755073E-04  7.02727314E-01  2.16936922E-02 -2.23021183E-02
  2.62350442E-03  9.22804998E-09 -6.04263830E-08 -1.46034325E-03 -4.20039322E-07
  1.61071085E-07 -6.11003655E-04 -4.42348573E-09  9.19495683E-04  1.05824000E-03
 -1.12168149E-07 -4.47714984E-03  2.79307054E-03 -7.55474863E-04 -8.71759930E-04
 -8.71918612E-04 -4.47722655E-03  2.79339465E-03 -7.55435591E-04  8.71951812E-04
  8.71754987E-04 -4.47746348E-02  7.70988966E-02  4.74249696E-02  3.46648280E-01
  1.17515984E-04 -6.56909172E-05  1.44085614E-01  4.72913651E-05 -2.98077950E-05
  6.23957499E-03 -4.44331143E-06 -7.73015504E-03 -1.08078058E-02  1.48776357E-06
  1.94677258E-01  5.90156302E-02 -2.53856285E-03  1.08589658E-02 -1.08594819E-02
  1.94868214E-01  5.90781366E-02 -2.54702475E-03 -1.08649539E-02  1.08640037E-02
 -4.47720297E-02  7.70933823E-02  4.74224986E-02 -3.46645646E-01  1.20430713E-04
  6.97609559E-05 -1.44084814E-01  4.86092910E-05  3.14437899E-05  6.23952462E-03
 -4.48618052E-06  7.73001233E-03 -1.08077069E-02 -1.73827858E-06  1.94670035E-01
  5.90136630E-02  2.53827571E-03  1.08586313E-02  1.08591809E-02  1.94868449E-01
  5.90787179E-02  2.54704386E-03 -1.08648434E-02 -1.08638760E-02  1.08962122E-03
 -2.30649297E-03 -1.06929022E-03 -1.22328014E-03  2.63060064E-01 -1.86644001E-01
 -4.05060161E-04  1.09307856E-01 -8.69766934E-02 -2.81768905E-05 -1.46161155E-02
  6.26737226E-05  4.39724822E-05  3.02284559E-03 -2.38552314E-01 -8.32484548E-02
  9.73641249E-03 -5.78954597E-03  7.05361459E-03  2.35543551E-01  8.26049584E-02
 -9.62720779E-03 -5.60679852E-03  6.86730692E-03 -1.04537893E-03  2.22743473E-03
  1.02747121E-03 -9.24299964E-04  2.44021826E-01  1.58689998E-01 -2.75824320E-04
  1.00354928E-01  7.54186382E-02  1.91190441E-05 -1.43709381E-02  5.51718051E-05
 -3.74687798E-05 -1.42478703E-03 -2.10945081E-01 -7.39941574E-02 -8.61737376E-03
 -4.87971605E-03 -6.29090676E-03  2.13609722E-01  7.45281722E-02  8.72283548E-03
 -5.04657266E-03 -6.45455791E-03 -1.35251522E-02  2.87229592E-02  1.32831535E-02
  1.35955596E-02 -1.57825518E-01  2.42831157E-01  4.31005874E-03 -7.50196327E-02
  9.98580365E-02  3.00103097E-04  1.40840407E-03 -7.46433762E-04 -5.15540695E-04
 -1.43069164E-02  2.29161003E-01  7.76111367E-02 -9.30577113E-03  7.44816428E-03
 -6.04533241E-03 -1.93226948E-01 -7.01543701E-02  7.94583769E-03  5.23416245E-03
 -3.82817834E-03  1.35281300E-02 -2.87281423E-02 -1.32862261E-02  1.36186844E-02
  1.86007246E-01  2.62023644E-01  4.31998080E-03  8.66719567E-02  1.08883463E-01
 -3.00746054E-04 -3.01939884E-03 -7.46988057E-04  5.16119711E-04 -1.45540909E-02
 -2.54145879E-01 -8.63512442E-02 -1.03258383E-02 -8.04130830E-03 -6.78717525E-03
  2.18185890E-01  7.88861951E-02  8.96563418E-03 -5.82605854E-03 -4.56837765E-03
  1.44290527E-01 -3.06418593E-01 -1.41713617E-01 -1.45111306E-01 -1.67547344E-02
  2.41386072E-02 -4.59931454E-02 -7.84642979E-03  1.00021400E-02 -3.17896194E-03
  2.40007707E-04  7.96221282E-03  5.50702083E-03 -1.36474526E-03 -1.70127566E-01
 -3.22500265E-02  6.37253655E-03 -1.11801038E-02  1.13034131E-02 -2.13243178E-01
 -4.73341185E-02  8.13380499E-03  1.24548545E-02 -1.23308101E-02 -1.44291133E-01
  3.06419583E-01  1.41714417E-01 -1.45117924E-01  1.56451811E-02  2.33829285E-02
 -4.59959392E-02  7.38762134E-03  9.64672993E-03  3.17910274E-03 -1.76580024E-04
  7.96235795E-03 -5.50723461E-03 -1.35501887E-03  1.71114186E-01  3.25950956E-02
  6.41271820E-03  1.12036031E-02  1.13327819E-02  2.12263478E-01  4.69912511E-02
  8.09368410E-03 -1.24317103E-02 -1.23018275E-02 -1.75458264E-01  3.75902636E-01
  1.12439838E-01 -2.20635416E-01  9.04674619E-06  4.78093942E-06 -7.83327379E-02
  5.07084828E-06  5.72965051E-07 -9.69574301E-03 -1.27109453E-06  1.62929269E-04
  1.67936759E-02 -2.42412297E-07  5.69349597E-02 -2.74254005E-03 -7.77245312E-03
  5.65952324E-03 -5.65994294E-03  5.69406506E-02 -2.74033748E-03 -7.77266240E-03
 -5.66002141E-03  5.65937614E-03 -1.75458467E-01  3.75903093E-01  1.12440041E-01
  2.20635217E-01  8.81738022E-06 -5.13402840E-06  7.83326534E-02  4.93663515E-06
 -7.31213218E-07 -9.69574003E-03 -1.26681084E-06 -1.62915041E-04  1.67936705E-02
  2.63383927E-07  5.69354938E-02 -2.74239261E-03  7.77246249E-03  5.65953902E-03
  5.65996422E-03  5.69406136E-02 -2.74038324E-03  7.77266073E-03 -5.66002673E-03
 -5.65938460E-03 -1.41284515E-05  3.29249142E-05  3.44170470E-05  5.80400167E-06
 -3.31633349E-01 -2.96061974E-01  6.64916539E-06 -2.78321146E-01 -2.33213085E-01
  5.86115933E-07  1.52554484E-02  1.26877942E-06  1.06501997E-07 -1.37789833E-02
  8.83798731E-02  7.47638816E-02  1.76098665E-04 -7.44279156E-03 -8.06760710E-03
 -8.83968242E-02 -7.47741244E-02 -1.74671885E-04 -7.44162541E-03 -8.06833463E-03
  1.41509293E-05 -3.29812205E-05 -3.44968836E-05  5.92848854E-06  3.31633461E-01
 -2.96061880E-01  6.73961311E-06  2.78321228E-01 -2.33212979E-01 -5.95601285E-07
 -1.52554512E-02  1.27460311E-06 -1.01904127E-07 -1.37789739E-02 -8.83799069E-02
 -7.47639630E-02  1.76103404E-04  7.44278408E-03 -8.06760150E-03  8.83968326E-02
  7.47741017E-02 -1.74667874E-04  7.44162570E-03 -8.06833515E-03  9.95484159E-06
 -2.48757823E-05 -2.60809416E-05 -1.61916498E-05  2.96057400E-01  3.31643617E-01
 -1.07169091E-05  2.33206147E-01  2.78329180E-01  8.52602751E-08  1.37788166E-02
 -1.21786693E-06  1.61673148E-06 -1.52548271E-02  8.83962976E-02  7.47718944E-02
  1.74552314E-04  8.06809968E-03  7.44144751E-03 -8.83805549E-02 -7.47636376E-02
 -1.76005310E-04  8.06735343E-03  7.44328644E-03  1.00150160E-05 -2.50089567E-05
 -2.62283808E-05  1.62846252E-05  2.96057558E-01 -3.31643503E-01  1.07886073E-05
  2.33206253E-01 -2.78329083E-01  8.90991883E-08  1.37788189E-02  1.22144736E-06
  1.61790577E-06  1.52548194E-02  8.83963942E-02  7.47720049E-02 -1.74548600E-04
  8.06810263E-03 -7.44142812E-03 -8.83805005E-02 -7.47635857E-02  1.76009753E-04
  8.06735676E-03 -7.44328632E-03  2.08282244E-01 -6.83682064E-01 -1.03673575E+00
  4.53105052E-01 -1.57403611E-05 -9.75116055E-06  4.87921957E-01 -2.39788380E-05
 -4.34755726E-05 -3.22431813E-02  4.93511024E-06 -1.25187104E-01  5.58421995E-02
 -4.73500039E-07  2.10643805E-01  1.41491994E-01 -4.25334379E-03  2.78209734E-03
 -2.78666798E-03  2.10645055E-01  1.41477308E-01 -4.25259946E-03 -2.78713332E-03
  2.78237767E-03 -2.08282431E-01  6.83682688E-01  1.03673625E+00  4.53104595E-01
  1.54473199E-05 -1.04595684E-05  4.87921742E-01  2.37387233E-05 -4.39668333E-05
  3.22431506E-02 -4.97674333E-06 -1.25187252E-01 -5.58423375E-02 -4.14268625E-07
 -2.10644843E-01 -1.41492740E-01 -4.25333153E-03 -2.78209654E-03 -2.78668536E-03
 -2.10645151E-01 -1.41477231E-01 -4.25261250E-03  2.78714801E-03  2.78237845E-03
  1.33628941E-01 -4.59095684E-01 -5.87263756E-01 -3.48886192E-01 -2.32607673E-02
  5.11659877E-02 -2.59769974E-01 -3.24210833E-02  3.87001335E-02 -4.13524999E-02
 -3.53261093E-03 -1.44709098E-01  7.16136109E-02  2.59831150E-03  4.25197063E-01
  2.71635819E-01  7.64110499E-03 -1.85869729E-03  1.62613691E-03  5.10044591E-01
  3.49358188E-01  1.15078271E-02  3.84254496E-03 -4.07579296E-03  1.33629540E-01
 -4.59096649E-01 -5.87269307E-01  3.48898279E-01 -2.08956436E-02 -5.01359138E-02
  2.59777460E-01 -3.06474690E-02 -3.72298713E-02 -4.13524552E-02 -3.41557309E-03
  1.44709932E-01  7.16138390E-02 -2.43598312E-03  4.27139175E-01  2.73413058E-01
 -7.72934948E-03 -1.91466030E-03 -1.67143245E-03  5.08117394E-01  3.47591438E-01
 -1.14197519E-02  3.78679113E-03  4.03064396E-03 -1.25267277E-02  4.30313123E-02
  5.50713425E-02  3.26954018E-02 -2.04296611E-01  5.25016036E-01  2.43494387E-02
 -3.11976875E-01  3.84904653E-01  3.86821936E-03 -3.54709165E-02  1.35656226E-02
 -6.71674938E-03  2.45653014E-02 -4.59447408E-01 -4.09786366E-01 -1.98402504E-02
  9.86184695E-03 -1.23961512E-02  3.71773291E-01  3.51559438E-01  1.80442962E-02
  9.31933492E-03 -1.18693947E-02 -1.25297251E-02  4.30381292E-02  5.50953420E-02
 -3.27375144E-02 -2.64371313E-01 -5.51176561E-01 -2.43742701E-02 -3.57033076E-01
 -4.22249099E-01  3.86763064E-03 -3.84435741E-02 -1.35695269E-02 -6.71816705E-03
 -2.86912369E-02 -5.08617984E-01 -4.54817030E-01  2.20802814E-02  1.12815057E-02
  1.35457748E-02  4.20887802E-01  3.96551753E-01 -2.02837979E-02  1.07373351E-02
  1.30192409E-02  1.01069281E-03 -3.45094490E-03 -4.51366398E-03 -2.85315652E-03
  5.53445833E-01 -2.65149139E-01 -2.07622170E-03  4.23877094E-01 -3.58319792E-01
 -2.99901138E-04  2.87904828E-02 -1.09921959E-03  5.41419561E-04 -3.85946167E-02
  4.70136389E-01  4.29699014E-01  2.13336503E-02 -1.33630500E-02  1.10665988E-02
 -4.62844231E-01 -4.24854176E-01 -2.11889552E-02 -1.33075867E-02  1.10284807E-02
  9.66636997E-04 -3.34166605E-03 -4.17939767E-03  2.31021940E-03 -5.27495495E-01
 -2.05559964E-01  1.76868743E-03 -3.86833586E-01 -3.13627229E-01 -3.11067944E-04
 -2.46977317E-02  1.04232039E-03  5.18685000E-04 -3.56457693E-02 -4.14469487E-01
 -3.80454507E-01  1.89701880E-02  1.21797048E-02  9.61757571E-03  4.21018755E-01
  3.84801689E-01 -1.91089874E-02  1.22095649E-02  9.66298954E-03  4.40995902E-02
 -8.84210713E-02 -4.05205701E-01 -6.39734853E-01 -2.59464280E-04  8.74288538E-05
 -3.99448668E-01 -2.04809046E-04  1.20946525E-04 -7.97407112E-03 -4.70941891E-06
 -5.94802024E-02  1.38068952E-02  2.70756765E-05  4.31714180E-01  3.10338730E-01
  5.79476236E-03 -6.03734920E-03  6.02922492E-03  4.32094603E-01  3.10682274E-01
  5.81362028E-03  6.04138805E-03 -6.04802828E-03 -4.40971983E-02  8.84127475E-02
  4.05194748E-01 -6.39728582E-01  2.63393536E-04  9.61702067E-05 -3.99443796E-01
  2.10580026E-04  1.27536448E-04  7.97323836E-03  5.34385987E-06 -5.94774406E-02
 -1.38055434E-02  2.75893167E-05 -4.31698192E-01 -3.10326243E-01  5.79423273E-03
  6.03710657E-03  6.02891132E-03 -4.32093466E-01 -3.10683406E-01  5.81377627E-03
 -6.04148893E-03 -6.04820970E-03 -1.46755981E-01  1.19486707E+00 -2.14554799E+00
 -6.78832950E-02 -4.31731971E-06  1.97338692E-06 -3.04976328E-01 -2.41921119E-05
 -5.47061007E-05  1.38631126E-01 -4.90793012E-06  3.62690645E-01 -2.40097913E-01
 -4.53759655E-06  1.98992580E-01  7.25586064E-01  5.88106033E-02 -8.08777566E-02
  8.08762410E-02  1.98990794E-01  7.25573154E-01  5.88152932E-02  8.08802865E-02
 -8.08754949E-02 -1.46756005E-01  1.19486718E+00 -2.14554883E+00  6.78831232E-02
 -4.36334204E-06 -1.87712251E-06  3.04975455E-01 -2.45630913E-05  5.46636485E-05
  1.38630953E-01 -4.99785705E-06 -3.62690788E-01 -2.40098167E-01  4.65128508E-06
  1.98992581E-01  7.25585432E-01 -5.88104524E-02 -8.08776258E-02 -8.08761976E-02
  1.98990800E-01  7.25573379E-01 -5.88153447E-02  8.08803043E-02  8.08755488E-02
 -1.33209731E-01  1.29919096E+00 -5.31317142E+00  2.63604885E-01  1.23191234E-05
  7.17711506E-06  1.12657953E+00 -4.37546972E-05 -1.04565402E-04  7.53418793E-02
 -1.08638307E-05  3.42891156E-01 -1.30479286E-01 -1.67506571E-05  1.65519547E-01
  7.90509163E-01  8.29128146E-02 -1.23929391E-01  1.23934566E-01  1.65498647E-01
  7.90491751E-01  8.29110316E-02  1.23938759E-01 -1.23925082E-01  1.33209678E-01
 -1.29919028E+00  5.31316971E+00  2.63604711E-01 -1.25284336E-05  7.11737315E-06
  1.12658002E+00  4.42451808E-05 -1.04506765E-04 -7.53416531E-02  1.10270627E-05
  3.42891087E-01  1.30479418E-01 -1.68384249E-05 -1.65519733E-01 -7.90507885E-01
  8.29125819E-02  1.23929067E-01  1.23934388E-01 -1.65498595E-01 -7.90491611E-01
  8.29110353E-02 -1.23938716E-01 -1.23925081E-01  8.42343081E-02 -4.91623611E-01
  1.69564905E+00  5.21880991E-02 -1.28202785E-01  2.32154717E-02  4.44895531E-01
  8.27709041E-02  7.34899547E-02 -2.29177173E-02  9.89826928E-02  3.67462927E-01
  1.92361764E-01 -2.62101639E-02 -1.04937067E-01 -6.26642535E-01  2.04840657E-01
 -1.62730474E-01  2.46430265E-01 -1.09324067E-01 -4.60822462E-01  1.00907700E-01
  1.86154562E-01 -2.69666789E-01 -8.58394504E-03  5.66165920E-02  7.06842557E-01
 -5.59307071E-02 -9.63673583E-02  9.78875855E-03 -4.06447986E-01  7.96778574E-02
 -6.29055569E-02 -8.21367292E-02 -1.38817685E-01 -6.05447141E-02  2.61727790E-01
 -1.02456412E-01 -4.77503649E-02 -4.58240471E-01 -2.83318024E-01 -1.93028729E-01
 -1.56612010E-01 -1.44580007E-01 -4.10552654E-01 -9.14285781E-02  1.03069354E-01
  2.47111560E-01  2.00576793E-02 -1.75681069E-01  8.98968537E-01 -1.02754372E-01
 -2.02996460E-01 -3.06401188E-01 -5.67743426E-03  9.55470379E-03  1.15037391E-01
 -2.15357848E-01 -1.61353316E-02  7.30660556E-02 -7.92001379E-02  3.12921474E-01
 -2.87644831E-02 -1.56464972E-01  7.85631357E-03 -9.27819663E-02  1.90981663E-01
 -6.92657686E-02 -2.26133802E-01  1.39114887E-01  2.30171469E-01  3.28202383E-01
 -2.51556210E-02  1.74904130E-01 -1.21041213E-01 -2.50112014E-01  1.88982498E-01
 -3.47459080E-02 -1.91011404E-01  2.79908207E-01  3.11228406E-01  2.76095086E-01
  3.32697671E-02  1.91384295E-01 -4.40660009E-02  8.11743756E-02  1.24880228E-01
 -5.90130495E-02  2.87791865E-01 -3.68129228E-03 -6.70829550E-02 -2.05258157E-01
 -3.48820882E-01 -1.21647534E-01  5.68958162E-02  4.08865250E-01 -1.59775194E-01
  9.90127031E-01 -5.82637923E-02  2.10213835E-01 -5.65076429E-02 -1.51085703E-01
  3.50286425E-01  1.99773459E-01  9.04626672E-02  1.66237091E-01 -2.36324775E-02
 -6.35673261E-01  2.36327269E-01 -1.48629424E-01 -5.80163471E-01  1.04631865E-01
  2.35510129E-01 -1.69500382E-01  3.11246469E-01 -5.89626205E-01  3.19729148E-02
  2.56130683E-01  1.55520307E-01 -4.84465258E-01 -1.00888386E-01  6.74637438E-01
 -5.30909123E-02 -2.19623239E-01  2.00696238E-02 -7.55358427E-02 -2.21846702E-01