#INFO: **** input file is /share/home/srwang/ExSCF/test/vhfopt/test.py ****
from pyphf import util, guess

xyz = 'H 0.0 0.0 0.0; H 0.0 0.0 2.0'''
bas = '3-21g'
mf = guess.mix(xyz, bas, conv='tight')

mf2 = util.SUHF(mf)
mf2.verbose = 8
mf2.kernel()

#INFO: ******************** input file end ********************


System: uname_result(system='Linux', node='xn01', release='3.10.0-1127.el7.x86_64', version='#1 SMP Tue Feb 18 16:39:12 EST 2020', machine='x86_64', processor='x86_64')  Threads 32
Python 3.7.4 (default, Aug 13 2019, 20:35:49) 
[GCC 7.3.0]
numpy 1.17.2  scipy 1.4.1
Date: Wed Apr 21 18:31:11 2021
PySCF version 1.7.6a1
PySCF path  /share/home/srwang/pyscf/pyscf
GIT HEAD      ref: refs/heads/master
GIT master branch  80f71dfe77ac5f9caae26788acf76446987635bd

[CONFIG] conf_file None
[INPUT] verbose = 4
[INPUT] num. atoms = 2
[INPUT] num. electrons = 2
[INPUT] charge = 0
[INPUT] spin (= nelec alpha-beta = 2S) = 0
[INPUT] symmetry False subgroup None
[INPUT] Mole.unit = angstrom
[INPUT]  1 H      0.000000000000   0.000000000000   0.000000000000 AA    0.000000000000   0.000000000000   0.000000000000 Bohr
[INPUT]  2 H      0.000000000000   0.000000000000   2.000000000000 AA    0.000000000000   0.000000000000   3.779452249130 Bohr

nuclear repulsion = 0.26458860546
number of shells = 4
number of NR pGTOs = 6
number of NR cGTOs = 4
basis = 3-21g
ecp = {}
CPU time:         1.05


******** <class 'pyscf.scf.hf.RHF'> ********
method = RHF
initial guess = minao
damping factor = 0
level_shift factor = 0
DIIS = <class 'pyscf.scf.diis.CDIIS'>
diis_start_cycle = 1
diis_space = 8
SCF conv_tol = 1e-05
SCF conv_tol_grad = None
SCF max_cycles = 50
direct_scf = True
direct_scf_tol = 1e-13
chkfile to save SCF result = /share/home/srwang/ExSCF/test/vhfopt/tmp88zbiytj
max_memory 4000 MB (current use 107 MB)
Set gradient conv threshold to 0.00316228
init E= -0.648815945420394
  HOMO = -0.244674774926751  LUMO = -0.0864459286574333
cycle= 1 E= -0.907663399996247  delta_E= -0.259  |g|= 0.019  |ddm|= 0.828
  HOMO = -0.369605169894073  LUMO = -0.0101025752244096
cycle= 2 E= -0.907801422494246  delta_E= -0.000138  |g|= 0.00293  |ddm|= 0.0218
  HOMO = -0.370705495656876  LUMO = -0.011268420043164
cycle= 3 E= -0.907804773936949  delta_E= -3.35e-06  |g|= 1.06e-06  |ddm|= 0.00397
  HOMO = -0.370702164933128  LUMO = -0.0112672782402441
Extra cycle  E= -0.907804773937381  delta_E= -4.32e-13  |g|= 1.64e-07  |ddm|= 1.22e-06
converged SCF energy = -0.907804773937381


******** <class 'pyscf.scf.uhf.UHF'> ********
method = UHF
initial guess = minao
damping factor = 0
level_shift factor = 0
DIIS = <class 'pyscf.scf.diis.CDIIS'>
diis_start_cycle = 1
diis_space = 8
SCF conv_tol = 1e-09
SCF conv_tol_grad = None
SCF max_cycles = 100
direct_scf = True
direct_scf_tol = 1e-13
chkfile to save SCF result = /share/home/srwang/ExSCF/test/vhfopt/tmpe626dizm
max_memory 4000 MB (current use 152 MB)
number electrons alpha = 1  beta = 1
Set gradient conv threshold to 3.16228e-05
init E= -1.69135654891561
  alpha nocc = 1  HOMO = -0.24136263647573  LUMO = 0.900983838942928
  beta  nocc = 1  HOMO = -0.24136263647573  LUMO = 0.900983838942928
cycle= 1 E= -0.98558925463628  delta_E= 0.706  |g|= 0.0835  |ddm|= 1.15
  alpha nocc = 1  HOMO = -0.500699367107887  LUMO = 0.115721881429081
  beta  nocc = 1  HOMO = -0.500699367107887  LUMO = 0.115721881429081
cycle= 2 E= -0.995568238270465  delta_E= -0.00998  |g|= 0.0263  |ddm|= 0.145
  alpha nocc = 1  HOMO = -0.497083605541942  LUMO = 0.125003394565144
  beta  nocc = 1  HOMO = -0.497083605541941  LUMO = 0.125003394565144
cycle= 3 E= -0.996982488678898  delta_E= -0.00141  |g|= 0.00453  |ddm|= 0.0714
  alpha nocc = 1  HOMO = -0.492766860752049  LUMO = 0.118670910813592
  beta  nocc = 1  HOMO = -0.492766860752049  LUMO = 0.118670910813592
cycle= 4 E= -0.997011162805863  delta_E= -2.87e-05  |g|= 0.000416  |ddm|= 0.00998
  alpha nocc = 1  HOMO = -0.49439549753304  LUMO = 0.120246563561694
  beta  nocc = 1  HOMO = -0.49439549753304  LUMO = 0.120246563561694
cycle= 5 E= -0.997011453176456  delta_E= -2.9e-07  |g|= 3.04e-05  |ddm|= 0.00094
  alpha nocc = 1  HOMO = -0.49433118049591  LUMO = 0.120178766572692
  beta  nocc = 1  HOMO = -0.494331180495909  LUMO = 0.120178766572693
cycle= 6 E= -0.997011455175521  delta_E= -2e-09  |g|= 5.7e-07  |ddm|= 7.89e-05
  alpha nocc = 1  HOMO = -0.494330560130689  LUMO = 0.120178160884734
  beta  nocc = 1  HOMO = -0.494330560130689  LUMO = 0.120178160884734
cycle= 7 E= -0.997011455176149  delta_E= -6.27e-13  |g|= 2.53e-07  |ddm|= 8.43e-07
  alpha nocc = 1  HOMO = -0.494330110948525  LUMO = 0.120177755068448
  beta  nocc = 1  HOMO = -0.494330110948524  LUMO = 0.120177755068448
Extra cycle  E= -0.997011455176268  delta_E= -1.19e-13  |g|= 1.16e-07  |ddm|= 3.54e-07
converged SCF energy = -0.997011455176268  <S^2> = 0.91048301  2S+1 = 2.1545143
checking UHF/UKS internal stability ...
UHF/UKS wavefunction is stable in the internal stability analysis
time for guess: 0.151

******** <class 'pyphf.util.SUHF'> ********
max_cycle = 70
verbose: 8, debug2
chkfile0: 32544_ges.pchk # the file store hf for guess
chkfile: 32544_su.pchk # the file store suhf info
conv_tol: 1e-07
DIIS: <class 'pyscf.scf.diis.CDIIS'>
diis_start_cyc = 10
S
[[1.         0.64589894 0.00227256 0.07465634]
 [0.64589894 1.         0.07465634 0.27025724]
 [0.00227256 0.07465634 1.         0.64589894]
 [0.07465634 0.27025724 0.64589894 1.        ]]
SVD: S^(-1/2)
[[-0.3306004   0.46012676 -0.85621932  0.83453679]
 [-0.39774539  0.36468663  0.71167752 -1.05293881]
 [-0.3306004  -0.46012676 -0.85621932 -0.83453679]
 [-0.39774539 -0.36468663  0.71167752  1.05293881]]
S^(1/2)
[[-0.61794925 -0.74345483 -0.61794925 -0.74345483]
 [ 0.66740563  0.52897143 -0.66740563 -0.52897143]
 [-0.34536213  0.28706017 -0.34536213  0.28706017]
 [ 0.23115675 -0.29165151 -0.23115675  0.29165151]]
C (ortho)
 [[-0.80171109 -0.57009486 -0.09238995 -0.15399766]
 [ 0.58103419 -0.75902561  0.10126721 -0.27572512]
 [ 0.08280271  0.16885271 -0.79177919 -0.58113526]
 [-0.11314731  0.26525597  0.59522665 -0.75002813]] 
 [[-0.80171109 -0.57009486 -0.09238995 -0.15399766]
 [-0.58103419  0.75902561 -0.10126721  0.27572512]
 [ 0.08280271  0.16885271 -0.79177919 -0.58113526]
 [ 0.11314731 -0.26525597 -0.59522665  0.75002813]]
density matrix (ortho)
[[[ 0.64274066 -0.46582155 -0.06638385  0.09071146]
  [-0.46582155  0.33760073  0.04811121 -0.06574246]
  [-0.06638385  0.04811121  0.00685629 -0.0093689 ]
  [ 0.09071146 -0.06574246 -0.0093689   0.01280231]]

 [[ 0.64274066  0.46582155 -0.06638385 -0.09071146]
  [ 0.46582155  0.33760073 -0.04811121 -0.06574246]
  [-0.06638385 -0.04811121  0.00685629  0.0093689 ]
  [-0.09071146 -0.06574246  0.0093689   0.01280231]]]
grids:  [0.06237655 0.31939555 0.74529195 1.28265786 1.85893479 2.39630071
 2.8221971  3.07921611] 
weights:  [0.15900941 0.34931531 0.49276925 0.56970235 0.56970235 0.49276925
 0.34931531 0.15900941]
S = 0.0, Sz = 0.0
Wigner small d:  1
value : [1. 1. 1. 1. 1. 1. 1. 1.]
time for Preparation before cyc: 0.128
**** Start Cycle 1 ****
dm (ortho)
[[[ 0.6427406647 -0.4658215524 -0.0663838507  0.0907114563]
  [-0.4658215524  0.3376007317  0.0481112058 -0.0657424584]
  [-0.0663838507  0.0481112058  0.0068562888 -0.0093689043]
  [ 0.0907114563 -0.0657424584 -0.0093689043  0.0128023148]]

 [[ 0.6427406647  0.4658215524 -0.0663838507 -0.0907114563]
  [ 0.4658215524  0.3376007317 -0.0481112058 -0.0657424584]
  [-0.0663838507 -0.0481112058  0.0068562888  0.0093689043]
  [-0.0907114563 -0.0657424584  0.0093689043  0.0128023148]]]
Fock (ortho)
 (array([[-0.5178052947, -0.0446883031,  0.160054909 , -0.0330291361],
       [-0.0446883031, -0.3239336614, -0.0779147518,  0.2681874691],
       [ 0.160054909 , -0.0779147518,  0.7142814571, -0.1338421245],
       [-0.0330291361,  0.2681874691, -0.1338421245,  0.7443487171]]), array([[-0.5178052947,  0.0446883031,  0.160054909 ,  0.0330291361],
       [ 0.0446883031, -0.3239336614,  0.0779147518,  0.2681874691],
       [ 0.160054909 ,  0.0779147518,  0.7142814571,  0.1338421245],
       [ 0.0330291361,  0.2681874691,  0.1338421245,  0.7443487171]]))
E(UHF) =    -1.220879
NO eigenvalue
[-1.0000000000e+00 -3.2476485579e-18 -9.2905964738e-19  1.1779291611e-16] 
 [-1.0000000000e+00 -6.5765998208e-17  4.0396659049e-19  5.0866787664e-18]
NO vec
[[ 0.8017110856  0.            0.141334066   0.0029613373  0.5807540336  0.            0.            0.          ]
 [-0.5810341915  0.           -0.0436322449  0.0019374649  0.8127064302  0.            0.            0.          ]
 [-0.0828027103  0.            0.5766686472  0.8122108387 -0.0301750882  0.            0.            0.          ]
 [ 0.1131473145  0.           -0.8034763097  0.5833532636  0.0363658459  0.            0.            0.          ]
 [ 0.            0.8017110856  0.            0.            0.           -0.5525958206  0.0535244221  0.2214324515]
 [ 0.            0.5810341915  0.            0.            0.            0.800667493   0.0769122561 -0.1241585232]
 [ 0.           -0.0828027103  0.            0.            0.            0.2297497458 -0.2565714443  0.9351630122]
 [ 0.           -0.1131473145  0.            0.            0.            0.0280085533  0.9619723151  0.2470272679]]
dm(NO)
[[ 1.0000000000e+00  0.0000000000e+00  3.0416852558e-17  1.3974303792e-17  8.8298768164e-18  0.0000000000e+00  0.0000000000e+00  0.0000000000e+00]
 [ 0.0000000000e+00  1.0000000000e+00  0.0000000000e+00  0.0000000000e+00  0.0000000000e+00 -1.3907451282e-16 -9.6023525703e-18 -1.4067816319e-17]
 [ 4.6039362194e-17  0.0000000000e+00  2.0081692436e-18 -1.2051064695e-18 -2.9055484424e-18  0.0000000000e+00  0.0000000000e+00  0.0000000000e+00]
 [ 7.2789875135e-19  0.0000000000e+00  5.5998607553e-19  8.0038115539e-19  6.3808926184e-18  0.0000000000e+00  0.0000000000e+00  0.0000000000e+00]
 [-3.8070915596e-17  0.0000000000e+00  2.0422417546e-18  7.4716572367e-18  3.0594299210e-18  0.0000000000e+00  0.0000000000e+00  0.0000000000e+00]
 [ 0.0000000000e+00 -7.8241678069e-17  0.0000000000e+00  0.0000000000e+00  0.0000000000e+00 -1.5241027362e-17 -1.0978860254e-17  8.6444019182e-18]
 [ 0.0000000000e+00 -1.4579434426e-17  0.0000000000e+00  0.0000000000e+00  0.0000000000e+00 -1.0543658344e-17 -1.6479935148e-19  2.1817213077e-18]
 [ 0.0000000000e+00 -8.3225882691e-18  0.0000000000e+00  0.0000000000e+00  0.0000000000e+00  3.7588800507e-18  3.1958184084e-18 -2.6385799057e-18]]
D(g) (NO)
 [[ 9.9951368521e-01  9.3298287801e-03  6.4590039059e-17  1.3031143356e-17 -2.6748702735e-17 -2.8816168179e-02  4.0011769020e-03  6.2423076319e-03]
 [-9.3298287801e-03  9.9951368521e-01 -4.0887036436e-03  4.0462795765e-03 -2.9193449501e-02  7.0409669015e-17  7.1488933537e-18 -4.3647340956e-17]
 [ 3.7882410011e-17  4.0887036436e-03  9.9951368521e-01 -6.5863292616e-18 -3.1052581547e-17 -9.5117177851e-05 -2.8584711056e-02  1.1772035670e-02]
 [-3.0847759875e-18 -4.0462795765e-03  3.9040886676e-18  9.9951368521e-01 -4.0832399271e-17  6.3257950547e-03  1.1010391963e-02  2.8191776852e-02]
 [ 4.6178815051e-18  2.9193449501e-02 -3.2394645334e-17 -3.9383208800e-17  9.9951368521e-01  1.0099346310e-02  4.2507906083e-03  2.6375041308e-04]
 [ 2.8816168179e-02  1.1555660384e-16  9.5117177851e-05 -6.3257950547e-03 -1.0099346310e-02  9.9951368521e-01  2.8215178929e-17 -7.5476867566e-17]
 [-4.0011769020e-03  1.3877787808e-17  2.8584711056e-02 -1.1010391963e-02 -4.2507906083e-03  2.7755575616e-17  9.9951368521e-01 -1.3877787808e-16]
 [-6.2423076319e-03 -4.1633363423e-17 -1.1772035670e-02 -2.8191776852e-02 -2.6375041308e-04 -5.5511151231e-17 -1.3877787808e-16  9.9951368521e-01]]
N(g) (NO)
 [[ 1.0003993862 -0.0093380962]
 [ 0.0093380962  1.0003993862]]
P(g) (NO)
 [[ 1.0000000000e+00 -4.2561113230e-19  3.0416852558e-17  1.3974303792e-17  8.8298768164e-18  5.5133125100e-35  0.0000000000e+00  0.0000000000e+00]
 [ 2.4473312164e-18  1.0000000000e+00  7.9097597139e-35  1.4082502590e-35  1.7246440122e-35 -1.3907451282e-16 -9.6023525703e-18 -1.4067816319e-17]
 [ 3.8180708117e-05  4.0903366154e-03  1.1613369693e-21  5.3354881424e-22  3.3713094944e-22 -5.6886157207e-19 -3.9276854312e-20 -5.7542104186e-20]
 [-3.7784548095e-05 -4.0478956046e-03 -1.1492870284e-21 -5.2801275374e-22 -3.3363290524e-22  5.6295910918e-19  3.8869320763e-20  5.6945051843e-20]
 [ 2.7261124099e-04  2.9205108961e-02  8.2919759228e-21  3.8095522988e-21  2.4071236767e-21 -4.0616863008e-18 -2.8043775310e-19 -4.1085210844e-19]
 [ 2.8827676958e-02 -2.6908815169e-04  8.7684719961e-19  4.0284671544e-19  2.5454483644e-19  3.7423303604e-20  2.5838793050e-21  3.7854826916e-21]
 [-4.0027749167e-03  3.7363374980e-05 -1.2175181446e-19 -5.5935992699e-20 -3.5344009438e-20 -5.1962931728e-21 -3.5877629977e-22 -5.2562109627e-22]
 [-6.2448007232e-03  5.8291269420e-05 -1.8994718285e-19 -8.7266742429e-20 -5.5140821129e-20 -8.1068298965e-21 -5.5973332074e-22 -8.2003087118e-22]]
time for NO, Ng: 0.014
Pg_ortho
 [[ 6.4287182818e-01 -4.6591661217e-01 -6.6397397639e-02  9.0729967719e-02  1.4051671612e-02  1.0183845280e-02 -1.4512915120e-03 -1.9831444712e-03]
 [-4.6564532526e-01  3.3747301236e-01  4.8093004646e-02 -6.5717587048e-02  1.8879387425e-02  1.3682696680e-02 -1.9499099806e-03 -2.6644910175e-03]
 [-6.6397397639e-02  4.8121023832e-02  6.8576879868e-03 -9.3708162036e-03 -1.4512915120e-03 -1.0518128107e-03  1.4989298859e-04  2.0482408197e-04]
 [ 9.0677138839e-02 -6.5717587048e-02 -9.3653599057e-03  1.2797471469e-02 -3.6764652018e-03 -2.6644910175e-03  3.7971444884e-04  5.1886792119e-04]
 [-1.4051671612e-02  1.0183845280e-02  1.4512915120e-03 -1.9831444712e-03  6.4287182818e-01  4.6591661217e-01 -6.6397397639e-02 -9.0729967719e-02]
 [ 1.8879387425e-02 -1.3682696680e-02 -1.9499099806e-03  2.6644910175e-03  4.6564532526e-01  3.3747301236e-01 -4.8093004646e-02 -6.5717587048e-02]
 [ 1.4512915120e-03 -1.0518128107e-03 -1.4989298859e-04  2.0482408197e-04 -6.6397397639e-02 -4.8121023832e-02  6.8576879868e-03  9.3708162036e-03]
 [-3.6764652018e-03  2.6644910175e-03  3.7971444884e-04 -5.1886792119e-04 -9.0677138839e-02 -6.5717587048e-02  9.3653599057e-03  1.2797471469e-02]]
G(g) (NO)
 [[ 2.7295464423e-01 -1.5811381521e-03  1.8185747700e-02 -3.9411825545e-03  5.1041594182e-02 -5.7174797346e-04 -2.4793500263e-04 -3.6162730741e-04]
 [ 1.5811381521e-03  2.7295464423e-01  4.9774829946e-04  1.2761440548e-04 -5.0507723573e-04 -4.8624195196e-02  1.1602724371e-02  2.1273530612e-02]
 [ 1.8182271890e-02 -2.0987339238e-03  7.2699138040e-01  2.9488640057e-02 -1.3124025782e-02 -4.6973351439e-04 -1.2562978768e-05 -1.5367819865e-04]
 [-3.9339415631e-03 -2.7656630155e-03  2.9488527363e-02  8.3779936334e-01  1.8011989190e-01 -1.6935672162e-03 -1.6866032467e-03 -3.0688809214e-03]
 [ 5.0970993753e-02 -1.9168204690e-02 -1.3126560569e-02  1.8012461667e-01  9.4209544288e-01 -3.2531675222e-03 -2.2732761288e-03 -4.7194928627e-03]
 [-1.8080031424e-02 -4.8554215225e-02 -4.6805164838e-03 -1.5034482067e-03  2.1199329968e-03  8.8151137060e-01  1.4099095723e-01 -1.1674163334e-01]
 [-1.9182341126e-03  1.1599083508e-02 -2.9789871664e-03 -6.7043303205e-04  7.6592022004e-04  1.4098580859e-01  7.8173500030e-01 -9.4939850737e-02]
 [ 6.9933174266e-03  2.1261762795e-02  3.3989665907e-03  9.9258946054e-04 -1.5130623337e-03 -1.1674057296e-01 -9.4940913001e-02  8.4363981572e-01]]
time for Gg: 0.021
C(NO)
[[-1.0000000000e+00  0.0000000000e+00 -2.7944481601e-16 -3.9189489418e-16 -8.8001298279e-17  0.0000000000e+00  0.0000000000e+00  0.0000000000e+00]
 [ 0.0000000000e+00 -1.0000000000e+00  0.0000000000e+00  0.0000000000e+00  0.0000000000e+00  3.9905460113e-17  4.0939474033e-16  6.9388939039e-17]
 [-1.6539064750e-17  0.0000000000e+00 -1.6321066240e-01 -9.5232110872e-01  2.5777274016e-01  0.0000000000e+00  0.0000000000e+00  0.0000000000e+00]
 [-9.6515984498e-20  0.0000000000e+00  2.8872311026e-01 -2.9594162965e-01 -9.1052595649e-01  0.0000000000e+00  0.0000000000e+00  0.0000000000e+00]
 [ 8.0508382196e-17  0.0000000000e+00 -9.4339877320e-01  7.4182597209e-02 -3.2325794188e-01  0.0000000000e+00  0.0000000000e+00  0.0000000000e+00]
 [ 0.0000000000e+00  1.0476874006e-16  0.0000000000e+00  0.0000000000e+00  0.0000000000e+00  9.5412360226e-01 -2.2860956142e-01  1.9335413116e-01]
 [ 0.0000000000e+00  9.0746124287e-18  0.0000000000e+00  0.0000000000e+00  0.0000000000e+00 -2.7062731369e-01 -3.8217743362e-01  8.8357301131e-01]
 [ 0.0000000000e+00  3.6182205180e-18  0.0000000000e+00  0.0000000000e+00  0.0000000000e+00 -1.2809765297e-01 -8.9536477352e-01 -4.2651250116e-01]]
detC 0.9999999999999998
detNg [ 1.0008861319  1.0235662454  1.1372541875  1.4834076483  2.407356124   4.7572359479  8.8856775582 11.061660401 ]
xg [0.9991146526 0.9769763359 0.8793108973 0.6741235298 0.4153934642 0.2102060968 0.1125406581 0.0904023414]
ciS 1.0895169940285538
[[-0.767269973   0.           -0.0181810686  0.0039423922 -0.0510463819  0.            0.            0.          ]
 [ 0.           -0.767269973   0.            0.            0.            0.0486296105 -0.011600399  -0.0212701326]
 [-0.0181810686  0.            0.3582664996 -0.0262007117 -0.1528356024  0.            0.            0.          ]
 [ 0.0039423922  0.           -0.0262007117  0.3311396869  0.1402736203  0.            0.            0.          ]
 [-0.0510463819  0.           -0.1528356024  0.1402736203 -0.6951666     0.            0.            0.          ]
 [ 0.            0.0486296105  0.            0.            0.           -0.6667540664  0.1429955849  0.2213539904]
 [ 0.           -0.011600399   0.            0.            0.            0.1429955849  0.3882866325 -0.0077938231]
 [ 0.           -0.0212701326  0.            0.            0.            0.2213539904 -0.0077938231  0.2727070204]]
ciH -1.388130980632471
1.0 -3.618524750670371e-18 -0.028403129201640384j -5.117434254131581e-17
0.5448378560243621 0.00040336887422253836 -0.00040336887422253836 0.45516214397563787
1.0 -2.9110828331235794e-17 -0.14631114471446355j 1.444157293750692e-16
0.5468929338948363 0.010703475533828352 -0.010703475533828352 0.4531070661051636
1.0 -5.355958732078392e-17 -0.3511142553679061j -1.0625181290357943e-16
0.5578882717282883 0.061640610161279565 -0.06164061016127958 0.4421117282717117
1.0 -1.6458188978329957e-16 -0.6474688047363926j 2.0426368929626904e-16
0.5984909944004418 0.20960792655338636 -0.20960792655338642 0.40150900559955827
1.0 1.5178830414797062e-16 -1.050748251132989j -2.0079424234431542e-16
0.7593917602586914 0.5520359436295178 -0.5520359436295176 0.2406082397413086
0.9999999999999998 -8.803721640582296e-17 -1.4687423232666834j 2.3418766925686896e-17
1.5129426988331036 1.0786020060774077 -1.0786020060774077 -0.5129426988331041
1.0 4.336808689942018e-18 -1.2701411960035045j -1.8735013540549517e-16
4.0339190226436825 0.8066293288926064 -0.8066293288926064 -3.0339190226436816
0.9999999999999997 1.3660947373317356e-17 -0.31390760600879525j 3.365363543395006e-16
5.9766645019604585 0.049268992555086516 -0.049268992555086516 -4.9766645019604585
S2 = 0.000000
X(g)
[[ 2.0000000000e+00 -1.7347234760e-18  3.8180708117e-05 -3.7784548095e-05  2.7261124099e-04 -2.8827676958e-02  4.0027749167e-03  6.2448007232e-03]
 [-1.7347234760e-18  2.0000000000e+00 -4.0903366154e-03  4.0478956046e-03 -2.9205108961e-02 -2.6908815169e-04  3.7363374980e-05  5.8291269420e-05]
 [ 3.8180708117e-05  4.0903366154e-03  0.0000000000e+00  0.0000000000e+00  0.0000000000e+00  0.0000000000e+00  0.0000000000e+00  0.0000000000e+00]
 [-3.7784548095e-05 -4.0478956046e-03  0.0000000000e+00  0.0000000000e+00  0.0000000000e+00  0.0000000000e+00  0.0000000000e+00  0.0000000000e+00]
 [ 2.7261124099e-04  2.9205108961e-02  0.0000000000e+00  0.0000000000e+00  0.0000000000e+00  0.0000000000e+00  0.0000000000e+00  0.0000000000e+00]
 [ 2.8827676958e-02 -2.6908815169e-04  0.0000000000e+00  0.0000000000e+00  0.0000000000e+00  0.0000000000e+00  0.0000000000e+00  0.0000000000e+00]
 [-4.0027749167e-03  3.7363374980e-05  0.0000000000e+00  0.0000000000e+00  0.0000000000e+00  0.0000000000e+00  0.0000000000e+00  0.0000000000e+00]
 [-6.2448007232e-03  5.8291269420e-05  0.0000000000e+00  0.0000000000e+00  0.0000000000e+00  0.0000000000e+00  0.0000000000e+00  0.0000000000e+00]]
X(g) int
[[ 2.0000000000e+00 -5.3328139028e-17  3.6006710019e-02 -3.5633107230e-02  2.5708883848e-01 -6.6614868392e-01  9.2495945708e-02  1.4430457887e-01]
 [ 5.9483284896e-17  2.0000000000e+00 -9.4519317567e-02  9.3538592568e-02 -6.7487036596e-01 -2.5376635284e-01  3.5235915586e-02  5.4972181977e-02]
 [ 3.6006710019e-02  9.4519317567e-02  0.0000000000e+00  0.0000000000e+00  0.0000000000e+00  0.0000000000e+00  0.0000000000e+00  0.0000000000e+00]
 [-3.5633107230e-02 -9.3538592568e-02  0.0000000000e+00  0.0000000000e+00  0.0000000000e+00  0.0000000000e+00  0.0000000000e+00  0.0000000000e+00]
 [ 2.5708883848e-01  6.7487036596e-01  0.0000000000e+00  0.0000000000e+00  0.0000000000e+00  0.0000000000e+00  0.0000000000e+00  0.0000000000e+00]
 [ 6.6614868392e-01 -2.5376635284e-01  0.0000000000e+00  0.0000000000e+00  0.0000000000e+00  0.0000000000e+00  0.0000000000e+00  0.0000000000e+00]
 [-9.2495945708e-02  3.5235915586e-02  0.0000000000e+00  0.0000000000e+00  0.0000000000e+00  0.0000000000e+00  0.0000000000e+00  0.0000000000e+00]
 [-1.4430457887e-01  5.4972181977e-02  0.0000000000e+00  0.0000000000e+00  0.0000000000e+00  0.0000000000e+00  0.0000000000e+00  0.0000000000e+00]]
Feff
 [[ 6.2814136282e-16  1.1308717051e-17 -2.2721722987e-03  1.5162622225e-02  9.7406702803e-03 -2.1524945279e-02 -4.5750244491e-03 -6.5556498228e-03]
 [-1.6805594751e-18  4.4330190700e-16  1.0322430888e-02  4.1161677419e-03 -2.0093164167e-02 -7.2625187325e-03 -1.3684664169e-02  9.4833709946e-03]
 [-2.2721722987e-03 -1.0322430888e-02  0.0000000000e+00  0.0000000000e+00  0.0000000000e+00  0.0000000000e+00  0.0000000000e+00  0.0000000000e+00]
 [ 1.5162622225e-02 -4.1161677419e-03  0.0000000000e+00  0.0000000000e+00  0.0000000000e+00  0.0000000000e+00  0.0000000000e+00  0.0000000000e+00]
 [ 9.7406702803e-03  2.0093164167e-02  0.0000000000e+00  0.0000000000e+00  0.0000000000e+00  0.0000000000e+00  0.0000000000e+00  0.0000000000e+00]
 [ 2.1524945279e-02 -7.2625187325e-03  0.0000000000e+00  0.0000000000e+00  0.0000000000e+00  0.0000000000e+00  0.0000000000e+00  0.0000000000e+00]
 [ 4.5750244491e-03 -1.3684664169e-02  0.0000000000e+00  0.0000000000e+00  0.0000000000e+00  0.0000000000e+00  0.0000000000e+00  0.0000000000e+00]
 [ 6.5556498228e-03  9.4833709946e-03  0.0000000000e+00  0.0000000000e+00  0.0000000000e+00  0.0000000000e+00  0.0000000000e+00  0.0000000000e+00]]
Feff (ortho)
 [[ 8.6275334275e-03  3.3232527142e-03  8.1416149611e-03  9.4477000966e-03 -3.2959746044e-17  8.7603535537e-17 -2.1684043450e-17 -2.7321894747e-17]
 [ 3.3232527142e-03 -9.3486337563e-03 -6.8896077565e-03 -5.4956690449e-03  6.5052130349e-17 -3.6429192996e-17  1.0842021725e-17  1.4528309111e-17]
 [ 8.1416149611e-03 -6.8896077565e-03 -1.7738046284e-03  2.9902195761e-04 -4.1633363423e-17 -4.0766001685e-17  6.6136332522e-18  9.2157184661e-18]
 [ 9.4477000966e-03 -5.4956690449e-03  2.9902195761e-04  2.4949049572e-03 -5.6812193838e-17 -2.5370330836e-17  2.6020852140e-18  3.5778671692e-18]
 [-3.2959746044e-17  6.5052130349e-17 -4.1633363423e-17 -5.6812193838e-17  8.6275334275e-03 -3.3232527142e-03  8.1416149611e-03 -9.4477000966e-03]
 [ 8.7603535537e-17 -3.6429192996e-17 -4.0766001685e-17 -2.5370330836e-17 -3.3232527142e-03 -9.3486337563e-03  6.8896077565e-03 -5.4956690449e-03]
 [-2.1684043450e-17  1.0842021725e-17  6.6136332522e-18  2.6020852140e-18  8.1416149611e-03  6.8896077565e-03 -1.7738046284e-03 -2.9902195761e-04]
 [-2.7321894747e-17  1.4528309111e-17  9.2157184661e-18  3.5778671692e-18 -9.4477000966e-03 -5.4956690449e-03 -2.9902195761e-04  2.4949049572e-03]]
Hsp + Hph =  -1.2740792371670813
Feff (mod,ortho)
[[-0.4410454393 -0.0064257827  0.1151799778  0.0098296524  0.            0.            0.            0.          ]
 [-0.0064257827 -0.4197128769 -0.0550895468  0.2503773048  0.            0.            0.            0.          ]
 [ 0.1151799778 -0.0550895468  0.7227322274 -0.1434830985  0.            0.            0.            0.          ]
 [ 0.0098296524  0.2503773048 -0.1434830985  0.7549173068  0.            0.            0.            0.          ]
 [ 0.            0.            0.            0.           -0.4410454393  0.0064257827  0.1151799778 -0.0098296524]
 [ 0.            0.            0.            0.            0.0064257827 -0.4197128769  0.0550895468  0.2503773048]
 [ 0.            0.            0.            0.            0.1151799778  0.0550895468  0.7227322274  0.1434830985]
 [ 0.            0.            0.            0.           -0.0098296524  0.2503773048  0.1434830985  0.7549173068]]
Alpha occ 1 vir 3; Beta occ 1 vir 3
Alpha energies:  [-0.47302446] <- HOMO
         LUMO->  [-0.4511641235  0.6162867112  0.9247930902]
Beta energies:   [-0.47302446] <- HOMO
         LUMO->  [-0.4511641235  0.6162867112  0.9247930902]
e_a, e_b
 [-0.47302446   -0.4511641235  0.6162867112  0.9247930902] 
 [-0.47302446   -0.4511641235  0.6162867112  0.9247930902]
v_a, v_b
 [[ 0.2714070906 -0.9570779258  0.0899925835 -0.0473431101]
 [ 0.9424716244  0.2688553499  0.1054742462  0.1683425715]
 [-0.0061282917  0.1021400067  0.7799133504 -0.6174666217]
 [-0.1950586382 -0.0358617327  0.6103373527  0.7669122372]] 
 [[-0.2714070906  0.9570779258  0.0899925835 -0.0473431101]
 [ 0.9424716244  0.2688553499 -0.1054742462 -0.1683425715]
 [ 0.0061282917 -0.1021400067  0.7799133504 -0.6174666217]
 [-0.1950586382 -0.0358617327 -0.6103373527 -0.7669122372]]
P_a, P_b
 [[ 7.3661808832e-02  2.5579348157e-01 -1.6632618270e-03 -5.2940297493e-02]
 [ 2.5579348157e-01  8.8825276287e-01 -5.7757410554e-03 -1.8383723161e-01]
 [-1.6632618270e-03 -5.7757410554e-03  3.7555959444e-05  1.1953762380e-03]
 [-5.2940297493e-02 -1.8383723161e-01  1.1953762380e-03  3.8047872338e-02]] 
 [[ 7.3661808832e-02 -2.5579348157e-01 -1.6632618270e-03  5.2940297493e-02]
 [-2.5579348157e-01  8.8825276287e-01  5.7757410554e-03 -1.8383723161e-01]
 [-1.6632618270e-03  5.7757410554e-03  3.7555959444e-05 -1.1953762380e-03]
 [ 5.2940297493e-02 -1.8383723161e-01 -1.1953762380e-03  3.8047872338e-02]]
time for xg, H, S2, Yg, Feff: 0.027
 E(SUHF) =     -1.00949063
**** Start Cycle 2 ****
dm (ortho)
[[[ 7.3661808832e-02  2.5579348157e-01 -1.6632618270e-03 -5.2940297493e-02]
  [ 2.5579348157e-01  8.8825276287e-01 -5.7757410554e-03 -1.8383723161e-01]
  [-1.6632618270e-03 -5.7757410554e-03  3.7555959444e-05  1.1953762380e-03]
  [-5.2940297493e-02 -1.8383723161e-01  1.1953762380e-03  3.8047872338e-02]]

 [[ 7.3661808832e-02 -2.5579348157e-01 -1.6632618270e-03  5.2940297493e-02]
  [-2.5579348157e-01  8.8825276287e-01  5.7757410554e-03 -1.8383723161e-01]
  [-1.6632618270e-03  5.7757410554e-03  3.7555959444e-05 -1.1953762380e-03]
  [ 5.2940297493e-02 -1.8383723161e-01 -1.1953762380e-03  3.8047872338e-02]]]
Fock (ortho)
 (array([[-0.4455176045,  0.0264943906,  0.1534267262,  0.0186058373],
       [ 0.0264943906, -0.3934952733,  0.040974217 ,  0.277209559 ],
       [ 0.1534267262,  0.040974217 ,  0.7129304255,  0.07576169  ],
       [ 0.0186058373,  0.277209559 ,  0.07576169  ,  0.7453153569]]), array([[-0.4455176045, -0.0264943906,  0.1534267262, -0.0186058373],
       [-0.0264943906, -0.3934952733, -0.040974217 ,  0.277209559 ],
       [ 0.1534267262, -0.040974217 ,  0.7129304255, -0.07576169  ],
       [-0.0186058373,  0.277209559 , -0.07576169  ,  0.7453153569]]))
E(UHF) =    -1.147450
NO eigenvalue
[-1.0000000000e+00 -5.2371259364e-18  6.6505601688e-21  2.7755575616e-17] 
 [-1.0000000000e+00 -1.1150586240e-16 -1.6154963900e-20  6.4537737756e-18]
NO vec
[[-0.2714070906  0.            0.            0.           -0.9624646441  0.            0.            0.          ]
 [-0.9424716244  0.            0.2027598742  0.001546006   0.265769224   0.            0.            0.          ]
 [ 0.0061282917  0.            0.0383698226 -0.9992433209 -0.0017281277  0.            0.            0.          ]
 [ 0.1950586382  0.            0.9784764638  0.0388638076 -0.055004927   0.            0.            0.          ]
 [ 0.           -0.2714070906  0.            0.            0.            0.9604897117  0.0023537616  0.0615805544]
 [ 0.            0.9424716244  0.            0.            0.            0.2522410488  0.0079195904  0.2192235629]
 [ 0.            0.0061282917  0.            0.            0.            0.0035484784  0.9977630216 -0.0664740925]
 [ 0.           -0.1950586382  0.            0.            0.           -0.1175643455  0.0663377157  0.9714576984]]
dm(NO)
[[ 1.0000000000e+00  0.0000000000e+00 -7.5543698025e-17  2.7312634398e-21 -1.5983263429e-17  0.0000000000e+00  0.0000000000e+00  0.0000000000e+00]
 [ 0.0000000000e+00  1.0000000000e+00  0.0000000000e+00  0.0000000000e+00  0.0000000000e+00 -7.8357496742e-17  4.1132934408e-18  3.8337984642e-17]
 [-5.1025361567e-17  0.0000000000e+00  1.3817594572e-18 -2.4885062972e-19  7.2545292984e-18  0.0000000000e+00  0.0000000000e+00  0.0000000000e+00]
 [ 2.2920802085e-19  0.0000000000e+00 -6.1557207377e-20 -2.8773380868e-21  1.4795109470e-19  0.0000000000e+00  0.0000000000e+00  0.0000000000e+00]
 [-6.0201381177e-17  0.0000000000e+00  2.9439393573e-18 -4.4248428264e-20 -1.9015305788e-18  0.0000000000e+00  0.0000000000e+00  0.0000000000e+00]
 [ 0.0000000000e+00 -1.1127866199e-16  0.0000000000e+00  0.0000000000e+00  0.0000000000e+00 -1.6190245882e-18  1.7972987746e-19 -1.1235126291e-18]
 [ 0.0000000000e+00  3.8760890079e-18  0.0000000000e+00  0.0000000000e+00  0.0000000000e+00 -8.2787394816e-20  2.4981319827e-20  3.2013100043e-19]
 [ 0.0000000000e+00  4.2735037216e-17  0.0000000000e+00  0.0000000000e+00  0.0000000000e+00 -2.9209725711e-18  7.1059371931e-19  9.9644279540e-18]]
D(g) (NO)
 [[ 9.9951368521e-01 -2.6586851145e-02 -1.9858136264e-17 -5.5005393250e-19  4.1477117132e-17 -1.6256558116e-02  3.4150333963e-04 -1.0677615094e-03]
 [ 2.6586851145e-02  9.9951368521e-01 -1.4664935143e-05  3.8191050902e-04 -1.6290682928e-02 -1.4102633125e-16  1.7261987771e-18 -3.4464963747e-17]
 [-3.0183497941e-17  1.4664935143e-05  9.9951368521e-01 -4.1553658615e-18 -8.0516093058e-18 -1.9880370095e-03  3.2679905910e-03  3.0947710837e-02]
 [-2.5541098250e-19 -3.8191050902e-04  7.8872641613e-19  9.9951368521e-01 -1.6718073618e-19 -2.4088490981e-04 -3.1009142366e-02  3.2591844545e-03]
 [-2.4812969945e-17  1.6290682928e-02 -4.9954556539e-18 -1.5793181712e-19  9.9951368521e-01 -2.6535016040e-02 -1.7256144335e-04 -1.6940692915e-03]
 [ 1.6256558116e-02 -1.0809174753e-16  1.9880370095e-03  2.4088490981e-04  2.6535016040e-02  9.9951368521e-01  4.5214469979e-18  1.6142711391e-17]
 [-3.4150333963e-04  1.7347234760e-18 -3.2679905910e-03  3.1009142366e-02  1.7256144335e-04  3.4694469520e-18  9.9951368521e-01 -1.5265566589e-16]
 [ 1.0677615094e-03 -3.4694469520e-17 -3.0947710837e-02 -3.2591844545e-03  1.6940692915e-03  1.3877787808e-17 -1.5265566589e-16  9.9951368521e-01]]
N(g) (NO)
 [[ 0.999779159   0.0265939127]
 [-0.0265939127  0.999779159 ]]
P(g) (NO)
 [[ 1.0000000000e+00  1.0078778765e-18 -7.5543698025e-17  2.7312634398e-21 -1.5983263429e-17  3.0567947653e-34  0.0000000000e+00  0.0000000000e+00]
 [ 9.3600829522e-19  1.0000000000e+00 -3.6427857352e-34 -5.8763711566e-39  2.6863889185e-35 -7.8357496742e-17  4.1132934408e-18  3.8337984642e-17]
 [-3.8999800490e-07  1.4661696524e-05  2.9461891513e-23 -1.0651872924e-27  6.2334408492e-24 -1.1488538376e-21  6.0307860145e-23  5.6209989618e-22]
 [ 1.0156494732e-05 -3.8182616752e-04 -7.6725917106e-22  2.7740062739e-26 -1.6233393083e-22  2.9918942677e-20 -1.5705630704e-21 -1.4638445746e-20]
 [-4.3323299946e-04  1.6287085277e-02  3.2728022886e-20 -1.1832734523e-24  6.9244771566e-21 -1.2762152315e-18  6.6993561041e-20  6.2441402523e-19]
 [ 1.6252968002e-02  4.3232548720e-04 -1.2278093067e-18  4.4391137291e-23 -2.5977546908e-19 -3.3875942954e-20  1.7782815908e-21  1.6574487888e-20]
 [-3.4142792169e-04 -9.0819099976e-06  2.5792727813e-20 -9.3252959983e-25  5.4571324144e-21  7.1163573305e-22 -3.7356560823e-23 -3.4818212601e-22]
 [ 1.0675257039e-03  2.8395956356e-05 -8.0644839408e-20  2.9156939260e-24 -1.7062544542e-20 -2.2250360576e-21  1.1680090102e-22  1.0886437387e-21]]
time for NO, Ng: 0.016
Pg_ortho
 [[ 7.3548639825e-02  2.5540049781e-01 -1.6607065043e-03 -5.2858963610e-02  4.2545080002e-03 -1.4773943662e-02 -9.6065530586e-05  3.0576892258e-03]
 [ 2.5582474858e-01  8.8836133878e-01 -5.7764470552e-03 -1.8385970302e-01 -1.1754609918e-03  4.0818337794e-03  2.6541561058e-05 -8.4479672145e-04]
 [-1.6607065043e-03 -5.7668675986e-03  3.7498261016e-05  1.1935397431e-03 -9.6065530586e-05  3.3359127229e-04  2.1691312289e-06 -6.9041717121e-05]
 [-5.2946768670e-02 -1.8385970302e-01  1.1955223553e-03  3.8052523134e-02  2.4327928224e-04 -8.4479672145e-04 -5.4931741408e-06  1.7484335207e-04]
 [-4.2545080002e-03 -1.4773943662e-02  9.6065530586e-05  3.0576892258e-03  7.3548639825e-02 -2.5540049781e-01 -1.6607065043e-03  5.2858963610e-02]
 [-1.1754609918e-03 -4.0818337794e-03  2.6541561058e-05  8.4479672145e-04 -2.5582474858e-01  8.8836133878e-01  5.7764470552e-03 -1.8385970302e-01]
 [ 9.6065530586e-05  3.3359127229e-04 -2.1691312289e-06 -6.9041717121e-05 -1.6607065043e-03  5.7668675986e-03  3.7498261016e-05 -1.1935397431e-03]
 [ 2.4327928224e-04  8.4479672145e-04 -5.4931741408e-06 -1.7484335207e-04  5.2946768670e-02 -1.8385970302e-01 -1.1955223553e-03  3.8052523134e-02]]
G(g) (NO)
 [[ 4.0024692426e-01  1.4910316804e-03 -8.7287342286e-02 -2.3595599670e-02 -9.1955737222e-02 -2.5175988909e-03 -1.2198893832e-03  2.4510128177e-04]
 [-1.4910316804e-03  4.0024692426e-01  3.7125209561e-04 -1.2247490529e-03 -2.4997340979e-03  8.6163470357e-02  2.6275275162e-02  9.2288441022e-02]
 [-8.7285093499e-02 -1.1612623614e-03  7.9081687206e-01  3.8615298324e-02  7.6651013669e-02  1.2988201923e-03  1.2053526868e-03 -6.5724372387e-04]
 [-2.3598041267e-02 -1.5858410729e-03  3.8616420808e-02  8.1515698782e-01  1.1079791573e-01  4.6182244526e-04  6.1745663234e-04 -1.2712709984e-03]
 [-9.1846054436e-02 -8.5122819715e-03  7.6643408545e-02  1.1079763701e-01  7.7829909327e-01  1.7362874129e-03  1.0589886992e-03 -1.9375296669e-03]
 [-8.4194602739e-03  8.6054155069e-02  1.9639841713e-03 -1.0313767314e-03 -1.5273158252e-03  7.6841886970e-01  1.1015501329e-01  7.2094492465e-02]
 [-1.6388058746e-03  2.6277384057e-02  1.3045995164e-03 -6.8990778558e-04 -4.2032246101e-04  1.1015543497e-01  8.1786916367e-01  4.5188163704e-02]
 [-1.6581225962e-03  9.2279110836e-02  7.9562621010e-04 -1.2723422230e-03 -1.3462720144e-03  7.2102089412e-02  4.5187030494e-02  7.9798491978e-01]]
time for Gg: 0.023
C(NO)
[[-1.0000000000e+00  0.0000000000e+00  8.9631030217e-17 -9.5595582811e-17 -1.8798566173e-17  0.0000000000e+00  0.0000000000e+00  0.0000000000e+00]
 [ 0.0000000000e+00  1.0000000000e+00  0.0000000000e+00  0.0000000000e+00  0.0000000000e+00 -4.4212197771e-17  1.3877787808e-16  2.0469737017e-16]
 [ 4.7788122409e-17  0.0000000000e+00  2.3342309410e-02  6.4851181642e-01  7.6084660777e-01  0.0000000000e+00  0.0000000000e+00  0.0000000000e+00]
 [-2.7312634398e-21  0.0000000000e+00 -1.0304079098e-01 -7.5544010901e-01  6.4706478585e-01  0.0000000000e+00  0.0000000000e+00  0.0000000000e+00]
 [ 4.2004115569e-17  0.0000000000e+00  9.9440320393e-01 -9.3502222718e-02  4.9189453759e-02  0.0000000000e+00  0.0000000000e+00  0.0000000000e+00]
 [ 0.0000000000e+00 -1.0285000628e-16  0.0000000000e+00  0.0000000000e+00  0.0000000000e+00  9.9093347595e-01  1.3435343322e-01  3.4991273103e-05]
 [ 0.0000000000e+00  4.0067754312e-18  0.0000000000e+00  0.0000000000e+00  0.0000000000e+00 -9.9908549648e-02  7.3705682357e-01 -6.6840520684e-01]
 [ 0.0000000000e+00  3.9130192652e-17  0.0000000000e+00  0.0000000000e+00  0.0000000000e+00  8.9828324881e-02 -6.6234159903e-01 -7.4379733681e-01]]
detC -1.0000000000000002
detNg [1.0002656029 1.0069532461 1.0375563704 1.1083236977 1.2126129552 1.310399815  1.3627057125 1.3751479924]
xg [0.9997344676 0.9930947677 0.9638030555 0.9022634832 0.8246654431 0.7631258709 0.7338341586 0.7271944587]
ciS 1.7269289263166767
[[-0.7023520728  0.            0.023035971   0.0229224187 -0.0272724666  0.            0.            0.          ]
 [ 0.           -0.7023520728  0.            0.            0.            0.0287059152 -0.0234968612 -0.0205851555]
 [ 0.023035971   0.            0.4114960735  0.0041896445 -0.0106318373  0.            0.            0.          ]
 [ 0.0229224187  0.            0.0041896445  0.3066719931  0.1012445131  0.            0.            0.          ]
 [-0.0272724666  0.           -0.0106318373  0.1012445131 -0.7888463804  0.            0.            0.          ]
 [ 0.            0.0287059152  0.            0.            0.           -0.7826943756  0.0975668165 -0.0900467916]
 [ 0.           -0.0234968612  0.            0.            0.            0.0975668165  0.3074789866  0.0133781174]
 [ 0.           -0.0205851555  0.            0.            0.           -0.0900467916  0.0133781174  0.4045370753]]
ciH -1.669787805545688
1.0 -4.338079239362899e-18 -0.008513354262956267j 2.645487182182521e-16
0.8636575632641178 3.623860040329782e-05 -3.623860040329782e-05 0.1363424367358822
0.9999999999999999 -2.190511904894346e-17 -0.043169260850599994j 2.6087937149074647e-16
0.8685365515149782 0.0009317925411935724 -0.0009317925411935726 0.13146344848502164
1.0 -1.9385196030861918e-17 -0.09607413272307852j 2.8772523372102426e-16
0.8912779348661288 0.004615119489245851 -0.004615119489245853 0.10872206513387117
1.0 -1.0574359313522685e-17 -0.1450871026105561j 2.162119360502382e-16
0.9464729929667652 0.010525133671963017 -0.010525133671963015 0.053527007033234715
0.9999999999999998 -1.5683662051360625e-17 -0.1587392750137596j 2.2003120760940784e-16
1.034449115636134 0.012599078715946998 -0.012599078715947 -0.034449115636134155
0.9999999999999997 -3.9946073792512804e-17 -0.12133849238592244j 1.6505622823376198e-16
1.1241221579318914 0.007361514867244279 -0.007361514867244278 -0.12412215793189185
0.9999999999999998 2.1277467635028025e-18 -0.05842078427703776j 2.606523666608823e-16
1.1749414624902184 0.001706494017772091 -0.001706494017772091 -0.17494146249021883
0.9999999999999998 -6.515800946753705e-18 -0.0117040134026364j 6.250086711200031e-17
1.187322931035319 6.849196486454622e-05 -6.84919648645462e-05 -0.18732293103531927
S2 = -0.000000
X(g)
[[ 2.0000000000e+00 -3.4694469520e-18 -3.8999800491e-07  1.0156494732e-05 -4.3323299946e-04 -1.6252968002e-02  3.4142792169e-04 -1.0675257039e-03]
 [ 0.0000000000e+00  2.0000000000e+00 -1.4661696524e-05  3.8182616752e-04 -1.6287085277e-02  4.3232548720e-04 -9.0819099976e-06  2.8395956356e-05]
 [-3.8999800490e-07  1.4661696524e-05  0.0000000000e+00  0.0000000000e+00  0.0000000000e+00  0.0000000000e+00  0.0000000000e+00  0.0000000000e+00]
 [ 1.0156494732e-05 -3.8182616752e-04  0.0000000000e+00  0.0000000000e+00  0.0000000000e+00  0.0000000000e+00  0.0000000000e+00  0.0000000000e+00]
 [-4.3323299946e-04  1.6287085277e-02  0.0000000000e+00  0.0000000000e+00  0.0000000000e+00  0.0000000000e+00  0.0000000000e+00  0.0000000000e+00]
 [ 1.6252968002e-02  4.3232548720e-04  0.0000000000e+00  0.0000000000e+00  0.0000000000e+00  0.0000000000e+00  0.0000000000e+00  0.0000000000e+00]
 [-3.4142792169e-04 -9.0819099976e-06  0.0000000000e+00  0.0000000000e+00  0.0000000000e+00  0.0000000000e+00  0.0000000000e+00  0.0000000000e+00]
 [ 1.0675257039e-03  2.8395956356e-05  0.0000000000e+00  0.0000000000e+00  0.0000000000e+00  0.0000000000e+00  0.0000000000e+00  0.0000000000e+00]]
X(g) int
[[ 2.0000000000e+00  7.9110051390e-17 -2.3218316630e-04  6.0466132552e-03 -2.5792288247e-01 -2.3709537899e-01  4.9806892182e-03 -1.5572873294e-02]
 [-1.1449363128e-17  2.0000000000e+00 -2.1388219639e-04  5.5700115749e-03 -2.3759307568e-01  2.5738260003e-01 -5.4068651460e-03  1.6905376374e-02]
 [-2.3218316630e-04  2.1388219639e-04  0.0000000000e+00  0.0000000000e+00  0.0000000000e+00  0.0000000000e+00  0.0000000000e+00  0.0000000000e+00]
 [ 6.0466132552e-03 -5.5700115749e-03  0.0000000000e+00  0.0000000000e+00  0.0000000000e+00  0.0000000000e+00  0.0000000000e+00  0.0000000000e+00]
 [-2.5792288247e-01  2.3759307568e-01  0.0000000000e+00  0.0000000000e+00  0.0000000000e+00  0.0000000000e+00  0.0000000000e+00  0.0000000000e+00]
 [ 2.3709537899e-01  2.5738260003e-01  0.0000000000e+00  0.0000000000e+00  0.0000000000e+00  0.0000000000e+00  0.0000000000e+00  0.0000000000e+00]
 [-4.9806892182e-03 -5.4068651460e-03  0.0000000000e+00  0.0000000000e+00  0.0000000000e+00  0.0000000000e+00  0.0000000000e+00  0.0000000000e+00]
 [ 1.5572873294e-02  1.6905376374e-02  0.0000000000e+00  0.0000000000e+00  0.0000000000e+00  0.0000000000e+00  0.0000000000e+00  0.0000000000e+00]]
Feff
 [[ 1.7076827810e-16  1.4350001861e-17 -7.3990606536e-02 -2.5443611307e-02 -6.7696432199e-02  6.4785041405e-02 -1.9335273391e-02  5.8797037704e-03]
 [-1.9046836142e-17  2.5733654039e-16  1.1715144503e-03 -1.9535106954e-02  6.4981016102e-02  6.2804107356e-02  2.7687827999e-02  7.7419780576e-02]
 [-7.3990606536e-02 -1.1715144503e-03  0.0000000000e+00  0.0000000000e+00  0.0000000000e+00  0.0000000000e+00  0.0000000000e+00  0.0000000000e+00]
 [-2.5443611307e-02  1.9535106954e-02  0.0000000000e+00  0.0000000000e+00  0.0000000000e+00  0.0000000000e+00  0.0000000000e+00  0.0000000000e+00]
 [-6.7696432199e-02 -6.4981016102e-02  0.0000000000e+00  0.0000000000e+00  0.0000000000e+00  0.0000000000e+00  0.0000000000e+00  0.0000000000e+00]
 [-6.4785041405e-02  6.2804107356e-02  0.0000000000e+00  0.0000000000e+00  0.0000000000e+00  0.0000000000e+00  0.0000000000e+00  0.0000000000e+00]
 [ 1.9335273391e-02  2.7687827999e-02  0.0000000000e+00  0.0000000000e+00  0.0000000000e+00  0.0000000000e+00  0.0000000000e+00  0.0000000000e+00]
 [-5.8797037704e-03  7.7419780576e-02  0.0000000000e+00  0.0000000000e+00  0.0000000000e+00  0.0000000000e+00  0.0000000000e+00  0.0000000000e+00]]
Feff (ortho)
 [[-3.5367287329e-02 -5.2441667693e-02 -5.7622846914e-03  3.1616232157e-02  0.0000000000e+00 -3.4694469520e-18 -5.2041704279e-18 -5.2041704279e-18]
 [-5.2441667693e-02  6.2265877540e-02 -2.1598749171e-02  5.9212222225e-02 -3.4694469520e-18 -3.4694469520e-18 -1.5612511284e-17 -1.7780915629e-17]
 [-5.7622846914e-03 -2.1598749171e-02  2.7825312819e-04  4.0013707685e-03 -3.9031278209e-18  1.2143064332e-17  1.8973538018e-19 -2.6020852140e-18]
 [ 3.1616232157e-02  5.9212222225e-02  4.0013707685e-03 -2.7176843339e-02  9.5409791179e-18 -2.6020852140e-17  3.4694469520e-18  9.3241386834e-18]
 [ 0.0000000000e+00 -3.4694469520e-18 -3.9031278209e-18  9.5409791179e-18 -3.5367287329e-02  5.2441667693e-02 -5.7622846914e-03 -3.1616232157e-02]
 [-3.4694469520e-18 -3.4694469520e-18  1.2143064332e-17 -2.6020852140e-17  5.2441667693e-02  6.2265877540e-02  2.1598749171e-02  5.9212222225e-02]
 [-5.2041704279e-18 -1.5612511284e-17  1.8973538018e-19  3.4694469520e-18 -5.7622846914e-03  2.1598749171e-02  2.7825312819e-04 -4.0013707685e-03]
 [-5.2041704279e-18 -1.7780915629e-17 -2.6020852140e-18  9.3241386834e-18 -3.1616232157e-02  5.9212222225e-02 -4.0013707685e-03 -2.7176843339e-02]]
Hsp + Hph =  -0.9669117125202926
Feff (mod,ortho)
[[-0.4918968414 -0.0454744717  0.1319430873  0.0450470759  0.            0.            0.            0.          ]
 [-0.0454744717 -0.3340594043 -0.0356400592  0.3050030514  0.            0.            0.            0.          ]
 [ 0.1319430873 -0.0356400592  0.71392426    0.0913574537  0.            0.            0.            0.          ]
 [ 0.0450470759  0.3050030514  0.0913574537  0.7312648903  0.            0.            0.            0.          ]
 [ 0.            0.            0.            0.           -0.4918968414  0.0454744717  0.1319430873 -0.0450470759]
 [ 0.            0.            0.            0.            0.0454744717 -0.3340594043  0.0356400592  0.3050030514]
 [ 0.            0.            0.            0.            0.1319430873  0.0356400592  0.71392426   -0.0913574537]
 [ 0.            0.            0.            0.           -0.0450470759  0.3050030514 -0.0913574537  0.7312648903]]
Alpha occ 1 vir 3; Beta occ 1 vir 3
Alpha energies:  [-0.528436433] <- HOMO
         LUMO->  [-0.396872216   0.6807932901  0.8637482635]
Beta energies:   [-0.528436433] <- HOMO
         LUMO->  [-0.396872216   0.6807932901  0.8637482635]
e_a, e_b
 [-0.528436433  -0.396872216   0.6807932901  0.8637482635] 
 [-0.528436433  -0.396872216   0.6807932901  0.8637482635]
v_a, v_b
 [[ 0.9100195132 -0.3997710197 -0.0829578881  0.0718721518]
 [ 0.3889952869  0.8821644214  0.1827971367  0.1924936548]
 [-0.0765774852  0.0947237267 -0.8440765439  0.5222050291]
 [-0.1211735994 -0.2302096456  0.4972303125  0.8276971029]] 
 [[ 0.9100195132 -0.3997710197  0.0829578881 -0.0718721518]
 [-0.3889952869 -0.8821644214  0.1827971367  0.1924936548]
 [-0.0765774852  0.0947237267  0.8440765439 -0.5222050291]
 [ 0.1211735994  0.2302096456  0.4972303125  0.8276971029]]
P_a, P_b
 [[ 0.8281355144  0.3539933016 -0.0696870058 -0.1102703399]
 [ 0.3539933016  0.1513173332 -0.0297882808 -0.0471359591]
 [-0.0696870058 -0.0297882808  0.0058641112  0.0092791695]
 [-0.1102703399 -0.0471359591  0.0092791695  0.0146830412]] 
 [[ 0.8281355144 -0.3539933016 -0.0696870058  0.1102703399]
 [-0.3539933016  0.1513173332  0.0297882808 -0.0471359591]
 [-0.0696870058  0.0297882808  0.0058641112 -0.0092791695]
 [ 0.1102703399 -0.0471359591 -0.0092791695  0.0146830412]]
time for xg, H, S2, Yg, Feff: 0.026
 E =     -0.70232311, delta E =   0.307168, MaxD(dm) =   0.754474, RMSD(dm) =   0.272334
**** Start Cycle 3 ****
dm (ortho)
[[[ 0.8281355144  0.3539933016 -0.0696870058 -0.1102703399]
  [ 0.3539933016  0.1513173332 -0.0297882808 -0.0471359591]
  [-0.0696870058 -0.0297882808  0.0058641112  0.0092791695]
  [-0.1102703399 -0.0471359591  0.0092791695  0.0146830412]]

 [[ 0.8281355144 -0.3539933016 -0.0696870058  0.1102703399]
  [-0.3539933016  0.1513173332  0.0297882808 -0.0471359591]
  [-0.0696870058  0.0297882808  0.0058641112 -0.0092791695]
  [ 0.1102703399 -0.0471359591 -0.0092791695  0.0146830412]]]
Fock (ortho)
 (array([[-0.542547571 ,  0.0337618276,  0.1599285665,  0.0303896395],
       [ 0.0337618276, -0.3011791515,  0.0586003909,  0.2673676502],
       [ 0.1599285665,  0.0586003909,  0.7141229014,  0.1011068177],
       [ 0.0303896395,  0.2673676502,  0.1011068177,  0.7425321963]]), array([[-0.542547571 , -0.0337618276,  0.1599285665, -0.0303896395],
       [-0.0337618276, -0.3011791515, -0.0586003909,  0.2673676502],
       [ 0.1599285665, -0.0586003909,  0.7141229014, -0.1011068177],
       [-0.0303896395,  0.2673676502, -0.1011068177,  0.7425321963]]))
E(UHF) =    -1.296886
NO eigenvalue
[-1.0000000000e+00 -1.0988724970e-17  2.2007480485e-18  1.2050194214e-17] 
 [-1.0000000000e+00 -1.6683323368e-16 -3.9934283182e-19  5.1040670863e-19]
NO vec
[[ 0.9100195132  0.            0.2971394395  0.0611678107  0.2825440462  0.            0.            0.          ]
 [ 0.3889952869  0.           -0.6362609486  0.2155083883 -0.6304052718  0.            0.            0.          ]
 [-0.0765774852  0.           -0.50115034    0.5643928405  0.6514943953  0.            0.            0.          ]
 [-0.1211735994  0.            0.5056960505  0.7945283853 -0.3135492118  0.            0.            0.          ]
 [ 0.            0.9100195132  0.            0.            0.            0.4141921752  0.0163257386 -0.0065420085]
 [ 0.           -0.3889952869  0.            0.            0.            0.8677197968 -0.298091875   0.0829834628]
 [ 0.           -0.0765774852  0.            0.            0.            0.150292      0.723704373   0.6691787384]
 [ 0.            0.1211735994  0.            0.            0.           -0.2300424112 -0.6221950536  0.7384245141]]
dm(NO)
[[ 1.0000000000e+00  0.0000000000e+00 -1.3319876229e-17 -6.3518275460e-18  4.5875509715e-17  0.0000000000e+00  0.0000000000e+00  0.0000000000e+00]
 [ 0.0000000000e+00  1.0000000000e+00  0.0000000000e+00  0.0000000000e+00  0.0000000000e+00 -1.0279555262e-16  8.2826057579e-18 -5.0506139164e-18]
 [ 2.7520290752e-17  0.0000000000e+00  7.6768327046e-18 -6.8352569904e-20  2.1999527494e-18  0.0000000000e+00  0.0000000000e+00  0.0000000000e+00]
 [ 2.6078075154e-17  0.0000000000e+00  3.0107460056e-18  5.9531216806e-19  2.0191700786e-18  0.0000000000e+00  0.0000000000e+00  0.0000000000e+00]
 [ 7.8791515282e-17  0.0000000000e+00  1.8170393999e-19 -1.7892427322e-18 -6.8022916718e-18  0.0000000000e+00  0.0000000000e+00  0.0000000000e+00]
 [ 0.0000000000e+00 -1.4636393335e-16  0.0000000000e+00  0.0000000000e+00  0.0000000000e+00  7.9585937175e-18 -2.8593318564e-18  5.2942564784e-18]
 [ 0.0000000000e+00  9.9241633031e-19  0.0000000000e+00  0.0000000000e+00  0.0000000000e+00 -7.9778735524e-18  2.0297827016e-18 -9.3792006782e-19]
 [ 0.0000000000e+00  7.4093920120e-18  0.0000000000e+00  0.0000000000e+00  0.0000000000e+00  1.9995468621e-18  5.1544296546e-19 -1.5862969340e-19]]
D(g) (NO)
 [[ 9.9951368521e-01  2.0830366167e-02  6.6047831977e-17  2.0620019407e-17  1.1530706074e-16  2.2789567370e-02 -2.5297522833e-03 -3.5671967404e-03]
 [-2.0830366167e-02  9.9951368521e-01 -1.9257478126e-02 -7.7609521898e-04 -1.2924245918e-02 -3.0869403797e-16  1.3546498990e-17  3.6725156301e-18]
 [ 5.6488122291e-17  1.9257478126e-02  9.9951368521e-01  5.9852637297e-17 -1.7686882004e-16 -1.9354606809e-02 -1.5055601644e-02 -5.2025511205e-04]
 [ 2.3861933196e-17  7.7609521898e-04  2.9138558077e-17  9.9951368521e-01 -6.4261732975e-17  3.5668807316e-03 -4.6506886322e-03  3.0617629040e-02]
 [ 9.2795467547e-17  1.2924245918e-02 -1.0750263131e-16 -3.3781506369e-17  9.9951368521e-01 -8.1058775569e-03  2.6789799971e-02  4.6859693480e-03]
 [-2.2789567370e-02 -3.7205355753e-16  1.9354606809e-02 -3.5668807316e-03  8.1058775569e-03  9.9951368521e-01 -1.6375075933e-18 -1.6320440759e-17]
 [ 2.5297522833e-03  4.8572257327e-17  1.5055601644e-02  4.6506886322e-03 -2.6789799971e-02 -4.1633363423e-17  9.9951368521e-01  1.1102230246e-16]
 [ 3.5671967404e-03  0.0000000000e+00  5.2025511205e-04 -3.0617629040e-02 -4.6859693480e-03 -1.3877787808e-17  1.1102230246e-16  9.9951368521e-01]]
N(g) (NO)
 [[ 1.0000522022 -0.0208415891]
 [ 0.0208415891  1.0000522022]]
P(g) (NO)
 [[ 1.0000000000e+00  1.4121123618e-18 -1.3319876229e-17 -6.3518275460e-18  4.5875509715e-17 -1.0031505721e-34  4.8148248610e-35  0.0000000000e+00]
 [-1.3325160782e-18  1.0000000000e+00 -3.5889338085e-35 -1.4309139234e-35  1.5835841724e-34 -1.0279555262e-16  8.2826057579e-18 -5.0506139164e-18]
 [ 4.0135644681e-04  1.9258483409e-02 -5.3460181953e-21 -2.5493469346e-21  1.8412431575e-20 -1.9796864447e-18  1.5951042557e-19 -9.7267164316e-20]
 [ 1.6175057681e-05  7.7613573289e-04 -2.1544976631e-22 -1.0274117694e-22  7.4203901580e-22 -7.9783301573e-20  6.4284262902e-21 -3.9199619336e-21]
 [ 2.6936182326e-04  1.2924920593e-02 -3.5878661467e-21 -1.7109398488e-21  1.2357110940e-20 -1.3286243549e-18  1.0705202172e-19 -6.5278783813e-20]
 [-2.2790757036e-02  4.7497079961e-04  3.0357006289e-19  1.4476295834e-19 -1.0455375958e-18 -4.8824885826e-20  3.9339958797e-21 -2.3988941304e-21]
 [ 2.5298843420e-03 -5.2724057693e-05 -3.3697746309e-20 -1.6069389052e-20  1.1605973371e-19  5.4197986471e-21 -4.3669258383e-22  2.6628885951e-22]
 [ 3.5673829561e-03 -7.4346048816e-05 -4.7517099437e-20 -2.2659401328e-20  1.6365551146e-19  7.6424431734e-21 -6.1577901200e-22  3.7549318878e-22]]
time for NO, Ng: 0.015
Pg_ortho
 [[ 8.2831420108e-01  3.5406968267e-01 -6.9702042147e-02 -1.1029413294e-01  8.5740117033e-03 -3.6650314567e-03 -7.2149689615e-04  1.1416720677e-03]
 [ 3.5360955664e-01  1.5115329828e-01 -2.9755988957e-02 -4.7084861516e-02 -1.8413421500e-02  7.8709676823e-03  1.5494761285e-03 -2.4518381506e-03]
 [-6.9702042147e-02 -2.9794708230e-02  5.8653765360e-03  9.2811716771e-03 -7.2149689615e-04  3.0840975168e-04  6.0713443037e-05 -9.6070880442e-05]
 [-1.1015080183e-01 -4.7084861516e-02  9.2691104676e-03  1.4667124099e-02  5.7358549977e-03 -2.4518381506e-03 -4.8266805794e-04  7.6375746404e-04]
 [-8.5740117033e-03 -3.6650314567e-03  7.2149689615e-04  1.1416720677e-03  8.2831420108e-01 -3.5406968267e-01 -6.9702042147e-02  1.1029413294e-01]
 [-1.8413421500e-02 -7.8709676823e-03  1.5494761285e-03  2.4518381506e-03 -3.5360955664e-01  1.5115329828e-01  2.9755988957e-02 -4.7084861516e-02]
 [ 7.2149689615e-04  3.0840975168e-04 -6.0713443037e-05 -9.6070880442e-05 -6.9702042147e-02  2.9794708230e-02  5.8653765360e-03 -9.2811716771e-03]
 [ 5.7358549977e-03  2.4518381506e-03 -4.8266805794e-04 -7.6375746404e-04  1.1015080183e-01 -4.7084861516e-02 -9.2691104676e-03  1.4667124099e-02]]
G(g) (NO)
 [[ 3.4646953480e-01 -2.2757984495e-03  5.0534455500e-02  1.8674533300e-02  9.9590410387e-02  1.7610338485e-03 -1.4309115622e-03  3.0297604107e-04]
 [ 2.2757984495e-03  3.4646953480e-01 -1.3950823248e-03  1.2675022972e-03 -1.2991250246e-03  1.0687030563e-01  1.5581855680e-02  3.4009745315e-02]
 [ 5.0436667109e-02 -8.5067490429e-03  6.7817489234e-01 -4.3370792503e-02  1.3272125469e-02  8.4855449050e-04 -1.0733306181e-03 -2.4662640317e-04]
 [ 1.8675294825e-02  6.6998633450e-04 -4.3367154358e-02  7.6186224000e-01 -3.5806874938e-02  4.1778204275e-04  4.7550578731e-04  2.9905045970e-04]
 [ 9.9519326146e-02 -9.5545263181e-03  1.3272286342e-02 -3.5808042865e-02  9.8542940880e-01  1.5736379754e-03 -4.5077477299e-03 -2.9937747783e-05]
 [ 1.2612378658e-02  1.0675131618e-01 -2.2446792146e-03  3.4838734521e-03 -7.2333288621e-04  8.2662488959e-01 -2.6197633342e-02  1.6393409958e-01]
 [-1.7399521380e-03  1.5598745954e-02  4.1027576776e-05 -2.4051683687e-04 -5.1787196171e-04 -2.6194216315e-02  7.7178483596e-01  2.8620187825e-04]
 [ 1.4153110135e-03  3.4022873492e-02 -9.0776636906e-04  2.5200682451e-03 -1.3539881828e-04  1.6393364466e-01  2.8785808048e-04  8.2705681559e-01]]
time for Gg: 0.022
C(NO)
[[ 1.0000000000e+00  0.0000000000e+00 -5.2024568406e-17 -1.0040505851e-16  1.3507356166e-16  0.0000000000e+00  0.0000000000e+00  0.0000000000e+00]
 [ 0.0000000000e+00  1.0000000000e+00  0.0000000000e+00  0.0000000000e+00  0.0000000000e+00  6.7190855879e-17 -1.2490009027e-16  1.1102230246e-16]
 [ 5.6227159970e-17  0.0000000000e+00 -8.4396144478e-01  5.3349991214e-01  5.5739783550e-02  0.0000000000e+00  0.0000000000e+00  0.0000000000e+00]
 [ 2.9578552939e-17  0.0000000000e+00  3.6214009788e-02 -4.7007196960e-02  9.9823788193e-01  0.0000000000e+00  0.0000000000e+00  0.0000000000e+00]
 [ 1.2737839161e-16  0.0000000000e+00 -5.3517999330e-01 -8.4449284614e-01 -2.0352090821e-02  0.0000000000e+00  0.0000000000e+00  0.0000000000e+00]
 [ 0.0000000000e+00 -1.6149918362e-16  0.0000000000e+00  0.0000000000e+00  0.0000000000e+00 -9.6977532440e-01  2.0545109437e-01 -1.3162700337e-01]
 [ 0.0000000000e+00 -1.4229872979e-17  0.0000000000e+00  0.0000000000e+00  0.0000000000e+00  1.8175616175e-01  2.4835165256e-01 -9.5146526702e-01]
 [ 0.0000000000e+00  5.1970848027e-18  0.0000000000e+00  0.0000000000e+00  0.0000000000e+00  1.6278979655e-01  9.4663155689e-01  2.7818730677e-01]]
detC 1.0000000000000002
detNg [1.000538779  1.0142024134 1.0792212355 1.2472026335 1.5517621223 1.9244502149 2.1728430168 2.2383307997]
xg [0.9994615111 0.9859964705 0.9265940728 0.8017943301 0.6444286696 0.5196289269 0.4602265291 0.4467614886]
ciS 1.4462229996480658
[[-0.7851903319  0.           -0.0594315511 -0.0405772247  0.0060232118  0.            0.            0.          ]
 [ 0.           -0.7851903319  0.            0.            0.           -0.0427072915 -0.0248808436  0.0526491252]
 [-0.0594315511  0.           -0.321440028   0.0764728913 -0.5089846419  0.            0.            0.          ]
 [-0.0405772247  0.            0.0764728913  0.3760136501  0.0036157765  0.            0.            0.          ]
 [ 0.0060232118  0.           -0.5089846419  0.0036157765 -0.0424136767  0.            0.            0.          ]
 [ 0.           -0.0427072915  0.            0.            0.           -0.671622599   0.1908468649  0.0726169435]
 [ 0.           -0.0248808436  0.            0.            0.            0.1908468649  0.3228125007 -0.0607711724]
 [ 0.            0.0526491252  0.            0.            0.            0.0726169435 -0.0607711724  0.3609700436]]
ciH -1.7635489141847842
0.9999999999999999 4.87890977618477e-18 -0.017269450292742163j -9.627715291671279e-17
0.72335198019182 0.00014911695670674624 -0.00014911695670674621 0.2766480198081798
1.0 3.2526065174565133e-18 -0.08817575006551018j 5.941427905220564e-17
0.7294939468314648 0.0038874814498076594 -0.0038874814498076594 0.2705060531685354
1.0 2.108773225484306e-17 -0.20265833502204042j -9.93129189996722e-17
0.7598620858584321 0.02053520037695279 -0.02053520037695279 0.24013791414156804
0.9999999999999999 -4.0657581468206416e-17 -0.33109942345072907j -2.6020852139652106e-17
0.8470531527986572 0.0548134141047026 -0.0548134141047026 0.1529468472013427
1.0000000000000002 4.380176776841438e-17 -0.4119519396724922j 9.237402509576498e-17
1.037244835356449 0.08485220029996435 -0.08485220029996432 -0.037244835356448715
1.0 -5.355958732078392e-17 -0.361377133393358j 1.7433970933566911e-16
1.3262953649393336 0.06529671626980041 -0.06529671626980041 -0.32629536493933325
0.9999999999999999 1.940721888749053e-17 -0.18890909768372902j 2.5760643618255585e-16
1.5533644491973122 0.017843323593840336 -0.01784332359384034 -0.5533644491973126
0.9999999999999998 -4.9060148304969076e-18 -0.038633927334293695j 2.2811613709095013e-16
1.6178164515319842 0.0007462901706357429 -0.0007462901706357427 -0.6178164515319846
S2 = 0.000000
X(g)
[[ 2.0000000000e+00  0.0000000000e+00  4.0135644681e-04  1.6175057681e-05  2.6936182326e-04  2.2790757036e-02 -2.5298843420e-03 -3.5673829561e-03]
 [ 6.9388939039e-18  2.0000000000e+00 -1.9258483409e-02 -7.7613573289e-04 -1.2924920593e-02  4.7497079961e-04 -5.2724057693e-05 -7.4346048816e-05]
 [ 4.0135644681e-04  1.9258483409e-02  0.0000000000e+00  0.0000000000e+00  0.0000000000e+00  0.0000000000e+00  0.0000000000e+00  0.0000000000e+00]
 [ 1.6175057681e-05  7.7613573289e-04  0.0000000000e+00  0.0000000000e+00  0.0000000000e+00  0.0000000000e+00  0.0000000000e+00  0.0000000000e+00]
 [ 2.6936182326e-04  1.2924920593e-02  0.0000000000e+00  0.0000000000e+00  0.0000000000e+00  0.0000000000e+00  0.0000000000e+00  0.0000000000e+00]
 [-2.2790757036e-02  4.7497079961e-04  0.0000000000e+00  0.0000000000e+00  0.0000000000e+00  0.0000000000e+00  0.0000000000e+00  0.0000000000e+00]
 [ 2.5298843420e-03 -5.2724057693e-05  0.0000000000e+00  0.0000000000e+00  0.0000000000e+00  0.0000000000e+00  0.0000000000e+00  0.0000000000e+00]
 [ 3.5673829561e-03 -7.4346048816e-05  0.0000000000e+00  0.0000000000e+00  0.0000000000e+00  0.0000000000e+00  0.0000000000e+00  0.0000000000e+00]]
X(g) int
[[ 2.0000000000e+00  6.9780570661e-17  2.8524575916e-01  1.1495683312e-02  1.9143661046e-01  3.9688964626e-01 -4.4056671745e-02 -6.2124191717e-02]
 [-7.6018678305e-17  2.0000000000e+00 -3.3537686596e-01 -1.3516015988e-02 -2.2508103411e-01  3.3756379745e-01 -3.7471215381e-02 -5.2838057801e-02]
 [ 2.8524575916e-01  3.3537686596e-01  0.0000000000e+00  0.0000000000e+00  0.0000000000e+00  0.0000000000e+00  0.0000000000e+00  0.0000000000e+00]
 [ 1.1495683312e-02  1.3516015988e-02  0.0000000000e+00  0.0000000000e+00  0.0000000000e+00  0.0000000000e+00  0.0000000000e+00  0.0000000000e+00]
 [ 1.9143661046e-01  2.2508103411e-01  0.0000000000e+00  0.0000000000e+00  0.0000000000e+00  0.0000000000e+00  0.0000000000e+00  0.0000000000e+00]
 [-3.9688964626e-01  3.3756379745e-01  0.0000000000e+00  0.0000000000e+00  0.0000000000e+00  0.0000000000e+00  0.0000000000e+00  0.0000000000e+00]
 [ 4.4056671745e-02 -3.7471215381e-02  0.0000000000e+00  0.0000000000e+00  0.0000000000e+00  0.0000000000e+00  0.0000000000e+00  0.0000000000e+00]
 [ 6.2124191717e-02 -5.2838057801e-02  0.0000000000e+00  0.0000000000e+00  0.0000000000e+00  0.0000000000e+00  0.0000000000e+00  0.0000000000e+00]]
Feff
 [[ 2.4965938083e-16  1.4970049438e-18  7.3425947819e-04  1.2978850585e-02  1.1400152239e-01 -7.7107375938e-03  3.2054221279e-02 -2.8872680557e-02]
 [-3.8234500783e-18  3.6972024871e-16 -6.0096625137e-03 -3.6775965034e-02  2.3064531447e-02  8.0542134586e-02  2.3006064828e-02  7.8415702153e-02]
 [ 7.3425947819e-04  6.0096625137e-03  0.0000000000e+00  0.0000000000e+00  0.0000000000e+00  0.0000000000e+00  0.0000000000e+00  0.0000000000e+00]
 [ 1.2978850585e-02  3.6775965034e-02  0.0000000000e+00  0.0000000000e+00  0.0000000000e+00  0.0000000000e+00  0.0000000000e+00  0.0000000000e+00]
 [ 1.1400152239e-01 -2.3064531447e-02  0.0000000000e+00  0.0000000000e+00  0.0000000000e+00  0.0000000000e+00  0.0000000000e+00  0.0000000000e+00]
 [ 7.7107375938e-03  8.0542134586e-02  0.0000000000e+00  0.0000000000e+00  0.0000000000e+00  0.0000000000e+00  0.0000000000e+00  0.0000000000e+00]
 [-3.2054221279e-02  2.3006064828e-02  0.0000000000e+00  0.0000000000e+00  0.0000000000e+00  0.0000000000e+00  0.0000000000e+00  0.0000000000e+00]
 [ 2.8872680557e-02  7.8415702153e-02  0.0000000000e+00  0.0000000000e+00  0.0000000000e+00  0.0000000000e+00  0.0000000000e+00  0.0000000000e+00]]
Feff (ortho)
 [[ 6.0466277003e-02 -5.0356888517e-02  7.1375467700e-02 -2.6832337228e-02 -6.5052130349e-18 -2.7755575616e-17 -4.6403852982e-17  1.7347234760e-17]
 [-5.0356888517e-02 -5.4099356268e-02  3.6922513469e-02 -1.3228033990e-03 -4.1633363423e-17  3.4694469520e-18 -1.6263032587e-17  1.7347234760e-18]
 [ 7.1375467700e-02  3.6922513469e-02 -1.2440555993e-02 -7.9235928973e-03 -7.6327832943e-17  3.4802889737e-17  1.0164395367e-17 -1.1492543028e-17]
 [-2.6832337228e-02 -1.3228033990e-03 -7.9235928973e-03  6.0736352578e-03  2.7755575616e-17 -7.8062556419e-18  3.4694469520e-18  1.7347234760e-18]
 [-6.5052130349e-18 -4.1633363423e-17 -7.6327832943e-17  2.7755575616e-17  6.0466277003e-02  5.0356888517e-02  7.1375467700e-02  2.6832337228e-02]
 [-2.7755575616e-17  3.4694469520e-18  3.4802889737e-17 -7.8062556419e-18  5.0356888517e-02 -5.4099356268e-02 -3.6922513469e-02 -1.3228033990e-03]
 [-4.6403852982e-17 -1.6263032587e-17  1.0164395367e-17  3.4694469520e-18  7.1375467700e-02 -3.6922513469e-02 -1.2440555993e-02  7.9235928973e-03]
 [ 1.7347234760e-17  1.7347234760e-18 -1.1492543028e-17  1.7347234760e-18  2.6832337228e-02 -1.3228033990e-03  7.9235928973e-03  6.0736352578e-03]]
Hsp + Hph =  -1.2194170018136474
Feff (mod,ortho)
[[-0.4258926596 -0.0735002262  0.172325938   0.0253532453  0.            0.            0.            0.          ]
 [-0.0735002262 -0.4141944801  0.077121885   0.2861370596  0.            0.            0.            0.          ]
 [ 0.172325938   0.077121885   0.7112103965  0.0985727495  0.            0.            0.            0.          ]
 [ 0.0253532453  0.2861370596  0.0985727495  0.7418051184  0.            0.            0.            0.          ]
 [ 0.            0.            0.            0.           -0.4258926596  0.0735002262  0.172325938  -0.0253532453]
 [ 0.            0.            0.            0.            0.0735002262 -0.4141944801 -0.077121885   0.2861370596]
 [ 0.            0.            0.            0.            0.172325938  -0.077121885   0.7112103965 -0.0985727495]
 [ 0.            0.            0.            0.           -0.0253532453  0.2861370596 -0.0985727495  0.7418051184]]
Alpha occ 1 vir 3; Beta occ 1 vir 3
Alpha energies:  [-0.5526229205] <- HOMO
         LUMO->  [-0.3813880697  0.6546479451  0.8922914204]
Beta energies:   [-0.5526229205] <- HOMO
         LUMO->  [-0.3813880697  0.6546479451  0.8922914204]
e_a, e_b
 [-0.5526229205 -0.3813880697  0.6546479451  0.8922914204] 
 [-0.5526229205 -0.3813880697  0.6546479451  0.8922914204]
v_a, v_b
 [[ 0.6292997346  0.7635263015 -0.12051953    0.0805262308]
 [ 0.7492876977 -0.6218566713  0.1070933678  0.2009806881]
 [-0.1183524352 -0.0899800417 -0.7958803591  0.5869163034]
 [-0.1689452311  0.1490820561  0.5835927582  0.7801612282]] 
 [[-0.6292997346 -0.7635263015  0.12051953   -0.0805262308]
 [ 0.7492876977 -0.6218566713  0.1070933678  0.2009806881]
 [ 0.1183524352  0.0899800417  0.7958803591 -0.5869163034]
 [-0.1689452311  0.1490820561  0.5835927582  0.7801612282]]
P_a, P_b
 [[ 0.396018156   0.4715265493 -0.0744791561 -0.1063171891]
 [ 0.4715265493  0.5614320539 -0.0886800237 -0.1265885833]
 [-0.0744791561 -0.0886800237  0.0140072989  0.0199950795]
 [-0.1063171891 -0.1265885833  0.0199950795  0.0285424911]] 
 [[ 0.396018156  -0.4715265493 -0.0744791561  0.1063171891]
 [-0.4715265493  0.5614320539  0.0886800237 -0.1265885833]
 [-0.0744791561  0.0886800237  0.0140072989 -0.0199950795]
 [ 0.1063171891 -0.1265885833 -0.0199950795  0.0285424911]]
time for xg, H, S2, Yg, Feff: 0.025
 E =     -0.95482840, delta E =  -0.252505, MaxD(dm) =   0.432117, RMSD(dm) =   0.158642
**** Start Cycle 4 ****
dm (ortho)
[[[ 0.396018156   0.4715265493 -0.0744791561 -0.1063171891]
  [ 0.4715265493  0.5614320539 -0.0886800237 -0.1265885833]
  [-0.0744791561 -0.0886800237  0.0140072989  0.0199950795]
  [-0.1063171891 -0.1265885833  0.0199950795  0.0285424911]]

 [[ 0.396018156  -0.4715265493 -0.0744791561  0.1063171891]
  [-0.4715265493  0.5614320539  0.0886800237 -0.1265885833]
  [-0.0744791561  0.0886800237  0.0140072989 -0.0199950795]
  [ 0.1063171891 -0.1265885833 -0.0199950795  0.0285424911]]]
Fock (ortho)
 (array([[-0.4910263741,  0.0413585572,  0.1608969142,  0.0351852041],
       [ 0.0413585572, -0.3570320816,  0.0825030863,  0.272169044 ],
       [ 0.1608969142,  0.0825030863,  0.7065411594,  0.1304501578],
       [ 0.0351852041,  0.272169044 ,  0.1304501578,  0.7385476555]]), array([[-0.4910263741, -0.0413585572,  0.1608969142, -0.0351852041],
       [-0.0413585572, -0.3570320816, -0.0825030863,  0.272169044 ],
       [ 0.1608969142, -0.0825030863,  0.7065411594, -0.1304501578],
       [-0.0351852041,  0.272169044 , -0.1304501578,  0.7385476555]]))
E(UHF) =    -1.170397
NO eigenvalue
[-1.0000000000e+00 -2.2343132069e-16 -2.6446532580e-18  6.7586697588e-18] 
 [-1.0000000000e+00 -7.0089663526e-17  9.7454709248e-19  4.8968206232e-17]
NO vec
[[-6.2929973463e-01  0.0000000000e+00  7.7472465562e-01  5.9584418052e-02  1.5272494380e-02  0.0000000000e+00  0.0000000000e+00  0.0000000000e+00]
 [-7.4928769771e-01  0.0000000000e+00 -6.1670113467e-01  4.4020012302e-02  2.3729706082e-01  0.0000000000e+00  0.0000000000e+00  0.0000000000e+00]
 [ 1.1835243523e-01  0.0000000000e+00  1.7311407658e-02  9.6337928071e-01  2.3998620325e-01  0.0000000000e+00  0.0000000000e+00  0.0000000000e+00]
 [ 1.6894523113e-01  0.0000000000e+00  1.3849813585e-01 -2.5770583453e-01  9.4120320765e-01  0.0000000000e+00  0.0000000000e+00  0.0000000000e+00]
 [ 0.0000000000e+00 -6.2929973463e-01  0.0000000000e+00  0.0000000000e+00  0.0000000000e+00  4.9841367467e-01 -3.2185356407e-04 -5.9629317396e-01]
 [ 0.0000000000e+00  7.4928769771e-01  0.0000000000e+00  0.0000000000e+00  0.0000000000e+00  5.9054033904e-01 -3.9241334911e-02 -2.9713662120e-01]
 [ 0.0000000000e+00  1.1835243523e-01  0.0000000000e+00  0.0000000000e+00  0.0000000000e+00 -2.6582155745e-01  8.9136127263e-01 -3.4757255691e-01]
 [ 0.0000000000e+00 -1.6894523113e-01  0.0000000000e+00  0.0000000000e+00  0.0000000000e+00  5.7635476615e-01  4.5159173563e-01  6.5980117969e-01]]
dm(NO)
[[ 1.0000000000e+00  0.0000000000e+00  1.0427098062e-16  4.2400602275e-18 -6.0003630889e-17  0.0000000000e+00  0.0000000000e+00  0.0000000000e+00]
 [ 0.0000000000e+00  1.0000000000e+00  0.0000000000e+00  0.0000000000e+00  0.0000000000e+00 -1.0082711011e-16  9.0900558589e-18  4.8334760381e-17]
 [ 9.7525840641e-17  0.0000000000e+00 -1.3512070355e-18  2.5435832678e-18  2.4089624823e-18  0.0000000000e+00  0.0000000000e+00  0.0000000000e+00]
 [ 2.8189969210e-17  0.0000000000e+00  4.1877498321e-18  4.1335923733e-19 -2.5879786857e-18  0.0000000000e+00  0.0000000000e+00  0.0000000000e+00]
 [-1.3789016943e-17  0.0000000000e+00  3.9193954609e-18 -5.4197355308e-19 -5.4902705337e-18  0.0000000000e+00  0.0000000000e+00  0.0000000000e+00]
 [ 0.0000000000e+00 -7.8346260479e-17  0.0000000000e+00  0.0000000000e+00  0.0000000000e+00  3.1522988871e-17  1.1021529402e-17 -2.5574583498e-18]
 [ 0.0000000000e+00  3.9510631842e-18  0.0000000000e+00  0.0000000000e+00  0.0000000000e+00  7.3718749812e-18 -1.8855924416e-18 -4.1372827432e-18]
 [ 0.0000000000e+00  8.4733162268e-17  0.0000000000e+00  0.0000000000e+00  0.0000000000e+00 -1.0090322098e-18 -5.7349350627e-18 -5.0469873777e-18]]
D(g) (NO)
 [[ 9.9951368521e-01 -5.6113916774e-03  2.1566792246e-16  1.7192999361e-17  2.0849272679e-18 -2.1523419186e-02  6.5919650868e-03  2.0837317030e-02]
 [ 5.6113916774e-03  9.9951368521e-01  3.0277979810e-02 -4.7723935047e-03 -1.1719884947e-03 -1.2225395068e-16  1.1496034812e-17  1.1124543101e-16]
 [ 8.3273688105e-17 -3.0277979810e-02  9.9951368521e-01 -2.2995753958e-18 -2.6659931685e-17  3.0300352545e-03  3.1783856440e-03 -6.0294082966e-03]
 [ 1.1867401712e-17  4.7723935047e-03 -8.7628872869e-18  9.9951368521e-01  3.9828169492e-17 -1.0880563280e-02  2.3094121965e-02 -1.7259554119e-02]
 [ 7.3655809999e-18  1.1719884947e-03 -1.9237621276e-17 -4.9701771306e-18  9.9951368521e-01  1.9533758736e-02  1.9634114862e-02  1.4281222670e-02]
 [ 2.1523419186e-02 -9.7264672974e-17 -3.0300352545e-03  1.0880563280e-02 -1.9533758736e-02  9.9951368521e-01  1.1340138972e-16  4.9353678526e-17]
 [-6.5919650868e-03  1.3877787808e-17 -3.1783856440e-03 -2.3094121965e-02 -1.9634114862e-02  1.3877787808e-16  9.9951368521e-01  1.6653345369e-16]
 [-2.0837317030e-02  5.5511151231e-17  6.0294082966e-03  1.7259554119e-02 -1.4281222670e-02  5.5511151231e-17  1.1102230246e-16  9.9951368521e-01]]
N(g) (NO)
 [[ 1.0004550187  0.0056166764]
 [-0.0056166764  1.0004550187]]
P(g) (NO)
 [[ 1.0000000000e+00  4.2274591259e-18  1.0427098062e-16  4.2400602275e-18 -6.0003630889e-17 -3.8265085440e-34  3.6111186457e-35  1.4444474583e-34]
 [ 2.1718978006e-18  1.0000000000e+00  2.6853508392e-34  1.4723489272e-35 -1.7724133726e-34 -1.0082711011e-16  9.0900558589e-18  4.8334760381e-17]
 [ 1.7006161580e-04 -3.0291756857e-02  1.7732491445e-20  7.2107149338e-22 -1.0204314423e-20  3.0542303042e-18 -2.7535376190e-19 -1.4641448092e-18]
 [-2.6804990152e-05  4.7745650330e-03 -2.7949826086e-21 -1.1365477264e-22  1.6083967351e-21 -4.8140559433e-19  4.3401062852e-20  2.3077745679e-19]
 [-6.5826801642e-06  1.1725217714e-03 -6.8638251581e-22 -2.7910960355e-23  3.9498471083e-22 -1.1822198176e-19  1.0658288398e-20  5.6673558861e-20]
 [ 2.1533212744e-02  1.2089008141e-04  2.2452892087e-18  9.1302118928e-20 -1.2920709494e-18 -1.2188997551e-20  1.0988975928e-21  5.8431931176e-21]
 [-6.5949645542e-03 -3.7024934985e-05 -6.8766342120e-19 -2.7963046908e-20  3.9572181883e-19  3.7331171967e-21 -3.3655872719e-22 -1.7895913606e-21]
 [-2.0846798399e-02 -1.1703646760e-04 -2.1737161118e-18 -8.8391680764e-20  1.2508835964e-18  1.1800448806e-20 -1.0638680280e-21 -5.6569296173e-21]]
time for NO, Ng: 0.015
Pg_ortho
 [[ 3.9593631355e-01  4.7142910205e-01 -7.4463763964e-02 -1.0629521725e-01  1.4577963641e-02 -1.7357529667e-02 -2.7416784126e-03  3.9136794458e-03]
 [ 4.7159427407e-01  5.6151269168e-01 -8.8692760703e-02 -1.2660676502e-01 -1.2063281472e-02  1.4363375517e-02  2.2687420007e-03 -3.2385741870e-03]
 [-7.4463763964e-02 -8.8661696792e-02  1.4004404128e-02  1.9990947273e-02 -2.7416784126e-03  3.2644315460e-03  5.1562760776e-04 -7.3604590565e-04]
 [-1.0633245932e-01 -1.2660676502e-01  1.9997951391e-02  2.8546590642e-02  2.7199617486e-03 -3.2385741870e-03 -5.1154335359e-04  7.3021573187e-04]
 [-1.4577963641e-02 -1.7357529667e-02  2.7416784126e-03  3.9136794458e-03  3.9593631355e-01 -4.7142910205e-01 -7.4463763964e-02  1.0629521725e-01]
 [-1.2063281472e-02 -1.4363375517e-02  2.2687420007e-03  3.2385741870e-03 -4.7159427407e-01  5.6151269168e-01  8.8692760703e-02 -1.2660676502e-01]
 [ 2.7416784126e-03  3.2644315460e-03 -5.1562760776e-04 -7.3604590565e-04 -7.4463763964e-02  8.8661696792e-02  1.4004404128e-02 -1.9990947273e-02]
 [ 2.7199617486e-03  3.2385741870e-03 -5.1154335359e-04 -7.3021573187e-04  1.0633245932e-01 -1.2660676502e-01 -1.9997951391e-02  2.8546590642e-02]]
G(g) (NO)
 [[ 2.6700138908e-01  1.1589612582e-03  4.1942158086e-02  3.1975113690e-02 -3.5068046727e-02  3.3004150585e-04 -4.3374035451e-04  5.5344168555e-04]
 [-1.1589612582e-03  2.6700138908e-01  1.6017620993e-04  5.6159335239e-04  5.1216430796e-04  5.0515917396e-02  3.5309299402e-02 -1.4584782719e-02]
 [ 4.1899159282e-02  1.8800823914e-02  8.9127946240e-01  1.3773590804e-01 -1.0144159145e-01  2.6009186745e-03 -2.1945806585e-03  4.5188959643e-03]
 [ 3.1983032989e-02  1.7119445703e-03  1.3773878302e-01  8.2074297400e-01 -4.0666881058e-02  1.8919222340e-03 -1.2827074483e-03  2.3548621773e-03]
 [-3.5062003574e-02 -2.6948059499e-03 -1.0144575514e-01 -4.0666309846e-02  7.6110241378e-01 -1.3429329515e-03  7.2571170710e-04 -1.7073606927e-03]
 [-1.4332444471e-02  5.0481997701e-02  1.1731439901e-03  2.8374362349e-03  4.0798168325e-03  8.9398756984e-01  1.1512377632e-01 -9.0326237359e-02]
 [-8.7064584325e-04  3.5318892536e-02  3.4786741814e-04  1.8490032411e-03  2.6700055387e-03  1.1512682885e-01  8.1252189635e-01 -9.7924189704e-02]
 [ 1.2549371478e-02 -1.4558220374e-02 -9.5673041471e-04 -2.0238051997e-03 -2.5029147856e-03 -9.0322791346e-02 -9.7922013672e-02  7.6661538399e-01]]
time for Gg: 0.023
C(NO)
[[-1.0000000000e+00  0.0000000000e+00  3.2295754468e-16  1.1314040979e-16 -8.8374234827e-17  0.0000000000e+00  0.0000000000e+00  0.0000000000e+00]
 [ 0.0000000000e+00  1.0000000000e+00  0.0000000000e+00  0.0000000000e+00  0.0000000000e+00  2.6651199462e-16  3.1918911958e-16 -1.3877787808e-16]
 [-7.3795255110e-17  0.0000000000e+00  9.9411227142e-01 -9.2365353067e-02  5.6651861170e-02  0.0000000000e+00  0.0000000000e+00  0.0000000000e+00]
 [-1.7690088290e-17  0.0000000000e+00 -1.0698409152e-01 -9.1959674135e-01  3.7801618676e-01  0.0000000000e+00  0.0000000000e+00  0.0000000000e+00]
 [ 3.5511932905e-17  0.0000000000e+00 -1.7181268369e-02  3.8185137795e-01  9.2406402872e-01  0.0000000000e+00  0.0000000000e+00  0.0000000000e+00]
 [ 0.0000000000e+00 -8.9068592793e-17  0.0000000000e+00  0.0000000000e+00  0.0000000000e+00 -6.8577788036e-01  2.4810584665e-01  6.8421647720e-01]
 [ 0.0000000000e+00 -3.4441327069e-18  0.0000000000e+00  0.0000000000e+00  0.0000000000e+00  1.7217717852e-01  9.6872131999e-01 -1.7870093282e-01]
 [ 0.0000000000e+00  3.0021598847e-17  0.0000000000e+00  0.0000000000e+00  0.0000000000e+00  7.0715183519e-01  4.7426843860e-03  7.0704581813e-01]]
detC -0.9999999999999997
detNg [ 1.0009417915  1.025082185   1.1471345476  1.5298148302  2.6405582892  6.2249309683 17.5901069707 30.0096807653]
xg [0.9990590946 0.9755315375 0.8717373233 0.6536738828 0.3787077923 0.1606443517 0.0568501375 0.0333225804]
ciS 1.0323816750390953
[[-0.7357011661  0.            0.0608385811  0.0474764507  0.0469831131  0.            0.            0.          ]
 [ 0.           -0.7357011661  0.            0.            0.            0.0008711368  0.0325393697 -0.0842804234]
 [ 0.0608385811  0.           -0.7523187785  0.0828041496  0.0488833424  0.            0.            0.          ]
 [ 0.0474764507  0.            0.0828041496  0.3128224147 -0.0288258416  0.            0.            0.          ]
 [ 0.0469831131  0.            0.0488833424 -0.0288258416  0.4021671435  0.            0.            0.          ]
 [ 0.            0.0008711368  0.            0.            0.           -0.17468604    0.1347673716  0.5651879035]
 [ 0.            0.0325393697  0.            0.            0.            0.1347673716  0.3122072558 -0.0773738142]
 [ 0.           -0.0842804234  0.            0.            0.            0.5651879035 -0.0773738142 -0.1748504361]]
ciH -1.2136419122888313
0.9999999999999998 1.555830117516699e-17 -0.030187182496863436j 3.469446951953614e-17
0.5162213486664972 0.00045563299354946897 -0.00045563299354946897 0.4837786513335024
0.9999999999999998 6.743737512859838e-17 -0.1557228627200855j 1.6479873021779667e-17
0.5170132265973876 0.012124804986869301 -0.012124804986869301 0.4829867734026119
0.9999999999999997 1.726049858596923e-16 -0.3763895154952619j 1.5612511283791264e-17
0.5213058091891237 0.07083453368737898 -0.07083453368737899 0.47869419081087566
0.9999999999999997 2.2898349882893854e-16 -0.7096258738111112j 1.1275702593849246e-17
0.5378919580589039 0.25178444039109155 -0.25178444039109155 0.46210804194109567
0.9999999999999998 8.187894806610529e-16 -1.224859666869974j 1.5265566588595902e-16
0.6128913930348973 0.750140601762412 -0.750140601762412 0.3871086069651024
1.0 6.626643678231403e-16 -2.0424794598373777j 3.144186300207963e-16
1.1273911581073346 2.0858611719287925 -2.085861171928793 -0.12739115810733462
1.0 6.557254739192331e-16 -2.6721582456554898j 8.743006318923108e-16
5.509637204361725 3.5702148449123134 -3.570214844912313 -4.509637204361727
1.0 2.0556473190325164e-16 -0.9050553365176103j 1.2004286453759505e-15
15.08115966687536 0.4095625810795024 -0.40956258107950244 -14.081159666875358
S2 = -0.000000
X(g)
[[ 2.0000000000e+00 -8.6736173799e-19  1.7006161580e-04 -2.6804990152e-05 -6.5826801643e-06 -2.1533212744e-02  6.5949645542e-03  2.0846798399e-02]
 [ 0.0000000000e+00  2.0000000000e+00  3.0291756857e-02 -4.7745650330e-03 -1.1725217714e-03  1.2089008141e-04 -3.7024934985e-05 -1.1703646760e-04]
 [ 1.7006161580e-04 -3.0291756857e-02  0.0000000000e+00  0.0000000000e+00  0.0000000000e+00  0.0000000000e+00  0.0000000000e+00  0.0000000000e+00]
 [-2.6804990152e-05  4.7745650330e-03  0.0000000000e+00  0.0000000000e+00  0.0000000000e+00  0.0000000000e+00  0.0000000000e+00  0.0000000000e+00]
 [-6.5826801642e-06  1.1725217714e-03  0.0000000000e+00  0.0000000000e+00  0.0000000000e+00  0.0000000000e+00  0.0000000000e+00  0.0000000000e+00]
 [ 2.1533212744e-02  1.2089008141e-04  0.0000000000e+00  0.0000000000e+00  0.0000000000e+00  0.0000000000e+00  0.0000000000e+00  0.0000000000e+00]
 [-6.5949645542e-03 -3.7024934985e-05  0.0000000000e+00  0.0000000000e+00  0.0000000000e+00  0.0000000000e+00  0.0000000000e+00  0.0000000000e+00]
 [-2.0846798399e-02 -1.1703646760e-04  0.0000000000e+00  0.0000000000e+00  0.0000000000e+00  0.0000000000e+00  0.0000000000e+00  0.0000000000e+00]]
X(g) int
[[ 2.0000000000e+00 -1.5643569163e-17  1.6924480017e-01 -2.6676244257e-02 -6.5510631762e-03 -5.2509747460e-01  1.6082129841e-01  5.0835893942e-01]
 [ 2.6581045468e-17  2.0000000000e+00  7.3867867354e-01 -1.1643000378e-01 -2.8592492369e-02  1.2030943946e-01 -3.6847102112e-02 -1.1647433478e-01]
 [ 1.6924480017e-01 -7.3867867354e-01  0.0000000000e+00  0.0000000000e+00  0.0000000000e+00  0.0000000000e+00  0.0000000000e+00  0.0000000000e+00]
 [-2.6676244257e-02  1.1643000378e-01  0.0000000000e+00  0.0000000000e+00  0.0000000000e+00  0.0000000000e+00  0.0000000000e+00  0.0000000000e+00]
 [-6.5510631762e-03  2.8592492369e-02  0.0000000000e+00  0.0000000000e+00  0.0000000000e+00  0.0000000000e+00  0.0000000000e+00  0.0000000000e+00]
 [ 5.2509747460e-01  1.2030943946e-01  0.0000000000e+00  0.0000000000e+00  0.0000000000e+00  0.0000000000e+00  0.0000000000e+00  0.0000000000e+00]
 [-1.6082129841e-01 -3.6847102112e-02  0.0000000000e+00  0.0000000000e+00  0.0000000000e+00  0.0000000000e+00  0.0000000000e+00  0.0000000000e+00]
 [-5.0835893942e-01 -1.1647433478e-01  0.0000000000e+00  0.0000000000e+00  0.0000000000e+00  0.0000000000e+00  0.0000000000e+00  0.0000000000e+00]]
Feff
 [[ 2.3158389936e-16 -5.2823702854e-18  1.7497302631e-01  7.2694348111e-02 -2.4154006513e-03  2.2409038340e-02  5.2519636555e-02 -5.9119119371e-02]
 [ 1.0805370108e-17  2.5453802603e-16 -5.5065765735e-02 -6.0044768352e-02 -1.0859776056e-02  1.1074835791e-01  5.8974009083e-02 -1.4199552746e-01]
 [ 1.7497302631e-01  5.5065765735e-02  0.0000000000e+00  0.0000000000e+00  0.0000000000e+00  0.0000000000e+00  0.0000000000e+00  0.0000000000e+00]
 [ 7.2694348111e-02  6.0044768352e-02  0.0000000000e+00  0.0000000000e+00  0.0000000000e+00  0.0000000000e+00  0.0000000000e+00  0.0000000000e+00]
 [-2.4154006513e-03  1.0859776056e-02  0.0000000000e+00  0.0000000000e+00  0.0000000000e+00  0.0000000000e+00  0.0000000000e+00  0.0000000000e+00]
[...]
 [ 0.0000000000e+00  5.6780616632e-17  0.0000000000e+00  0.0000000000e+00  0.0000000000e+00  4.0401237723e-19  5.9457466311e-25  1.6486728763e-19]]
D(g) (NO)
 [[ 9.9951368521e-01  3.1183217838e-02  3.1286118475e-18  1.5702765437e-18  1.0164901035e-17  8.2167892943e-11  4.1601355101e-09 -2.0135033585e-10]
 [-3.1183217838e-02  9.9951368521e-01 -2.9416590097e-09 -2.9416610842e-09  2.1747028341e-10 -9.6896143931e-17 -1.5011069196e-24  6.5710962807e-17]
 [ 2.3664943283e-18  2.9416590095e-09  9.9951368521e-01 -1.8780664060e-16  1.1464527385e-16 -2.0415462736e-02 -2.2049847861e-02 -8.3310362699e-03]
 [ 8.8886126814e-19  2.9416610842e-09 -2.1434104921e-16  9.9951368521e-01  3.3739557265e-17  2.0415429566e-02 -2.2049881725e-02  8.3310279270e-03]
 [ 1.0164901205e-17 -2.1747028341e-10  1.1464527758e-16  3.3739552841e-17  9.9951368521e-01  1.1781858582e-02 -3.3999344119e-09 -2.8871800829e-02]
 [-8.2167891864e-11 -9.8313528812e-17  2.0415462736e-02 -2.0415429566e-02 -1.1781858582e-02  9.9951368521e-01 -2.8130720150e-23 -5.7575524845e-16]
 [-4.1601355101e-09  0.0000000000e+00  2.2049847861e-02  2.2049881725e-02  3.3999344119e-09 -5.2939559203e-23  9.9951368521e-01 -2.6469779602e-23]
 [ 2.0135033561e-10  6.2520037436e-17  8.3310362699e-03 -8.3310279270e-03  2.8871800829e-02 -6.1062266354e-16 -2.6469779602e-23  9.9951368521e-01]]
N(g) (NO)
 [[ 0.9995136852 -0.0311832178]
 [ 0.0311832178  0.9995136852]]
P(g) (NO)
 [[ 1.0000000000e+00  3.5054439631e-19  1.8914521076e-18  1.8577244293e-18  1.4143182257e-17  3.6883644057e-34 -5.7397185099e-42 -3.8518598888e-34]
 [ 3.8708696064e-18  1.0000000000e+00  1.5620915829e-35  2.2006861846e-36  1.0498525288e-34 -8.7247643353e-17  1.4989483882e-24  5.8532323196e-17]
 [ 9.1730397565e-11  2.9402284385e-09  1.7350365381e-28  1.7040980046e-28  1.2973597313e-27 -2.5652800218e-25  4.4072506787e-33  1.7209840123e-25]
 [ 9.1730470610e-11  2.9402305092e-09  1.7350379197e-28  1.7040993616e-28  1.2973607644e-27 -2.5652818284e-25  4.4072537826e-33  1.7209852243e-25]
 [-6.7813990158e-12 -2.1736452785e-10 -1.2826691461e-29 -1.2597970616e-29 -9.5910562238e-29  1.8964542804e-26 -3.2581820867e-34 -1.2722850796e-26]
 [-8.2127938656e-11  2.5620706839e-12 -1.5534106267e-28 -1.5257107797e-28 -1.1615504048e-27 -2.2353462927e-28  3.8404117220e-36  1.4996394932e-28]
 [-4.1581123744e-09  1.2972641184e-10 -7.8648704143e-27 -7.7246269376e-27 -5.8808941157e-26 -1.1318323714e-26  1.9445319593e-34  7.5931882648e-27]
 [ 2.0125242001e-10 -6.2786321724e-12  3.8065931400e-28  3.7387153711e-28  2.8463496559e-27  5.4779586052e-28 -9.4113455747e-36 -3.6750292754e-28]]
time for NO, Ng: 0.014
Pg_ortho
 [[ 9.7533111768e-01  3.4436915048e-09 -1.5511392126e-01  6.5876815852e-08  2.5943659394e-16 -9.1601865457e-25 -4.1260067145e-17 -1.7523132607e-23]
 [ 3.4369942641e-09  1.2135312546e-17 -5.4660991328e-10  2.3214499581e-16 -2.1466654726e-10  7.5794458651e-19  3.4139964680e-11  1.4499228181e-17]
 [-1.5511392126e-01 -5.4767502362e-10  2.4668882323e-02 -1.0476863746e-08 -1.1970541693e-16  4.2265585334e-25  1.9037613256e-17  8.0852660865e-24]
 [ 6.5748699526e-08  2.3214499558e-16 -1.0456488485e-08  4.4408661763e-15 -4.1065041475e-09  1.4499243723e-17  6.5308688448e-10  2.7736571636e-16]
 [-2.7978572035e-16 -9.8786523962e-25  4.4496335049e-17 -1.8897574417e-23  9.7533111768e-01 -3.4436988442e-09 -1.5511392126e-01 -6.5876815030e-08]
 [-2.1466654683e-10 -7.5794296958e-19  3.4139964611e-11 -1.4499228332e-17 -3.4370016870e-09  1.2135364619e-17  5.4661109379e-10  2.3214549427e-16]
 [-3.4790158425e-17 -1.2283682008e-25  5.5329290707e-18 -2.3498326040e-24 -1.5511392126e-01  5.4767619086e-10  2.4668882323e-02  1.0476863615e-08]
 [-4.1065041472e-09 -1.4499212821e-17  6.5308688444e-10 -2.7736571981e-16 -6.5748698711e-08  2.3214548747e-16  1.0456488356e-08  4.4408660658e-15]]
G(g) (NO)
 [[ 4.3098893069e-01 -2.9671122402e-17 -5.1270063131e-02  5.1270037213e-02  2.1180494522e-09  5.7005893898e-11  1.6775604009e-10 -1.3969450959e-10]
 [ 3.9288345575e-17  4.3098893069e-01 -1.1862140961e-10 -1.1862148069e-10  1.5087817072e-10  6.7132324838e-02 -2.0371417950e-08  2.7395018729e-02]
 [-5.1270063163e-02 -1.1300196605e-09  7.7700491538e-01 -5.5521558088e-02 -9.2420271828e-02 -4.1566334323e-10 -1.0016233386e-10  4.1290734086e-10]
 [ 5.1270037181e-02 -1.1300205222e-09 -5.5521558083e-02  7.7700486356e-01 -9.2420362263e-02 -8.1018821524e-12  1.0016246643e-10 -5.8583491082e-10]
 [ 2.1266975207e-09  4.2807669332e-10 -9.2420271819e-02 -9.2420362273e-02  7.4436605234e-01  2.9288108728e-10 -1.2578220038e-16  1.1951748040e-10]
 [ 1.6173961083e-10  6.7132324835e-02 -1.7724976783e-10 -8.2263866001e-12  7.0621739093e-10  8.1994132597e-01  4.9382723439e-02  3.0840292627e-02]
 [ 1.5980896921e-09 -2.0416041986e-08 -2.2884545904e-10  2.2884533831e-10 -2.4285753572e-16  4.9382723434e-02  7.2148330289e-01 -1.2101394953e-01]
 [-3.9634593808e-10  2.7395018737e-02  1.6925421616e-10 -2.4494218648e-10  2.8818950001e-10  3.0840292613e-02 -1.2101394952e-01  7.5695120242e-01]]
time for Gg: 0.022
C(NO)
[[-1.0000000000e+00  0.0000000000e+00 -6.3184908211e-17 -1.8760640012e-16 -1.3289981955e-17  0.0000000000e+00  0.0000000000e+00  0.0000000000e+00]
 [ 0.0000000000e+00 -1.0000000000e+00  0.0000000000e+00  0.0000000000e+00  0.0000000000e+00 -6.7089041506e-19 -8.8752512030e-17 -4.5787954151e-18]
 [ 1.7491107439e-17  0.0000000000e+00 -1.6577764451e-01 -7.0710709711e-01  6.8739895679e-01  0.0000000000e+00  0.0000000000e+00  0.0000000000e+00]
 [-2.1240296076e-17  0.0000000000e+00 -1.6577773739e-01  7.0710646526e-01  6.8739958436e-01  0.0000000000e+00  0.0000000000e+00  0.0000000000e+00]
 [-1.4143182460e-17  0.0000000000e+00 -9.7212937121e-01  4.0194417857e-08 -2.3444505888e-01  0.0000000000e+00  0.0000000000e+00  0.0000000000e+00]
 [ 0.0000000000e+00  1.1025061954e-16  0.0000000000e+00  0.0000000000e+00  0.0000000000e+00 -3.6729651237e-01 -9.2587625246e-01  8.8580116995e-02]
 [ 0.0000000000e+00 -1.4989483882e-24  0.0000000000e+00  0.0000000000e+00  0.0000000000e+00  2.3444516487e-01  4.7498073562e-07  9.7212934565e-01]
 [ 0.0000000000e+00 -4.4757925049e-17  0.0000000000e+00  0.0000000000e+00  0.0000000000e+00  9.0007151753e-01 -3.7782689836e-01 -2.1706703620e-01]]
detC 0.9999999999999999
detNg [1. 1. 1. 1. 1. 1. 1. 1.]
xg [1. 1. 1. 1. 1. 1. 1. 1.]
ciS 1.9999999999999765
[[-8.0169115504e-01  0.0000000000e+00  5.1270007964e-02 -5.1270082115e-02  1.2031858224e-08  0.0000000000e+00  0.0000000000e+00  0.0000000000e+00]
 [ 0.0000000000e+00 -8.0169115504e-01  0.0000000000e+00  0.0000000000e+00  0.0000000000e+00 -6.7132323464e-02 -5.0388265014e-08 -2.7395002885e-02]
 [ 5.1270007964e-02  0.0000000000e+00  3.4379812131e-01  3.2284625762e-02 -1.3911996310e-01  0.0000000000e+00  0.0000000000e+00  0.0000000000e+00]
 [-5.1270082115e-02  0.0000000000e+00  3.2284625762e-02  3.4379816802e-01 -1.3912003556e-01  0.0000000000e+00  0.0000000000e+00  0.0000000000e+00]
 [ 1.2031858219e-08  0.0000000000e+00 -1.3911996310e-01 -1.3912003556e-01 -6.5893552080e-01  0.0000000000e+00  0.0000000000e+00  0.0000000000e+00]
 [ 0.0000000000e+00 -6.7132323464e-02  0.0000000000e+00  0.0000000000e+00  0.0000000000e+00  1.7297892004e-01  7.4335759041e-02  3.3948332420e-01]
 [ 0.0000000000e+00 -5.0388265067e-08  0.0000000000e+00  0.0000000000e+00  0.0000000000e+00  7.4335759041e-02  3.7608272752e-01 -1.8216198220e-01]
 [ 0.0000000000e+00 -2.7395002885e-02  0.0000000000e+00  0.0000000000e+00  0.0000000000e+00  3.3948332420e-01 -1.8216198220e-01 -5.2040087903e-01]]
ciH -2.344786758794756
1.0 2.1107070438342398e-18 -5.544871610975181e-16j 1.0408343776166918e-16
0.9999999999999911 1.5373091190882829e-31 -1.5372955499726586e-31 8.906002919298515e-15
1.0 -6.7323016139203994e-18 -2.789007629074528e-15j 1.1275705447637732e-16
0.9999999999999916 3.889244390374861e-30 -3.8893644885461386e-30 8.472061592467161e-15
0.9999999999999999 -7.128198778402748e-18 -6.050711128258905e-15j 1.5612513831169894e-16
0.9999999999999933 1.8305602901887465e-29 -1.830555306697477e-29 6.557685235807207e-15
0.9999999999999999 -5.156817528525753e-18 -8.553345222672283e-15j 1.890848767012284e-16
0.9999999999999974 3.657988154758401e-29 -3.6579859543390375e-29 2.5357318145569256e-15
1.0 7.228678721659346e-18 -8.568389239856602e-15j 1.3183899393664012e-16
1.0000000000000029 3.67086161068379e-29 -3.670873031264427e-29 -2.535731816490445e-15
1.0 1.1446647618518246e-17 -6.083651458067117e-15j 1.7000290381054049e-16
1.0000000000000067 1.8505028084567118e-29 -1.8505918004404413e-29 -6.557685235620962e-15
1.0000000000000002 8.4166160275148e-18 -2.8243382901809102e-15j 2.116362641820405e-16
1.0000000000000087 3.9882617998994776e-30 -3.988695816907066e-30 -8.472061592183959e-15
1.0 8.10486973636508e-20 -5.567164322172246e-16j 5.551115043216823e-17
1.0000000000000087 1.5496648948794013e-31 -1.5496670298171638e-31 -8.906002919640895e-15
S2 = -0.000000
X(g)
[[ 2.0000000000e+00 -3.4694469520e-18  9.1730398763e-11  9.1730461780e-11 -6.7813990162e-12  8.2127939388e-11  4.1581123746e-09 -2.0125242049e-10]
 [ 3.4694469520e-18  2.0000000000e+00 -2.9402284386e-09 -2.9402305095e-09  2.1736452787e-10  2.5620752983e-12  1.2972641185e-10 -6.2786272429e-12]
 [ 9.1730397565e-11  2.9402284385e-09  0.0000000000e+00  0.0000000000e+00  0.0000000000e+00  0.0000000000e+00  0.0000000000e+00  0.0000000000e+00]
 [ 9.1730470610e-11  2.9402305092e-09  0.0000000000e+00  0.0000000000e+00  0.0000000000e+00  0.0000000000e+00  0.0000000000e+00  0.0000000000e+00]
 [-6.7813990158e-12 -2.1736452785e-10  0.0000000000e+00  0.0000000000e+00  0.0000000000e+00  0.0000000000e+00  0.0000000000e+00  0.0000000000e+00]
 [-8.2127938656e-11  2.5620706839e-12  0.0000000000e+00  0.0000000000e+00  0.0000000000e+00  0.0000000000e+00  0.0000000000e+00  0.0000000000e+00]
 [-4.1581123744e-09  1.2972641184e-10  0.0000000000e+00  0.0000000000e+00  0.0000000000e+00  0.0000000000e+00  0.0000000000e+00  0.0000000000e+00]
 [ 2.0125242001e-10 -6.2786321724e-12  0.0000000000e+00  0.0000000000e+00  0.0000000000e+00  0.0000000000e+00  0.0000000000e+00  0.0000000000e+00]]
X(g) int
[[ 2.0000000000e+00  6.4178012070e-18  4.7167342163e-08  4.7167375388e-08 -3.4869763360e-09  1.0347635829e-09  5.2389763073e-08 -2.5356617815e-09]
 [ 1.2133436902e-17  2.0000000000e+00 -3.7045143903e-08 -3.7045169983e-08  2.7386648290e-09  1.3175017310e-09  6.6704718089e-08 -3.2285047248e-09]
 [ 4.7167342166e-08  3.7045143909e-08  0.0000000000e+00  0.0000000000e+00  0.0000000000e+00  0.0000000000e+00  0.0000000000e+00  0.0000000000e+00]
 [ 4.7167375394e-08  3.7045169984e-08  0.0000000000e+00  0.0000000000e+00  0.0000000000e+00  0.0000000000e+00  0.0000000000e+00  0.0000000000e+00]
 [-3.4869763358e-09 -2.7386648288e-09  0.0000000000e+00  0.0000000000e+00  0.0000000000e+00  0.0000000000e+00  0.0000000000e+00  0.0000000000e+00]
 [-1.0347635870e-09  1.3175017251e-09  0.0000000000e+00  0.0000000000e+00  0.0000000000e+00  0.0000000000e+00  0.0000000000e+00  0.0000000000e+00]
 [-5.2389763070e-08  6.6704718086e-08  0.0000000000e+00  0.0000000000e+00  0.0000000000e+00  0.0000000000e+00  0.0000000000e+00  0.0000000000e+00]
 [ 2.5356617793e-09 -3.2285047247e-09  0.0000000000e+00  0.0000000000e+00  0.0000000000e+00  0.0000000000e+00  0.0000000000e+00  0.0000000000e+00]]
Feff
 [[ 3.3231606954e-18  8.4661767671e-18 -3.2298202106e-09  7.0356835361e-09 -2.4203993588e-09  4.9157757958e-09  5.7684038824e-08 -1.2046194810e-08]
 [-4.3349461068e-18 -3.6601837885e-17 -4.0788761561e-08 -4.0788790482e-08  1.3010591740e-08  7.6352483285e-09  2.6911502724e-09  5.0158516233e-10]
 [-3.2298202445e-09  4.0788740892e-08  0.0000000000e+00  0.0000000000e+00  0.0000000000e+00  0.0000000000e+00  0.0000000000e+00  0.0000000000e+00]
 [ 7.0356836545e-09  4.0788769796e-08  0.0000000000e+00  0.0000000000e+00  0.0000000000e+00  0.0000000000e+00  0.0000000000e+00  0.0000000000e+00]
 [-2.4203993623e-09 -1.3010575639e-08  0.0000000000e+00  0.0000000000e+00  0.0000000000e+00  0.0000000000e+00  0.0000000000e+00  0.0000000000e+00]
 [-4.9157697285e-09  7.6352483580e-09  0.0000000000e+00  0.0000000000e+00  0.0000000000e+00  0.0000000000e+00  0.0000000000e+00  0.0000000000e+00]
 [-5.7684009577e-08  2.6911501873e-09  0.0000000000e+00  0.0000000000e+00  0.0000000000e+00  0.0000000000e+00  0.0000000000e+00  0.0000000000e+00]
 [ 1.2046179895e-08  5.0158517280e-10  0.0000000000e+00  0.0000000000e+00  0.0000000000e+00  0.0000000000e+00  0.0000000000e+00  0.0000000000e+00]]
Feff (ortho)
 [[ 2.2518841929e-09 -2.3903587065e-09  6.9006729806e-09 -2.6577533372e-09 -3.3636265045e-19  7.9511773701e-15 -8.8966987121e-18  1.4441971596e-14]
 [-2.3903587065e-09 -1.6879719722e-17  3.8015595982e-10 -1.7083603752e-16  7.9506564911e-15  1.7798735804e-27 -1.2644500750e-15 -4.8601979748e-22]
 [ 6.9006729806e-09  3.8015595982e-10 -2.2518838136e-09  4.2268211542e-10 -6.1530570441e-18 -1.2645329138e-15  2.4019784225e-18 -2.2968105950e-15]
 [-2.6577533372e-09 -1.7083603752e-16  4.2268211542e-10 -3.5902542023e-16  1.4439507961e-14  4.8606357689e-22 -2.2964187868e-15  1.6641336340e-25]
 [-3.3636265045e-19  7.9506564911e-15 -6.1530570441e-18  1.4439507961e-14  2.2518841995e-09  2.3903552092e-09  6.9006731263e-09  2.6577522536e-09]
 [ 7.9511773701e-15  1.7798735804e-27 -1.2645329138e-15  4.8606357689e-22  2.3903552092e-09 -1.6879730647e-17 -3.8015540362e-10 -1.7083581526e-16]
 [-8.8966987121e-18 -1.2644500750e-15  2.4019784225e-18 -2.2964187868e-15  6.9006731263e-09 -3.8015540362e-10 -2.2518838602e-09 -4.2268194309e-10]
 [ 1.4441971596e-14 -4.8601979748e-22 -2.2968105950e-15  1.6641336340e-25  2.6577522536e-09 -1.7083581526e-16 -4.2268194309e-10 -3.5902526935e-16]]
Hsp + Hph =  -1.1723933793973917
Feff (mod,ortho)
[[-5.5378243147e-01 -2.0660002120e-08  2.0381557843e-01 -9.0079818583e-08  0.0000000000e+00  0.0000000000e+00  0.0000000000e+00  0.0000000000e+00]
 [-2.0660002120e-08 -2.8675251616e-01  3.4638033022e-09  2.6209638070e-01  0.0000000000e+00  0.0000000000e+00  0.0000000000e+00  0.0000000000e+00]
 [ 2.0381557843e-01  3.4638033022e-09  6.9536248445e-01  1.8432277548e-08  0.0000000000e+00  0.0000000000e+00  0.0000000000e+00  0.0000000000e+00]
 [-9.0079818583e-08  2.6209638070e-01  1.8432277548e-08  7.3682445766e-01  0.0000000000e+00  0.0000000000e+00  0.0000000000e+00  0.0000000000e+00]
 [ 0.0000000000e+00  0.0000000000e+00  0.0000000000e+00  0.0000000000e+00 -5.5378243147e-01  2.0660000470e-08  2.0381557843e-01  9.0079817855e-08]
 [ 0.0000000000e+00  0.0000000000e+00  0.0000000000e+00  0.0000000000e+00  2.0660000470e-08 -2.8675251616e-01 -3.4638037340e-09  2.6209638070e-01]
 [ 0.0000000000e+00  0.0000000000e+00  0.0000000000e+00  0.0000000000e+00  2.0381557843e-01 -3.4638037340e-09  6.9536248445e-01 -1.8432280353e-08]
 [ 0.0000000000e+00  0.0000000000e+00  0.0000000000e+00  0.0000000000e+00  9.0079817855e-08  2.6209638070e-01 -1.8432280353e-08  7.3682445766e-01]]
F(mod,ortho) updated with CDIIS
[[[-5.5378242615e-01  2.6972867629e-11  2.0381557743e-01 -6.6596358020e-10]
  [ 2.6972867629e-11 -2.8675251658e-01 -1.0563731732e-10  2.6209637999e-01]
  [ 2.0381557743e-01 -1.0563731732e-10  6.9536248335e-01 -4.0143335426e-11]
  [-6.6596358020e-10  2.6209637999e-01 -4.0143335426e-11  7.3682445141e-01]]

 [[-5.5378242615e-01 -2.6980459040e-11  2.0381557743e-01  6.6596044795e-10]
  [-2.6980459040e-11 -2.8675251658e-01  1.0563344819e-10  2.6209637999e-01]
  [ 2.0381557743e-01  1.0563344819e-10  6.9536248335e-01  4.0135513412e-11]
  [ 6.6596044795e-10  2.6209637999e-01  4.0135513412e-11  7.3682445141e-01]]]
Alpha occ 1 vir 3; Beta occ 1 vir 3
Alpha energies:  [-0.5861966842] <- HOMO
         LUMO->  [-0.3499613932  0.7277767414  0.8000333281]
Beta energies:   [-0.5861966842] <- HOMO
         LUMO->  [-0.3499613932  0.7277767414  0.8000333281]
e_a, e_b
 [-0.5861966842 -0.3499613932  0.7277767414  0.8000333281] 
 [-0.5861966842 -0.3499613932  0.7277767414  0.8000333281]
v_a, v_b
 [[ 9.8758853575e-01 -8.2337155462e-10 -1.5706331223e-01 -7.9972469555e-10]
 [-6.9599425950e-10 -9.7212936749e-01 -4.7384589982e-10  2.3444507430e-01]
 [-1.5706331223e-01  7.1302625603e-11 -9.8758853575e-01 -2.1666685537e-09]
 [ 6.3023220819e-10  2.3444507430e-01 -2.2160564370e-09  9.7212936749e-01]] 
 [[ 9.8758853575e-01 -8.2339721985e-10  1.5706331223e-01  7.9970231702e-10]
 [ 6.9602054662e-10  9.7212936749e-01 -4.7381890250e-10  2.3444507430e-01]
 [-1.5706331223e-01  7.1309360587e-11  9.8758853575e-01  2.1665435192e-09]
 [-6.3023600310e-10 -2.3444507430e-01 -2.2159323753e-09  9.7212936749e-01]]
P_a, P_b
 [[ 9.7533111595e-01 -6.8735595163e-10 -1.5511392655e-01  6.2241010367e-10]
 [-6.8735595163e-10  4.8440800926e-19  1.0931516369e-10 -4.3863799905e-19]
 [-1.5511392655e-01  1.0931516369e-10  2.4668884049e-02 -9.8986358092e-11]
 [ 6.2241010367e-10 -4.3863799905e-19 -9.8986358092e-11  3.9719263624e-19]] 
 [[ 9.7533111595e-01  6.8738191249e-10 -1.5511392655e-01 -6.2241385148e-10]
 [ 6.8738191249e-10  4.8444460131e-19 -1.0931929243e-10 -4.3865720738e-19]
 [-1.5511392655e-01 -1.0931929243e-10  2.4668884049e-02  9.8986954134e-11]
 [-6.2241385148e-10 -4.3865720738e-19  9.8986954134e-11  3.9719741961e-19]]
time for xg, H, S2, Yg, Feff: 0.025

***************
SUHF converged at cycle 23
Final E(SUHF) =     -0.90780477, delta E = 3.01981e-14, MaxD(dm) = 6.52544e-08, RMSD(dm) = 2.34901e-08
dm_reg
 [[[0.0368703461 0.0968890837 0.0368703462 0.0968890834]
  [0.0968890837 0.2546082568 0.096889084  0.2546082559]
  [0.0368703462 0.096889084  0.0368703463 0.0968890836]
  [0.0968890834 0.2546082559 0.0968890836 0.254608255 ]]

 [[0.0368703463 0.0968890836 0.0368703462 0.096889084 ]
  [0.0968890836 0.254608255  0.0968890834 0.2546082559]
  [0.0368703462 0.0968890834 0.0368703461 0.0968890837]
  [0.096889084  0.2546082559 0.0968890837 0.2546082568]]]
mo_reg
 [[-0.1920165256 -0.2516496964  0.8975175726  0.9191521735]
 [-0.5045872143 -0.6013789012 -0.6403733483 -0.938093758 ]
 [-0.192016526   0.2516496968  0.8975175767 -0.9191521692]
 [-0.5045872125  0.6013789019 -0.6403733526  0.9380937555]] 
 [[-0.192016526   0.2516496968 -0.8975175767  0.9191521692]
 [-0.5045872125  0.6013789019  0.6403733526 -0.9380937555]
 [-0.1920165256 -0.2516496964 -0.8975175726 -0.9191521735]
 [-0.5045872143 -0.6013789012  0.6403733483  0.938093758 ]]
time for cyc: 1.537
******* suhf density *****
time for Ngg: 0.002
time for Pgg: 0.004
time for xgg: 0.000
Clebsch-Gordan coeff: < 0 0 0 0 | 0 0 > = 1
Clebsch-Gordan coeff: < 0 0 1 0 | 0 0 > = 0
xggint 0.9999999999999998
SUHF DM alpha
 [[0.0368703481 0.0968890855 0.0368703481 0.0968890855]
 [0.0968890855 0.2546082523 0.0968890855 0.2546082523]
 [0.0368703481 0.0968890855 0.0368703481 0.0968890855]
 [0.0968890855 0.2546082523 0.0968890855 0.2546082523]] 
SUHF DM beta
 [[0.0368703481 0.0968890855 0.0368703481 0.0968890855]
 [0.0968890855 0.2546082523 0.0968890855 0.2546082523]
 [0.0368703481 0.0968890855 0.0368703481 0.0968890855]
 [0.0968890855 0.2546082523 0.0968890855 0.2546082523]]
time for dm: 0.025
SUHF natural orbitals alpha
 [[-0.1920165308  1.151632156  -0.1560666331  0.602571707 ]
 [-0.5045872098 -0.8372453333 -0.6711750852 -0.7073180106]
 [-0.1920165308 -0.6856478924 -0.4313298278  1.0283713464]
 [-0.5045872098  0.5047683832  1.0902789027 -0.4563499807]]
SUHF natural orbitals beta
 [[-0.1920165308  1.151632156  -0.1560666331  0.602571707 ]
 [-0.5045872098 -0.8372453333 -0.6711750852 -0.7073180106]
 [-0.1920165308 -0.6856478924 -0.4313298278  1.0283713464]
 [-0.5045872098  0.5047683832  1.0902789027 -0.4563499807]]
SUHF natural orbitals, total
 [[-0.1920165308  1.151632156  -0.1560666331  0.602571707 ]
 [-0.5045872098 -0.8372453333 -0.6711750852 -0.7073180106]
 [-0.1920165308 -0.6856478924 -0.4313298278  1.0283713464]
 [-0.5045872098  0.5047683832  1.0902789027 -0.4563499807]]
SUHF NO occ alpha:  1.000000  ...
SUHF NO occ beta:   1.000000  ...
SUHF NO occ total:  2.000000  ...
core 1, active 0, external 3
time for natorb: 0.002
time tot: 1.692
