#INFO: **** input file is /share/home/srwang/ExSCF/test/vhfopt/test.py ****
from pyphf import util, guess

xyz = 'H 0.0 0.0 0.0; H 0.0 0.0 2.0'''
bas = '3-21g'
mf = guess.mix(xyz, bas, conv='tight')

mf2 = util.SUHF(mf)
mf2.verbose = 8
mf2.kernel()

#INFO: ******************** input file end ********************


System: uname_result(system='Linux', node='xn01', release='3.10.0-1127.el7.x86_64', version='#1 SMP Tue Feb 18 16:39:12 EST 2020', machine='x86_64', processor='x86_64')  Threads 32
Python 3.7.4 (default, Aug 13 2019, 20:35:49) 
[GCC 7.3.0]
numpy 1.17.2  scipy 1.4.1
Date: Fri Apr 16 17:14:52 2021
PySCF version 1.7.6a1
PySCF path  /share/home/srwang/pyscf/pyscf
GIT HEAD      ref: refs/heads/master
GIT master branch  80f71dfe77ac5f9caae26788acf76446987635bd

[CONFIG] conf_file None
[INPUT] verbose = 4
[INPUT] num. atoms = 2
[INPUT] num. electrons = 2
[INPUT] charge = 0
[INPUT] spin (= nelec alpha-beta = 2S) = 0
[INPUT] symmetry False subgroup None
[INPUT] Mole.unit = angstrom
[INPUT]  1 H      0.000000000000   0.000000000000   0.000000000000 AA    0.000000000000   0.000000000000   0.000000000000 Bohr
[INPUT]  2 H      0.000000000000   0.000000000000   2.000000000000 AA    0.000000000000   0.000000000000   3.779452249130 Bohr

nuclear repulsion = 0.26458860546
number of shells = 4
number of NR pGTOs = 6
number of NR cGTOs = 4
basis = 3-21g
ecp = {}
CPU time:         1.08


******** <class 'pyscf.scf.hf.RHF'> ********
method = RHF
initial guess = minao
damping factor = 0
level_shift factor = 0
DIIS = <class 'pyscf.scf.diis.CDIIS'>
diis_start_cycle = 1
diis_space = 8
SCF conv_tol = 1e-05
SCF conv_tol_grad = None
SCF max_cycles = 50
direct_scf = True
direct_scf_tol = 1e-13
chkfile to save SCF result = /share/home/srwang/ExSCF/test/vhfopt/tmpvhnafib2
max_memory 4000 MB (current use 107 MB)
Set gradient conv threshold to 0.00316228
init E= -0.648815945420394
  HOMO = -0.244674774926751  LUMO = -0.0864459286574333
cycle= 1 E= -0.907663399996247  delta_E= -0.259  |g|= 0.019  |ddm|= 0.828
  HOMO = -0.369605169894073  LUMO = -0.0101025752244096
cycle= 2 E= -0.907801422494246  delta_E= -0.000138  |g|= 0.00293  |ddm|= 0.0218
  HOMO = -0.370705495656876  LUMO = -0.0112684200431641
cycle= 3 E= -0.907804773936949  delta_E= -3.35e-06  |g|= 1.06e-06  |ddm|= 0.00397
  HOMO = -0.370702164933128  LUMO = -0.011267278240244
Extra cycle  E= -0.907804773937382  delta_E= -4.33e-13  |g|= 1.64e-07  |ddm|= 1.22e-06
converged SCF energy = -0.907804773937382


******** <class 'pyscf.scf.uhf.UHF'> ********
method = UHF
initial guess = minao
damping factor = 0
level_shift factor = 0
DIIS = <class 'pyscf.scf.diis.CDIIS'>
diis_start_cycle = 1
diis_space = 8
SCF conv_tol = 1e-09
SCF conv_tol_grad = None
SCF max_cycles = 50
direct_scf = True
direct_scf_tol = 1e-13
chkfile to save SCF result = /share/home/srwang/ExSCF/test/vhfopt/tmpyv7pka0k
max_memory 4000 MB (current use 146 MB)
number electrons alpha = 1  beta = 1
Set gradient conv threshold to 3.16228e-05
init E= -1.69135654891561
  alpha nocc = 1  HOMO = -0.24136263647573  LUMO = 0.900983838942928
  beta  nocc = 1  HOMO = -0.24136263647573  LUMO = 0.900983838942928
cycle= 1 E= -0.985589254636279  delta_E= 0.706  |g|= 0.0835  |ddm|= 1.15
  alpha nocc = 1  HOMO = -0.500699367107886  LUMO = 0.115721881429081
  beta  nocc = 1  HOMO = -0.500699367107887  LUMO = 0.115721881429081
cycle= 2 E= -0.995568238270465  delta_E= -0.00998  |g|= 0.0263  |ddm|= 0.145
  alpha nocc = 1  HOMO = -0.497083605541942  LUMO = 0.125003394565144
  beta  nocc = 1  HOMO = -0.497083605541942  LUMO = 0.125003394565144
cycle= 3 E= -0.996982488678898  delta_E= -0.00141  |g|= 0.00453  |ddm|= 0.0714
  alpha nocc = 1  HOMO = -0.492766860752049  LUMO = 0.118670910813591
  beta  nocc = 1  HOMO = -0.492766860752048  LUMO = 0.118670910813591
cycle= 4 E= -0.997011162805864  delta_E= -2.87e-05  |g|= 0.000416  |ddm|= 0.00998
  alpha nocc = 1  HOMO = -0.494395497533041  LUMO = 0.120246563561694
  beta  nocc = 1  HOMO = -0.49439549753304  LUMO = 0.120246563561694
cycle= 5 E= -0.997011453176457  delta_E= -2.9e-07  |g|= 3.04e-05  |ddm|= 0.00094
  alpha nocc = 1  HOMO = -0.494331180495959  LUMO = 0.120178766572745
  beta  nocc = 1  HOMO = -0.494331180495959  LUMO = 0.120178766572745
cycle= 6 E= -0.997011455175521  delta_E= -2e-09  |g|= 5.7e-07  |ddm|= 7.89e-05
  alpha nocc = 1  HOMO = -0.494330560129535  LUMO = 0.12017816088352
  beta  nocc = 1  HOMO = -0.494330560129534  LUMO = 0.12017816088352
cycle= 7 E= -0.997011455176148  delta_E= -6.27e-13  |g|= 2.53e-07  |ddm|= 8.43e-07
  alpha nocc = 1  HOMO = -0.494330110948441  LUMO = 0.12017775506829
  beta  nocc = 1  HOMO = -0.494330110948441  LUMO = 0.12017775506829
Extra cycle  E= -0.997011455176267  delta_E= -1.19e-13  |g|= 1.16e-07  |ddm|= 3.54e-07
converged SCF energy = -0.997011455176267  <S^2> = 0.91048301  2S+1 = 2.1545143
checking UHF/UKS internal stability ...
UHF/UKS wavefunction is stable in the internal stability analysis
time for guess: 0.126

******** <class 'pyphf.util.SUHF'> ********
max_cycle = 70
verbose: 8, debug2
conv_tol: 1e-07
DIIS: <class 'pyscf.scf.diis.CDIIS'>
diis_start_cyc = 10
S
[[1.         0.64589894 0.00227256 0.07465634]
 [0.64589894 1.         0.07465634 0.27025724]
 [0.00227256 0.07465634 1.         0.64589894]
 [0.07465634 0.27025724 0.64589894 1.        ]]
SVD: S^(-1/2)
[[-0.3306004   0.46012676 -0.85621932  0.83453679]
 [-0.39774539  0.36468663  0.71167752 -1.05293881]
 [-0.3306004  -0.46012676 -0.85621932 -0.83453679]
 [-0.39774539 -0.36468663  0.71167752  1.05293881]]
S^(1/2)
[[-0.61794925 -0.74345483 -0.61794925 -0.74345483]
 [ 0.66740563  0.52897143 -0.66740563 -0.52897143]
 [-0.34536213  0.28706017 -0.34536213  0.28706017]
 [ 0.23115675 -0.29165151 -0.23115675  0.29165151]]
C (ortho)
 [[-0.80171109 -0.57009486 -0.09238995 -0.15399766]
 [-0.58103419  0.75902561 -0.10126721  0.27572512]
 [ 0.08280271  0.16885271 -0.79177919 -0.58113526]
 [ 0.11314731 -0.26525597 -0.59522665  0.75002813]] 
 [[-0.80171109 -0.57009486 -0.09238995 -0.15399766]
 [ 0.58103419 -0.75902561  0.10126721 -0.27572512]
 [ 0.08280271  0.16885271 -0.79177919 -0.58113526]
 [-0.11314731  0.26525597  0.59522665 -0.75002813]]
density matrix (ortho)
[[[ 0.64274066  0.46582155 -0.06638385 -0.09071146]
  [ 0.46582155  0.33760073 -0.04811121 -0.06574246]
  [-0.06638385 -0.04811121  0.00685629  0.0093689 ]
  [-0.09071146 -0.06574246  0.0093689   0.01280231]]

 [[ 0.64274066 -0.46582155 -0.06638385  0.09071146]
  [-0.46582155  0.33760073  0.04811121 -0.06574246]
  [-0.06638385  0.04811121  0.00685629 -0.0093689 ]
  [ 0.09071146 -0.06574246 -0.0093689   0.01280231]]]
grids:  [0.06237655 0.31939555 0.74529195 1.28265786 1.85893479 2.39630071
 2.8221971  3.07921611] 
weights:  [0.15900941 0.34931531 0.49276925 0.56970235 0.56970235 0.49276925
 0.34931531 0.15900941]
S = 0.0, Sz = 0.0
Wigner small d:  1
value : [1. 1. 1. 1. 1. 1. 1. 1.]
<pyscf.scf._vhf.VHFOpt object at 0x2b93873f79d0>
time for Preparation before cyc: 2.467
**** Start Cycle 1 ****
dm (ortho)
[[[ 0.6427406647  0.4658215524 -0.0663838507 -0.0907114563]
  [ 0.4658215524  0.3376007317 -0.0481112058 -0.0657424584]
  [-0.0663838507 -0.0481112058  0.0068562888  0.0093689043]
  [-0.0907114563 -0.0657424584  0.0093689043  0.0128023148]]

 [[ 0.6427406647 -0.4658215524 -0.0663838507  0.0907114563]
  [-0.4658215524  0.3376007317  0.0481112058 -0.0657424584]
  [-0.0663838507  0.0481112058  0.0068562888 -0.0093689043]
  [ 0.0907114563 -0.0657424584 -0.0093689043  0.0128023148]]]
Fock (ortho)
 (array([[-0.2388873235, -0.326413236 ,  0.2163657457, -0.0245837681],
       [-0.326413236 ,  0.0110682141, -0.078060889 ,  0.339629591 ],
       [ 0.2163657457, -0.078060889 ,  1.1220172843, -0.0506526202],
       [-0.0245837681,  0.339629591 , -0.0506526202,  1.1126146476]]), array([[-0.2388873235,  0.326413236 ,  0.2163657457,  0.0245837681],
       [ 0.326413236 ,  0.0110682141,  0.078060889 ,  0.339629591 ],
       [ 0.2163657457,  0.078060889 ,  1.1220172843,  0.0506526202],
       [ 0.0245837681,  0.339629591 ,  0.0506526202,  1.1126146476]]))
E(UHF) =    -1.261600
NO eigenvalue
[-1.0000000000e+00 -5.8257040087e-17 -5.8727660631e-19  1.9815554288e-18] 
 [-1.0000000000e+00 -6.3791584335e-19  2.0622259559e-18  1.1582605948e-16]
NO vec
[[ 0.8017110856  0.            0.5836538764  0.0869414306  0.0951245266  0.            0.            0.          ]
 [ 0.5810341915  0.           -0.8110501628  0.064709782   0.0202372411  0.            0.            0.          ]
 [-0.0828027103  0.            0.0112922464  0.9639860032 -0.252482043   0.            0.            0.          ]
 [-0.1131473145  0.           -0.0376599428  0.2428679013  0.9627017173  0.            0.            0.          ]
 [ 0.            0.8017110856  0.            0.            0.            0.0551631093  0.1094090107 -0.5850179784]
 [ 0.           -0.5810341915  0.            0.            0.            0.0529473568 -0.0868373976 -0.8074992954]
 [ 0.           -0.0828027103  0.            0.            0.           -0.7441918626  0.660074406  -0.0601993466]
 [ 0.            0.1131473145  0.            0.            0.           -0.6635752259 -0.7380993926 -0.0455509775]]
dm(NO)
[[ 1.0000000000e+00  0.0000000000e+00 -1.4440913582e-16 -7.2327294003e-17 -6.5318939821e-17  0.0000000000e+00  0.0000000000e+00  0.0000000000e+00]
 [ 0.0000000000e+00  1.0000000000e+00  0.0000000000e+00  0.0000000000e+00  0.0000000000e+00 -1.1047894445e-18 -9.4079523373e-18  2.0421253247e-16]
 [-8.1565292715e-17  0.0000000000e+00 -1.1817560769e-17 -2.2162609812e-19  2.7383092186e-18  0.0000000000e+00  0.0000000000e+00  0.0000000000e+00]
 [-5.3574953341e-17  0.0000000000e+00 -4.4792305431e-19 -1.5833683122e-19 -4.4535630548e-22  0.0000000000e+00  0.0000000000e+00  0.0000000000e+00]
 [-6.6410336141e-17  0.0000000000e+00  1.0838405216e-17  7.3580928993e-19 -8.0989812547e-19  0.0000000000e+00  0.0000000000e+00  0.0000000000e+00]
 [ 0.0000000000e+00 -1.8272962590e-18  0.0000000000e+00  0.0000000000e+00  0.0000000000e+00 -1.7849228489e-18 -1.5164040518e-18  7.9517580476e-18]
 [ 0.0000000000e+00 -9.1998831379e-18  0.0000000000e+00  0.0000000000e+00  0.0000000000e+00 -6.0160920576e-19 -1.2580518115e-18  6.2970804986e-18]
 [ 0.0000000000e+00  9.9380574057e-17  0.0000000000e+00  0.0000000000e+00  0.0000000000e+00  3.1590289694e-18  4.0115620579e-18 -1.6496544307e-17]]
D(g) (NO)
 [[ 9.9951368521e-01  9.3298287801e-03  1.3293116415e-16 -3.1187167003e-17 -4.0963946925e-17  6.6012364678e-03  2.0617387532e-03 -2.8939942641e-02]
 [-9.3298287801e-03  9.9951368521e-01 -2.9124299367e-02  6.3107006231e-04 -6.0600583026e-03 -6.8962873526e-18 -2.6911015977e-17  2.1915520241e-17]
 [ 6.9989623431e-17  2.9124299367e-02  9.9951368521e-01  4.0410931394e-17 -3.7547700406e-17  1.8210398378e-04  5.2867086546e-03  9.8074365081e-03]
 [-2.9915282748e-17 -6.3107006231e-04  4.5110499573e-17  9.9951368521e-01 -4.7508194689e-16 -2.7139674082e-02  1.4373429806e-02 -5.3700495049e-03]
 [-5.9942438353e-17  6.0600583026e-03 -3.6047401523e-17 -4.5331172325e-16  9.9951368521e-01 -1.3864403367e-02 -2.7085005728e-02 -3.1383996097e-03]
 [-6.6012364678e-03 -4.6156515457e-19 -1.8210398378e-04  2.7139674082e-02  1.3864403367e-02  9.9951368521e-01  1.2822839766e-16 -3.5022419143e-17]
 [-2.0617387532e-03 -2.0816681712e-17 -5.2867086546e-03 -1.4373429806e-02  2.7085005728e-02  1.6653345369e-16  9.9951368521e-01  2.7755575616e-17]
 [ 2.8939942641e-02  5.5511151231e-17 -9.8074365081e-03  5.3700495049e-03  3.1383996097e-03 -3.8163916471e-17  2.7755575616e-17  9.9951368521e-01]]
N(g) (NO)
 [[ 1.0003993862 -0.0093380962]
 [ 0.0093380962  1.0003993862]]
P(g) (NO)
 [[ 1.0000000000e+00  3.1040521043e-18 -1.4440913582e-16 -7.2327294003e-17 -6.5318939821e-17 -3.5399620849e-36 -1.2037062152e-35  7.7037197775e-34]
 [-5.6150720791e-18  1.0000000000e+00  1.1003133225e-33  4.6002454526e-34  4.1972429710e-34 -1.1047894445e-18 -9.4079523373e-18  2.0421253247e-16]
 [ 2.7196551038e-04  2.9135931210e-02 -3.9274304329e-20 -1.9670529428e-20 -1.7764498806e-20 -3.2189069257e-20 -2.7410945212e-19  5.9499222982e-18]
 [-5.8929929755e-06 -6.3132210297e-04  8.5100202301e-22  4.2622423550e-22  3.8492405354e-22  6.9747799546e-22  5.9394482542e-21 -1.2892388545e-19]
 [ 5.6589407643e-05  6.0624786061e-03 -8.1720274546e-21 -4.0929587241e-21 -3.6963601124e-21 -6.6977623717e-21 -5.7035509772e-20  1.2380341092e-18]
 [-6.6038729104e-03  6.1642981433e-05  9.5365958008e-19  4.7764025755e-19  4.3135797722e-19 -6.8102515217e-23 -5.7993423125e-22  1.2588269348e-20]
 [-2.0625621831e-03  1.9252714897e-05  2.9785282245e-19  1.4917954142e-19  1.3472437512e-19 -2.1270196197e-23 -1.8112862411e-22  3.9316456660e-21]
 [ 2.8951500854e-02 -2.7024396954e-04 -4.1808612192e-18 -2.0939837141e-18 -1.8910813421e-18  2.9856268499e-22  2.5424423848e-21 -5.5187205404e-20]]
time for NO, Ng: 0.018
Pg_ortho
 [[ 6.4287182818e-01  4.6591661217e-01 -6.6397397639e-02 -9.0729967719e-02  1.4051671612e-02 -1.0183845280e-02 -1.4512915120e-03  1.9831444712e-03]
 [ 4.6564532526e-01  3.3747301236e-01 -4.8093004646e-02 -6.5717587048e-02 -1.8879387425e-02  1.3682696680e-02  1.9499099806e-03 -2.6644910175e-03]
 [-6.6397397639e-02 -4.8121023832e-02  6.8576879868e-03  9.3708162036e-03 -1.4512915120e-03  1.0518128107e-03  1.4989298860e-04 -2.0482408197e-04]
 [-9.0677138839e-02 -6.5717587048e-02  9.3653599058e-03  1.2797471469e-02  3.6764652018e-03 -2.6644910175e-03 -3.7971444884e-04  5.1886792119e-04]
 [-1.4051671612e-02 -1.0183845280e-02  1.4512915120e-03  1.9831444712e-03  6.4287182818e-01 -4.6591661217e-01 -6.6397397639e-02  9.0729967719e-02]
 [-1.8879387425e-02 -1.3682696680e-02  1.9499099806e-03  2.6644910175e-03 -4.6564532526e-01  3.3747301236e-01  4.8093004646e-02 -6.5717587048e-02]
 [ 1.4512915120e-03  1.0518128107e-03 -1.4989298860e-04 -2.0482408197e-04 -6.6397397639e-02  4.8121023832e-02  6.8576879868e-03 -9.3708162036e-03]
 [ 3.6764652018e-03  2.6644910175e-03 -3.7971444884e-04 -5.1886792119e-04  9.0677138839e-02 -6.5717587048e-02 -9.3653599058e-03  1.2797471469e-02]]
G(g) (NO)
 [[ 2.7295464423e-01 -1.5811381521e-03  5.1286379114e-02  9.3624562470e-03  1.5282356048e-02  1.0906515289e-04 -5.3489385375e-04 -4.7025012260e-04]
 [ 1.5811381521e-03  2.7295464423e-01 -4.8861960527e-04  4.8341636318e-04  2.1610488497e-04  9.6441647473e-03  1.4895113754e-02 -5.1348070544e-02]
 [ 5.1216008043e-02 -1.9295868814e-02  9.5368554007e-01  1.0021710935e-01 -1.4663664393e-01  1.2946359137e-03 -5.8136970741e-03 -2.0615443283e-03]
 [ 9.3672630819e-03 -2.6147901624e-03  1.0021601893e-01  7.9346401079e-01 -5.2673597779e-02  4.4165545841e-04 -2.3347772745e-03 -8.2837392277e-04]
 [ 1.5273768820e-02  5.5314206908e-04 -1.4663139369e-01 -5.2673682829e-02  7.5973663576e-01 -3.0257799943e-04  2.6586225227e-03  4.2703076530e-04]
 [-1.1049328503e-03  9.6314248723e-03  8.3375321037e-04 -2.9218584166e-03 -1.4605969038e-03  8.0421167984e-01 -3.1020550594e-02  1.7224896921e-01]
 [ 1.3451431636e-03  1.4896225677e-02 -4.0972380506e-04  3.2589878021e-04  4.1105028645e-05 -3.1020247883e-02  7.3439568658e-01  2.9004479821e-03]
 [-1.9402148342e-02 -5.1278174957e-02  2.3182182334e-03 -5.5914346313e-03 -2.2627320894e-03  1.7225393463e-01  2.9024515520e-03  9.6827882019e-01]]
time for Gg: 0.028
C(NO)
[[-1.0000000000e+00  0.0000000000e+00 -4.7958808528e-16  6.0432586407e-16  1.9359189339e-16  0.0000000000e+00  0.0000000000e+00  0.0000000000e+00]
 [ 0.0000000000e+00 -1.0000000000e+00  0.0000000000e+00  0.0000000000e+00  0.0000000000e+00 -1.5326189662e-16 -1.8041124150e-16  1.3877787808e-17]
 [ 6.7036029492e-17  0.0000000000e+00 -9.3644967051e-01  4.1684263567e-02 -3.4831657551e-01  0.0000000000e+00  0.0000000000e+00  0.0000000000e+00]
 [ 5.1312656786e-17  0.0000000000e+00  9.7901004805e-02 -9.2241099813e-01 -3.7359516028e-01  0.0000000000e+00  0.0000000000e+00  0.0000000000e+00]
 [ 6.4283704515e-17  0.0000000000e+00 -3.3686407921e-01 -3.8395360748e-01  8.5971054399e-01  0.0000000000e+00  0.0000000000e+00  0.0000000000e+00]
 [ 0.0000000000e+00  1.1047894445e-18  0.0000000000e+00  0.0000000000e+00  0.0000000000e+00 -3.7331271049e-01  1.9452328766e-01  9.0708230649e-01]
 [ 0.0000000000e+00  9.4079523373e-18  0.0000000000e+00  0.0000000000e+00  0.0000000000e+00 -8.0791628725e-02 -9.8087168034e-01  1.7709731628e-01]
 [ 0.0000000000e+00 -9.3190230009e-17  0.0000000000e+00  0.0000000000e+00  0.0000000000e+00  9.2418089837e-01 -7.1719777666e-03  3.8188771887e-01]]
detC 0.9999999999999998
detNg [ 1.0008861319  1.0235662454  1.1372541875  1.4834076483  2.407356124   4.7572359479  8.8856775581 11.0616604009]
xg [0.9991146526 0.9769763359 0.8793108973 0.6741235298 0.4153934642 0.2102060968 0.1125406581 0.0904023414]
ciS 1.089516994029022
[[-0.767269973   0.           -0.0512910118 -0.0093579039 -0.0152803327  0.            0.            0.          ]
 [ 0.           -0.767269973   0.            0.            0.           -0.0096452028 -0.0148900823  0.05135253  ]
 [-0.0512910118  0.           -0.690895806   0.0132891033 -0.2168726115  0.            0.            0.          ]
 [-0.0093579039  0.            0.0132891033  0.3218387705  0.0263291564  0.            0.            0.          ]
 [-0.0152803327  0.           -0.2168726115  0.0263291564  0.3632966219  0.            0.            0.          ]
 [ 0.           -0.0096452028  0.            0.            0.            0.3087582959  0.0308174387  0.2287559339]
 [ 0.           -0.0148900823  0.            0.            0.            0.0308174387  0.3641469339  0.0825501041]
 [ 0.            0.05135253    0.            0.            0.            0.2287559339  0.0825501041 -0.6786656433]]
ciH -1.3881309806330582
0.9999999999999999 -7.71138795180315e-18 -0.02840312920162578j -7.546047120499111e-17
0.5448378560245963 0.0004033688742221235 -0.00040336887422212354 0.45516214397540344
0.9999999999999997 -3.621235256101585e-17 -0.14631114471438658j -2.463307335887066e-16
0.5468929338950802 0.010703475533817085 -0.010703475533817088 0.45310706610491946
0.9999999999999998 -9.063930161978817e-17 -0.3511142553677008j 6.245004513516506e-17
0.5578882717285827 0.06164061016120751 -0.06164061016120751 0.4421117282714171
0.9999999999999997 -1.7802599672211983e-16 -0.647468804735899j -1.0625181290357943e-16
0.5984909944009076 0.20960792655306676 -0.20960792655306676 0.401509005599092
0.9999999999999998 -5.655198531684391e-16 -1.050748251131689j -1.2576745200831851e-17
0.7593917602596723 0.5520359436281514 -0.5520359436281516 0.24060823974032752
1.0000000000000002 -4.753142324176451e-16 -1.4687423232630925j 2.3592239273284576e-16
1.5129426988344885 1.0786020060721333 -1.0786020060721333 -0.5129426988344882
0.9999999999999999 -4.644722106927901e-16 -1.2701411959977016j -9.71445146547012e-17
4.033919022633506 0.806629328885236 -0.806629328885236 -3.0339190226335053
0.9999999999999998 -7.43762690325056e-17 -0.31390760600701034j -1.1102230246251565e-16
5.976664501932443 0.049268992554526214 -0.049268992554526214 -4.976664501932444
S2 = 0.000000
X(g)
[[ 2.0000000000e+00  6.9388939039e-18  2.7196551038e-04 -5.8929929756e-06  5.6589407643e-05  6.6038729104e-03  2.0625621831e-03 -2.8951500854e-02]
 [-1.0408340856e-17  2.0000000000e+00 -2.9135931210e-02  6.3132210297e-04 -6.0624786061e-03  6.1642981433e-05  1.9252714897e-05 -2.7024396954e-04]
 [ 2.7196551038e-04  2.9135931210e-02  0.0000000000e+00  0.0000000000e+00  0.0000000000e+00  0.0000000000e+00  0.0000000000e+00  0.0000000000e+00]
 [-5.8929929755e-06 -6.3132210297e-04  0.0000000000e+00  0.0000000000e+00  0.0000000000e+00  0.0000000000e+00  0.0000000000e+00  0.0000000000e+00]
 [ 5.6589407643e-05  6.0624786061e-03  0.0000000000e+00  0.0000000000e+00  0.0000000000e+00  0.0000000000e+00  0.0000000000e+00  0.0000000000e+00]
 [-6.6038729104e-03  6.1642981433e-05  0.0000000000e+00  0.0000000000e+00  0.0000000000e+00  0.0000000000e+00  0.0000000000e+00  0.0000000000e+00]
 [-2.0625621831e-03  1.9252714897e-05  0.0000000000e+00  0.0000000000e+00  0.0000000000e+00  0.0000000000e+00  0.0000000000e+00  0.0000000000e+00]
 [ 2.8951500854e-02 -2.7024396954e-04  0.0000000000e+00  0.0000000000e+00  0.0000000000e+00  0.0000000000e+00  0.0000000000e+00  0.0000000000e+00]]
X(g) int
[[ 2.0000000000e+00  1.6992744416e-16  2.5647987558e-01 -5.5574477184e-03  5.3367223702e-02  1.5260200308e-01  4.7661595688e-02 -6.6901000104e-01]
 [-1.8701268521e-16  2.0000000000e+00 -6.7327180953e-01  1.4588563228e-02 -1.4009148745e-01  5.8133048511e-02  1.8156471070e-02 -2.5485635876e-01]
 [ 2.5647987558e-01  6.7327180953e-01  0.0000000000e+00  0.0000000000e+00  0.0000000000e+00  0.0000000000e+00  0.0000000000e+00  0.0000000000e+00]
 [-5.5574477184e-03 -1.4588563228e-02  0.0000000000e+00  0.0000000000e+00  0.0000000000e+00  0.0000000000e+00  0.0000000000e+00  0.0000000000e+00]
 [ 5.3367223702e-02  1.4009148745e-01  0.0000000000e+00  0.0000000000e+00  0.0000000000e+00  0.0000000000e+00  0.0000000000e+00  0.0000000000e+00]
 [-1.5260200308e-01  5.8133048511e-02  0.0000000000e+00  0.0000000000e+00  0.0000000000e+00  0.0000000000e+00  0.0000000000e+00  0.0000000000e+00]
 [-4.7661595688e-02  1.8156471070e-02  0.0000000000e+00  0.0000000000e+00  0.0000000000e+00  0.0000000000e+00  0.0000000000e+00  0.0000000000e+00]
 [ 6.6901000104e-01 -2.5485635876e-01  0.0000000000e+00  0.0000000000e+00  0.0000000000e+00  0.0000000000e+00  0.0000000000e+00  0.0000000000e+00]]
Feff
 [[-4.3256702347e-16 -1.6047927203e-18  1.0201374408e-02  7.5948842680e-03 -1.2969126044e-02  4.4245970437e-03 -1.1765533704e-02 -1.9215249679e-02]
 [ 9.6480769519e-18  5.4675752229e-17 -1.9692913932e-02  1.1352809107e-02  3.2455398322e-03 -1.4564229586e-02 -1.1773851954e-03 -1.0790992442e-02]
 [ 1.0201374408e-02  1.9692913932e-02  0.0000000000e+00  0.0000000000e+00  0.0000000000e+00  0.0000000000e+00  0.0000000000e+00  0.0000000000e+00]
 [ 7.5948842680e-03 -1.1352809107e-02  0.0000000000e+00  0.0000000000e+00  0.0000000000e+00  0.0000000000e+00  0.0000000000e+00  0.0000000000e+00]
 [-1.2969126044e-02 -3.2455398322e-03  0.0000000000e+00  0.0000000000e+00  0.0000000000e+00  0.0000000000e+00  0.0000000000e+00  0.0000000000e+00]
 [-4.4245970437e-03 -1.4564229586e-02  0.0000000000e+00  0.0000000000e+00  0.0000000000e+00  0.0000000000e+00  0.0000000000e+00  0.0000000000e+00]
 [ 1.1765533704e-02 -1.1773851954e-03  0.0000000000e+00  0.0000000000e+00  0.0000000000e+00  0.0000000000e+00  0.0000000000e+00  0.0000000000e+00]
 [ 1.9215249679e-02 -1.0790992442e-02  0.0000000000e+00  0.0000000000e+00  0.0000000000e+00  0.0000000000e+00  0.0000000000e+00  0.0000000000e+00]]
Feff (ortho)
 [[ 8.6275334278e-03 -3.3232527143e-03  8.1416149610e-03 -9.4477000966e-03  5.3776427755e-17  1.5178830415e-17 -3.6429192996e-17  5.3342746886e-17]
 [-3.3232527143e-03 -9.3486337566e-03  6.8896077565e-03 -5.4956690449e-03 -1.9949319974e-17  5.3776427755e-17 -1.9949319974e-17  3.0574501264e-17]
 [ 8.1416149610e-03  6.8896077565e-03 -1.7738046284e-03 -2.9902195760e-04 -2.7755575616e-17  1.5612511284e-17  6.1799523832e-18 -8.8904578144e-18]
 [-9.4477000966e-03 -5.4956690449e-03 -2.9902195760e-04  2.4949049572e-03  6.5919492087e-17 -5.5294310797e-17 -2.7105054312e-18  2.8189256485e-18]
 [ 5.3776427755e-17 -1.9949319974e-17 -2.7755575616e-17  6.5919492087e-17  8.6275334278e-03  3.3232527143e-03  8.1416149610e-03  9.4477000966e-03]
 [ 1.5178830415e-17  5.3776427755e-17  1.5612511284e-17 -5.5294310797e-17  3.3232527143e-03 -9.3486337566e-03 -6.8896077565e-03 -5.4956690449e-03]
 [-3.6429192996e-17 -1.9949319974e-17  6.1799523832e-18 -2.7105054312e-18  8.1416149610e-03 -6.8896077565e-03 -1.7738046284e-03  2.9902195760e-04]
 [ 5.3342746886e-17  3.0574501264e-17 -8.8904578144e-18  2.8189256485e-18  9.4477000966e-03 -5.4956690449e-03  2.9902195760e-04  2.4949049572e-03]]
Hsp + Hph =  -1.2740792371670724
Feff (mod,ortho)
[[-0.2302597295 -0.3297365156  0.2245073286 -0.0340314871  0.            0.            0.            0.          ]
 [-0.3297365156  0.0017195096 -0.0711712972  0.3341339181  0.            0.            0.            0.          ]
 [ 0.2245073286 -0.0711712972  1.1202434857 -0.0509516366  0.            0.            0.            0.          ]
 [-0.0340314871  0.3341339181 -0.0509516366  1.1151095567  0.            0.            0.            0.          ]
 [ 0.            0.            0.            0.           -0.2302597295  0.3297365156  0.2245073286  0.0340314871]
 [ 0.            0.            0.            0.            0.3297365156  0.0017195096  0.0711712972  0.3341339181]
 [ 0.            0.            0.            0.            0.2245073286  0.0711712972  1.1202434857  0.0509516366]
 [ 0.            0.            0.            0.            0.0340314871  0.3341339181  0.0509516366  1.1151095567]]
Alpha occ 1 vir 3; Beta occ 1 vir 3
Alpha energies:  [-0.4945369813] <- HOMO
         LUMO->  [0.1202097884 1.099203477  1.2819365384]
Beta energies:   [-0.4945369813] <- HOMO
         LUMO->  [0.1202097884 1.099203477  1.2819365384]
e_a, e_b
 [-0.4945369813  0.1202097884  1.099203477   1.2819365384] 
 [-0.4945369813  0.1202097884  1.099203477   1.2819365384]
v_a, v_b
 [[ 0.7959192725  0.5758526377 -0.0931821925  0.1619361922]
 [ 0.5890939817 -0.7547802912 -0.1018733654 -0.2699940928]
 [-0.0881101107 -0.1695190739 -0.7916389213  0.5803513679]
 [-0.1082469437  0.2645065883 -0.5951862857 -0.7510473682]] 
 [[ 0.7959192725 -0.5758526377  0.0931821925  0.1619361922]
 [-0.5890939817 -0.7547802912 -0.1018733654  0.2699940928]
 [-0.0881101107  0.1695190739  0.7916389213  0.5803513679]
 [ 0.1082469437  0.2645065883 -0.5951862857  0.7510473682]]
P_a, P_b
 [[ 0.6334874883  0.4688712533 -0.0701285352 -0.0861558286]
 [ 0.4688712533  0.3470317192 -0.0519051359 -0.063767623 ]
 [-0.0701285352 -0.0519051359  0.0077633916  0.0095376502]
 [-0.0861558286 -0.063767623   0.0095376502  0.0117174008]] 
 [[ 0.6334874883 -0.4688712533 -0.0701285352  0.0861558286]
 [-0.4688712533  0.3470317192  0.0519051359 -0.063767623 ]
 [-0.0701285352  0.0519051359  0.0077633916 -0.0095376502]
 [ 0.0861558286 -0.063767623  -0.0095376502  0.0117174008]]
time for xg, H, S2, Yg, Feff: 0.029
 E(SUHF) =     -1.00949063
**** Start Cycle 2 ****
dm (ortho)
[[[ 0.6334874883  0.4688712533 -0.0701285352 -0.0861558286]
  [ 0.4688712533  0.3470317192 -0.0519051359 -0.063767623 ]
  [-0.0701285352 -0.0519051359  0.0077633916  0.0095376502]
  [-0.0861558286 -0.063767623   0.0095376502  0.0117174008]]

 [[ 0.6334874883 -0.4688712533 -0.0701285352  0.0861558286]
  [-0.4688712533  0.3470317192  0.0519051359 -0.063767623 ]
  [-0.0701285352  0.0519051359  0.0077633916 -0.0095376502]
  [ 0.0861558286 -0.063767623  -0.0095376502  0.0117174008]]]
Fock (ortho)
 (array([[-0.2363081016, -0.3284564986,  0.2173277084, -0.0261901497],
       [-0.3284564986,  0.0087229249, -0.0778261308,  0.3390100841],
       [ 0.2173277084, -0.0778261308,  1.1216808993, -0.0509166931],
       [-0.0261901497,  0.3390100841, -0.0509166931,  1.1127032785]]), array([[-0.2363081016,  0.3284564986,  0.2173277084,  0.0261901497],
       [ 0.3284564986,  0.0087229249,  0.0778261308,  0.3390100841],
       [ 0.2173277084,  0.0778261308,  1.1216808993,  0.0509166931],
       [ 0.0261901497,  0.3390100841,  0.0509166931,  1.1127032785]]))
E(UHF) =    -1.261271
NO eigenvalue
[-1.0000000000e+00 -1.7885284167e-16 -2.0023777057e-18  3.0422947437e-18] 
 [-1.0000000000e+00 -1.3479820095e-17  2.2057949672e-18  1.1324230113e-17]
NO vec
[[ 0.7959192725  0.           -0.584396001  -0.0784481749  0.1372578213  0.            0.            0.          ]
 [ 0.5890939817  0.            0.8024346526 -0.0828841361 -0.0468735439  0.            0.            0.          ]
 [-0.0881101107  0.           -0.0493751127 -0.9630386379 -0.2497104094  0.            0.            0.          ]
 [-0.1082469437  0.            0.110190928  -0.2439932085  0.9573964032  0.            0.            0.          ]
 [ 0.            0.7959192725  0.            0.            0.           -0.4088968438 -0.0190768676  0.4460403075]
 [ 0.           -0.5890939817  0.            0.            0.           -0.5966129578  0.186158592   0.5122169833]
 [ 0.           -0.0881101107  0.            0.            0.           -0.3980329251 -0.8795700762 -0.2452812261]
 [ 0.            0.1082469437  0.            0.            0.           -0.5642926016  0.4374214589 -0.6917506243]]
dm(NO)
[[ 1.0000000000e+00  0.0000000000e+00 -8.9247320519e-17 -2.8279651449e-17 -4.7682747502e-18  0.0000000000e+00  0.0000000000e+00  0.0000000000e+00]
 [ 0.0000000000e+00  1.0000000000e+00  0.0000000000e+00  0.0000000000e+00  0.0000000000e+00 -1.3559824821e-17  7.0645260464e-18  1.0206354174e-16]
 [-1.5472138462e-16  0.0000000000e+00  9.4195650281e-18 -5.3815999628e-18  6.6618267909e-18  0.0000000000e+00  0.0000000000e+00  0.0000000000e+00]
 [-2.1481580158e-17  0.0000000000e+00 -9.9467354976e-18  3.4038805251e-19  6.7246908621e-19  0.0000000000e+00  0.0000000000e+00  0.0000000000e+00]
 [ 1.2534718445e-17  0.0000000000e+00  1.3773258160e-17  8.8635028081e-19 -2.5453808166e-18  0.0000000000e+00  0.0000000000e+00  0.0000000000e+00]
 [ 0.0000000000e+00  3.8464120410e-17  0.0000000000e+00  0.0000000000e+00  0.0000000000e+00  3.5063127068e-18 -4.3979443228e-18  1.0408629330e-17]
 [ 0.0000000000e+00  2.0063364367e-18  0.0000000000e+00  0.0000000000e+00  0.0000000000e+00  4.9432983808e-18 -2.3265388907e-18 -3.9358160566e-18]
 [ 0.0000000000e+00  6.4765004475e-17  0.0000000000e+00  0.0000000000e+00  0.0000000000e+00 -1.3575976197e-17 -2.9425527494e-18  9.3175298590e-18]]
D(g) (NO)
 [[ 9.9951368521e-01  8.8093139182e-03  1.9064621794e-16 -2.3751972430e-17 -5.3125679509e-17 -1.8109850424e-02  3.8863875262e-03  2.3488686056e-02]
 [-8.8093139182e-03  9.9951368521e-01  2.8737305601e-02 -1.3979453192e-03 -8.1854797478e-03  5.1459859065e-17  4.1248943795e-18  4.1281325609e-17]
 [ 1.8501673425e-16 -2.8737305601e-02  9.9951368521e-01 -1.2203443338e-16  1.5193146284e-17 -8.8034039546e-03  7.8630759668e-03  2.6893227171e-03]
 [-1.3963351224e-17  1.3979453192e-03 -1.2044491014e-16  9.9951368521e-01 -1.2290338074e-16  1.8788874422e-02  2.2651459948e-02  1.0214126678e-02]
 [-4.0113260261e-17  8.1854797478e-03  1.2312347844e-17 -1.3033510479e-16  9.9951368521e-01 -1.4625480133e-02  1.9554346456e-02 -1.7581634214e-02]
 [ 1.8109850424e-02  3.2784987927e-17  8.8034039546e-03 -1.8788874422e-02  1.4625480133e-02  9.9951368521e-01 -5.1830213230e-17 -4.2310938445e-16]
 [-3.8863875262e-03  1.3877787808e-17 -7.8630759668e-03 -2.2651459948e-02 -1.9554346456e-02  0.0000000000e+00  9.9951368521e-01 -1.1102230246e-16]
 [-2.3488686056e-02  5.5511151231e-17 -2.6893227171e-03 -1.0214126678e-02  1.7581634214e-02 -4.1633363423e-16 -1.1102230246e-16  9.9951368521e-01]]
N(g) (NO)
 [[ 1.0004088401 -0.0088172035]
 [ 0.0088172035  1.0004088401]]
P(g) (NO)
 [[ 1.0000000000e+00  9.3387240782e-19 -8.9247320519e-17 -2.8279651449e-17 -4.7682747502e-18 -7.8489484452e-36  0.0000000000e+00  0.0000000000e+00]
 [ 1.4921202596e-18  1.0000000000e+00 -1.7398671582e-34 -6.5762413336e-35 -5.4390290424e-36 -1.3559824821e-17  7.0645260464e-18  1.0206354174e-16]
 [-2.5338267025e-04 -2.8749054564e-02  2.2613724385e-20  7.1655735978e-21  1.2081981887e-21  3.8983214366e-19 -2.0309844478e-19 -2.9342303306e-18]
 [ 1.2325968299e-05  1.3985168553e-03 -1.1000596434e-21 -3.4857408725e-22 -5.8773603410e-23 -1.8963643567e-20  9.8798587503e-21  1.4273758344e-19]
 [ 7.2173040316e-05  8.1888263001e-03 -6.4412504619e-21 -2.0410284241e-21 -3.4414088579e-22 -1.1103905012e-19  5.7850176686e-20  8.3578061492e-19]
 [ 1.8117254457e-02 -1.5967823574e-04 -1.6169164155e-18 -5.1234964127e-19 -8.6388046973e-20  2.1652089043e-21 -1.1280510554e-21 -1.6297326279e-20]
 [-3.8879764372e-03  3.4267069525e-05  3.4699147926e-19  1.0995061849e-19  1.8538939875e-20 -4.6465545988e-22  2.4208060519e-22  3.4974184809e-21]
 [-2.3498289173e-02  2.0710452386e-04  2.0971593454e-18  6.6452342745e-19  1.1204629894e-19 -2.8083010631e-21  1.4630953031e-21  2.1137821216e-20]]
time for NO, Ng: 0.015
Pg_ortho
 [[ 6.3361245974e-01  4.6896375003e-01 -7.0142369841e-02 -8.6172825060e-02  1.4179382930e-02 -1.0494769302e-02 -1.5696905992e-03  1.9284303297e-03]
 [ 4.6870591887e-01  3.4690934813e-01 -5.1886833036e-02 -6.3745137158e-02 -1.8759014792e-02  1.3884351212e-02  2.0766664751e-03 -2.5512713253e-03]
 [-7.0142369841e-02 -5.1915375543e-02  7.7649231344e-03  9.5395317321e-03 -1.5696905992e-03  1.1617953190e-03  1.7376839241e-04 -2.1348171318e-04]
 [-8.6125448181e-02 -6.3745137158e-02  9.5342870016e-03  1.1713268995e-02  3.4469984084e-03 -2.5512713253e-03 -3.8159072392e-04  4.6880011000e-04]
 [-1.4179382930e-02 -1.0494769302e-02  1.5696905992e-03  1.9284303297e-03  6.3361245974e-01 -4.6896375003e-01 -7.0142369841e-02  8.6172825060e-02]
 [-1.8759014792e-02 -1.3884351212e-02  2.0766664751e-03  2.5512713253e-03 -4.6870591887e-01  3.4690934813e-01  5.1886833036e-02 -6.3745137158e-02]
 [ 1.5696905992e-03  1.1617953190e-03 -1.7376839241e-04 -2.1348171318e-04 -7.0142369841e-02  5.1915375543e-02  7.7649231344e-03 -9.5395317321e-03]
 [ 3.4469984084e-03  2.5512713253e-03 -3.8159072392e-04 -4.6880011000e-04  8.6125448181e-02 -6.3745137158e-02 -9.5342870016e-03  1.1713268995e-02]]
G(g) (NO)
 [[ 2.7122543777e-01 -1.4540154567e-03 -4.4698478735e-02 -5.5290981390e-03  2.1566964758e-02 -3.0652886114e-04  5.1035855429e-04  1.6622928849e-04]
 [ 1.4540154567e-03  2.7122543777e-01  4.1503246270e-04 -4.3789235876e-04  1.3437376993e-04 -2.5018392376e-02 -3.1384681327e-03  4.3103236039e-02]
 [-4.4632319404e-02  1.9518383209e-02  9.8207262321e-01  1.0131948575e-01  1.3036982611e-01  1.6667385107e-03 -6.3812119828e-03 -8.0427807853e-05]
 [-5.5358406286e-03  2.2291686166e-03  1.0131816123e-01  7.8917327832e-01  4.2149468722e-02  6.5880601838e-04 -2.3185479425e-03  1.3318937812e-06]
 [ 2.1554245779e-02 -9.0600252715e-04  1.3036437628e-01  4.2149404994e-02  7.3735373301e-01  4.3795611649e-04 -2.1472617605e-03  4.7611607071e-04]
 [-1.5611106919e-02 -2.4974100945e-02 -2.2391444916e-03  6.2152330969e-03 -2.4385585387e-03  1.0599781587e+00  4.9225531558e-02 -6.9089423510e-02]
 [ 4.5240053885e-04 -3.1520188447e-03 -4.3137934458e-04  8.3021134220e-04 -2.9020865816e-04  4.9224905686e-02  7.5445903387e-01 -2.1925920549e-03]
 [ 1.1951819564e-02  4.3053850433e-02  9.6593655151e-04 -1.6616681279e-03  3.1634853650e-04 -6.9094978544e-02 -2.1921348451e-03  6.9416244196e-01]]
time for Gg: 0.025
C(NO)
[[ 1.0000000000e+00  0.0000000000e+00 -7.4976668487e-16  5.1672270257e-17 -2.3506455461e-16  0.0000000000e+00  0.0000000000e+00  0.0000000000e+00]
 [ 0.0000000000e+00  1.0000000000e+00  0.0000000000e+00  0.0000000000e+00  0.0000000000e+00  2.8111341167e-16  2.7755575616e-17 -8.3266726847e-17]
 [-1.7618901148e-16  0.0000000000e+00 -9.0467158955e-01 -5.3788286067e-02 -4.2270099993e-01  0.0000000000e+00  0.0000000000e+00  0.0000000000e+00]
 [-1.7787949614e-17  0.0000000000e+00  1.1610033079e-01  9.2335393879e-01 -3.6597570536e-01  0.0000000000e+00  0.0000000000e+00  0.0000000000e+00]
 [ 8.5182693809e-18  0.0000000000e+00  4.0998783915e-01 -3.8016354902e-01 -8.2908723772e-01  0.0000000000e+00  0.0000000000e+00  0.0000000000e+00]
 [ 0.0000000000e+00 -5.7286918344e-18  0.0000000000e+00  0.0000000000e+00  0.0000000000e+00  4.6904274440e-01  4.3437927517e-02 -8.8210659808e-01]
 [ 0.0000000000e+00  9.9408385705e-19  0.0000000000e+00  0.0000000000e+00  0.0000000000e+00 -1.6292641874e-01 -9.7739138641e-01 -1.3476297653e-01]
 [ 0.0000000000e+00  5.6152358894e-17  0.0000000000e+00  0.0000000000e+00  0.0000000000e+00 -8.6801721527e-01  2.0692806533e-01 -4.5136115226e-01]]
detC 1.0000000000000004
detNg [ 1.0008955904  1.0238235524  1.1389212638  1.4910946134  2.4440377096  4.9558084798  9.7015378317 12.3912615067]
xg [0.9991052109 0.9767308025 0.8780238211 0.6706482547 0.4091589897 0.2017834232 0.1030764418 0.0807020334]
ciS 1.0798072443385642
[[-0.7662420123  0.            0.052890924   0.0125472149 -0.0109863927  0.            0.            0.          ]
 [ 0.           -0.7662420123  0.            0.            0.            0.0390486065  0.0067370321 -0.0387995102]
 [ 0.052890924   0.           -0.6502917989  0.0302357743  0.2967162358  0.            0.            0.          ]
 [ 0.0125472149  0.            0.0302357743  0.3208961468 -0.0331584114  0.            0.            0.          ]
 [-0.0109863927  0.            0.2967162358 -0.0331584114  0.3226072779  0.            0.            0.          ]
 [ 0.            0.0390486065  0.            0.            0.           -0.0331910369  0.0475477597  0.539726751 ]
 [ 0.            0.0067370321  0.            0.            0.            0.0475477597  0.3215138073 -0.1251853807]
 [ 0.           -0.0387995102  0.            0.            0.            0.539726751  -0.1251853807 -0.2951111446]]
ciH -1.3762059921026948
1.0 8.131516293641283e-20 -0.02870630264430052j 1.7997756063259374e-16
0.5399751287793484 0.0004120259057530875 -0.0004120259057530875 0.4600248712206516
1.0 1.984089975648473e-17 -0.14790863679661406j 9.627715291671279e-17
0.5418275620056356 0.01093848241951635 -0.010938482419516346 0.45817243799436447
1.0 -1.734723475976807e-17 -0.3553788558710569j 2.1076890233118206e-16
0.5517606501108642 0.06314706560011073 -0.0631470656001107 0.44823934988913594
0.9999999999999999 -3.9898639947466563e-17 -0.6577646081167369j 3.5561831257524545e-17
0.5887202429278469 0.2163271398454822 -0.2163271398454822 0.4112797570721531
0.9999999999999999 -1.3877787807814457e-17 -1.0781351443449363j -3.165870343657673e-17
0.7383571173754219 0.5811876947358382 -0.5811876947358384 0.261642882624578
1.0 2.2551405187698492e-17 -1.5463663761489026j -9.974659986866641e-17
1.480034464395213 1.1956244846419448 -1.1956244846419448 -0.48003446439521297
1.0 1.5785983631388945e-16 -1.401551304517629j -1.3704315460216776e-16
4.255722386357356 0.9821730295975342 -0.982173029597534 -3.255722386357357
0.9999999999999998 -8.673617379884035e-18 -0.355389019951065j -4.2500725161431774e-16
6.6269362929517746 0.06315067775088924 -0.06315067775088926 -5.626936292951775
S2 = 0.000000
X(g)
[[ 2.0000000000e+00 -1.7347234760e-18 -2.5338267025e-04  1.2325968299e-05  7.2173040316e-05 -1.8117254457e-02  3.8879764372e-03  2.3498289173e-02]
 [ 5.2041704279e-18  2.0000000000e+00  2.8749054564e-02 -1.3985168553e-03 -8.1888263001e-03 -1.5967823574e-04  3.4267069525e-05  2.0710452386e-04]
 [-2.5338267025e-04 -2.8749054564e-02  0.0000000000e+00  0.0000000000e+00  0.0000000000e+00  0.0000000000e+00  0.0000000000e+00  0.0000000000e+00]
 [ 1.2325968299e-05  1.3985168553e-03  0.0000000000e+00  0.0000000000e+00  0.0000000000e+00  0.0000000000e+00  0.0000000000e+00  0.0000000000e+00]
 [ 7.2173040316e-05  8.1888263001e-03  0.0000000000e+00  0.0000000000e+00  0.0000000000e+00  0.0000000000e+00  0.0000000000e+00  0.0000000000e+00]
 [ 1.8117254457e-02 -1.5967823574e-04  0.0000000000e+00  0.0000000000e+00  0.0000000000e+00  0.0000000000e+00  0.0000000000e+00  0.0000000000e+00]
 [-3.8879764372e-03  3.4267069525e-05  0.0000000000e+00  0.0000000000e+00  0.0000000000e+00  0.0000000000e+00  0.0000000000e+00  0.0000000000e+00]
 [-2.3498289173e-02  2.0710452386e-04  0.0000000000e+00  0.0000000000e+00  0.0000000000e+00  0.0000000000e+00  0.0000000000e+00  0.0000000000e+00]]
X(g) int
[[ 2.0000000000e+00 -4.4495610673e-17 -2.4110157016e-01  1.1728546027e-02  6.8674915006e-02 -4.2241329557e-01  9.0650211036e-02  5.4787494392e-01]
 [ 1.6232552875e-16  2.0000000000e+00  6.7029929461e-01 -3.2607154419e-02 -1.9092678267e-01 -1.5193885722e-01  3.2606193072e-02  1.9706646015e-01]
 [-2.4110157016e-01 -6.7029929461e-01  0.0000000000e+00  0.0000000000e+00  0.0000000000e+00  0.0000000000e+00  0.0000000000e+00  0.0000000000e+00]
 [ 1.1728546027e-02  3.2607154419e-02  0.0000000000e+00  0.0000000000e+00  0.0000000000e+00  0.0000000000e+00  0.0000000000e+00  0.0000000000e+00]
 [ 6.8674915006e-02  1.9092678267e-01  0.0000000000e+00  0.0000000000e+00  0.0000000000e+00  0.0000000000e+00  0.0000000000e+00  0.0000000000e+00]
 [ 4.2241329557e-01 -1.5193885722e-01  0.0000000000e+00  0.0000000000e+00  0.0000000000e+00  0.0000000000e+00  0.0000000000e+00  0.0000000000e+00]
 [-9.0650211036e-02  3.2606193072e-02  0.0000000000e+00  0.0000000000e+00  0.0000000000e+00  0.0000000000e+00  0.0000000000e+00  0.0000000000e+00]
 [-5.4787494392e-01  1.9706646015e-01  0.0000000000e+00  0.0000000000e+00  0.0000000000e+00  0.0000000000e+00  0.0000000000e+00  0.0000000000e+00]]
Feff
 [[ 5.1657848352e-16 -7.4007857320e-19  6.8170033527e-04  2.5990841376e-03 -3.1289505224e-03 -1.7827042513e-02  2.2394643901e-02  8.0825813079e-03]
 [ 9.7717781793e-18  5.2462014107e-16  2.2170779278e-02 -1.8274860867e-02  7.6901006044e-03 -5.9998204963e-04  3.0294963850e-03 -2.7335797530e-03]
 [ 6.8170033527e-04 -2.2170779278e-02  0.0000000000e+00  0.0000000000e+00  0.0000000000e+00  0.0000000000e+00  0.0000000000e+00  0.0000000000e+00]
 [ 2.5990841376e-03  1.8274860867e-02  0.0000000000e+00  0.0000000000e+00  0.0000000000e+00  0.0000000000e+00  0.0000000000e+00  0.0000000000e+00]
 [-3.1289505224e-03 -7.6901006044e-03  0.0000000000e+00  0.0000000000e+00  0.0000000000e+00  0.0000000000e+00  0.0000000000e+00  0.0000000000e+00]
 [ 1.7827042513e-02 -5.9998204963e-04  0.0000000000e+00  0.0000000000e+00  0.0000000000e+00  0.0000000000e+00  0.0000000000e+00  0.0000000000e+00]
 [-2.2394643901e-02  3.0294963850e-03  0.0000000000e+00  0.0000000000e+00  0.0000000000e+00  0.0000000000e+00  0.0000000000e+00  0.0000000000e+00]
 [-8.0825813079e-03 -2.7335797530e-03  0.0000000000e+00  0.0000000000e+00  0.0000000000e+00  0.0000000000e+00  0.0000000000e+00  0.0000000000e+00]]
Feff (ortho)
 [[-1.6423782864e-03 -2.2713925169e-04 -1.3062061374e-03 -2.7175607100e-03 -2.7755575616e-17 -1.6479873022e-17 -7.9797279895e-17  2.6888213878e-17]
 [-2.2713925169e-04  5.6348268233e-04 -1.0762034713e-03 -2.1458155214e-03 -5.2041704279e-18 -2.4286128664e-17 -6.1149002528e-17  2.2117724319e-17]
 [-1.3062061374e-03 -1.0762034713e-03  3.0932745418e-04  5.0321475885e-04 -1.9949319974e-17  1.8648277367e-17  1.1492543028e-17 -6.0715321659e-18]
 [-2.7175607100e-03 -2.1458155214e-03  5.0321475885e-04  7.6956814992e-04  5.5511151231e-17 -3.6429192996e-17  4.9873299934e-18  3.2526065175e-18]
 [-2.7755575616e-17 -5.2041704279e-18 -1.9949319974e-17  5.5511151231e-17 -1.6423782864e-03  2.2713925169e-04 -1.3062061374e-03  2.7175607100e-03]
 [-1.6479873022e-17 -2.4286128664e-17  1.8648277367e-17 -3.6429192996e-17  2.2713925169e-04  5.6348268233e-04  1.0762034713e-03 -2.1458155214e-03]
 [-7.9797279895e-17 -6.1149002528e-17  1.1492543028e-17  4.9873299934e-18 -1.3062061374e-03  1.0762034713e-03  3.0932745418e-04 -5.0321475885e-04]
 [ 2.6888213878e-17  2.2117724319e-17 -6.0715321659e-18  3.2526065175e-18  2.7175607100e-03 -2.1458155214e-03 -5.0321475885e-04  7.6956814992e-04]]
Hsp + Hph =  -1.2744922756521138
Feff (mod,ortho)
[[-0.2317673778 -0.330767483   0.2234860663 -0.0367442925  0.            0.            0.            0.          ]
 [-0.330767483   0.0028145471 -0.0726401881  0.3319698847  0.            0.            0.            0.          ]
 [ 0.2234860663 -0.0726401881  1.1202617637 -0.0506542407  0.            0.            0.            0.          ]
 [-0.0367442925  0.3319698847 -0.0506542407  1.1154900681  0.            0.            0.            0.          ]
 [ 0.            0.            0.            0.           -0.2317673778  0.330767483   0.2234860663  0.0367442925]
 [ 0.            0.            0.            0.            0.330767483   0.0028145471  0.0726401881  0.3319698847]
 [ 0.            0.            0.            0.            0.2234860663  0.0726401881  1.1202617637  0.0506542407]
 [ 0.            0.            0.            0.            0.0367442925  0.3319698847  0.0506542407  1.1154900681]]
Alpha occ 1 vir 3; Beta occ 1 vir 3
Alpha energies:  [-0.4950424854] <- HOMO
         LUMO->  [0.1210952317 1.0986655487 1.2820807062]
Beta energies:   [-0.4950424854] <- HOMO
         LUMO->  [0.1210952317 1.0986655487 1.2820807062]
e_a, e_b
 [-0.4950424854  0.1210952317  1.0986655487  1.2820807062] 
 [-0.4950424854  0.1210952317  1.0986655487  1.2820807062]
v_a, v_b
 [[ 0.7974915584  0.5736705522 -0.0914127488  0.1629509779]
 [ 0.5875665017 -0.7561938732 -0.100614062  -0.2698392906]
 [-0.0872278145 -0.1698559336 -0.7911459207  0.5810580025]
 [-0.1056604407  0.2649941235 -0.596329315  -0.7503368136]] 
 [[ 0.7974915584 -0.5736705522  0.0914127488  0.1629509779]
 [-0.5875665017 -0.7561938732 -0.100614062   0.2698392906]
 [-0.0872278145  0.1698559336  0.7911459207  0.5810580025]
 [ 0.1056604407  0.2649941235 -0.596329315   0.7503368136]]
P_a, P_b
 [[ 0.6359927857  0.4685793251 -0.0695634458 -0.0842633095]
 [ 0.4685793251  0.3452343939 -0.0512521418 -0.0620825355]
 [-0.0695634458 -0.0512521418  0.0076086916  0.0092165293]
 [-0.0842633095 -0.0620825355  0.0092165293  0.0111641287]] 
 [[ 0.6359927857 -0.4685793251 -0.0695634458  0.0842633095]
 [-0.4685793251  0.3452343939  0.0512521418 -0.0620825355]
 [-0.0695634458  0.0512521418  0.0076086916 -0.0092165293]
 [ 0.0842633095 -0.0620825355 -0.0092165293  0.0111641287]]
time for xg, H, S2, Yg, Feff: 0.026
 E =     -1.00990367, delta E = -0.000413038, MaxD(dm) =  0.0025053, RMSD(dm) = 0.00123863
**** Start Cycle 3 ****
dm (ortho)
[[[ 0.6359927857  0.4685793251 -0.0695634458 -0.0842633095]
  [ 0.4685793251  0.3452343939 -0.0512521418 -0.0620825355]
  [-0.0695634458 -0.0512521418  0.0076086916  0.0092165293]
  [-0.0842633095 -0.0620825355  0.0092165293  0.0111641287]]

 [[ 0.6359927857 -0.4685793251 -0.0695634458  0.0842633095]
  [-0.4685793251  0.3452343939  0.0512521418 -0.0620825355]
  [-0.0695634458  0.0512521418  0.0076086916 -0.0092165293]
  [ 0.0842633095 -0.0620825355 -0.0092165293  0.0111641287]]]
Fock (ortho)
 (array([[-0.2364629329, -0.3286842211,  0.21724542  , -0.0271364021],
       [-0.3286842211,  0.0096475354, -0.078571497 ,  0.3387525615],
       [ 0.21724542  , -0.078571497 ,  1.1222633262, -0.0510834219],
       [-0.0271364021,  0.3387525615, -0.0510834219,  1.1132570917]]), array([[-0.2364629329,  0.3286842211,  0.21724542  ,  0.0271364021],
       [ 0.3286842211,  0.0096475354,  0.078571497 ,  0.3387525615],
       [ 0.21724542  ,  0.078571497 ,  1.1222633262,  0.0510834219],
       [ 0.0271364021,  0.3387525615,  0.0510834219,  1.1132570917]]))
E(UHF) =    -1.261249
NO eigenvalue
[-1.0000000000e+00 -2.2265168112e-17 -3.7138103370e-19  2.7513559407e-17] 
 [-1.0000000000e+00 -6.3277811330e-17  4.2060235882e-19  1.2185100550e-17]
NO vec
[[ 0.7974915584  0.            0.4484876794 -0.009621129  -0.4034519174  0.            0.            0.          ]
 [ 0.5875665017  0.           -0.4299408531 -0.0386552636  0.6844137926  0.            0.            0.          ]
 [-0.0872278145  0.            0.3632576554 -0.8925206209  0.2526699931  0.            0.            0.          ]
 [-0.1056604407  0.            0.6943007562  0.4492439713  0.5522338141  0.            0.            0.          ]
 [ 0.            0.7974915584  0.            0.            0.            0.5710951489 -0.0502620083  0.1879661559]
 [ 0.           -0.5875665017  0.            0.            0.            0.6941591504  0.0859978435  0.4068329521]
 [ 0.           -0.0872278145  0.            0.            0.            0.0150038911 -0.9943495362  0.0586105072]
 [ 0.            0.1056604407  0.            0.            0.           -0.4379135623  0.0367028796  0.8920316596]]
dm(NO)
[[ 1.0000000000e+00  0.0000000000e+00  2.7746824983e-17 -7.1358524777e-18 -1.4439676193e-16  0.0000000000e+00  0.0000000000e+00  0.0000000000e+00]
 [ 0.0000000000e+00  1.0000000000e+00  0.0000000000e+00  0.0000000000e+00  0.0000000000e+00 -1.0296438762e-16 -5.1648618531e-18 -1.6473986879e-17]
 [-2.2929501396e-17  0.0000000000e+00 -1.0335793699e-18  4.0505373980e-19 -3.2743461193e-18  0.0000000000e+00  0.0000000000e+00  0.0000000000e+00]
 [-1.4121031856e-18  0.0000000000e+00  3.5237811571e-19  3.3403276500e-19 -2.1749249649e-19  0.0000000000e+00  0.0000000000e+00  0.0000000000e+00]
 [-1.7253171713e-16  0.0000000000e+00 -3.8832360257e-18  3.7884976062e-18 -2.5398208039e-19  0.0000000000e+00  0.0000000000e+00  0.0000000000e+00]
 [ 0.0000000000e+00 -6.3611582260e-17  0.0000000000e+00  0.0000000000e+00  0.0000000000e+00 -2.8938144306e-18 -8.9549932098e-18 -9.0749318717e-18]
 [ 0.0000000000e+00 -5.8151825144e-18  0.0000000000e+00  0.0000000000e+00  0.0000000000e+00 -3.9322138603e-18 -5.5065775401e-19 -2.1912742935e-18]
 [ 0.0000000000e+00  2.6978600641e-17  0.0000000000e+00  0.0000000000e+00  0.0000000000e+00 -8.8154901929e-18 -2.9360030773e-18 -7.4024657189e-18]]
D(g) (NO)
 [[ 9.9951368521e-01  8.9559122983e-03 -5.8533317239e-17 -2.6484917029e-18 -1.5445450684e-16  2.8322769020e-02  2.9094821371e-03  9.0299711182e-03]
 [-8.9559122983e-03  9.9951368521e-01 -2.0330146273e-02 -4.3768673513e-03  2.1440916360e-02 -6.7538792537e-17  6.9827296385e-18  5.3599538484e-17]
 [-1.6515510099e-17  2.0330146273e-02  9.9951368521e-01  1.0525597982e-16  2.2680146759e-16 -1.0630723135e-02 -1.2324796449e-02  1.7151249092e-02]
 [-6.7761388070e-18  4.3768673513e-03  8.8417684009e-17  9.9951368521e-01  1.3622829117e-16 -7.5603335903e-03  2.8099987177e-02  1.0318342095e-02]
 [-1.4271789154e-16 -2.1440916360e-02  2.9839167833e-16  1.3226945886e-16  9.9951368521e-01  2.0715074586e-04 -4.7347757705e-03  2.2140893554e-02]
 [-2.8322769020e-02 -1.0214527198e-16  1.0630723135e-02  7.5603335903e-03 -2.0715074586e-04  9.9951368521e-01  4.5677117370e-17 -1.8263246670e-16]
 [-2.9094821371e-03  6.9388939039e-18  1.2324796449e-02 -2.8099987177e-02  4.7347757705e-03  4.1633363423e-17  9.9951368521e-01 -3.1918911958e-16]
 [-9.0299711182e-03  5.5511151231e-17 -1.7151249092e-02 -1.0318342095e-02 -2.2140893554e-02 -1.8041124150e-16 -3.1918911958e-16  9.9951368521e-01]]
N(g) (NO)
 [[ 1.0004062324 -0.0089639098]
 [ 0.0089639098  1.0004062324]]
P(g) (NO)
 [[ 1.0000000000e+00 -5.0742555940e-18  2.7746824983e-17 -7.1358524777e-18 -1.4439676193e-16  4.1509671747e-34  2.4074124305e-35  7.2222372915e-35]
 [-1.6655562062e-18  1.0000000000e+00 -1.1645912508e-34  2.2676063138e-35  6.0392851859e-34 -1.0296438762e-16 -5.1648618531e-18 -1.6473986879e-17]
 [ 1.8223759663e-04  2.0338405036e-02  5.0565146989e-21 -1.3004206054e-21 -2.6314518855e-20 -2.0941314197e-18 -1.0504505232e-19 -3.3505461771e-19]
 [ 3.9233843976e-05  4.3786453765e-03  1.0886146022e-21 -2.7996692274e-22 -5.6652400281e-21 -4.5084453980e-19 -2.2615098473e-20 -7.2133746481e-20]
 [-1.9219443946e-04 -2.1449626354e-02 -5.3327854743e-21  1.3714711670e-21  2.7752254719e-20  2.2085476423e-18  1.1078435692e-19  3.5336086313e-19]
 [-2.8334274645e-02  2.5388274569e-04 -7.8618615958e-19  2.0218920393e-19  4.0913775103e-18 -2.6140881438e-20 -1.3112693084e-21 -4.1824610214e-21]
 [-2.9106640629e-03  2.6080335330e-05 -8.0761686336e-20  2.0770069365e-20  4.2029046574e-19 -2.6853457562e-21 -1.3470132906e-22 -4.2964710203e-22]
 [-9.0336393846e-03  8.0943846253e-05 -2.5065481096e-19  6.4462717986e-20  1.3044282756e-18 -8.3343335612e-21 -4.1806378375e-22 -1.3334678611e-21]]
time for NO, Ng: 0.015
Pg_ortho
 [[ 6.3611950316e-01  4.6867268652e-01 -6.9577305819e-02 -8.4280098463e-02  1.4142148634e-02 -1.0419486843e-02 -1.5468360828e-03  1.8737071784e-03]
 [ 4.6841072861e-01  3.4511017739e-01 -5.1233701139e-02 -6.2060198016e-02 -1.8816007077e-02  1.3863037594e-02  2.0580520990e-03 -2.4929512792e-03]
 [-6.9577305819e-02 -5.1262353500e-02  7.6102076119e-03  9.2183656625e-03 -1.5468360828e-03  1.1396597950e-03  1.6918941590e-04 -2.0494183360e-04]
 [-8.4232991304e-02 -6.2060198016e-02  9.2132131885e-03  1.1160111843e-02  3.3836299292e-03 -2.4929512792e-03 -3.7009375313e-04  4.4830045640e-04]
 [-1.4142148634e-02 -1.0419486843e-02  1.5468360828e-03  1.8737071784e-03  6.3611950316e-01 -4.6867268652e-01 -6.9577305819e-02  8.4280098463e-02]
 [-1.8816007077e-02 -1.3863037594e-02  2.0580520990e-03  2.4929512792e-03 -4.6841072861e-01  3.4511017739e-01  5.1233701139e-02 -6.2060198016e-02]
 [ 1.5468360828e-03  1.1396597950e-03 -1.6918941590e-04 -2.0494183360e-04 -6.9577305819e-02  5.1262353500e-02  7.6102076119e-03 -9.2183656625e-03]
 [ 3.3836299292e-03  2.4929512792e-03 -3.7009375313e-04 -4.4830045640e-04  8.4232991304e-02 -6.2060198016e-02 -9.2132131885e-03  1.1160111843e-02]]
G(g) (NO)
 [[ 2.7182187537e-01 -1.4742329413e-03  4.2068424270e-02  6.7643611746e-03 -2.7455149391e-02  2.4490514538e-04  4.0619270292e-04  4.2107819282e-04]
 [ 1.4742329413e-03  2.7182187537e-01  8.2267442340e-05 -2.2055313966e-04  5.8895353562e-04  5.0360663644e-02 -1.2291890291e-03  5.6202119584e-03]
 [ 4.2026804024e-02 -1.2433106769e-02  7.6010006551e-01 -1.0958742839e-01 -9.7826978228e-02  4.5430746707e-04  2.7452324250e-03  2.0527465169e-03]
 [ 6.7554656809e-03  2.4710256694e-03 -1.0958457245e-01  8.3216979162e-01  1.3487622719e-01  2.1146194139e-04 -2.8834807657e-03 -2.3440226444e-03]
 [-2.7401098336e-02  1.5050071069e-02 -9.7823699111e-02  1.3487998389e-01  9.1763896814e-01  5.1617789095e-06 -4.2559023643e-03 -3.2632018043e-03]
 [ 1.7158542597e-02  5.0298023123e-02  1.9642718925e-03 -2.1324533586e-03  3.6841503734e-03  8.1002945074e-01 -9.2473962254e-02  1.6234781169e-01]
 [-2.1230550650e-03 -1.2382381266e-03 -1.4513237273e-03  1.1515463941e-03 -2.1833614931e-03 -9.2471752958e-02  8.0601380255e-01 -9.2859208648e-02]
 [ 9.3952011229e-03  5.5932458639e-03  2.6934216344e-03 -2.0015238258e-03  3.6238835070e-03  1.6234265908e-01 -9.2860470154e-02  8.9386557198e-01]]
time for Gg: 0.024
C(NO)
[[ 1.0000000000e+00  0.0000000000e+00 -1.0516940764e-16  9.4802105377e-17 -8.5846931267e-17  0.0000000000e+00  0.0000000000e+00  0.0000000000e+00]
 [ 0.0000000000e+00  1.0000000000e+00  0.0000000000e+00  0.0000000000e+00  0.0000000000e+00 -5.6156104019e-17  1.3877787808e-17  1.3877787808e-17]
 [ 8.4761078442e-18  0.0000000000e+00  7.0468696580e-01 -6.9916110254e-01 -1.2078920867e-01  0.0000000000e+00  0.0000000000e+00  0.0000000000e+00]
 [ 1.2118042191e-18  0.0000000000e+00  2.9435845087e-01  4.4298545567e-01 -8.4682760257e-01  0.0000000000e+00  0.0000000000e+00  0.0000000000e+00]
 [-1.3890764760e-16  0.0000000000e+00 -6.4557678291e-01 -5.6119304946e-01 -5.1797005570e-01  0.0000000000e+00  0.0000000000e+00  0.0000000000e+00]
 [ 0.0000000000e+00 -1.0904165912e-16  0.0000000000e+00  0.0000000000e+00  0.0000000000e+00 -9.6603538669e-01  2.5537416744e-01 -3.9492610326e-02]
 [ 0.0000000000e+00 -4.6555070778e-18  0.0000000000e+00  0.0000000000e+00  0.0000000000e+00 -1.9536732969e-01 -8.2180976309e-01 -5.3521987985e-01]
 [ 0.0000000000e+00 -4.0945607888e-18  0.0000000000e+00  0.0000000000e+00  0.0000000000e+00 -1.6913674395e-01 -5.0932577777e-01  8.4378908143e-01]]
detC 0.9999999999999997
detNg [ 1.0008929814  1.0237525651  1.1384609372  1.4889663308  2.4338084505  4.89939833    9.4619009517 11.9936114546]
xg [0.9991078153 0.9767985293 0.8783788423 0.6716068586 0.4108786785 0.2041066949 0.1056870078 0.0833777219]
ciS 1.0824855371541275
[[-0.7665289026  0.           -0.0406082005  0.0060738798  0.0368281888  0.            0.            0.          ]
 [ 0.           -0.7665289026  0.            0.            0.           -0.0507817054  0.0090099719 -0.0195517839]
 [-0.0406082005  0.           -0.1439718892 -0.074766956   0.5537209208  0.            0.            0.          ]
 [ 0.0060738798  0.           -0.074766956   0.3139833462  0.1319098488  0.            0.            0.          ]
 [ 0.0368281888  0.            0.5537209208  0.1319098488 -0.176512941   0.            0.            0.          ]
 [ 0.           -0.0507817054  0.            0.            0.           -0.6230100008 -0.0884724801 -0.3277135774]
 [ 0.            0.0090099719  0.            0.            0.           -0.0884724801  0.3083236533 -0.0227443336]
 [ 0.           -0.0195517839  0.            0.            0.           -0.3277135774 -0.0227443336  0.3081848635]]
ciH -1.3796559397301544
1.0 -4.119968255444917e-18 -0.028622676100253357j -4.7704895589362195e-17
0.5413164595163048 0.0004096287935700073 -0.00040962879357000733 0.4586835404836953
0.9999999999999999 1.5178830414797062e-18 -0.14746791169784024j -7.32920668600201e-17
0.5432252801945697 0.010873392490261003 -0.010873392490261001 0.45677471980543005
1.0 -4.3151246464923076e-17 -0.35420127981901933j -7.45931094670027e-17
0.5534544762542737 0.06272927331271563 -0.06272927331271562 0.4465455237457262
1.0 1.3964523981613297e-16 -0.6549140189796118j -7.806255641895632e-17
0.5914360730738475 0.21445618612801365 -0.21445618612801362 0.4085639269261523
0.9999999999999999 8.066464163292153e-17 -1.070497862038783j -6.505213034913027e-17
0.7442983876439321 0.5729828363148027 -0.5729828363148027 0.25570161235606764
1.0 -2.3071822230491534e-16 -1.5243150661736629j -2.5196858488563123e-16
1.489995706001463 1.1617682104820093 -1.161768210482009 -0.489995706001463
0.9999999999999999 -2.229119666630197e-16 -1.3629531408003448j 1.9255430583342559e-16
4.192364835081252 0.9288206320087621 -0.9288206320087623 -3.1923648350812517
1.0000000000000002 -5.616167253474913e-17 -0.3429829785108287j 1.3357370765021415e-16
6.432636807125841 0.058818661774079795 -0.05881866177407979 -5.43263680712584
S2 = 0.000000
X(g)
[[ 2.0000000000e+00 -3.4694469520e-18  1.8223759663e-04  3.9233843976e-05 -1.9219443946e-04  2.8334274645e-02  2.9106640629e-03  9.0336393846e-03]
 [ 1.7347234760e-18  2.0000000000e+00 -2.0338405036e-02 -4.3786453765e-03  2.1449626354e-02  2.5388274569e-04  2.6080335330e-05  8.0943846253e-05]
 [ 1.8223759663e-04  2.0338405036e-02  0.0000000000e+00  0.0000000000e+00  0.0000000000e+00  0.0000000000e+00  0.0000000000e+00  0.0000000000e+00]
 [ 3.9233843976e-05  4.3786453765e-03  0.0000000000e+00  0.0000000000e+00  0.0000000000e+00  0.0000000000e+00  0.0000000000e+00  0.0000000000e+00]
 [-1.9219443946e-04 -2.1449626354e-02  0.0000000000e+00  0.0000000000e+00  0.0000000000e+00  0.0000000000e+00  0.0000000000e+00  0.0000000000e+00]
 [-2.8334274645e-02  2.5388274569e-04  0.0000000000e+00  0.0000000000e+00  0.0000000000e+00  0.0000000000e+00  0.0000000000e+00  0.0000000000e+00]
 [-2.9106640629e-03  2.6080335330e-05  0.0000000000e+00  0.0000000000e+00  0.0000000000e+00  0.0000000000e+00  0.0000000000e+00  0.0000000000e+00]
 [-9.0336393846e-03  8.0943846253e-05  0.0000000000e+00  0.0000000000e+00  0.0000000000e+00  0.0000000000e+00  0.0000000000e+00  0.0000000000e+00]]
X(g) int
[[ 2.0000000000e+00 -2.9775842542e-17  1.7297620936e-01  3.7239964393e-02 -1.8242704147e-01  6.5899566958e-01  6.7695927885e-02  2.1010346337e-01]
 [ 4.8243556609e-17  2.0000000000e+00 -4.7302854980e-01 -1.0183808754e-01  4.9887322187e-01  2.4098032340e-01  2.4754922297e-02  7.6830247737e-02]
 [ 1.7297620936e-01  4.7302854980e-01  0.0000000000e+00  0.0000000000e+00  0.0000000000e+00  0.0000000000e+00  0.0000000000e+00  0.0000000000e+00]
 [ 3.7239964393e-02  1.0183808754e-01  0.0000000000e+00  0.0000000000e+00  0.0000000000e+00  0.0000000000e+00  0.0000000000e+00  0.0000000000e+00]
 [-1.8242704147e-01 -4.9887322187e-01  0.0000000000e+00  0.0000000000e+00  0.0000000000e+00  0.0000000000e+00  0.0000000000e+00  0.0000000000e+00]
 [-6.5899566958e-01  2.4098032340e-01  0.0000000000e+00  0.0000000000e+00  0.0000000000e+00  0.0000000000e+00  0.0000000000e+00  0.0000000000e+00]
 [-6.7695927885e-02  2.4754922297e-02  0.0000000000e+00  0.0000000000e+00  0.0000000000e+00  0.0000000000e+00  0.0000000000e+00  0.0000000000e+00]
 [-2.1010346337e-01  7.6830247737e-02  0.0000000000e+00  0.0000000000e+00  0.0000000000e+00  0.0000000000e+00  0.0000000000e+00  0.0000000000e+00]]
Feff
 [[ 9.6662157319e-17 -1.5486702294e-18 -1.0186027571e-03 -6.6348634100e-04 -1.4394394130e-03  1.1958079344e-02  1.5668409951e-02  2.3976191356e-02]
 [ 9.3622528465e-18  5.4084424463e-16  3.6239562591e-03 -5.6254787072e-03  3.0307976084e-02 -3.5397590768e-04  2.4512183319e-04  1.8342213250e-03]
 [-1.0186027571e-03 -3.6239562591e-03  0.0000000000e+00  0.0000000000e+00  0.0000000000e+00  0.0000000000e+00  0.0000000000e+00  0.0000000000e+00]
 [-6.6348634100e-04  5.6254787072e-03  0.0000000000e+00  0.0000000000e+00  0.0000000000e+00  0.0000000000e+00  0.0000000000e+00  0.0000000000e+00]
 [-1.4394394130e-03 -3.0307976084e-02  0.0000000000e+00  0.0000000000e+00  0.0000000000e+00  0.0000000000e+00  0.0000000000e+00  0.0000000000e+00]
 [-1.1958079344e-02 -3.5397590768e-04  0.0000000000e+00  0.0000000000e+00  0.0000000000e+00  0.0000000000e+00  0.0000000000e+00  0.0000000000e+00]
 [-1.5668409951e-02  2.4512183318e-04  0.0000000000e+00  0.0000000000e+00  0.0000000000e+00  0.0000000000e+00  0.0000000000e+00  0.0000000000e+00]
 [-2.3976191356e-02  1.8342213250e-03  0.0000000000e+00  0.0000000000e+00  0.0000000000e+00  0.0000000000e+00  0.0000000000e+00  0.0000000000e+00]]
Feff (ortho)
 [[ 2.0782198116e-04 -3.3940211585e-04 -1.2424501919e-04 -1.4494044116e-03  4.3368086899e-17  9.3675067703e-17 -9.5409791179e-18  9.0205620751e-17]
 [-3.3940211585e-04 -6.1293293454e-04 -3.7669208596e-05 -1.0026209326e-03  7.0256300777e-17  3.9898639947e-17 -1.1275702594e-17  7.1991024253e-17]
 [-1.2424501919e-04 -3.7669208596e-05  2.4693000123e-05  1.7198224060e-04  1.8214596498e-17 -2.6020852140e-17 -1.3010426070e-18 -7.3725747729e-18]
 [-1.4494044116e-03 -1.0026209326e-03  1.7198224060e-04  3.8041795327e-04  6.9388939039e-17 -6.8521577301e-17 -6.9388939039e-18 -2.1684043450e-18]
 [ 4.3368086899e-17  7.0256300777e-17  1.8214596498e-17  6.9388939039e-17  2.0782198116e-04  3.3940211585e-04 -1.2424501919e-04  1.4494044116e-03]
 [ 9.3675067703e-17  3.9898639947e-17 -2.6020852140e-17 -6.8521577301e-17  3.3940211585e-04 -6.1293293454e-04  3.7669208596e-05 -1.0026209326e-03]
 [-9.5409791179e-18 -1.1275702594e-17 -1.3010426070e-18 -6.9388939039e-18 -1.2424501919e-04  3.7669208596e-05  2.4693000123e-05 -1.7198224060e-04]
 [ 9.0205620751e-17  7.1991024253e-17 -7.3725747729e-18 -2.1684043450e-18  1.4494044116e-03 -1.0026209326e-03 -1.7198224060e-04  3.8041795327e-04]]
Hsp + Hph =  -1.2745259796794077
Feff (mod,ortho)
[[-0.2310739402 -0.3313317711  0.223666772  -0.0384629739  0.            0.            0.            0.          ]
 [-0.3313317711  0.0028209801 -0.0731165878  0.3312843263  0.            0.            0.            0.          ]
 [ 0.223666772  -0.0731165878  1.1207941493 -0.0507734134  0.            0.            0.            0.          ]
 [-0.0384629739  0.3312843263 -0.0507734134  1.1161638314  0.            0.            0.            0.          ]
 [ 0.            0.            0.            0.           -0.2310739402  0.3313317711  0.223666772   0.0384629739]
 [ 0.            0.            0.            0.            0.3313317711  0.0028209801  0.0731165878  0.3312843263]
 [ 0.            0.            0.            0.            0.223666772   0.0731165878  1.1207941493  0.0507734134]
 [ 0.            0.            0.            0.            0.0384629739  0.3312843263  0.0507734134  1.1161638314]]
Alpha occ 1 vir 3; Beta occ 1 vir 3
Alpha energies:  [-0.4947223317] <- HOMO
         LUMO->  [0.1214844235 1.0988027767 1.283140152 ]
Beta energies:   [-0.4947223317] <- HOMO
         LUMO->  [0.1214844235 1.0988027767 1.283140152 ]
e_a, e_b
 [-0.4947223317  0.1214844235  1.0988027767  1.283140152 ] 
 [-0.4947223317  0.1214844235  1.0988027767  1.283140152 ]
v_a, v_b
 [[ 0.7974155857  0.5736013608 -0.0906731316  0.1639763574]
 [ 0.5878800685 -0.7560562714 -0.1003878331 -0.269626079 ]
 [-0.0870821898 -0.1702230952 -0.7905455423  0.5817890817]
 [-0.1046044975  0.2653007562 -0.5972758255 -0.7496232361]] 
 [[ 0.7974155857 -0.5736013608  0.0906731316  0.1639763574]
 [-0.5878800685 -0.7560562714 -0.1003878331  0.269626079 ]
 [-0.0870821898  0.1702230952  0.7905455423  0.5817890817]
 [ 0.1046044975  0.2653007562 -0.5972758255  0.7496232361]]
P_a, P_b
 [[ 0.6358716164  0.4687847292 -0.0694406954 -0.0834132566]
 [ 0.4687847292  0.345602975  -0.0511938837 -0.0614948992]
 [-0.0694406954 -0.0511938837  0.0075833078  0.0091091887]
 [-0.0834132566 -0.0614948992  0.0091091887  0.0109421009]] 
 [[ 0.6358716164 -0.4687847292 -0.0694406954  0.0834132566]
 [-0.4687847292  0.345602975   0.0511938837 -0.0614948992]
 [-0.0694406954  0.0511938837  0.0075833078 -0.0091091887]
 [ 0.0834132566 -0.0614948992 -0.0091091887  0.0109421009]]
time for xg, H, S2, Yg, Feff: 0.025
 E =     -1.00993737, delta E = -3.3704e-05, MaxD(dm) = 0.000850053, RMSD(dm) = 0.000393751
**** Start Cycle 4 ****
dm (ortho)
[[[ 0.6358716164  0.4687847292 -0.0694406954 -0.0834132566]
  [ 0.4687847292  0.345602975  -0.0511938837 -0.0614948992]
  [-0.0694406954 -0.0511938837  0.0075833078  0.0091091887]
  [-0.0834132566 -0.0614948992  0.0091091887  0.0109421009]]

 [[ 0.6358716164 -0.4687847292 -0.0694406954  0.0834132566]
  [-0.4687847292  0.345602975   0.0511938837 -0.0614948992]
  [-0.0694406954  0.0511938837  0.0075833078 -0.0091091887]
  [ 0.0834132566 -0.0614948992 -0.0091091887  0.0109421009]]]
Fock (ortho)
 (array([[-0.2362400512, -0.3289820046,  0.2172415354, -0.0275600898],
       [-0.3289820046,  0.0097338328, -0.0788642211,  0.3386483747],
       [ 0.2172415354, -0.0788642211,  1.1224638275, -0.0511749333],
       [-0.0275600898,  0.3386483747, -0.0511749333,  1.1134700019]]), array([[-0.2362400512,  0.3289820046,  0.2172415354,  0.0275600898],
       [ 0.3289820046,  0.0097338328,  0.0788642211,  0.3386483747],
       [ 0.2172415354,  0.0788642211,  1.1224638275,  0.0511749333],
       [ 0.0275600898,  0.3386483747,  0.0511749333,  1.1134700019]]))
E(UHF) =    -1.261193
NO eigenvalue
[-1.0000000000e+00 -6.5744751280e-19  1.2365938561e-18  1.6727298205e-16] 
 [-1.0000000000e+00 -3.5476907910e-18  4.7449783272e-19  1.1320183576e-16]
NO vec
[[ 0.7974155857  0.           -0.0159672839 -0.0369319688 -0.6020875843  0.            0.            0.          ]
 [ 0.5878800685  0.            0.12169352   -0.1538330021  0.784807696   0.            0.            0.          ]
 [-0.0870821898  0.           -0.4102090719 -0.9065092103 -0.0488493727  0.            0.            0.          ]
 [-0.1046044975  0.            0.9036947772 -0.3914236692 -0.1384960647  0.            0.            0.          ]
 [ 0.            0.7974155857  0.            0.            0.            0.0555966852 -0.0619595142  0.5976607824]
 [ 0.           -0.5878800685  0.            0.            0.            0.2222653405  0.0880338913  0.7728163931]
 [ 0.           -0.0870821898  0.            0.            0.           -0.9732831622  0.0319473307  0.2100379643]
 [ 0.            0.1046044975  0.            0.            0.            0.0150669552  0.9936752088 -0.0379534627]]
dm(NO)
[[ 1.0000000000e+00  0.0000000000e+00  7.3284248135e-18 -3.1007161709e-17 -2.3013028787e-16  0.0000000000e+00  0.0000000000e+00  0.0000000000e+00]
 [ 0.0000000000e+00  1.0000000000e+00  0.0000000000e+00  0.0000000000e+00  0.0000000000e+00 -1.4079438015e-17  5.5108253838e-18  9.4797261423e-17]
 [ 1.2494533412e-17  0.0000000000e+00  3.8273443286e-19 -9.1292810563e-20  3.5599545841e-19  0.0000000000e+00  0.0000000000e+00  0.0000000000e+00]
 [-1.2663090934e-17  0.0000000000e+00 -3.1736927243e-19 -4.0739135962e-20  2.9896476875e-18  0.0000000000e+00  0.0000000000e+00  0.0000000000e+00]
 [-2.2985067254e-16  0.0000000000e+00 -3.0564368460e-18  1.0133762426e-19 -4.7174952326e-17  0.0000000000e+00  0.0000000000e+00  0.0000000000e+00]
 [ 0.0000000000e+00  6.1214618428e-18  0.0000000000e+00  0.0000000000e+00  0.0000000000e+00  1.1113818299e-18 -6.7912969798e-19 -4.6785623566e-19]
 [ 0.0000000000e+00 -1.4217990855e-17  0.0000000000e+00  0.0000000000e+00  0.0000000000e+00 -8.1369493083e-20 -1.7090369877e-19  2.0132267959e-18]
 [ 0.0000000000e+00  1.7453839010e-16  0.0000000000e+00  0.0000000000e+00  0.0000000000e+00  1.5432531596e-18 -5.1494656531e-18 -1.8810706535e-17]]
D(g) (NO)
 [[ 9.9951368521e-01  8.9467722981e-03  2.5664618264e-17  4.7316448335e-18 -2.1120679069e-17  8.0508390477e-03 -3.2548747058e-03  2.8582129408e-02]
 [-8.9467722981e-03  9.9951368521e-01 -1.4337633919e-03 -3.0865572837e-03  2.9677699150e-02  1.5467124285e-17 -1.4362199880e-17  3.0728066339e-16]
 [ 1.7454282684e-17  1.4337633919e-03  9.9951368521e-01  1.2885954885e-16  5.2360280999e-17  1.3690244485e-02  2.7958140023e-02 -1.1211644250e-03]
 [ 3.8890850154e-18  3.0865572837e-03  1.1493129458e-16  9.9951368521e-01  1.2163694713e-17  2.6198504014e-02 -1.3382676353e-02 -9.8695795210e-03]
 [-6.8033341163e-17 -2.9677699150e-02  1.7750059101e-17  1.2998116261e-17  9.9951368521e-01  5.8131453402e-03 -1.0223724623e-03  7.5358704663e-03]
 [-8.0508390477e-03  4.0096522177e-17 -1.3690244485e-02 -2.6198504014e-02 -5.8131453402e-03  9.9951368521e-01  2.1839577396e-16  2.9596060767e-17]
 [ 3.2548747058e-03 -1.3877787808e-17 -2.7958140023e-02  1.3382676353e-02  1.0223724623e-03  2.1510571102e-16  9.9951368521e-01 -2.7755575616e-17]
 [-2.8582129408e-02  3.8857805862e-16  1.1211644250e-03  9.8695795210e-03 -7.5358704663e-03  5.5511151231e-17 -2.0816681712e-17  9.9951368521e-01]]
N(g) (NO)
 [[ 1.0004063962 -0.0089547631]
 [ 0.0089547631  1.0004063962]]
P(g) (NO)
 [[ 1.0000000000e+00 -6.3015866827e-18  7.3284248135e-18 -3.1007161709e-17 -2.3013028787e-16  8.3899990120e-35 -3.6111186457e-35 -6.7407548054e-34]
 [ 2.6550956819e-18  1.0000000000e+00  1.7538392085e-35 -4.3744767001e-35 -7.2316542882e-34 -1.4079438015e-17  5.5108253838e-18  9.4797261423e-17]
 [ 1.2839011467e-05  1.4343460679e-03  9.4089730216e-23 -3.9810130474e-22 -2.9546454048e-21 -2.0194786555e-20  7.9044307200e-21  1.3597207917e-19]
 [ 2.7639389165e-05  3.0878116488e-03  2.0255318539e-22 -8.5701900939e-22 -6.3606605851e-21 -4.3474652713e-20  1.7016390815e-20  2.9271608810e-19]
 [-2.6575676424e-04 -2.9689760055e-02 -1.9475784654e-21  8.2403629640e-21  6.1158680657e-20  4.1801513638e-19 -1.6361508335e-19 -2.8145079455e-18]
 [-8.0541108781e-03  7.2093356155e-05 -5.9023946010e-20  2.4973511842e-19  1.8534948549e-18 -1.0150339393e-21  3.9729389710e-22  6.8342527303e-21]
 [ 3.2561974745e-03 -2.9146631800e-05  2.3862798370e-20 -1.0096544165e-19 -7.4934966216e-19  4.1036819578e-22 -1.6062199838e-22 -2.7630208743e-21]
 [-2.8593745076e-02  2.5594619677e-04 -2.0954711093e-19  8.8661087745e-19  6.5802867856e-18 -3.6035786126e-21  1.4104747980e-21  2.4262998525e-20]]
time for NO, Ng: 0.014
Pg_ortho
 [[ 6.3599823245e-01  4.6887807458e-01 -6.9454522530e-02 -8.3429866069e-02  1.4145270817e-02 -1.0428342418e-02 -1.5447417626e-03  1.8555681282e-03]
 [ 4.6861626925e-01  3.4547878097e-01 -5.1175486928e-02 -6.1472800689e-02 -1.8819971816e-02  1.3874680304e-02  2.0552449517e-03 -2.4687925971e-03]
 [-6.9454522530e-02 -5.1204077517e-02  7.5848177774e-03  9.1110025421e-03 -1.5447417626e-03  1.1388326358e-03  1.6869433920e-04 -2.0263829645e-04]
 [-8.3383281713e-02 -6.1472800689e-02  9.1059152729e-03  1.0938168804e-02  3.3487335262e-03 -2.4687925971e-03 -3.6570021153e-04  4.3928485228e-04]
 [-1.4145270817e-02 -1.0428342418e-02  1.5447417626e-03  1.8555681282e-03  6.3599823245e-01 -4.6887807458e-01 -6.9454522530e-02  8.3429866069e-02]
 [-1.8819971816e-02 -1.3874680304e-02  2.0552449517e-03  2.4687925971e-03 -4.6861626925e-01  3.4547878097e-01  5.1175486928e-02 -6.1472800689e-02]
 [ 1.5447417626e-03  1.1388326358e-03 -1.6869433920e-04 -2.0263829645e-04 -6.9454522530e-02  5.1204077517e-02  7.5848177774e-03 -9.1110025421e-03]
 [ 3.3487335262e-03  2.4687925971e-03 -3.6570021153e-04 -4.3928485228e-04  8.3383281713e-02 -6.1472800689e-02 -9.1059152729e-03  1.0938168804e-02]]
G(g) (NO)
 [[ 2.7183994384e-01 -1.4699564463e-03  9.6991763616e-03 -4.0598830991e-03 -4.9460624800e-02  4.6299703459e-04  2.8672257838e-04  3.1850729182e-04]
 [ 1.4699564463e-03  2.7183994384e-01  1.4791572935e-04 -4.9932322569e-04  3.5611829389e-04  7.5615165084e-03 -1.5614358058e-02  4.7496582708e-02]
 [ 9.7012452737e-03  4.0190097490e-03  8.3012063191e-01  4.6105435982e-02  1.8804436979e-01 -3.1743235661e-03 -2.4976793643e-03 -1.5998880028e-04]
 [-4.0716384581e-03  3.7794189081e-04  4.6104849666e-02  7.6189975452e-01  4.9958717076e-02 -1.1354885981e-03 -7.7421246017e-04 -2.7630042352e-04]
 [-4.9392902301e-02  1.9283501932e-02  1.8805010702e-01  4.9959185481e-02  9.1859275675e-01 -4.9974283598e-03 -3.2522636913e-03 -9.3639873462e-04]
 [ 1.2667461679e-03  7.5407187642e-03 -5.3313668510e-04  1.6711518386e-03 -2.6648486023e-04  7.6906167146e-01 -2.1685775491e-02 -9.3530478561e-02]
 [ 1.5479141036e-03 -1.5613619252e-02  8.2264860687e-04 -2.4511467490e-03  8.5317937099e-05 -2.1686900541e-02  7.5734127976e-01  1.4359846621e-01]
 [ 1.9599694954e-02  4.7431041015e-02  1.5509864173e-03 -6.3552787167e-03  1.4486158173e-03 -9.3533127165e-02  1.4360348599e-01  9.8421019196e-01]]
time for Gg: 0.024
C(NO)
[[ 1.0000000000e+00  0.0000000000e+00 -1.1255762508e-16  7.8332706011e-18  9.9925861386e-17  0.0000000000e+00  0.0000000000e+00  0.0000000000e+00]
 [ 0.0000000000e+00  1.0000000000e+00  0.0000000000e+00  0.0000000000e+00  0.0000000000e+00 -2.3919951355e-16  4.1633363423e-17  1.1102230246e-16]
 [ 1.8533205729e-17  0.0000000000e+00  2.0841196088e-01 -2.2623483603e-01 -9.5151576631e-01  0.0000000000e+00  0.0000000000e+00  0.0000000000e+00]
 [-1.4115775340e-17  0.0000000000e+00  1.4558598654e-01  9.6921640938e-01 -1.9855546404e-01  0.0000000000e+00  0.0000000000e+00  0.0000000000e+00]
 [-2.6519934843e-16  0.0000000000e+00 -9.6714485734e-01  9.7146027943e-02 -2.3493291419e-01  0.0000000000e+00  0.0000000000e+00  0.0000000000e+00]
 [ 0.0000000000e+00 -1.9390578002e-19  0.0000000000e+00  0.0000000000e+00  0.0000000000e+00 -3.6161343666e-01 -7.9569540374e-01 -4.8590590332e-01]
 [ 0.0000000000e+00 -8.2791883142e-18  0.0000000000e+00  0.0000000000e+00  0.0000000000e+00  2.3804244391e-01 -5.8269795550e-01  7.7704497139e-01]
 [ 0.0000000000e+00  1.8119278359e-16  0.0000000000e+00  0.0000000000e+00  0.0000000000e+00 -9.0142748867e-01  1.6532367381e-01  4.0012068874e-01]]
detC 1.0000000000000002
detNg [ 1.0008931453  1.0237570249  1.1384898484  1.4890998711  2.4344486294  4.9029047234  9.4766081671 12.0178427422]
xg [0.9991076517 0.9767942741 0.8783565364 0.6715466299 0.4107706311 0.2039607246 0.105522987  0.0832096094]
ciS 1.0823172610257326
[[-0.7665098187  0.            0.0066304487  0.0058858036  0.0544832528  0.            0.            0.          ]
 [ 0.           -0.7665098187  0.            0.            0.           -0.0008349799  0.0017878566 -0.0551646332]
 [ 0.0066304487  0.            0.3933874423 -0.0408230639  0.0504059941  0.            0.            0.          ]
 [ 0.0058858036  0.           -0.0408230639  0.3234871778  0.0963624667  0.            0.            0.          ]
 [ 0.0544832528  0.            0.0504059941  0.0963624667 -0.7233951878  0.            0.            0.          ]
 [ 0.           -0.0008349799  0.            0.            0.            0.2455449238  0.0361046274 -0.2610446737]
 [ 0.            0.0017878566  0.            0.            0.            0.0361046274  0.3974987897  0.1236065749]
 [ 0.           -0.0551646332  0.            0.            0.           -0.2610446737  0.1236065749 -0.6495642813]]
ciH -1.3794479334848095
0.9999999999999999 -7.806255641895632e-18 -0.028627930311669023j 1.7997756063259374e-16
0.5412321846232965 0.000409779196964889 -0.00040977919696488904 0.4587678153767032
1.0 -2.970713952610282e-17 -0.1474956004904072j 1.227316859253591e-16
0.5431374735120443 0.010877476082012902 -0.010877476082012906 0.4568625264879559
0.9999999999999999 -6.483528991463317e-17 -0.3542752384530159j 2.0643209364124004e-16
0.5533481349190373 0.06275547229047065 -0.06275547229047064 0.4466518650809626
1.0 -1.7932703932910243e-16 -0.6550928808243554j 1.214306433183765e-16
0.5912659056940639 0.21457334125337654 -0.21457334125337651 0.408734094305936
1.0 -4.592680402648597e-16 -1.0709758269463305j -7.41594285980085e-17
0.7439282754019516 0.5734946109516882 -0.5734946109516882 0.25607172459804817
1.0000000000000004 -5.984795992119984e-16 -1.5256857515793172j 7.632783294297951e-17
1.4893906993900052 1.163858506286073 -1.1638585062860731 -0.48939069939000424
1.0000000000000004 -6.409803243734302e-16 -1.365322022874159j -3.382710778154774e-16
4.19629618455327 0.9320521130725927 -0.9320521130725925 -3.1962961845532694
1.0000000000000009 -6.071532165918825e-18 -0.34373895567504104j -2.8275992658421956e-16
6.444481085266165 0.059078234824283905 -0.05907823482428391 -5.444481085266164
S2 = -0.000000
X(g)
[[ 2.0000000000e+00 -1.2143064332e-17  1.2839011467e-05  2.7639389165e-05 -2.6575676424e-04  8.0541108781e-03 -3.2561974745e-03  2.8593745076e-02]
 [ 1.0408340856e-17  2.0000000000e+00 -1.4343460679e-03 -3.0878116488e-03  2.9689760055e-02  7.2093356155e-05 -2.9146631800e-05  2.5594619677e-04]
 [ 1.2839011467e-05  1.4343460679e-03  0.0000000000e+00  0.0000000000e+00  0.0000000000e+00  0.0000000000e+00  0.0000000000e+00  0.0000000000e+00]
 [ 2.7639389165e-05  3.0878116488e-03  0.0000000000e+00  0.0000000000e+00  0.0000000000e+00  0.0000000000e+00  0.0000000000e+00  0.0000000000e+00]
 [-2.6575676424e-04 -2.9689760055e-02  0.0000000000e+00  0.0000000000e+00  0.0000000000e+00  0.0000000000e+00  0.0000000000e+00  0.0000000000e+00]
 [-8.0541108781e-03  7.2093356155e-05  0.0000000000e+00  0.0000000000e+00  0.0000000000e+00  0.0000000000e+00  0.0000000000e+00  0.0000000000e+00]
 [ 3.2561974745e-03 -2.9146631800e-05  0.0000000000e+00  0.0000000000e+00  0.0000000000e+00  0.0000000000e+00  0.0000000000e+00  0.0000000000e+00]
 [-2.8593745076e-02  2.5594619677e-04  0.0000000000e+00  0.0000000000e+00  0.0000000000e+00  0.0000000000e+00  0.0000000000e+00  0.0000000000e+00]]
X(g) int
[[ 2.0000000000e+00 -2.5246262626e-16  1.2188420525e-02  2.6238819014e-02 -2.5229007765e-01  1.8735078293e-01 -7.5744071003e-02  6.6513369483e-01]
 [ 1.8975817955e-16  2.0000000000e+00 -3.3365055792e-02 -7.1827162390e-02  6.9062865850e-01  6.8440171126e-02 -2.7669685177e-02  2.4297664085e-01]
 [ 1.2188420525e-02  3.3365055792e-02  0.0000000000e+00  0.0000000000e+00  0.0000000000e+00  0.0000000000e+00  0.0000000000e+00  0.0000000000e+00]
 [ 2.6238819014e-02  7.1827162390e-02  0.0000000000e+00  0.0000000000e+00  0.0000000000e+00  0.0000000000e+00  0.0000000000e+00  0.0000000000e+00]
 [-2.5229007765e-01 -6.9062865850e-01  0.0000000000e+00  0.0000000000e+00  0.0000000000e+00  0.0000000000e+00  0.0000000000e+00  0.0000000000e+00]
 [-1.8735078293e-01  6.8440171126e-02  0.0000000000e+00  0.0000000000e+00  0.0000000000e+00  0.0000000000e+00  0.0000000000e+00  0.0000000000e+00]
 [ 7.5744071003e-02 -2.7669685177e-02  0.0000000000e+00  0.0000000000e+00  0.0000000000e+00  0.0000000000e+00  0.0000000000e+00  0.0000000000e+00]
 [-6.6513369483e-01  2.4297664085e-01  0.0000000000e+00  0.0000000000e+00  0.0000000000e+00  0.0000000000e+00  0.0000000000e+00  0.0000000000e+00]]
Feff
 [[-1.7343513516e-16  3.0117015413e-18 -6.3835947413e-04  5.1371909474e-04  5.7643813539e-05  1.8864669489e-02  1.8471333610e-02  1.7910976949e-02]
 [-2.3463216231e-18 -2.9217640824e-16  1.3044981019e-02 -2.2361150910e-02  1.8646083121e-02  2.3532563997e-04  7.8688233069e-04 -1.3075801266e-05]
 [-6.3835947413e-04 -1.3044981019e-02  0.0000000000e+00  0.0000000000e+00  0.0000000000e+00  0.0000000000e+00  0.0000000000e+00  0.0000000000e+00]
 [ 5.1371909474e-04  2.2361150910e-02  0.0000000000e+00  0.0000000000e+00  0.0000000000e+00  0.0000000000e+00  0.0000000000e+00  0.0000000000e+00]
 [ 5.7643813539e-05 -1.8646083121e-02  0.0000000000e+00  0.0000000000e+00  0.0000000000e+00  0.0000000000e+00  0.0000000000e+00  0.0000000000e+00]
 [-1.8864669489e-02  2.3532563997e-04  0.0000000000e+00  0.0000000000e+00  0.0000000000e+00  0.0000000000e+00  0.0000000000e+00  0.0000000000e+00]
 [-1.8471333610e-02  7.8688233069e-04  0.0000000000e+00  0.0000000000e+00  0.0000000000e+00  0.0000000000e+00  0.0000000000e+00  0.0000000000e+00]
 [-1.7910976949e-02 -1.3075801266e-05  0.0000000000e+00  0.0000000000e+00  0.0000000000e+00  0.0000000000e+00  0.0000000000e+00  0.0000000000e+00]]
Feff (ortho)
 [[-6.9353490226e-05 -1.1445419002e-04 -1.6099593471e-04 -6.2217781345e-04  1.5612511284e-17  2.0643209364e-16 -3.7296554734e-17 -8.6736173799e-18]
[...]
 [-6.3342935928e-19  0.0000000000e+00 -2.5628332897e-18  1.2131342685e-18  4.3338655566e-19  0.0000000000e+00  0.0000000000e+00  0.0000000000e+00]
 [ 6.0340737958e-17  0.0000000000e+00 -1.3839656374e-17 -2.2630574005e-19  6.4521942286e-19  0.0000000000e+00  0.0000000000e+00  0.0000000000e+00]
 [ 0.0000000000e+00  3.0814634330e-16  0.0000000000e+00  0.0000000000e+00  0.0000000000e+00  2.3680437273e-17  3.3372239900e-18 -5.7702332429e-18]
 [ 0.0000000000e+00  2.8158383464e-18  0.0000000000e+00  0.0000000000e+00  0.0000000000e+00  1.9479561055e-18  1.9007464904e-18  1.3164612642e-18]
 [ 0.0000000000e+00 -1.2938562655e-17  0.0000000000e+00  0.0000000000e+00  0.0000000000e+00 -1.4874733392e-17  5.2545285253e-19  3.0097169571e-18]]
D(g) (NO)
 [[ 9.9951368521e-01  8.9589007532e-03  9.9784183932e-17  6.5804333020e-18 -2.5258054133e-19 -2.8808320470e-02  7.1034980309e-03  3.4281422779e-03]
 [-8.9589007532e-03  9.9951368521e-01  2.9332204916e-02 -2.8945027323e-03 -4.8347472276e-03  5.3869354529e-17  3.5454585598e-17 -5.0755338904e-18]
 [-1.5389491009e-17 -2.9332204916e-02  9.9951368521e-01 -2.4605989905e-18 -1.2752228496e-16 -9.9589448968e-03 -1.9421794452e-03 -3.0103463377e-03]
 [-4.1602582800e-18  2.8945027323e-03  8.4195529469e-18  9.9951368521e-01  1.2616710902e-16 -8.5960352594e-04  7.4086221996e-03 -3.0139481209e-02]
 [ 1.1457884075e-17  4.8347472276e-03 -1.5228345641e-16  1.0599017150e-16  9.9951368521e-01 -6.5233614631e-03 -2.9381518793e-02 -6.5719405532e-03]
 [ 2.8808320470e-02 -9.6303296058e-18  9.9589448968e-03  8.5960352594e-04  6.5233614631e-03  9.9951368521e-01  5.0876622992e-17 -5.8788566274e-17]
 [-7.1034980309e-03  5.5511151231e-17  1.9421794452e-03 -7.4086221996e-03  2.9381518793e-02  2.7755575616e-17  9.9951368521e-01 -5.5511151231e-17]
 [-3.4281422779e-03  0.0000000000e+00  3.0103463377e-03  3.0139481209e-02  6.5719405532e-03 -5.5511151231e-17 -5.5511151231e-17  9.9951368521e-01]]
N(g) (NO)
 [[ 1.0004061787 -0.0089669004]
 [ 0.0089669004  1.0004061787]]
P(g) (NO)
 [[ 1.0000000000e+00 -9.4213612692e-18 -2.7773385008e-16 -6.6176988522e-18  7.5360050737e-17 -2.1262177709e-33 -7.2222372915e-35  2.8888949166e-34]
 [-5.6315436858e-18  1.0000000000e+00  1.7480858525e-33  4.3113533833e-35 -6.2431230038e-34  2.4038819436e-16  9.2749823616e-18 -3.4516410795e-17]
 [-2.6301896012e-04 -2.9344119034e-02  7.3049268441e-20  1.7405802705e-21 -1.9821122180e-20 -7.0539797898e-18 -2.7216618646e-19  1.0128536670e-18]
 [ 2.5954717721e-05  2.8956784178e-03 -7.2085036806e-21 -1.7176050567e-22  1.9559488444e-21  6.9608690632e-19  2.6857366250e-20 -9.9948425801e-20]
 [ 4.3352696871e-05  4.8367109992e-03 -1.2040511414e-20 -2.8689509233e-22  3.2670614358e-21  1.1626882238e-18  4.4860409206e-20 -1.6694590375e-19]
 [ 2.8820021797e-02 -2.5832134047e-04 -8.0042956133e-18 -1.9072222517e-19  2.1718783049e-18 -6.2097400602e-20 -2.3959258765e-21  8.9163255050e-21]
 [-7.1063833208e-03  6.3696359367e-05  1.9736831999e-18  4.7027904746e-20 -5.3553740761e-19  1.5311852816e-20  5.9078260962e-22 -2.1985697061e-21]
 [-3.4295347164e-03  3.0739810378e-05  9.5249788079e-19  2.2695627957e-20 -2.5844991024e-19  7.3894875120e-21  2.8511119906e-22 -1.0610279228e-21]]
time for NO, Ng: 0.015
Pg_ortho
 [[ 6.3623144058e-01  4.6896203824e-01 -6.9290290093e-02 -8.2711832561e-02  1.4142734155e-02 -1.0424516949e-02 -1.5402479189e-03  1.8385942360e-03]
 [ 4.6869983116e-01  3.4547558345e-01 -5.1044863859e-02 -6.0932263770e-02 -1.8829023813e-02  1.3878750439e-02  2.0506193799e-03 -2.4478247467e-03]
 [-6.9290290093e-02 -5.1073420142e-02  7.5462229543e-03  9.0079277866e-03 -1.5402479189e-03  1.1353066783e-03  1.6774434319e-04 -2.0023645461e-04]
 [-8.2665586540e-02 -6.0932263770e-02  9.0028912542e-03  1.0746753015e-02  3.3209149950e-03 -2.4478247467e-03 -3.6167210342e-04  4.3172805916e-04]
 [-1.4142734155e-02 -1.0424516949e-02  1.5402479189e-03  1.8385942360e-03  6.3623144058e-01 -4.6896203824e-01 -6.9290290093e-02  8.2711832561e-02]
 [-1.8829023813e-02 -1.3878750439e-02  2.0506193799e-03  2.4478247467e-03 -4.6869983116e-01  3.4547558345e-01  5.1044863859e-02 -6.0932263770e-02]
 [ 1.5402479189e-03  1.1353066783e-03 -1.6774434319e-04 -2.0023645461e-04 -6.9290290093e-02  5.1073420142e-02  7.5462229543e-03 -9.0079277866e-03]
 [ 3.3209149950e-03  2.4478247467e-03 -3.6167210342e-04 -4.3172805916e-04  8.2665586540e-02 -6.0932263770e-02 -9.0028912542e-03  1.0746753015e-02]]
G(g) (NO)
 [[ 2.7192295173e-01 -1.4700361256e-03 -4.6084436309e-02  1.0347258220e-02  1.8123785408e-02 -3.8838310681e-04  2.9830489367e-04 -3.9792690158e-04]
 [ 1.4700361256e-03  2.7192295173e-01  4.7823553178e-04  3.4922257426e-05  4.1017591144e-04 -4.6338191047e-02  1.0552059662e-02  1.7341819614e-02]
 [-4.6015821323e-02  1.8881371474e-02  9.1254884311e-01  1.7814560161e-01 -5.6638609872e-02  1.6090592653e-03 -3.1570396433e-03  4.6122436881e-03]
 [ 1.0344972523e-02  3.4408367398e-03  1.7813987831e-01  8.3349438690e-01 -7.6870131684e-02  7.2614098447e-04 -1.9483662301e-03  3.4801904695e-03]
 [ 1.8118221331e-02 -4.5197072624e-03 -5.6639238815e-02 -7.6871011275e-02  7.6515223177e-01 -7.4432176953e-04  1.1757667826e-03 -1.6299403990e-03]
 [-1.9703998605e-02 -4.6271168648e-02 -3.0441068139e-03 -2.3833353893e-04 -5.9738145056e-03  9.8859335502e-01  1.5315978753e-01  6.4716840610e-02]
 [-5.1558298437e-04  1.0536198036e-02 -1.1073548986e-03 -3.1085452157e-04 -2.7690608266e-03  1.5315527228e-01  7.9897207618e-01 -2.8156940215e-03]
 [ 5.0981674853e-04  1.7341040788e-02 -3.4225138551e-05 -1.9801852135e-04 -9.0346749604e-04  6.4713179593e-02 -2.8153268723e-03  7.2363003057e-01]]
time for Gg: 0.024
C(NO)
[[ 1.0000000000e+00  0.0000000000e+00 -1.9853990858e-16 -5.8857441474e-17  2.3451333431e-16  0.0000000000e+00  0.0000000000e+00  0.0000000000e+00]
 [ 0.0000000000e+00  1.0000000000e+00  0.0000000000e+00  0.0000000000e+00  0.0000000000e+00 -4.4673096192e-16 -1.3877787808e-17  0.0000000000e+00]
 [-1.5547080973e-16  0.0000000000e+00 -9.5389536526e-01 -1.5948511384e-01 -2.5425996655e-01  0.0000000000e+00  0.0000000000e+00  0.0000000000e+00]
 [-1.4493131642e-18  0.0000000000e+00  2.6307669570e-01 -3.6489390526e-02 -9.6408463143e-01  0.0000000000e+00  0.0000000000e+00  0.0000000000e+00]
 [ 4.5636296330e-17  0.0000000000e+00  1.4447935599e-01 -9.8652573349e-01  7.6763877268e-02  0.0000000000e+00  0.0000000000e+00  0.0000000000e+00]
 [ 0.0000000000e+00  3.3059381512e-16  0.0000000000e+00  0.0000000000e+00  0.0000000000e+00  9.0614969994e-01 -3.1465652931e-02 -4.2178505663e-01]
 [ 0.0000000000e+00  9.2749823616e-18  0.0000000000e+00  0.0000000000e+00  0.0000000000e+00 -3.7666754962e-01 -5.1364525071e-01 -7.7090214261e-01]
 [ 0.0000000000e+00 -2.0638622988e-17  0.0000000000e+00  0.0000000000e+00  0.0000000000e+00 -1.9239095189e-01  8.5742548895e-01 -4.7729158019e-01]]
detC 0.9999999999999998
detNg [ 1.0008929278  1.0237511059  1.1384514782  1.4889226435  2.4335990661  4.8982521761  9.4570988642 11.9857045199]
xg [0.9991078688 0.9767999216 0.8783861404 0.6716265646 0.4109140301 0.2041544543 0.1057406732 0.0834327259]
ciS 1.0825405947341329
[[-7.6653054097e-01  0.0000000000e+00  5.1974286464e-02  6.6808773684e-03 -1.7404516117e-02  0.0000000000e+00  0.0000000000e+00  0.0000000000e+00]
 [ 0.0000000000e+00 -7.6653054097e-01  0.0000000000e+00  0.0000000000e+00  0.0000000000e+00  5.4736944970e-02  1.6595661840e-03 -7.0703926674e-03]
 [ 5.1974286464e-02  0.0000000000e+00 -6.9066450120e-01  1.1238470411e-01  1.8766789895e-01  0.0000000000e+00  0.0000000000e+00  0.0000000000e+00]
 [ 6.6808773684e-03  0.0000000000e+00  1.1238470411e-01  3.6979005760e-01  2.6039783402e-02  0.0000000000e+00  0.0000000000e+00  0.0000000000e+00]
 [-1.7404516117e-02  0.0000000000e+00  1.8766789895e-01  2.6039783402e-02  3.1437459805e-01  0.0000000000e+00  0.0000000000e+00  0.0000000000e+00]
 [ 0.0000000000e+00  5.4736944970e-02  0.0000000000e+00  0.0000000000e+00  0.0000000000e+00 -6.5898799279e-01  2.4046744574e-01  1.4286492705e-01]
 [ 0.0000000000e+00  1.6595661840e-03  0.0000000000e+00  0.0000000000e+00  0.0000000000e+00  2.4046744574e-01  2.7127485803e-01  1.3726541843e-04]
 [ 0.0000000000e+00 -7.0703926674e-03  0.0000000000e+00  0.0000000000e+00  0.0000000000e+00  1.4286492705e-01  1.3726541843e-04  3.8121328922e-01]]
ciH -1.3797342556400798
0.9999999999999999 5.407458335271453e-18 -0.028620956996627284j 1.5829351718288365e-16
0.5413440330627804 0.0004095795897013941 -0.0004095795897013941 0.4586559669372194
0.9999999999999999 -1.0299920638612292e-18 -0.1474588523671285j 1.5916087892087205e-16
0.54325400897228 0.010872056570715296 -0.010872056570715296 0.45674599102771996
0.9999999999999999 -2.0599841277224584e-17 -0.35417708241080553j 2.727852665973529e-16
0.5534892672817614 0.06272070285251527 -0.06272070285251527 0.4465107327182383
0.9999999999999999 -1.5048726154098802e-16 -0.6548555048672364j 2.402592014227878e-16
0.5914917358733456 0.21441786612746164 -0.21441786612746164 0.4085082641266544
0.9999999999999999 1.700029006457271e-16 -1.0703415332244268j 2.740863092043355e-16
0.7444193913200184 0.5728154988726085 -0.5728154988726084 0.2555806086799813
1.0 3.0617869350990645e-16 -1.5238670227759517j 1.1622647289044608e-16
1.490193060370235 1.1610853515520216 -1.1610853515520214 -0.490193060370235
1.0 -2.168404344971009e-17 -1.3621796715483931j 1.5959455978986625e-16
4.1910799856718075 0.9277667287898443 -0.9277667287898441 -3.191079985671807
0.9999999999999996 6.526897078362737e-17 -0.34273629487873875j 2.0816681711721685e-16
6.4287717657183 0.058734083913602866 -0.058734083913602866 -5.4287717657183
S2 = 0.000000
X(g)
[[ 2.0000000000e+00  0.0000000000e+00 -2.6301896012e-04  2.5954717721e-05  4.3352696871e-05 -2.8820021797e-02  7.1063833208e-03  3.4295347164e-03]
 [-1.7347234760e-18  2.0000000000e+00  2.9344119034e-02 -2.8956784178e-03 -4.8367109992e-03 -2.5832134047e-04  6.3696359367e-05  3.0739810378e-05]
 [-2.6301896012e-04 -2.9344119034e-02  0.0000000000e+00  0.0000000000e+00  0.0000000000e+00  0.0000000000e+00  0.0000000000e+00  0.0000000000e+00]
 [ 2.5954717721e-05  2.8956784178e-03  0.0000000000e+00  0.0000000000e+00  0.0000000000e+00  0.0000000000e+00  0.0000000000e+00  0.0000000000e+00]
 [ 4.3352696871e-05  4.8367109992e-03  0.0000000000e+00  0.0000000000e+00  0.0000000000e+00  0.0000000000e+00  0.0000000000e+00  0.0000000000e+00]
 [ 2.8820021797e-02 -2.5832134047e-04  0.0000000000e+00  0.0000000000e+00  0.0000000000e+00  0.0000000000e+00  0.0000000000e+00  0.0000000000e+00]
 [-7.1063833208e-03  6.3696359367e-05  0.0000000000e+00  0.0000000000e+00  0.0000000000e+00  0.0000000000e+00  0.0000000000e+00  0.0000000000e+00]
 [-3.4295347164e-03  3.0739810378e-05  0.0000000000e+00  0.0000000000e+00  0.0000000000e+00  0.0000000000e+00  0.0000000000e+00  0.0000000000e+00]]
X(g) int
[[ 2.0000000000e+00  4.5558495857e-18 -2.4963954794e-01  2.4634436985e-02  4.1147404902e-02 -6.7025907238e-01  1.6527114123e-01  7.9759716141e-02]
 [-4.9846006271e-17  2.0000000000e+00  6.8244785316e-01 -6.7343971628e-02 -1.1248601582e-01 -2.4518088973e-01  6.0456213310e-02  2.9176118570e-02]
 [-2.4963954794e-01 -6.8244785316e-01  0.0000000000e+00  0.0000000000e+00  0.0000000000e+00  0.0000000000e+00  0.0000000000e+00  0.0000000000e+00]
 [ 2.4634436985e-02  6.7343971628e-02  0.0000000000e+00  0.0000000000e+00  0.0000000000e+00  0.0000000000e+00  0.0000000000e+00  0.0000000000e+00]
 [ 4.1147404902e-02  1.1248601582e-01  0.0000000000e+00  0.0000000000e+00  0.0000000000e+00  0.0000000000e+00  0.0000000000e+00  0.0000000000e+00]
 [ 6.7025907238e-01 -2.4518088973e-01  0.0000000000e+00  0.0000000000e+00  0.0000000000e+00  0.0000000000e+00  0.0000000000e+00  0.0000000000e+00]
 [-1.6527114123e-01  6.0456213310e-02  0.0000000000e+00  0.0000000000e+00  0.0000000000e+00  0.0000000000e+00  0.0000000000e+00  0.0000000000e+00]
 [-7.9759716141e-02  2.9176118570e-02  0.0000000000e+00  0.0000000000e+00  0.0000000000e+00  0.0000000000e+00  0.0000000000e+00  0.0000000000e+00]]
Feff
 [[ 3.5991932988e-16  9.2026961272e-18  2.8364440457e-10  1.9316719763e-10 -6.5725540368e-11 -2.1564840161e-02  8.7833059364e-03 -2.2789396343e-02]
 [ 1.6828775170e-19  5.8380613330e-16  2.4697941165e-02  8.7228869993e-03  1.9377005047e-02  3.1922246661e-10  1.2315080223e-10  7.0847026563e-11]
 [ 2.8364447864e-10 -2.4697941165e-02  0.0000000000e+00  0.0000000000e+00  0.0000000000e+00  0.0000000000e+00  0.0000000000e+00  0.0000000000e+00]
 [ 1.9316700482e-10 -8.7228869993e-03  0.0000000000e+00  0.0000000000e+00  0.0000000000e+00  0.0000000000e+00  0.0000000000e+00  0.0000000000e+00]
 [-6.5725541290e-11 -1.9377005047e-02  0.0000000000e+00  0.0000000000e+00  0.0000000000e+00  0.0000000000e+00  0.0000000000e+00  0.0000000000e+00]
 [ 2.1564840161e-02  3.1922257985e-10  0.0000000000e+00  0.0000000000e+00  0.0000000000e+00  0.0000000000e+00  0.0000000000e+00  0.0000000000e+00]
 [-8.7833059364e-03  1.2315077692e-10  0.0000000000e+00  0.0000000000e+00  0.0000000000e+00  0.0000000000e+00  0.0000000000e+00  0.0000000000e+00]
 [ 2.2789396343e-02  7.0847091294e-11  0.0000000000e+00  0.0000000000e+00  0.0000000000e+00  0.0000000000e+00  0.0000000000e+00  0.0000000000e+00]]
Feff (ortho)
 [[-2.8064839825e-10  9.0435306310e-11 -8.3797539586e-11  1.2104429641e-10 -3.4694469520e-18  9.5409791179e-18 -1.2143064332e-17  6.9388939039e-17]
 [ 9.0435306310e-11  2.8579672415e-10 -9.4144714185e-11  5.0571221610e-11  1.0408340856e-17 -1.7347234760e-18 -1.0408340856e-17  5.2909066017e-17]
 [-8.3797539586e-11 -9.4144714185e-11  2.1581057086e-11  1.6847865221e-12  1.7347234760e-17 -1.3444106939e-17 -4.3368086899e-19 -5.6378512969e-18]
 [ 1.2104429641e-10  5.0571221610e-11  1.6847865221e-12 -2.6729023057e-11  1.9081958236e-17 -1.3010426070e-17 -4.3368086899e-19 -6.9388939039e-18]
 [-3.4694469520e-18  1.0408340856e-17  1.7347234760e-17  1.9081958236e-17 -2.8064925801e-10 -9.0435749964e-11 -8.3797831523e-11 -1.2104478030e-10]
 [ 9.5409791179e-18 -1.7347234760e-18 -1.3444106939e-17 -1.3010426070e-17 -9.0435749964e-11  2.8579784529e-10  9.4145046704e-11  5.0571438220e-11]
 [-1.2143064332e-17 -1.0408340856e-17 -4.3368086899e-19 -4.3368086899e-19 -8.3797831523e-11  9.4145046704e-11  2.1581130871e-11 -1.6847839482e-12]
 [ 6.9388939039e-17  5.2909066017e-17 -5.6378512969e-18 -6.9388939039e-18 -1.2104478030e-10  5.0571438220e-11 -1.6847839482e-12 -2.6729134340e-11]]
Hsp + Hph =  -1.2745335023477213
Feff (mod,ortho)
[[-0.2308163172 -0.3318709593  0.2236619129 -0.0397983682  0.            0.            0.            0.          ]
 [-0.3318709593  0.0030568182 -0.0736695092  0.3306629314  0.            0.            0.            0.          ]
 [ 0.2236619129 -0.0736695092  1.1211906459 -0.0508694262  0.            0.            0.            0.          ]
 [-0.0397983682  0.3306629314 -0.0508694262  1.1166619521  0.            0.            0.            0.          ]
 [ 0.            0.            0.            0.           -0.2308163172  0.3318709593  0.2236619129  0.0397983682]
 [ 0.            0.            0.            0.            0.3318709593  0.0030568182  0.0736695092  0.3306629314]
 [ 0.            0.            0.            0.            0.2236619129  0.0736695092  1.1211906459  0.0508694262]
 [ 0.            0.            0.            0.            0.0397983682  0.3306629314  0.0508694262  1.1166619521]]
F(mod,ortho) updated with CDIIS
[[[-0.2308163171 -0.3318709593  0.223661913  -0.0397983681]
  [-0.3318709593  0.0030568181 -0.0736695092  0.3306629315]
  [ 0.223661913  -0.0736695092  1.1211906459 -0.0508694262]
  [-0.0397983681  0.3306629315 -0.0508694262  1.1166619521]]

 [[-0.2308163171  0.3318709593  0.223661913   0.0397983681]
  [ 0.3318709593  0.0030568181  0.0736695092  0.3306629315]
  [ 0.223661913   0.0736695092  1.1211906459  0.0508694262]
  [ 0.0397983681  0.3306629315  0.0508694262  1.1166619521]]]
Alpha occ 1 vir 3; Beta occ 1 vir 3
Alpha energies:  [-0.4946207656] <- HOMO
         LUMO->  [0.1219281958 1.0988253817 1.283960287 ]
Beta energies:   [-0.4946207656] <- HOMO
         LUMO->  [0.1219281958 1.0988253817 1.283960287 ]
e_a, e_b
 [-0.4946207656  0.1219281958  1.0988253817  1.283960287 ] 
 [-0.4946207656  0.1219281958  1.0988253817  1.283960287 ]
v_a, v_b
 [[ 0.7975617066  0.5732885075 -0.0900046244  0.1647263759]
 [ 0.5878775229 -0.7561293528 -0.100110005  -0.2695299736]
 [-0.0868603443 -0.1705432304 -0.7900354027  0.5824211102]
 [-0.1036852097  0.2655629786 -0.5980979994 -0.749002313 ]] 
 [[ 0.7975617066 -0.5732885075  0.0900046244  0.1647263759]
 [-0.5878775229 -0.7561293528 -0.100110005   0.2695299736]
 [-0.0868603443  0.1705432304  0.7900354027  0.5824211102]
 [ 0.1036852097  0.2655629786 -0.5980979994  0.749002313 ]]
P_a, P_b
 [[ 0.6361046759  0.4688686005 -0.0692764845 -0.0826953528]
 [ 0.4688686005  0.345599982  -0.0510632441 -0.0609542043]
 [-0.0692764845 -0.0510632441  0.0075447194  0.009006133 ]
 [-0.0826953528 -0.0609542043  0.009006133   0.0107506227]] 
 [[ 0.6361046759 -0.4688686005 -0.0692764845  0.0826953528]
 [-0.4688686005  0.345599982   0.0510632441 -0.0609542043]
 [-0.0692764845  0.0510632441  0.0075447194 -0.009006133 ]
 [ 0.0826953528 -0.0609542043 -0.009006133   0.0107506227]]
time for xg, H, S2, Yg, Feff: 0.027

***************
SUHF converged at cycle 12
Final E(SUHF) =     -1.00994490, delta E = -2.85796e-11, MaxD(dm) = 3.05623e-10, RMSD(dm) = 1.15061e-10
dm_reg
 [[[2.8447917825e-05 2.9589961088e-04 1.9909043420e-03 3.7474730452e-03]
  [2.9589961088e-04 3.0777851742e-03 2.0708293089e-02 3.8979155617e-02]
  [1.9909043420e-03 2.0708293089e-02 1.3933181765e-01 2.6226384662e-01]
  [3.7474730452e-03 3.8979155617e-02 2.6226384662e-01 4.9365842207e-01]]

 [[1.3933181765e-01 2.6226384662e-01 1.9909043420e-03 2.0708293089e-02]
  [2.6226384662e-01 4.9365842207e-01 3.7474730452e-03 3.8979155617e-02]
  [1.9909043420e-03 3.7474730452e-03 2.8447917825e-05 2.9589961088e-04]
  [2.0708293089e-02 3.8979155617e-02 2.9589961088e-04 3.0777851742e-03]]]
mo_reg
 [[-0.005333659  -0.1698002773  0.1610010621 -1.3022267479]
 [-0.0554777899 -0.9047664758  0.0668003056  1.0393364815]
 [-0.3732717745  0.0827862706  1.2513972121  0.1959491265]
 [-0.7026082992  0.2059771904 -1.119703327  -0.3413827732]] 
 [[-0.3732717745 -0.0827862706 -1.2513972121  0.1959491265]
 [-0.7026082992 -0.2059771904  1.119703327  -0.3413827732]
 [-0.005333659   0.1698002773 -0.1610010621 -1.3022267479]
 [-0.0554777899  0.9047664758 -0.0668003056  1.0393364815]]
time for cyc: 0.807
******* suhf density *****
Clebsch-Gordan coeff: < 0 0 0 0 | 0 0 > = 1
Clebsch-Gordan coeff: < 0 0 1 0 | 0 0 > = 0
xggint 1.0
SUHF DM alpha
 [[0.0648955961 0.1245153575 0.0203317291 0.046136313 ]
 [0.1245153575 0.2397755512 0.046136313  0.1019222852]
 [0.0203317291 0.046136313  0.0648955961 0.1245153575]
 [0.046136313  0.1019222852 0.1245153575 0.2397755512]] 
SUHF DM beta
 [[0.0648955961 0.1245153575 0.0203317291 0.046136313 ]
 [0.1245153575 0.2397755512 0.046136313  0.1019222852]
 [0.0203317291 0.046136313  0.0648955961 0.1245153575]
 [0.046136313  0.1019222852 0.1245153575 0.2397755512]]
SUHF natural orbitals alpha
 [[-0.2359566186  0.3081811236  1.1345282672 -0.5592592485]
 [-0.4724586982  0.5420297568 -1.1328963847  0.3254152213]
 [-0.2359566186 -0.3081811236 -0.5779459413 -1.1251238976]
 [-0.4724586982 -0.5420297568  0.715963673   0.936346786 ]]
SUHF natural orbitals beta
 [[-0.2359566186  0.3081811236  1.1345282672 -0.5592592485]
 [-0.4724586982  0.5420297568 -1.1328963847  0.3254152213]
 [-0.2359566186 -0.3081811236 -0.5779459413 -1.1251238976]
 [-0.4724586982 -0.5420297568  0.715963673   0.936346786 ]]
SUHF natural orbitals, total
 [[-0.2359566186  0.3081811236  1.1345282672 -0.5592592485]
 [-0.4724586982  0.5420297568 -1.1328963847  0.3254152213]
 [-0.2359566186 -0.3081811236 -0.5779459413 -1.1251238976]
 [-0.4724586982 -0.5420297568  0.715963673   0.936346786 ]]
SUHF NO occ alpha:  0.765393  0.234607  ...
SUHF NO occ beta:   0.765393  0.234607  ...
SUHF NO occ total:  1.530786  0.469214  ...
core 0, active 2, external 2
time for dm: 0.013
time tot: 3.287
