#INFO: **** input file is /share/home/srwang/ExSCF/test/vhfopt/test.py ****
from pyphf import util, guess

xyz = 'H 0.0 0.0 0.0; H 0.0 0.0 2.0'''
bas = '3-21g'
mf = guess.mix(xyz, bas, conv='tight')

mf2 = util.SUHF(mf)
mf2.verbose = 8
mf2.kernel()

#INFO: ******************** input file end ********************


System: uname_result(system='Linux', node='xn01', release='3.10.0-1127.el7.x86_64', version='#1 SMP Tue Feb 18 16:39:12 EST 2020', machine='x86_64', processor='x86_64')  Threads 32
Python 3.7.4 (default, Aug 13 2019, 20:35:49) 
[GCC 7.3.0]
numpy 1.17.2  scipy 1.4.1
Date: Wed Apr 21 17:40:39 2021
PySCF version 1.7.6a1
PySCF path  /share/home/srwang/pyscf/pyscf
GIT HEAD      ref: refs/heads/master
GIT master branch  80f71dfe77ac5f9caae26788acf76446987635bd

[CONFIG] conf_file None
[INPUT] verbose = 4
[INPUT] num. atoms = 2
[INPUT] num. electrons = 2
[INPUT] charge = 0
[INPUT] spin (= nelec alpha-beta = 2S) = 0
[INPUT] symmetry False subgroup None
[INPUT] Mole.unit = angstrom
[INPUT]  1 H      0.000000000000   0.000000000000   0.000000000000 AA    0.000000000000   0.000000000000   0.000000000000 Bohr
[INPUT]  2 H      0.000000000000   0.000000000000   2.000000000000 AA    0.000000000000   0.000000000000   3.779452249130 Bohr

nuclear repulsion = 0.26458860546
number of shells = 4
number of NR pGTOs = 6
number of NR cGTOs = 4
basis = 3-21g
ecp = {}
CPU time:         1.13


******** <class 'pyscf.scf.hf.RHF'> ********
method = RHF
initial guess = minao
damping factor = 0
level_shift factor = 0
DIIS = <class 'pyscf.scf.diis.CDIIS'>
diis_start_cycle = 1
diis_space = 8
SCF conv_tol = 1e-05
SCF conv_tol_grad = None
SCF max_cycles = 50
direct_scf = True
direct_scf_tol = 1e-13
chkfile to save SCF result = /share/home/srwang/ExSCF/test/vhfopt/tmpdpuyfr25
max_memory 4000 MB (current use 108 MB)
Set gradient conv threshold to 0.00316228
init E= -0.648815945420394
  HOMO = -0.244674774926751  LUMO = -0.0864459286574333
cycle= 1 E= -0.907663399996247  delta_E= -0.259  |g|= 0.019  |ddm|= 0.828
  HOMO = -0.369605169894073  LUMO = -0.0101025752244096
cycle= 2 E= -0.907801422494246  delta_E= -0.000138  |g|= 0.00293  |ddm|= 0.0218
  HOMO = -0.370705495656876  LUMO = -0.011268420043164
cycle= 3 E= -0.907804773936949  delta_E= -3.35e-06  |g|= 1.06e-06  |ddm|= 0.00397
  HOMO = -0.370702164933128  LUMO = -0.0112672782402441
Extra cycle  E= -0.907804773937381  delta_E= -4.32e-13  |g|= 1.64e-07  |ddm|= 1.22e-06
converged SCF energy = -0.907804773937381


******** <class 'pyscf.scf.uhf.UHF'> ********
method = UHF
initial guess = minao
damping factor = 0
level_shift factor = 0
DIIS = <class 'pyscf.scf.diis.CDIIS'>
diis_start_cycle = 1
diis_space = 8
SCF conv_tol = 1e-09
SCF conv_tol_grad = None
SCF max_cycles = 100
direct_scf = True
direct_scf_tol = 1e-13
chkfile to save SCF result = /share/home/srwang/ExSCF/test/vhfopt/tmpddrqoop3
max_memory 4000 MB (current use 154 MB)
number electrons alpha = 1  beta = 1
Set gradient conv threshold to 3.16228e-05
init E= -1.69135654891561
  alpha nocc = 1  HOMO = -0.24136263647573  LUMO = 0.900983838942928
  beta  nocc = 1  HOMO = -0.24136263647573  LUMO = 0.90098383894293
cycle= 1 E= -0.98558925463628  delta_E= 0.706  |g|= 0.0835  |ddm|= 1.15
  alpha nocc = 1  HOMO = -0.500699367107887  LUMO = 0.115721881429081
  beta  nocc = 1  HOMO = -0.500699367107887  LUMO = 0.11572188142908
cycle= 2 E= -0.995568238270465  delta_E= -0.00998  |g|= 0.0263  |ddm|= 0.145
  alpha nocc = 1  HOMO = -0.497083605541942  LUMO = 0.125003394565144
  beta  nocc = 1  HOMO = -0.497083605541942  LUMO = 0.125003394565144
cycle= 3 E= -0.996982488678899  delta_E= -0.00141  |g|= 0.00453  |ddm|= 0.0714
  alpha nocc = 1  HOMO = -0.492766860752049  LUMO = 0.118670910813593
  beta  nocc = 1  HOMO = -0.492766860752048  LUMO = 0.118670910813592
cycle= 4 E= -0.997011162805863  delta_E= -2.87e-05  |g|= 0.000416  |ddm|= 0.00998
  alpha nocc = 1  HOMO = -0.494395497533041  LUMO = 0.120246563561695
  beta  nocc = 1  HOMO = -0.494395497533041  LUMO = 0.120246563561695
cycle= 5 E= -0.997011453176456  delta_E= -2.9e-07  |g|= 3.04e-05  |ddm|= 0.00094
  alpha nocc = 1  HOMO = -0.4943311804959  LUMO = 0.120178766572682
  beta  nocc = 1  HOMO = -0.4943311804959  LUMO = 0.120178766572683
cycle= 6 E= -0.997011455175522  delta_E= -2e-09  |g|= 5.7e-07  |ddm|= 7.89e-05
  alpha nocc = 1  HOMO = -0.494330560132532  LUMO = 0.120178160886672
  beta  nocc = 1  HOMO = -0.494330560132532  LUMO = 0.120178160886673
cycle= 7 E= -0.997011455176148  delta_E= -6.27e-13  |g|= 2.53e-07  |ddm|= 8.43e-07
  alpha nocc = 1  HOMO = -0.494330110948658  LUMO = 0.1201777550687
  beta  nocc = 1  HOMO = -0.494330110948659  LUMO = 0.120177755068699
Extra cycle  E= -0.997011455176267  delta_E= -1.19e-13  |g|= 1.16e-07  |ddm|= 3.54e-07
converged SCF energy = -0.997011455176267  <S^2> = 0.91048301  2S+1 = 2.1545143
checking UHF/UKS internal stability ...
UHF/UKS wavefunction is stable in the internal stability analysis
time for guess: 0.175

******** <class 'pyphf.util.SUHF'> ********
max_cycle = 70
verbose: 8, debug2
chkfile0: 23763_ges.pchk # the file store hf for guess
chkfile: 23763_su.pchk # the file store suhf info
conv_tol: 1e-07
DIIS: <class 'pyscf.scf.diis.CDIIS'>
diis_start_cyc = 10
S
[[1.         0.64589894 0.00227256 0.07465634]
 [0.64589894 1.         0.07465634 0.27025724]
 [0.00227256 0.07465634 1.         0.64589894]
 [0.07465634 0.27025724 0.64589894 1.        ]]
SVD: S^(-1/2)
[[-0.3306004   0.46012676 -0.85621932  0.83453679]
 [-0.39774539  0.36468663  0.71167752 -1.05293881]
 [-0.3306004  -0.46012676 -0.85621932 -0.83453679]
 [-0.39774539 -0.36468663  0.71167752  1.05293881]]
S^(1/2)
[[-0.61794925 -0.74345483 -0.61794925 -0.74345483]
 [ 0.66740563  0.52897143 -0.66740563 -0.52897143]
 [-0.34536213  0.28706017 -0.34536213  0.28706017]
 [ 0.23115675 -0.29165151 -0.23115675  0.29165151]]
C (ortho)
 [[-0.80171109 -0.57009486 -0.09238995 -0.15399766]
 [ 0.58103419 -0.75902561  0.10126721 -0.27572512]
 [ 0.08280271  0.16885271 -0.79177919 -0.58113526]
 [-0.11314731  0.26525597  0.59522665 -0.75002813]] 
 [[-0.80171109 -0.57009486 -0.09238995 -0.15399766]
 [-0.58103419  0.75902561 -0.10126721  0.27572512]
 [ 0.08280271  0.16885271 -0.79177919 -0.58113526]
 [ 0.11314731 -0.26525597 -0.59522665  0.75002813]]
density matrix (ortho)
[[[ 0.64274066 -0.46582155 -0.06638385  0.09071146]
  [-0.46582155  0.33760073  0.04811121 -0.06574246]
  [-0.06638385  0.04811121  0.00685629 -0.0093689 ]
  [ 0.09071146 -0.06574246 -0.0093689   0.01280231]]

 [[ 0.64274066  0.46582155 -0.06638385 -0.09071146]
  [ 0.46582155  0.33760073 -0.04811121 -0.06574246]
  [-0.06638385 -0.04811121  0.00685629  0.0093689 ]
  [-0.09071146 -0.06574246  0.0093689   0.01280231]]]
grids:  [0.06237655 0.31939555 0.74529195 1.28265786 1.85893479 2.39630071
 2.8221971  3.07921611] 
weights:  [0.15900941 0.34931531 0.49276925 0.56970235 0.56970235 0.49276925
 0.34931531 0.15900941]
S = 0.0, Sz = 0.0
Wigner small d:  1
value : [1. 1. 1. 1. 1. 1. 1. 1.]
time for Preparation before cyc: 0.189
**** Start Cycle 1 ****
dm (ortho)
[[[ 0.6427406647 -0.4658215524 -0.0663838507  0.0907114563]
  [-0.4658215524  0.3376007317  0.0481112058 -0.0657424584]
  [-0.0663838507  0.0481112058  0.0068562888 -0.0093689043]
  [ 0.0907114563 -0.0657424584 -0.0093689043  0.0128023148]]

 [[ 0.6427406647  0.4658215524 -0.0663838507 -0.0907114563]
  [ 0.4658215524  0.3376007317 -0.0481112058 -0.0657424584]
  [-0.0663838507 -0.0481112058  0.0068562888  0.0093689043]
  [-0.0907114563 -0.0657424584  0.0093689043  0.0128023148]]]
Fock (ortho)
 (array([[-0.5178052947, -0.0446883031,  0.160054909 , -0.0330291361],
       [-0.0446883031, -0.3239336614, -0.0779147518,  0.2681874691],
       [ 0.160054909 , -0.0779147518,  0.7142814571, -0.1338421245],
       [-0.0330291361,  0.2681874691, -0.1338421245,  0.7443487171]]), array([[-0.5178052947,  0.0446883031,  0.160054909 ,  0.0330291361],
       [ 0.0446883031, -0.3239336614,  0.0779147518,  0.2681874691],
       [ 0.160054909 ,  0.0779147518,  0.7142814571,  0.1338421245],
       [ 0.0330291361,  0.2681874691,  0.1338421245,  0.7443487171]]))
E(UHF) =    -1.220879
NO eigenvalue
[-1.0000000000e+00 -2.5308884258e-17 -3.5364850996e-19  2.1142208792e-17] 
 [-1.0000000000e+00 -4.8828099928e-18 -1.3918549159e-18  5.7683042086e-17]
NO vec
[[ 0.8017110856  0.            0.3997949765 -0.0773750381 -0.4375344736  0.            0.            0.          ]
 [-0.5810341915  0.            0.648039717   0.0776043762 -0.4862317907  0.            0.            0.          ]
 [-0.0828027103  0.            0.1760389419 -0.9643005144  0.1796622386  0.            0.            0.          ]
 [ 0.1131473145  0.            0.6238740201  0.2410709069  0.7347541835  0.            0.            0.          ]
 [ 0.            0.8017110856  0.            0.            0.            0.0180974022  0.1130830804  0.586637909 ]
 [ 0.            0.5810341915  0.            0.            0.            0.1858102515 -0.0450336783 -0.7911041566]
 [ 0.           -0.0828027103  0.            0.            0.            0.1530064873  0.9814340451 -0.0807461527]
 [ 0.           -0.1131473145  0.            0.            0.            0.9704308576 -0.1482275275  0.1532652472]]
dm(NO)
[[ 1.0000000000e+00  0.0000000000e+00  6.1444756717e-17  1.9156783799e-19 -1.5788234427e-16  0.0000000000e+00  0.0000000000e+00  0.0000000000e+00]
 [ 0.0000000000e+00  1.0000000000e+00  0.0000000000e+00  0.0000000000e+00  0.0000000000e+00 -5.1068690611e-17 -7.6095243013e-17  8.8549665836e-17]
 [ 4.2785336209e-17  0.0000000000e+00  3.0312768921e-17  1.9976030670e-18 -2.2832565326e-17  0.0000000000e+00  0.0000000000e+00  0.0000000000e+00]
 [-1.8937998242e-19  0.0000000000e+00  6.6395718598e-18 -6.4398143295e-19 -5.0208174380e-18  0.0000000000e+00  0.0000000000e+00  0.0000000000e+00]
 [-1.3750603194e-16  0.0000000000e+00 -2.6336447559e-17 -3.9884544277e-18  1.7534786794e-17  0.0000000000e+00  0.0000000000e+00  0.0000000000e+00]
 [ 0.0000000000e+00 -2.6151362693e-17  0.0000000000e+00  0.0000000000e+00  0.0000000000e+00  3.1364249988e-18  1.3319043809e-18  5.9820364981e-18]
 [ 0.0000000000e+00 -6.4386743772e-17  0.0000000000e+00  0.0000000000e+00  0.0000000000e+00  1.1257318038e-18  1.6895863453e-19 -4.9794230028e-18]
 [ 0.0000000000e+00  3.7083621681e-17  0.0000000000e+00  0.0000000000e+00  0.0000000000e+00 -9.8262475876e-19 -5.1593465784e-18 -1.6665027106e-17]]
D(g) (NO)
 [[ 9.9951368521e-01  9.3298287800e-03  4.5430725523e-17 -1.6109911331e-17 -1.3809117621e-16  1.1472531357e-04  5.8590523526e-04  2.9748796998e-02]
 [-9.3298287800e-03  9.9951368521e-01 -1.9080609546e-02 -1.1110125425e-03  2.2804459216e-02 -3.9020758219e-17 -9.4768097609e-17 -3.8497974731e-17]
 [ 1.0095185685e-16  1.9080609546e-02  9.9951368521e-01 -1.1154607634e-16  3.7166841287e-16  2.3699537861e-02  3.0036218844e-03 -6.1346209999e-03]
 [-1.7125334285e-17  1.1110125425e-03 -1.1716620010e-16  9.9951368521e-01 -1.6850130120e-16  3.1001673499e-03 -3.1007822129e-02  2.5030998244e-04]
 [-1.4968012990e-16 -2.2804459216e-02  3.2871267437e-16 -1.8478636522e-16  9.9951368521e-01  2.0027500603e-02  1.2421804156e-03  7.0502426914e-03]
 [-1.1472531357e-04 -5.6314749677e-17 -2.3699537861e-02 -3.1001673499e-03 -2.0027500603e-02  9.9951368521e-01  1.0404038602e-16 -7.8466669265e-18]
 [-5.8590523526e-04 -9.7144514655e-17 -3.0036218844e-03  3.1007822129e-02 -1.2421804156e-03  1.1102230246e-16  9.9951368521e-01 -2.4286128664e-17]
 [-2.9748796998e-02  0.0000000000e+00  6.1346209999e-03 -2.5030998244e-04 -7.0502426914e-03 -1.7347234760e-17 -2.0816681712e-17  9.9951368521e-01]]
N(g) (NO)
 [[ 1.0003993862 -0.0093380962]
 [ 0.0093380962  1.0003993862]]
P(g) (NO)
 [[ 1.0000000000e+00 -4.2695165292e-18  6.1444756717e-17  1.9156783799e-19 -1.5788234427e-16  2.0742763948e-34  3.8518598888e-34 -2.8888949166e-34]
 [ 3.7374060591e-18  1.0000000000e+00  2.8306479218e-34  3.9052898021e-37 -3.2924855014e-34 -5.1068690611e-17 -7.6095243013e-17  8.8549665836e-17]
 [ 1.7817656824e-04  1.9088230078e-02  1.0948015888e-20  3.4132899959e-23 -2.8130934289e-20 -9.7481091618e-19 -1.4525235065e-18  1.6902563948e-18]
 [ 1.0374742045e-05  1.1114562655e-03  6.3747350093e-22  1.9874669032e-24 -1.6379885952e-21 -5.6760616153e-20 -8.4576534625e-20  9.8419080905e-20]
 [-2.1295023484e-04 -2.2813567002e-02 -1.3084675373e-20 -4.0794416088e-23  3.3621082290e-20  1.1650589950e-18  1.7360039250e-18 -2.0201337346e-18]
 [-1.1477113327e-04  1.0713160190e-06 -7.0520843619e-21 -2.1986457864e-23  1.8120335576e-20 -5.4710706323e-23 -8.1522052812e-23  9.4864675490e-23]
 [-5.8613923771e-04  5.4712394736e-06 -3.6015182864e-20 -1.1228542653e-22  9.2541036922e-20 -2.7940903594e-22 -4.1633529733e-22  4.8447642710e-22]
 [-2.9760678256e-02  2.7779712936e-04 -1.8286376352e-18 -5.7011887907e-21  4.6986856503e-18 -1.4186735652e-20 -2.1139040067e-20  2.4598842975e-20]]
time for NO, Ng: 0.016
Pg_ortho
 [[ 6.4287182818e-01 -4.6591661217e-01 -6.6397397638e-02  9.0729967719e-02  1.4051671612e-02  1.0183845280e-02 -1.4512915120e-03 -1.9831444712e-03]
 [-4.6564532526e-01  3.3747301236e-01  4.8093004646e-02 -6.5717587048e-02  1.8879387425e-02  1.3682696680e-02 -1.9499099806e-03 -2.6644910175e-03]
 [-6.6397397638e-02  4.8121023832e-02  6.8576879868e-03 -9.3708162036e-03 -1.4512915120e-03 -1.0518128107e-03  1.4989298859e-04  2.0482408197e-04]
 [ 9.0677138839e-02 -6.5717587048e-02 -9.3653599057e-03  1.2797471469e-02 -3.6764652018e-03 -2.6644910175e-03  3.7971444883e-04  5.1886792119e-04]
 [-1.4051671612e-02  1.0183845280e-02  1.4512915120e-03 -1.9831444712e-03  6.4287182818e-01  4.6591661217e-01 -6.6397397638e-02 -9.0729967719e-02]
 [ 1.8879387425e-02 -1.3682696680e-02 -1.9499099806e-03  2.6644910175e-03  4.6564532526e-01  3.3747301236e-01 -4.8093004646e-02 -6.5717587048e-02]
 [ 1.4512915120e-03 -1.0518128107e-03 -1.4989298859e-04  2.0482408197e-04 -6.6397397638e-02 -4.8121023832e-02  6.8576879868e-03  9.3708162036e-03]
 [-3.6764652018e-03  2.6644910175e-03  3.7971444883e-04 -5.1886792119e-04 -9.0677138839e-02 -6.5717587048e-02  9.3653599057e-03  1.2797471469e-02]]
G(g) (NO)
 [[ 2.7295464423e-01 -1.5811381521e-03  3.0855831669e-02 -8.5045994601e-03 -4.3898611777e-02 -4.7202650545e-04 -3.0279713447e-04  4.5237892707e-04]
 [ 1.5811381521e-03  2.7295464423e-01 -5.1197641963e-04 -4.9062542172e-04  1.2770536971e-04  8.5126166357e-03  8.8811022118e-03  5.2916538601e-02]
 [ 3.0806009508e-02 -1.5507815030e-02  1.0241874543e+00 -1.0801814423e-01 -6.2023537138e-02 -4.9086339968e-03 -4.0819943172e-03  1.7749148697e-03]
 [-8.5105506325e-03  2.3076459257e-03 -1.0801717395e-01  7.9055153333e-01  2.1333790653e-02  1.7972174088e-03  1.4412001545e-03 -7.4781254148e-04]
 [-4.3848300054e-02  1.1560972724e-02 -6.2028782657e-02  2.1334342372e-02  6.9214719897e-01  1.1608621107e-03  1.1532878737e-03 -9.7371316334e-04]
 [-2.8368876744e-03  8.5190980002e-03  1.0607599520e-03  2.2310577793e-03  5.9834023128e-04  7.6563838740e-01 -6.4194693509e-02 -1.2034013430e-01]
 [ 4.9082215163e-03  8.8803912362e-03 -1.9725856041e-03 -3.5321552498e-03 -4.9291413807e-04 -6.4194598104e-02  8.6283805412e-01  1.5072675028e-01]
 [ 1.8636927775e-02  5.2845782539e-02 -2.7242532666e-03 -4.7809373283e-03 -2.2318815824e-04 -1.2034454388e-01  1.5072980115e-01  8.7840974509e-01]]
time for Gg: 0.024
C(NO)
[[-1.0000000000e+00  0.0000000000e+00 -8.3003487052e-17  2.8623594954e-17  5.4283103926e-17  0.0000000000e+00  0.0000000000e+00  0.0000000000e+00]
 [ 0.0000000000e+00 -1.0000000000e+00  0.0000000000e+00  0.0000000000e+00  0.0000000000e+00 -3.6731847125e-16  2.3592239273e-16  1.3877787808e-16]
 [-5.1005163641e-17  0.0000000000e+00 -5.2458884057e-01  2.6065060145e-01 -8.1047381963e-01  0.0000000000e+00  0.0000000000e+00  0.0000000000e+00]
 [-6.8826296222e-18  0.0000000000e+00 -1.1367185286e-01  9.2201236360e-01  3.7009716459e-01  0.0000000000e+00  0.0000000000e+00  0.0000000000e+00]
 [ 1.3748881898e-16  0.0000000000e+00  8.4373293062e-01  2.8627690324e-01 -4.5404876000e-01  0.0000000000e+00  0.0000000000e+00  0.0000000000e+00]
 [ 0.0000000000e+00  4.8606564905e-17  0.0000000000e+00  0.0000000000e+00  0.0000000000e+00 -1.0085951985e-01 -7.1926216173e-01  6.8737857107e-01]
 [ 0.0000000000e+00  6.0283375017e-17  0.0000000000e+00  0.0000000000e+00  0.0000000000e+00  1.0638623598e-01 -6.9473738607e-01 -7.1135218646e-01]
 [ 0.0000000000e+00 -6.1909982553e-17  0.0000000000e+00  0.0000000000e+00  0.0000000000e+00 -9.8919630309e-01 -1.3809789042e-03 -1.4659047325e-01]]
detC 0.9999999999999993
detNg [ 1.0008861319  1.0235662454  1.1372541875  1.4834076483  2.407356124   4.7572359479  8.8856775582 11.0616604011]
xg [0.9991146526 0.9769763359 0.8793108973 0.6741235298 0.4153934642 0.2102060968 0.1125406581 0.0904023414]
ciS 1.0895169940278056
[[-0.767269973   0.           -0.0308606703  0.0084999787  0.043899843   0.            0.            0.          ]
 [ 0.           -0.767269973   0.            0.            0.           -0.0085081766 -0.00887825   -0.0529208317]
 [-0.0308606703  0.           -0.0745011311 -0.0051148407  0.5625435688  0.            0.            0.          ]
 [ 0.0084999787  0.           -0.0051148407  0.3210098409  0.0418834653  0.            0.            0.          ]
 [ 0.043899843   0.            0.5625435688  0.0418834653 -0.2522691234  0.            0.            0.          ]
 [ 0.           -0.0085081766  0.            0.            0.            0.4098634752 -0.0145608288  0.0042702889]
 [ 0.           -0.00887825    0.            0.            0.           -0.0145608288  0.3176614876 -0.0286698   ]
 [ 0.           -0.0529208317  0.            0.            0.            0.0042702889 -0.0286698    -0.7332853763]]
ciH -1.3881309806315318
0.9999999999999998 -3.1712913545201005e-18 -0.028403129201663723j -1.734723475976807e-18
0.5448378560239879 0.0004033688742232013 -0.0004033688742232013 0.4551621439760116
0.9999999999999999 -4.369334755116583e-17 -0.1463111447145865j 1.3660947373317356e-16
0.5468929338944468 0.01070347553384634 -0.010703475533846337 0.45310706610555285
0.9999999999999998 -1.2392430831509316e-16 -0.3511142553682338j 2.5196858488563123e-16
0.5578882717278182 0.06164061016139467 -0.06164061016139466 0.4421117282721814
0.9999999999999998 -1.1254018550399536e-16 -0.6474688047371806j 1.444157293750692e-16
0.598490994399698 0.20960792655389673 -0.20960792655389673 0.4015090056003017
1.0 -2.6194324487249787e-16 -1.0507482511350648j 3.9898639947466563e-17
0.7593917602571264 0.5520359436316988 -0.5520359436316986 0.24060823974287346
1.0 -2.7972416050126014e-16 -1.4687423232724162j 2.5587171270657905e-17
1.5129426988308983 1.0786020060858275 -1.0786020060858275 -0.512942698830898
1.0000000000000004 -4.688090193827321e-16 -1.270141196012763j 1.700029006457271e-16
4.03391902265992 0.8066293289043664 -0.8066293289043662 -3.033919022659919
1.0000000000000007 -8.46761896711179e-17 -0.3139076060116439j 2.185751579730777e-16
5.976664502005181 0.04926899255598075 -0.049268992555980745 -4.97666450200518
S2 = -0.000000
X(g)
[[ 2.0000000000e+00 -3.4694469520e-18  1.7817656824e-04  1.0374742045e-05 -2.1295023484e-04  1.1477113327e-04  5.8613923771e-04  2.9760678256e-02]
 [ 3.4694469520e-18  2.0000000000e+00 -1.9088230078e-02 -1.1114562655e-03  2.2813567002e-02  1.0713160190e-06  5.4712394736e-06  2.7779712936e-04]
 [ 1.7817656824e-04  1.9088230078e-02  0.0000000000e+00  0.0000000000e+00  0.0000000000e+00  0.0000000000e+00  0.0000000000e+00  0.0000000000e+00]
 [ 1.0374742045e-05  1.1114562655e-03  0.0000000000e+00  0.0000000000e+00  0.0000000000e+00  0.0000000000e+00  0.0000000000e+00  0.0000000000e+00]
 [-2.1295023484e-04 -2.2813567002e-02  0.0000000000e+00  0.0000000000e+00  0.0000000000e+00  0.0000000000e+00  0.0000000000e+00  0.0000000000e+00]
 [-1.1477113327e-04  1.0713160190e-06  0.0000000000e+00  0.0000000000e+00  0.0000000000e+00  0.0000000000e+00  0.0000000000e+00  0.0000000000e+00]
 [-5.8613923771e-04  5.4712394736e-06  0.0000000000e+00  0.0000000000e+00  0.0000000000e+00  0.0000000000e+00  0.0000000000e+00  0.0000000000e+00]
 [-2.9760678256e-02  2.7779712936e-04  0.0000000000e+00  0.0000000000e+00  0.0000000000e+00  0.0000000000e+00  0.0000000000e+00  0.0000000000e+00]]
X(g) int
[[ 2.0000000000e+00 -1.3778362965e-16  1.6803124775e-01  9.7840073362e-03 -2.0082491217e-01  2.6521262706e-03  1.3544479577e-02  6.8770843665e-01]
 [ 1.6587033882e-16  2.0000000000e+00 -4.4108997626e-01 -2.5683482218e-02  5.2717489710e-01  1.0103156055e-03  5.1597087349e-03  2.6197944392e-01]
 [ 1.6803124775e-01  4.4108997626e-01  0.0000000000e+00  0.0000000000e+00  0.0000000000e+00  0.0000000000e+00  0.0000000000e+00  0.0000000000e+00]
 [ 9.7840073362e-03  2.5683482218e-02  0.0000000000e+00  0.0000000000e+00  0.0000000000e+00  0.0000000000e+00  0.0000000000e+00  0.0000000000e+00]
 [-2.0082491217e-01 -5.2717489710e-01  0.0000000000e+00  0.0000000000e+00  0.0000000000e+00  0.0000000000e+00  0.0000000000e+00  0.0000000000e+00]
 [-2.6521262706e-03  1.0103156055e-03  0.0000000000e+00  0.0000000000e+00  0.0000000000e+00  0.0000000000e+00  0.0000000000e+00  0.0000000000e+00]
 [-1.3544479577e-02  5.1597087349e-03  0.0000000000e+00  0.0000000000e+00  0.0000000000e+00  0.0000000000e+00  0.0000000000e+00  0.0000000000e+00]
 [-6.8770843665e-01  2.6197944392e-01  0.0000000000e+00  0.0000000000e+00  0.0000000000e+00  0.0000000000e+00  0.0000000000e+00  0.0000000000e+00]]
Feff
 [[ 3.9272178128e-16  1.0250591637e-17  1.6128329055e-02 -7.4628563172e-03  3.7591640922e-03 -1.0874496063e-02 -6.8279779608e-03  1.9035617009e-02]
 [ 9.2210050936e-18  4.6810161551e-16 -1.7335211374e-02 -1.1657851681e-02  9.5297221039e-03 -1.0457605528e-02  1.3117136422e-02  6.9661866098e-03]
 [ 1.6128329055e-02  1.7335211374e-02  0.0000000000e+00  0.0000000000e+00  0.0000000000e+00  0.0000000000e+00  0.0000000000e+00  0.0000000000e+00]
 [-7.4628563172e-03  1.1657851681e-02  0.0000000000e+00  0.0000000000e+00  0.0000000000e+00  0.0000000000e+00  0.0000000000e+00  0.0000000000e+00]
 [ 3.7591640922e-03 -9.5297221039e-03  0.0000000000e+00  0.0000000000e+00  0.0000000000e+00  0.0000000000e+00  0.0000000000e+00  0.0000000000e+00]
 [ 1.0874496063e-02 -1.0457605528e-02  0.0000000000e+00  0.0000000000e+00  0.0000000000e+00  0.0000000000e+00  0.0000000000e+00  0.0000000000e+00]
 [ 6.8279779608e-03  1.3117136422e-02  0.0000000000e+00  0.0000000000e+00  0.0000000000e+00  0.0000000000e+00  0.0000000000e+00  0.0000000000e+00]
 [-1.9035617009e-02  6.9661866098e-03  0.0000000000e+00  0.0000000000e+00  0.0000000000e+00  0.0000000000e+00  0.0000000000e+00  0.0000000000e+00]]
Feff (ortho)
 [[ 8.6275334272e-03  3.3232527141e-03  8.1416149612e-03  9.4477000965e-03  4.3368086899e-17 -6.8521577301e-17  2.6020852140e-18 -3.2959746044e-17]
 [ 3.3232527141e-03 -9.3486337559e-03 -6.8896077566e-03 -5.4956690450e-03 -5.5944832100e-17  2.9490299092e-17  4.3368086899e-19  2.7321894747e-17]
 [ 8.1416149612e-03 -6.8896077566e-03 -1.7738046285e-03  2.9902195764e-04  1.7347234760e-18  1.1275702594e-17 -9.7578195524e-19  2.4936649967e-18]
 [ 9.4477000965e-03 -5.4956690450e-03  2.9902195764e-04  2.4949049572e-03 -3.3827107782e-17 -3.9031278209e-17  4.4452289072e-18  8.6736173799e-19]
 [ 4.3368086899e-17 -5.5944832100e-17  1.7347234760e-18 -3.3827107782e-17  8.6275334272e-03 -3.3232527141e-03  8.1416149612e-03 -9.4477000965e-03]
 [-6.8521577301e-17  2.9490299092e-17  1.1275702594e-17 -3.9031278209e-17 -3.3232527141e-03 -9.3486337559e-03  6.8896077566e-03 -5.4956690450e-03]
 [ 2.6020852140e-18  4.3368086899e-19 -9.7578195524e-19  4.4452289072e-18  8.1416149612e-03  6.8896077566e-03 -1.7738046285e-03 -2.9902195764e-04]
 [-3.2959746044e-17  2.7321894747e-17  2.4936649967e-18  8.6736173799e-19 -9.4477000965e-03 -5.4956690450e-03 -2.9902195764e-04  2.4949049572e-03]]
Hsp + Hph =  -1.274079237167094
Feff (mod,ortho)
[[-0.4410454393 -0.0064257827  0.1151799778  0.0098296524  0.            0.            0.            0.          ]
 [-0.0064257827 -0.4197128769 -0.0550895468  0.2503773048  0.            0.            0.            0.          ]
 [ 0.1151799778 -0.0550895468  0.7227322274 -0.1434830985  0.            0.            0.            0.          ]
 [ 0.0098296524  0.2503773048 -0.1434830985  0.7549173068  0.            0.            0.            0.          ]
 [ 0.            0.            0.            0.           -0.4410454393  0.0064257827  0.1151799778 -0.0098296524]
 [ 0.            0.            0.            0.            0.0064257827 -0.4197128769  0.0550895468  0.2503773048]
 [ 0.            0.            0.            0.            0.1151799778  0.0550895468  0.7227322274  0.1434830985]
 [ 0.            0.            0.            0.           -0.0098296524  0.2503773048  0.1434830985  0.7549173068]]
Alpha occ 1 vir 3; Beta occ 1 vir 3
Alpha energies:  [-0.47302446] <- HOMO
         LUMO->  [-0.4511641235  0.6162867112  0.9247930902]
Beta energies:   [-0.47302446] <- HOMO
         LUMO->  [-0.4511641235  0.6162867112  0.9247930902]
e_a, e_b
 [-0.47302446   -0.4511641235  0.6162867112  0.9247930902] 
 [-0.47302446   -0.4511641235  0.6162867112  0.9247930902]
v_a, v_b
 [[ 0.2714070906 -0.9570779258  0.0899925835 -0.0473431101]
 [ 0.9424716244  0.2688553499  0.1054742462  0.1683425715]
 [-0.0061282917  0.1021400067  0.7799133504 -0.6174666217]
 [-0.1950586382 -0.0358617328  0.6103373527  0.7669122372]] 
 [[-0.2714070906  0.9570779258  0.0899925835 -0.0473431101]
 [ 0.9424716244  0.2688553499 -0.1054742462 -0.1683425715]
 [ 0.0061282917 -0.1021400067  0.7799133504 -0.6174666217]
 [-0.1950586382 -0.0358617328 -0.6103373527 -0.7669122372]]
P_a, P_b
 [[ 7.3661808842e-02  2.5579348159e-01 -1.6632618277e-03 -5.2940297496e-02]
 [ 2.5579348159e-01  8.8825276286e-01 -5.7757410573e-03 -1.8383723161e-01]
 [-1.6632618277e-03 -5.7757410573e-03  3.7555959470e-05  1.1953762384e-03]
 [-5.2940297496e-02 -1.8383723161e-01  1.1953762384e-03  3.8047872337e-02]] 
 [[ 7.3661808842e-02 -2.5579348159e-01 -1.6632618277e-03  5.2940297496e-02]
 [-2.5579348159e-01  8.8825276286e-01  5.7757410573e-03 -1.8383723161e-01]
 [-1.6632618277e-03  5.7757410573e-03  3.7555959470e-05 -1.1953762384e-03]
 [ 5.2940297496e-02 -1.8383723161e-01 -1.1953762384e-03  3.8047872337e-02]]
time for xg, H, S2, Yg, Feff: 0.024
 E(SUHF) =     -1.00949063
**** Start Cycle 2 ****
dm (ortho)
[[[ 7.3661808842e-02  2.5579348159e-01 -1.6632618277e-03 -5.2940297496e-02]
  [ 2.5579348159e-01  8.8825276286e-01 -5.7757410573e-03 -1.8383723161e-01]
  [-1.6632618277e-03 -5.7757410573e-03  3.7555959470e-05  1.1953762384e-03]
  [-5.2940297496e-02 -1.8383723161e-01  1.1953762384e-03  3.8047872337e-02]]

 [[ 7.3661808842e-02 -2.5579348159e-01 -1.6632618277e-03  5.2940297496e-02]
  [-2.5579348159e-01  8.8825276286e-01  5.7757410573e-03 -1.8383723161e-01]
  [-1.6632618277e-03  5.7757410573e-03  3.7555959470e-05 -1.1953762384e-03]
  [ 5.2940297496e-02 -1.8383723161e-01 -1.1953762384e-03  3.8047872337e-02]]]
Fock (ortho)
 (array([[-0.4455176045,  0.0264943906,  0.1534267262,  0.0186058373],
       [ 0.0264943906, -0.3934952733,  0.040974217 ,  0.277209559 ],
       [ 0.1534267262,  0.040974217 ,  0.7129304255,  0.07576169  ],
       [ 0.0186058373,  0.277209559 ,  0.07576169  ,  0.7453153569]]), array([[-0.4455176045, -0.0264943906,  0.1534267262, -0.0186058373],
       [-0.0264943906, -0.3934952733, -0.040974217 ,  0.277209559 ],
       [ 0.1534267262, -0.040974217 ,  0.7129304255, -0.07576169  ],
       [-0.0186058373,  0.277209559 , -0.07576169  ,  0.7453153569]]))
E(UHF) =    -1.147450
NO eigenvalue
[-1.0000000000e+00 -2.4406323506e-21  2.9874050856e-19  1.1153531122e-16] 
 [-1.0000000000e+00 -2.6494122327e-21  5.4288442404e-18  3.3462585724e-16]
NO vec
[[-0.2714070906  0.           -0.0026438608 -0.0653080674  0.9602427076  0.            0.            0.          ]
 [-0.9424716244  0.            0.0089012374  0.2201663519 -0.2513857248  0.            0.            0.          ]
 [ 0.0061282917  0.           -0.9974567069  0.0709087981  0.0038084556  0.            0.            0.          ]
 [ 0.1950586382  0.            0.0706675025  0.970687167   0.1213451917  0.            0.            0.          ]
 [ 0.           -0.2714070906  0.            0.            0.           -0.0018950293 -0.0662052064  0.9601830402]
 [ 0.            0.9424716244  0.            0.            0.            0.0011048828  0.1839972354  0.2790896518]
 [ 0.            0.0061282917  0.            0.            0.            0.9992223512 -0.038937094   0.0010195756]
 [ 0.           -0.1950586382  0.            0.            0.            0.0393685265  0.9799213186  0.0125082403]]
dm(NO)
[[ 1.0000000000e+00  0.0000000000e+00 -4.3826404777e-19 -4.8813916501e-17  5.5798503221e-17  0.0000000000e+00  0.0000000000e+00  0.0000000000e+00]
 [ 0.0000000000e+00  1.0000000000e+00  0.0000000000e+00  0.0000000000e+00  0.0000000000e+00  1.1449005264e-18  1.2688357213e-17 -1.7343709456e-16]
 [-4.4287345485e-19  0.0000000000e+00 -8.7386115540e-21 -1.8907262345e-20  5.1031498404e-19  0.0000000000e+00  0.0000000000e+00  0.0000000000e+00]
 [-2.3720250063e-17  0.0000000000e+00 -2.6582068542e-19 -4.9685282430e-18  4.2453389867e-18  0.0000000000e+00  0.0000000000e+00  0.0000000000e+00]
 [ 2.8782579344e-17  0.0000000000e+00  2.6567954125e-19  4.5509022205e-18 -4.7993811626e-18  0.0000000000e+00  0.0000000000e+00  0.0000000000e+00]
 [ 0.0000000000e+00  6.6683500803e-19  0.0000000000e+00  0.0000000000e+00  0.0000000000e+00  7.8952799033e-21  1.3278510978e-19 -2.8609686438e-20]
 [ 0.0000000000e+00 -1.5289875918e-17  0.0000000000e+00  0.0000000000e+00  0.0000000000e+00  1.3264757227e-19 -4.2122802441e-18 -1.2870228422e-17]
 [ 0.0000000000e+00 -1.1506421421e-16  0.0000000000e+00  0.0000000000e+00  0.0000000000e+00  1.6209063829e-19 -8.6281641915e-18 -9.4290129074e-18]]
D(g) (NO)
 [[ 9.9951368521e-01 -2.6586851144e-02 -1.9341896791e-18 -3.8046161222e-17  8.6047055715e-17  4.1397907432e-04  1.1057534490e-03 -1.6252333729e-02]
 [ 2.6586851144e-02  9.9951368521e-01  3.3647584608e-04 -1.1325509200e-03  1.6252277792e-02 -1.2761622384e-18 -3.6644773089e-17 -1.7906410321e-16]
 [-2.2614868430e-18 -3.3647584608e-04  9.9951368521e-01  1.6867228140e-16  1.4967134074e-17 -3.0992504877e-02  3.4270199914e-03 -5.8438420550e-06]
 [-5.6245824768e-17  1.1325509200e-03  1.7376303567e-16  9.9951368521e-01  1.1899453836e-16  3.4125416208e-03  3.0973348555e-02  3.4152911101e-04]
 [ 1.1568270184e-16 -1.6252277792e-02  1.5851872254e-17  1.3628358927e-16  9.9951368521e-01  2.0223051006e-04  2.7856295947e-04  2.6610863324e-02]
 [-4.1397907432e-04  4.4670131660e-19  3.0992504877e-02 -3.4125416208e-03 -2.0223051006e-04  9.9951368521e-01 -1.1094291176e-16 -1.2631297110e-17]
 [-1.1057534490e-03 -2.4286128664e-17 -3.4270199914e-03 -3.0973348555e-02 -2.7856295947e-04 -1.1102230246e-16  9.9951368521e-01 -1.3877787808e-17]
 [ 1.6252333729e-02 -1.1102230246e-16  5.8438420550e-06 -3.4152911101e-04 -2.6610863324e-02 -1.2576745201e-17  0.0000000000e+00  9.9951368521e-01]]
N(g) (NO)
 [[ 0.999779159   0.0265939127]
 [-0.0265939127  0.999779159 ]]
P(g) (NO)
 [[ 1.0000000000e+00  4.4567133200e-18 -4.3826404777e-19 -4.8813916501e-17  5.5798503221e-17 -6.9158684059e-37  4.8148248610e-35 -7.7037197775e-34]
 [ 3.4039750455e-18  1.0000000000e+00 -1.1392289950e-36 -1.2680179954e-34  4.0212563906e-34  1.1449005264e-18  1.2688357213e-17 -1.7343709456e-16]
 [ 8.9482092730e-06 -3.3640153842e-04 -3.9216784163e-24 -4.3679714028e-22  4.9929668394e-22 -3.8514629842e-22 -4.2683828864e-21  5.8344505427e-20]
 [-3.0118960284e-05  1.1323008063e-03  1.3200057449e-23  1.4702244124e-21 -1.6805929024e-21  1.2963717892e-21  1.4367037103e-20 -1.9638296201e-19]
 [ 4.3221165660e-04 -1.6248688622e-02 -1.8942283012e-22 -2.1097943716e-20  2.4116763513e-20 -1.8603132157e-20 -2.0616916548e-19  2.8181253450e-18]
 [-4.1388765076e-04 -1.1009323358e-05  1.8139207715e-22  2.0203477225e-20 -2.3094311414e-20 -1.2604580108e-23 -1.3969022744e-22  1.9094250562e-21]
 [-1.1055092533e-03 -2.9406310680e-05  4.8450496020e-22  5.3964236382e-20 -6.1685761631e-20 -3.3667300577e-23 -3.7311777421e-22  5.1001450858e-21]
 [ 1.6248744547e-02  4.3221314419e-04 -7.1212405564e-21 -7.9316485957e-19  9.0665562494e-19  4.9484105631e-22  5.4840747656e-21 -7.4961791957e-20]]
time for NO, Ng: 0.116
Pg_ortho
 [[ 7.3548639836e-02  2.5540049783e-01 -1.6607065050e-03 -5.2858963614e-02  4.2545080008e-03 -1.4773943663e-02 -9.6065530624e-05  3.0576892260e-03]
 [ 2.5582474860e-01  8.8836133877e-01 -5.7764470572e-03 -1.8385970302e-01 -1.1754609920e-03  4.0818337799e-03  2.6541561071e-05 -8.4479672156e-04]
 [-1.6607065050e-03 -5.7668676005e-03  3.7498261041e-05  1.1935397435e-03 -9.6065530624e-05  3.3359127240e-04  2.1691312303e-06 -6.9041717143e-05]
 [-5.2946768673e-02 -1.8385970302e-01  1.1955223557e-03  3.8052523133e-02  2.4327928229e-04 -8.4479672156e-04 -5.4931741434e-06  1.7484335209e-04]
 [-4.2545080008e-03 -1.4773943663e-02  9.6065530624e-05  3.0576892260e-03  7.3548639836e-02 -2.5540049783e-01 -1.6607065050e-03  5.2858963614e-02]
 [-1.1754609920e-03 -4.0818337799e-03  2.6541561071e-05  8.4479672156e-04 -2.5582474860e-01  8.8836133877e-01  5.7764470572e-03 -1.8385970302e-01]
 [ 9.6065530624e-05  3.3359127240e-04 -2.1691312303e-06 -6.9041717143e-05 -1.6607065050e-03  5.7668676005e-03  3.7498261041e-05 -1.1935397435e-03]
 [ 2.4327928229e-04  8.4479672156e-04 -5.4931741434e-06 -1.7484335209e-04  5.2946768673e-02 -1.8385970302e-01 -1.1955223557e-03  3.8052523133e-02]]
G(g) (NO)
 [[ 4.0024692425e-01  1.4910316805e-03 -2.6687976409e-02 -9.2505070806e-02  8.5803577115e-02 -1.2196743289e-03  5.4298327271e-04 -2.4706421469e-03]
 [-1.4910316805e-03  4.0024692425e-01 -1.2188248085e-03  2.4073652251e-04  2.5185354741e-03  2.3449867630e-02  8.0742468915e-02  9.7787767522e-02]
 [-2.6690041910e-02 -1.6463200285e-03  8.1827536894e-01  4.5528572533e-02 -1.1029868159e-01  6.9422079508e-04 -1.3347702527e-03  3.3669679138e-04]
 [-9.2495305826e-02 -1.6835611299e-03  4.5527437680e-02  7.9813933960e-01 -7.1493678694e-02  1.2702738202e-03 -8.8912264463e-04  1.2947297484e-03]
 [ 8.5694298980e-02  8.4129435301e-03 -1.1029823046e-01 -7.1486083685e-02  7.6785824462e-01 -1.0226231234e-03  2.0614810759e-03 -1.3855584621e-03]
 [-1.5695483121e-03  2.3452524269e-02 -6.1020645328e-04  1.2686576323e-03  4.6386160788e-04  8.1475170812e-01  3.0736003421e-02  1.1328331502e-01]
 [-5.7212002926e-04  8.0747768905e-02 -1.1270004499e-03  5.2217255228e-04  1.1780835536e-03  3.0734888044e-02  7.8020458337e-01  7.6783255851e-02]
 [-8.5750547125e-03  9.7678194787e-02 -1.1317730898e-03  1.9785662846e-03  1.8301069818e-03  1.1328295564e-01  7.6775653065e-02  7.8931666167e-01]]
time for Gg: 0.021
C(NO)
[[-1.0000000000e+00  0.0000000000e+00 -4.2449875947e-16  4.3962666154e-16  7.0572367777e-17  0.0000000000e+00  0.0000000000e+00  0.0000000000e+00]
 [ 0.0000000000e+00  1.0000000000e+00  0.0000000000e+00  0.0000000000e+00  0.0000000000e+00 -2.3329019436e-16 -4.4755865680e-16  8.6736173799e-18]
 [ 1.1183452464e-18  0.0000000000e+00 -9.9490967701e-02 -7.3409786231e-01  6.7171562130e-01  0.0000000000e+00  0.0000000000e+00  0.0000000000e+00]
 [ 4.6373132844e-17  0.0000000000e+00  9.4129912564e-02  6.6509399241e-01  7.4080330778e-01  0.0000000000e+00  0.0000000000e+00  0.0000000000e+00]
 [-4.5694486288e-17  0.0000000000e+00 -9.9057614897e-01  1.3693177067e-01  2.9297226751e-03  0.0000000000e+00  0.0000000000e+00  0.0000000000e+00]
 [ 0.0000000000e+00  1.3362591376e-18  0.0000000000e+00  0.0000000000e+00  0.0000000000e+00 -1.0498903833e-01  7.5499169426e-01 -6.4727493650e-01]
 [ 0.0000000000e+00  1.4360243290e-17  0.0000000000e+00  0.0000000000e+00  0.0000000000e+00 -4.5059541956e-02 -6.5381509019e-01 -7.5531150231e-01]
 [ 0.0000000000e+00 -1.0595703748e-16  0.0000000000e+00  0.0000000000e+00  0.0000000000e+00  9.9345203181e-01  5.0133516109e-02 -1.0266299749e-01]]
detC -1.0
detNg [1.0002656029 1.0069532461 1.0375563704 1.1083236977 1.2126129552 1.3103998151 1.3627057126 1.3751479924]
xg [0.9997344676 0.9930947677 0.9638030555 0.9022634832 0.8246654431 0.7631258708 0.7338341586 0.7271944587]
ciS 1.7269289262817036
[[-0.7023520728  0.            0.0235879666  0.0203682575  0.0287858054  0.            0.            0.          ]
 [ 0.           -0.7023520728  0.            0.            0.           -0.0229854047 -0.024845028   0.0255788278]
 [ 0.0235879666  0.            0.3076033736  0.014187042  -0.0970921875  0.            0.            0.          ]
 [ 0.0203682575  0.            0.014187042   0.4036933697  0.0950997652  0.            0.            0.          ]
 [ 0.0287858054  0.           -0.0970921875  0.0950997652 -0.781975057   0.            0.            0.          ]
 [ 0.           -0.0229854047  0.            0.            0.            0.306272489  -0.0028693078  0.1034440685]
 [ 0.           -0.024845028   0.            0.            0.           -0.0028693078  0.4072786237  0.0717812583]
 [ 0.            0.0255788278  0.            0.            0.            0.1034440685  0.0717812583 -0.7842294265]]
ciH -1.6697878055208775
1.0000000000000002 -3.613442552986845e-18 -0.008513354264046917j -3.3650924928518844e-17
0.8636575632466464 3.623860041258291e-05 -3.623860041258291e-05 0.13634243675335378
1.0000000000000002 -1.119777556270185e-17 -0.04316926085616741j 3.603955783977597e-17
0.8685365514979041 0.0009317925414339137 -0.0009317925414339138 0.13146344850209624
1.0 -7.104234735211268e-17 -0.09607413273584547j 2.349669395683429e-17
0.8912779348510679 0.004615119490472426 -0.004615119490472427 0.10872206514893222
1.0 4.267690801446067e-17 -0.14508710263115115j -6.388322488191933e-18
0.9464729929576733 0.010525133674951094 -0.010525133674951098 0.05352700704232695
1.0000000000000002 1.0399531713209398e-16 -0.15873927503841292j 5.887133093301564e-17
1.034449115639528 0.012599078719860456 -0.012599078719860454 -0.03444911563952752
1.0000000000000002 -4.4811431041541505e-17 -0.12133849240628691j -3.747951385010828e-17
1.1241221579514886 0.007361514869715272 -0.0073615148697152724 -0.12412215795148793
1.0 1.9849370085957274e-17 -0.058420784287233955j 1.6951500966810862e-16
1.1749414625204535 0.0017064940183677611 -0.001706494018367761 -0.17494146252045345
1.0000000000000002 -5.507831739521088e-19 -0.011704013404697759j 6.943298475232951e-17
1.1873229310682998 6.849196488867243e-05 -6.849196488867241e-05 -0.18732293106829928
S2 = -0.000000
X(g)
[[ 2.0000000000e+00  3.4694469520e-18  8.9482092730e-06 -3.0118960284e-05  4.3221165660e-04  4.1388765076e-04  1.1055092533e-03 -1.6248744547e-02]
 [ 3.4694469520e-18  2.0000000000e+00  3.3640153842e-04 -1.1323008063e-03  1.6248688622e-02 -1.1009323358e-05 -2.9406310679e-05  4.3221314419e-04]
 [ 8.9482092730e-06 -3.3640153842e-04  0.0000000000e+00  0.0000000000e+00  0.0000000000e+00  0.0000000000e+00  0.0000000000e+00  0.0000000000e+00]
 [-3.0118960284e-05  1.1323008063e-03  0.0000000000e+00  0.0000000000e+00  0.0000000000e+00  0.0000000000e+00  0.0000000000e+00  0.0000000000e+00]
 [ 4.3221165660e-04 -1.6248688622e-02  0.0000000000e+00  0.0000000000e+00  0.0000000000e+00  0.0000000000e+00  0.0000000000e+00  0.0000000000e+00]
 [-4.1388765076e-04 -1.1009323358e-05  0.0000000000e+00  0.0000000000e+00  0.0000000000e+00  0.0000000000e+00  0.0000000000e+00  0.0000000000e+00]
 [-1.1055092533e-03 -2.9406310680e-05  0.0000000000e+00  0.0000000000e+00  0.0000000000e+00  0.0000000000e+00  0.0000000000e+00  0.0000000000e+00]
 [ 1.6248744547e-02  4.3221314419e-04  0.0000000000e+00  0.0000000000e+00  0.0000000000e+00  0.0000000000e+00  0.0000000000e+00  0.0000000000e+00]]
X(g) int
[[ 2.0000000000e+00  1.8182930161e-17  5.3272671553e-03 -1.7931157283e-02  2.5731483162e-01  6.0377187360e-03  1.6126970493e-02 -2.3703376800e-01]
 [ 2.1766683005e-19  2.0000000000e+00  4.9073652417e-03 -1.6517800858e-02  2.3703295218e-01 -6.5543400850e-03 -1.7506885262e-02  2.5731571725e-01]
 [ 5.3272671553e-03 -4.9073652417e-03  0.0000000000e+00  0.0000000000e+00  0.0000000000e+00  0.0000000000e+00  0.0000000000e+00  0.0000000000e+00]
 [-1.7931157283e-02  1.6517800858e-02  0.0000000000e+00  0.0000000000e+00  0.0000000000e+00  0.0000000000e+00  0.0000000000e+00  0.0000000000e+00]
 [ 2.5731483162e-01 -2.3703295218e-01  0.0000000000e+00  0.0000000000e+00  0.0000000000e+00  0.0000000000e+00  0.0000000000e+00  0.0000000000e+00]
 [-6.0377187360e-03 -6.5543400850e-03  0.0000000000e+00  0.0000000000e+00  0.0000000000e+00  0.0000000000e+00  0.0000000000e+00  0.0000000000e+00]
 [-1.6126970493e-02 -1.7506885262e-02  0.0000000000e+00  0.0000000000e+00  0.0000000000e+00  0.0000000000e+00  0.0000000000e+00  0.0000000000e+00]
 [ 2.3703376800e-01  2.5731571725e-01  0.0000000000e+00  0.0000000000e+00  0.0000000000e+00  0.0000000000e+00  0.0000000000e+00  0.0000000000e+00]]
Feff
 [[-3.1139070245e-16  2.6500944485e-18 -2.8033829588e-02 -7.7539435751e-02  6.2502275536e-02 -1.9662536096e-02 -3.2905769337e-03  6.4869731630e-02]
 [-3.4447621521e-17  1.2879545873e-17 -1.9307814595e-02  6.2180310896e-03 -6.4761637479e-02  2.5340252426e-02  6.9144961565e-02  7.2674892792e-02]
 [-2.8033829588e-02  1.9307814595e-02  0.0000000000e+00  0.0000000000e+00  0.0000000000e+00  0.0000000000e+00  0.0000000000e+00  0.0000000000e+00]
 [-7.7539435751e-02 -6.2180310896e-03  0.0000000000e+00  0.0000000000e+00  0.0000000000e+00  0.0000000000e+00  0.0000000000e+00  0.0000000000e+00]
 [ 6.2502275536e-02  6.4761637479e-02  0.0000000000e+00  0.0000000000e+00  0.0000000000e+00  0.0000000000e+00  0.0000000000e+00  0.0000000000e+00]
 [ 1.9662536096e-02  2.5340252426e-02  0.0000000000e+00  0.0000000000e+00  0.0000000000e+00  0.0000000000e+00  0.0000000000e+00  0.0000000000e+00]
 [ 3.2905769337e-03  6.9144961565e-02  0.0000000000e+00  0.0000000000e+00  0.0000000000e+00  0.0000000000e+00  0.0000000000e+00  0.0000000000e+00]
 [-6.4869731630e-02  7.2674892792e-02  0.0000000000e+00  0.0000000000e+00  0.0000000000e+00  0.0000000000e+00  0.0000000000e+00  0.0000000000e+00]]
Feff (ortho)
 [[-3.5367287334e-02 -5.2441667697e-02 -5.7622846919e-03  3.1616232158e-02  0.0000000000e+00 -1.3877787808e-17 -4.3368086899e-19 -2.6020852140e-18]
 [-5.2441667697e-02  6.2265877544e-02 -2.1598749172e-02  5.9212222222e-02 -1.0408340856e-17  3.4694469520e-18  0.0000000000e+00 -1.7347234760e-17]
 [-5.7622846919e-03 -2.1598749172e-02  2.7825312829e-04  4.0013707686e-03 -4.3368086899e-19  0.0000000000e+00  1.3552527156e-20 -6.5052130349e-19]
 [ 3.1616232158e-02  5.9212222222e-02  4.0013707686e-03 -2.7176843338e-02  1.6479873022e-17 -5.3342746886e-17 -4.3368086899e-19  1.4094628242e-17]
 [ 0.0000000000e+00 -1.0408340856e-17 -4.3368086899e-19  1.6479873022e-17 -3.5367287334e-02  5.2441667697e-02 -5.7622846919e-03 -3.1616232158e-02]
 [-1.3877787808e-17  3.4694469520e-18  0.0000000000e+00 -5.3342746886e-17  5.2441667697e-02  6.2265877544e-02  2.1598749172e-02  5.9212222222e-02]
 [-4.3368086899e-19  0.0000000000e+00  1.3552527156e-20 -4.3368086899e-19 -5.7622846919e-03  2.1598749172e-02  2.7825312829e-04 -4.0013707686e-03]
 [-2.6020852140e-18 -1.7347234760e-17 -6.5052130349e-19  1.4094628242e-17 -3.1616232158e-02  5.9212222222e-02 -4.0013707686e-03 -2.7176843338e-02]]
Hsp + Hph =  -0.9669117125255073
Feff (mod,ortho)
[[-0.4918968414 -0.0454744717  0.1319430873  0.0450470759  0.            0.            0.            0.          ]
 [-0.0454744717 -0.3340594043 -0.0356400592  0.3050030514  0.            0.            0.            0.          ]
 [ 0.1319430873 -0.0356400592  0.71392426    0.0913574537  0.            0.            0.            0.          ]
 [ 0.0450470759  0.3050030514  0.0913574537  0.7312648903  0.            0.            0.            0.          ]
 [ 0.            0.            0.            0.           -0.4918968414  0.0454744717  0.1319430873 -0.0450470759]
 [ 0.            0.            0.            0.            0.0454744717 -0.3340594043  0.0356400592  0.3050030514]
 [ 0.            0.            0.            0.            0.1319430873  0.0356400592  0.71392426   -0.0913574537]
 [ 0.            0.            0.            0.           -0.0450470759  0.3050030514 -0.0913574537  0.7312648903]]
Alpha occ 1 vir 3; Beta occ 1 vir 3
Alpha energies:  [-0.528436433] <- HOMO
         LUMO->  [-0.396872216   0.6807932901  0.8637482635]
Beta energies:   [-0.528436433] <- HOMO
         LUMO->  [-0.396872216   0.6807932901  0.8637482635]
e_a, e_b
 [-0.528436433  -0.396872216   0.6807932901  0.8637482635] 
 [-0.528436433  -0.396872216   0.6807932901  0.8637482635]
v_a, v_b
 [[ 0.9100195132 -0.3997710197 -0.0829578881  0.0718721518]
 [ 0.3889952868  0.8821644215  0.1827971367  0.1924936548]
 [-0.0765774852  0.0947237267 -0.8440765439  0.5222050291]
 [-0.1211735994 -0.2302096456  0.4972303125  0.8276971029]] 
 [[ 0.9100195132 -0.3997710197  0.0829578881 -0.0718721518]
 [-0.3889952868 -0.8821644215  0.1827971367  0.1924936548]
 [-0.0765774852  0.0947237267  0.8440765439 -0.5222050291]
 [ 0.1211735994  0.2302096456  0.4972303125  0.8276971029]]
P_a, P_b
 [[ 0.8281355144  0.3539933016 -0.0696870058 -0.1102703399]
 [ 0.3539933016  0.1513173332 -0.0297882808 -0.047135959 ]
 [-0.0696870058 -0.0297882808  0.0058641112  0.0092791695]
 [-0.1102703399 -0.047135959   0.0092791695  0.0146830412]] 
 [[ 0.8281355144 -0.3539933016 -0.0696870058  0.1102703399]
 [-0.3539933016  0.1513173332  0.0297882808 -0.047135959 ]
 [-0.0696870058  0.0297882808  0.0058641112 -0.0092791695]
 [ 0.1102703399 -0.047135959  -0.0092791695  0.0146830412]]
time for xg, H, S2, Yg, Feff: 0.023
 E =     -0.70232311, delta E =   0.307168, MaxD(dm) =   0.754474, RMSD(dm) =   0.272334
**** Start Cycle 3 ****
dm (ortho)
[[[ 0.8281355144  0.3539933016 -0.0696870058 -0.1102703399]
  [ 0.3539933016  0.1513173332 -0.0297882808 -0.047135959 ]
  [-0.0696870058 -0.0297882808  0.0058641112  0.0092791695]
  [-0.1102703399 -0.047135959   0.0092791695  0.0146830412]]

 [[ 0.8281355144 -0.3539933016 -0.0696870058  0.1102703399]
  [-0.3539933016  0.1513173332  0.0297882808 -0.047135959 ]
  [-0.0696870058  0.0297882808  0.0058641112 -0.0092791695]
  [ 0.1102703399 -0.047135959  -0.0092791695  0.0146830412]]]
Fock (ortho)
 (array([[-0.542547571 ,  0.0337618276,  0.1599285665,  0.0303896395],
       [ 0.0337618276, -0.3011791515,  0.0586003909,  0.2673676502],
       [ 0.1599285665,  0.0586003909,  0.7141229014,  0.1011068177],
       [ 0.0303896395,  0.2673676502,  0.1011068177,  0.7425321963]]), array([[-0.542547571 , -0.0337618276,  0.1599285665, -0.0303896395],
       [-0.0337618276, -0.3011791515, -0.0586003909,  0.2673676502],
       [ 0.1599285665, -0.0586003909,  0.7141229014, -0.1011068177],
       [-0.0303896395,  0.2673676502, -0.1011068177,  0.7425321963]]))
E(UHF) =    -1.296886
NO eigenvalue
[-1.0000000000e+00 -5.5687591000e-17 -1.5001076143e-18  2.8472798908e-18] 
 [-1.0000000000e+00 -1.9592957423e-16 -8.5237901236e-19  5.2944526052e-19]
NO vec
[[ 0.9100195132  0.            0.4139186446 -0.0154792683  0.0172114349  0.            0.            0.          ]
 [ 0.3889952868  0.           -0.8428752125 -0.0747575699 -0.3642188199  0.            0.            0.          ]
 [-0.0765774852  0.            0.2227080957  0.6426332638 -0.7290812582  0.            0.            0.          ]
 [-0.1211735994  0.            0.2619806022 -0.7623609291 -0.5792140681  0.            0.            0.          ]
 [ 0.            0.9100195132  0.            0.            0.           -0.4128274804  0.0199182101 -0.0322679707]
 [ 0.           -0.3889952868  0.            0.            0.           -0.8811407793 -0.0696388198  0.2596613731]
 [ 0.           -0.0765774852  0.            0.            0.           -0.1054463894  0.968357594  -0.2128391829]
 [ 0.            0.1211735994  0.            0.            0.            0.2050498902  0.2388247678  0.9414001442]]
dm(NO)
[[ 1.0000000000e+00  0.0000000000e+00 -1.5122403599e-17  1.1685030169e-17  4.2690374584e-17  0.0000000000e+00  0.0000000000e+00  0.0000000000e+00]
 [ 0.0000000000e+00  1.0000000000e+00  0.0000000000e+00  0.0000000000e+00  0.0000000000e+00  7.1727058772e-17 -2.8641818735e-19  1.7232534503e-18]
 [-2.2849600006e-18  0.0000000000e+00  1.7028589697e-17 -3.8463765107e-19  4.4739645493e-18  0.0000000000e+00  0.0000000000e+00  0.0000000000e+00]
 [ 1.5804013078e-17  0.0000000000e+00 -6.9141589846e-19  5.1474905632e-19 -4.4270939399e-19  0.0000000000e+00  0.0000000000e+00  0.0000000000e+00]
 [ 5.3276512771e-17  0.0000000000e+00  8.0883294183e-19  1.0128764487e-18 -1.9320735563e-19  0.0000000000e+00  0.0000000000e+00  0.0000000000e+00]
 [ 0.0000000000e+00  6.4100276091e-17  0.0000000000e+00  0.0000000000e+00  0.0000000000e+00  4.2531623257e-18  4.8639375882e-18 -3.0402656320e-18]
 [ 0.0000000000e+00 -8.2753311664e-18  0.0000000000e+00  0.0000000000e+00  0.0000000000e+00  1.7646903202e-18  5.5229273223e-19  5.4068498565e-19]
 [ 0.0000000000e+00  3.6312250950e-18  0.0000000000e+00  0.0000000000e+00  0.0000000000e+00 -9.0739587609e-18 -1.5793406391e-19  2.4704541966e-18]]
D(g) (NO)
 [[ 9.9951368521e-01  2.0830366168e-02 -1.6725714708e-17  1.0614157447e-17  3.8601862163e-17 -2.2926291135e-02 -3.4942934408e-03 -8.1486697766e-04]
 [-2.0830366168e-02  9.9951368521e-01 -2.2428193747e-02  3.9476504043e-03 -4.4588228890e-03  1.8940235236e-16 -1.0588193268e-17 -1.2952498432e-17]
 [-3.8508490923e-17  2.2428193747e-02  9.9951368521e-01 -4.7172944883e-18 -3.0873265280e-17  1.8773858156e-02  1.0763507743e-02 -1.0287618639e-03]
 [-4.1846835413e-18 -3.9476504043e-03  3.3522088948e-18  9.9951368521e-01  2.2711900553e-16 -4.7343350278e-03  1.3880456001e-02 -2.7234686414e-02]
 [ 3.5327123580e-17  4.4588228890e-03 -4.9179379033e-17  2.9823051383e-16  9.9951368521e-01  8.4797742490e-03 -2.5527687525e-02 -1.5130848340e-02]
 [ 2.2926291135e-02  1.9128876821e-16 -1.8773858156e-02  4.7343350278e-03 -8.4797742490e-03  9.9951368521e-01 -3.1553426310e-17  2.2824740503e-17]
 [ 3.4942934408e-03  0.0000000000e+00 -1.0763507743e-02 -1.3880456001e-02  2.5527687525e-02 -5.5511151231e-17  9.9951368521e-01  3.6082248300e-16]
 [ 8.1486697766e-04 -2.0816681712e-17  1.0287618639e-03  2.7234686414e-02  1.5130848340e-02 -1.3877787808e-17  3.3306690739e-16  9.9951368521e-01]]
N(g) (NO)
 [[ 1.0000522022 -0.0208415891]
 [ 0.0208415891  1.0000522022]]
P(g) (NO)
 [[ 1.0000000000e+00 -2.8818525537e-18 -1.5122403599e-17  1.1685030169e-17  4.2690374584e-17 -3.2009056745e-34  7.5231638453e-37  0.0000000000e+00]
 [ 1.2099917558e-18  1.0000000000e+00  2.0715990950e-35  9.9426769119e-36 -1.6176266389e-34  7.1727058772e-17 -2.8641818735e-19  1.7232534503e-18]
 [ 4.6743919908e-04  2.2429364549e-02 -7.0688042264e-21  5.4620411434e-21  1.9955154504e-20  1.6087923493e-18 -6.4241779377e-21  3.8651479847e-20]
 [-8.2275307767e-05 -3.9478564805e-03  1.2442004103e-21 -9.6138945342e-22 -3.5123637076e-21 -2.8316813380e-19  1.1307378971e-21 -6.8031573012e-21]
 [ 9.2928954669e-05  4.4590556495e-03 -1.4053091585e-21  1.0858776389e-21  3.9671718846e-21  3.1983494664e-19 -1.2771546364e-21  7.6840830330e-21]
 [ 2.2927487939e-02 -4.7782034018e-04 -3.4671872611e-19  2.6790838826e-19  9.7878304838e-19 -3.4272647623e-20  1.3685643571e-22 -8.2340554982e-22]
 [ 3.4944758507e-03 -7.2826628203e-05 -5.2844874181e-20  4.0833055741e-20  1.4918048304e-19 -5.2236398413e-21  2.0858870841e-23 -1.2549873832e-22]
 [ 8.1490951555e-04 -1.6983122747e-05 -1.2323390591e-20  9.5222422742e-21  3.4788792471e-20 -1.2181494434e-21  4.8642752327e-24 -2.9266224870e-23]]
time for NO, Ng: 0.019
Pg_ortho
 [[ 8.2831420110e-01  3.5406968265e-01 -6.9702042148e-02 -1.1029413294e-01  8.5740117025e-03 -3.6650314560e-03 -7.2149689606e-04  1.1416720675e-03]
 [ 3.5360955662e-01  1.5115329826e-01 -2.9755988956e-02 -4.7084861511e-02 -1.8413421500e-02  7.8709676815e-03  1.5494761285e-03 -2.4518381504e-03]
 [-6.9702042148e-02 -2.9794708228e-02  5.8653765360e-03  9.2811716766e-03 -7.2149689606e-04  3.0840975162e-04  6.0713443029e-05 -9.6070880425e-05]
 [-1.1015080183e-01 -4.7084861511e-02  9.2691104671e-03  1.4667124098e-02  5.7358549977e-03 -2.4518381504e-03 -4.8266805793e-04  7.6375746399e-04]
 [-8.5740117025e-03 -3.6650314560e-03  7.2149689606e-04  1.1416720675e-03  8.2831420110e-01 -3.5406968265e-01 -6.9702042148e-02  1.1029413294e-01]
 [-1.8413421500e-02 -7.8709676815e-03  1.5494761285e-03  2.4518381504e-03 -3.5360955662e-01  1.5115329826e-01  2.9755988956e-02 -4.7084861511e-02]
 [ 7.2149689606e-04  3.0840975162e-04 -6.0713443029e-05 -9.6070880425e-05 -6.9702042148e-02  2.9794708228e-02  5.8653765360e-03 -9.2811716766e-03]
 [ 5.7358549977e-03  2.4518381504e-03 -4.8266805793e-04 -7.6375746399e-04  1.1015080183e-01 -4.7084861511e-02 -9.2691104671e-03  1.4667124098e-02]]
G(g) (NO)
 [[ 3.4646953481e-01 -2.2757984494e-03  1.0852012155e-01  3.1316779864e-02 -7.9600091126e-03 -1.8298398229e-03 -5.0470291546e-04  1.2796498685e-03]
 [ 2.2757984494e-03  3.4646953481e-01 -1.6478704864e-03 -3.1244885483e-04 -1.5580247654e-03 -1.0555425471e-01  4.0874127315e-02  2.8851787689e-03]
 [ 1.0840318688e-01 -1.2462632449e-02  8.2957241373e-01  1.6422155964e-01  2.5577887128e-02 -1.9698879870e-03 -2.2514335553e-03  3.0066689225e-03]
 [ 3.1331781315e-02 -1.2131508193e-03  1.6422113673e-01  8.2028603590e-01  1.0762368980e-02 -5.6197457664e-04 -1.4022790134e-03  2.1214181151e-03]
 [-7.9867926390e-03 -2.7043837822e-03  2.5574520680e-02  1.0764133693e-02  7.7560809150e-01  1.9575936503e-04 -5.9884421667e-04  2.2580186725e-04]
 [-1.2670371439e-02 -1.0543441718e-01  1.3980305289e-03 -9.7556286495e-05  3.9391211303e-03  8.2578331609e-01 -1.2058973712e-01 -1.1310735739e-01]
 [ 6.4541983410e-04  4.0889983614e-02 -4.9231299643e-04 -3.0495876517e-04 -2.1773541519e-03 -1.2059126754e-01  8.1831523473e-01  2.5892619034e-02]
 [ 1.7741913513e-03  2.8832648030e-03  2.1233548802e-04  1.8045625621e-04 -1.6079282639e-03 -1.1310423629e-01  2.5894213588e-02  7.8136799031e-01]]
time for Gg: 0.022
C(NO)
[[ 1.0000000000e+00  0.0000000000e+00  1.8800164766e-16  9.9768572262e-17 -6.4331580670e-17  0.0000000000e+00  0.0000000000e+00  0.0000000000e+00]
 [ 0.0000000000e+00  1.0000000000e+00  0.0000000000e+00  0.0000000000e+00  0.0000000000e+00  1.6883482918e-16 -1.3877787808e-17 -4.8572257327e-17]
 [-4.8803269985e-18  0.0000000000e+00 -9.4824192359e-01 -2.4613097508e-01  2.0064096655e-01  0.0000000000e+00  0.0000000000e+00  0.0000000000e+00]
 [ 8.3871255682e-18  0.0000000000e+00  1.7661515141e-01 -9.3388196966e-01 -3.1092049632e-01  0.0000000000e+00  0.0000000000e+00  0.0000000000e+00]
 [ 5.0728584516e-17  0.0000000000e+00 -2.6390214596e-01  2.5939161482e-01 -9.2901649475e-01  0.0000000000e+00  0.0000000000e+00  0.0000000000e+00]
 [ 0.0000000000e+00  7.9913568847e-17  0.0000000000e+00  0.0000000000e+00  0.0000000000e+00  9.7956369616e-01 -1.8236511035e-01  8.4840625233e-02]
 [ 0.0000000000e+00 -6.9151370902e-18  0.0000000000e+00  0.0000000000e+00  0.0000000000e+00  2.0017637131e-01  9.2504144093e-01 -3.2284323274e-01]
 [ 0.0000000000e+00  3.3497261776e-18  0.0000000000e+00  0.0000000000e+00  0.0000000000e+00 -1.9605752453e-02  3.3322859884e-01  9.4264219903e-01]]
detC 1.0
detNg [1.000538779  1.0142024134 1.0792212355 1.2472026335 1.5517621223 1.9244502147 2.1728430166 2.2383307995]
xg [0.9994615111 0.9859964705 0.9265940728 0.8017943301 0.6444286696 0.5196289269 0.4602265292 0.4467614886]
ciS 1.4462229997042035
[[-0.7851903319  0.           -0.0433416665  0.0542712436  0.0197745184  0.            0.            0.          ]
 [ 0.           -0.7851903319  0.            0.            0.            0.0419018534  0.0271858262  0.0521542429]
 [-0.0433416665  0.           -0.6313809749  0.0821528326 -0.268436903   0.            0.            0.          ]
 [ 0.0542712436  0.            0.0821528326  0.3616620236  0.0701782626  0.            0.            0.          ]
 [ 0.0197745184  0.           -0.268436903   0.0701782626  0.2818788967  0.            0.            0.          ]
 [ 0.            0.0419018534  0.            0.            0.           -0.690228114  -0.1326694882  0.076369168 ]
 [ 0.            0.0271858262  0.            0.            0.           -0.1326694882  0.3028496603  0.0294225897]
 [ 0.            0.0521542429  0.            0.            0.            0.076369168   0.0294225897  0.3995383991]]
ciH -1.7635489142417025
0.9999999999999999 -4.580754178751256e-18 -0.017269450290990602j 8.673617379884035e-19
0.7233519802198942 0.00014911695667649762 -0.00014911695667649765 0.2766480197801054
0.9999999999999999 3.2526065174565133e-19 -0.08817575005644478j -6.201636426617085e-17
0.7294939468596752 0.0038874814490083105 -0.003887481449008311 0.2705060531403246
1.0 -7.182839392716467e-17 -0.2026583349998692j -6.765421556309548e-17
0.75986208588695 0.020535200372459605 -0.02053520037245961 0.24013791411304972
1.0000000000000002 -1.0733601507606494e-17 -0.33109942340886817j -7.936359902593892e-17
0.8470531528249251 0.05481341409084247 -0.05481341409084247 0.1529468471750753
1.0 1.2262326570811055e-16 -0.4119519396076905j 5.4860629927766524e-17
1.0372448353639379 0.08485220027326916 -0.08485220027326913 -0.03724483536393792
0.9999999999999999 -1.220811646218678e-16 -0.3613771333228592j 1.97758476261356e-16
1.3262953648884166 0.0652967162443238 -0.0652967162443238 -0.3262953648884167
1.0 -1.3173056395698879e-17 -0.18890909764211916j 2.0816681711721685e-16
1.5533644490793568 0.01784332358597986 -0.01784332358597986 -0.5533644490793571
1.0 -1.3037531124138191e-17 -0.038633927325527534j 1.7867651802561113e-16
1.6178164513919697 0.0007462901702970714 -0.0007462901702970714 -0.6178164513919702
S2 = -0.000000
X(g)
[[ 2.0000000000e+00  0.0000000000e+00  4.6743919908e-04 -8.2275307767e-05  9.2928954669e-05 -2.2927487939e-02 -3.4944758507e-03 -8.1490951555e-04]
 [ 0.0000000000e+00  2.0000000000e+00 -2.2429364549e-02  3.9478564805e-03 -4.4590556495e-03 -4.7782034018e-04 -7.2826628203e-05 -1.6983122747e-05]
 [ 4.6743919908e-04  2.2429364549e-02  0.0000000000e+00  0.0000000000e+00  0.0000000000e+00  0.0000000000e+00  0.0000000000e+00  0.0000000000e+00]
 [-8.2275307767e-05 -3.9478564805e-03  0.0000000000e+00  0.0000000000e+00  0.0000000000e+00  0.0000000000e+00  0.0000000000e+00  0.0000000000e+00]
 [ 9.2928954669e-05  4.4590556495e-03  0.0000000000e+00  0.0000000000e+00  0.0000000000e+00  0.0000000000e+00  0.0000000000e+00  0.0000000000e+00]
 [ 2.2927487939e-02 -4.7782034018e-04  0.0000000000e+00  0.0000000000e+00  0.0000000000e+00  0.0000000000e+00  0.0000000000e+00  0.0000000000e+00]
 [ 3.4944758507e-03 -7.2826628203e-05  0.0000000000e+00  0.0000000000e+00  0.0000000000e+00  0.0000000000e+00  0.0000000000e+00  0.0000000000e+00]
 [ 8.1490951555e-04 -1.6983122747e-05  0.0000000000e+00  0.0000000000e+00  0.0000000000e+00  0.0000000000e+00  0.0000000000e+00  0.0000000000e+00]]
X(g) int
[[ 2.0000000000e+00  4.3787245795e-17  3.3221105643e-01 -5.8473416361e-02  6.6045009200e-02 -3.9927074659e-01 -6.0854550904e-02 -1.4191242039e-02]
 [ 9.8964478732e-18  2.0000000000e+00 -3.9059617666e-01  6.8749948037e-02 -7.7652226142e-02 -3.3958897822e-01 -5.1758199011e-02 -1.2069978642e-02]
 [ 3.3221105643e-01  3.9059617666e-01  0.0000000000e+00  0.0000000000e+00  0.0000000000e+00  0.0000000000e+00  0.0000000000e+00  0.0000000000e+00]
 [-5.8473416361e-02 -6.8749948037e-02  0.0000000000e+00  0.0000000000e+00  0.0000000000e+00  0.0000000000e+00  0.0000000000e+00  0.0000000000e+00]
 [ 6.6045009200e-02  7.7652226142e-02  0.0000000000e+00  0.0000000000e+00  0.0000000000e+00  0.0000000000e+00  0.0000000000e+00  0.0000000000e+00]
 [ 3.9927074659e-01 -3.3958897822e-01  0.0000000000e+00  0.0000000000e+00  0.0000000000e+00  0.0000000000e+00  0.0000000000e+00  0.0000000000e+00]
 [ 6.0854550904e-02 -5.1758199011e-02  0.0000000000e+00  0.0000000000e+00  0.0000000000e+00  0.0000000000e+00  0.0000000000e+00  0.0000000000e+00]
 [ 1.4191242039e-02 -1.2069978642e-02  0.0000000000e+00  0.0000000000e+00  0.0000000000e+00  0.0000000000e+00  0.0000000000e+00  0.0000000000e+00]]
Feff
 [[-2.4447947704e-16  1.7813497085e-17  8.3887250826e-02  7.5990414702e-02 -1.8807520553e-02  9.0663965374e-03 -5.5506053511e-03 -4.2515308920e-02]
 [ 3.8562630342e-17 -2.7408324418e-16  5.7888340660e-03  2.9714566132e-02  3.1687445751e-02 -7.8413666188e-02  8.0462877499e-02  2.3288604652e-02]
 [ 8.3887250826e-02 -5.7888340660e-03  0.0000000000e+00  0.0000000000e+00  0.0000000000e+00  0.0000000000e+00  0.0000000000e+00  0.0000000000e+00]
 [ 7.5990414702e-02 -2.9714566132e-02  0.0000000000e+00  0.0000000000e+00  0.0000000000e+00  0.0000000000e+00  0.0000000000e+00  0.0000000000e+00]
 [-1.8807520553e-02 -3.1687445751e-02  0.0000000000e+00  0.0000000000e+00  0.0000000000e+00  0.0000000000e+00  0.0000000000e+00  0.0000000000e+00]
 [-9.0663965374e-03 -7.8413666188e-02  0.0000000000e+00  0.0000000000e+00  0.0000000000e+00  0.0000000000e+00  0.0000000000e+00  0.0000000000e+00]
 [ 5.5506053511e-03  8.0462877499e-02  0.0000000000e+00  0.0000000000e+00  0.0000000000e+00  0.0000000000e+00  0.0000000000e+00  0.0000000000e+00]
 [ 4.2515308920e-02  2.3288604652e-02  0.0000000000e+00  0.0000000000e+00  0.0000000000e+00  0.0000000000e+00  0.0000000000e+00  0.0000000000e+00]]
Feff (ortho)
 [[ 6.0466277001e-02 -5.0356888518e-02  7.1375467705e-02 -2.6832337225e-02  1.3877787808e-17 -1.5612511284e-17 -6.0281640790e-17  4.8572257327e-17]
 [-5.0356888518e-02 -5.4099356264e-02  3.6922513468e-02 -1.3228033976e-03  1.7347234760e-18 -5.2041704279e-18 -2.4909544913e-17  1.9081958236e-17]
 [ 7.1375467705e-02  3.6922513468e-02 -1.2440555993e-02 -7.9235928976e-03 -5.4210108624e-18  3.2255014631e-18  5.4481159167e-18 -4.5536491244e-18]
 [-2.6832337225e-02 -1.3228033976e-03 -7.9235928976e-03  6.0736352567e-03  2.4286128664e-17 -9.5409791179e-18  6.0715321659e-18 -2.6020852140e-18]
 [ 1.3877787808e-17  1.7347234760e-18 -5.4210108624e-18  2.4286128664e-17  6.0466277001e-02  5.0356888519e-02  7.1375467705e-02  2.6832337225e-02]
 [-1.5612511284e-17 -5.2041704279e-18  3.2255014631e-18 -9.5409791179e-18  5.0356888519e-02 -5.4099356264e-02 -3.6922513468e-02 -1.3228033976e-03]
 [-6.0281640790e-17 -2.4909544913e-17  5.4481159167e-18  6.0715321659e-18  7.1375467705e-02 -3.6922513468e-02 -1.2440555993e-02  7.9235928976e-03]
 [ 4.8572257327e-17  1.9081958236e-17 -4.5536491244e-18 -2.6020852140e-18  2.6832337225e-02 -1.3228033976e-03  7.9235928976e-03  6.0736352567e-03]]
Hsp + Hph =  -1.2194170018056703
Feff (mod,ortho)
[[-0.4258926596 -0.0735002262  0.172325938   0.0253532453  0.            0.            0.            0.          ]
 [-0.0735002262 -0.4141944801  0.077121885   0.2861370596  0.            0.            0.            0.          ]
 [ 0.172325938   0.077121885   0.7112103965  0.0985727495  0.            0.            0.            0.          ]
 [ 0.0253532453  0.2861370596  0.0985727495  0.7418051184  0.            0.            0.            0.          ]
 [ 0.            0.            0.            0.           -0.4258926596  0.0735002262  0.172325938  -0.0253532453]
 [ 0.            0.            0.            0.            0.0735002262 -0.4141944801 -0.077121885   0.2861370596]
 [ 0.            0.            0.            0.            0.172325938  -0.077121885   0.7112103965 -0.0985727495]
 [ 0.            0.            0.            0.           -0.0253532453  0.2861370596 -0.0985727495  0.7418051184]]
Alpha occ 1 vir 3; Beta occ 1 vir 3
Alpha energies:  [-0.5526229205] <- HOMO
         LUMO->  [-0.3813880697  0.6546479451  0.8922914204]
Beta energies:   [-0.5526229205] <- HOMO
         LUMO->  [-0.3813880697  0.6546479451  0.8922914204]
e_a, e_b
 [-0.5526229205 -0.3813880697  0.6546479451  0.8922914204] 
 [-0.5526229205 -0.3813880697  0.6546479451  0.8922914204]
v_a, v_b
 [[ 0.6292997347  0.7635263014 -0.12051953    0.0805262308]
 [ 0.7492876977 -0.6218566713  0.1070933678  0.2009806881]
 [-0.1183524352 -0.0899800417 -0.7958803591  0.5869163034]
 [-0.1689452311  0.1490820561  0.5835927582  0.7801612282]] 
 [[-0.6292997347 -0.7635263014  0.12051953   -0.0805262308]
 [ 0.7492876977 -0.6218566713  0.1070933678  0.2009806881]
 [ 0.1183524352  0.0899800417  0.7958803591 -0.5869163034]
 [-0.1689452311  0.1490820561  0.5835927582  0.7801612282]]
P_a, P_b
 [[ 0.3960181561  0.4715265493 -0.0744791561 -0.1063171891]
 [ 0.4715265493  0.5614320539 -0.0886800237 -0.1265885833]
 [-0.0744791561 -0.0886800237  0.0140072989  0.0199950795]
 [-0.1063171891 -0.1265885833  0.0199950795  0.0285424911]] 
 [[ 0.3960181561 -0.4715265493 -0.0744791561  0.1063171891]
 [-0.4715265493  0.5614320539  0.0886800237 -0.1265885833]
 [-0.0744791561  0.0886800237  0.0140072989 -0.0199950795]
 [ 0.1063171891 -0.1265885833 -0.0199950795  0.0285424911]]
time for xg, H, S2, Yg, Feff: 0.026
 E =     -0.95482840, delta E =  -0.252505, MaxD(dm) =   0.432117, RMSD(dm) =   0.158642
**** Start Cycle 4 ****
dm (ortho)
[[[ 0.3960181561  0.4715265493 -0.0744791561 -0.1063171891]
  [ 0.4715265493  0.5614320539 -0.0886800237 -0.1265885833]
  [-0.0744791561 -0.0886800237  0.0140072989  0.0199950795]
  [-0.1063171891 -0.1265885833  0.0199950795  0.0285424911]]

 [[ 0.3960181561 -0.4715265493 -0.0744791561  0.1063171891]
  [-0.4715265493  0.5614320539  0.0886800237 -0.1265885833]
  [-0.0744791561  0.0886800237  0.0140072989 -0.0199950795]
  [ 0.1063171891 -0.1265885833 -0.0199950795  0.0285424911]]]
Fock (ortho)
 (array([[-0.4910263741,  0.0413585572,  0.1608969142,  0.0351852041],
       [ 0.0413585572, -0.3570320816,  0.0825030863,  0.272169044 ],
       [ 0.1608969142,  0.0825030863,  0.7065411594,  0.1304501578],
       [ 0.0351852041,  0.272169044 ,  0.1304501578,  0.7385476555]]), array([[-0.4910263741, -0.0413585572,  0.1608969142, -0.0351852041],
       [-0.0413585572, -0.3570320816, -0.0825030863,  0.272169044 ],
       [ 0.1608969142, -0.0825030863,  0.7065411594, -0.1304501578],
       [-0.0351852041,  0.272169044 , -0.1304501578,  0.7385476555]]))
E(UHF) =    -1.170397
NO eigenvalue
[-1.0000000000e+00 -1.7149495033e-17  1.7532896919e-18  1.7845239625e-17] 
 [-1.0000000000e+00 -1.9641407035e-18  2.9169431034e-18  3.3421664287e-16]
NO vec
[[-0.6292997347  0.           -0.5541862977  0.0435585367  0.5431040832  0.            0.            0.          ]
 [-0.7492876977  0.            0.2859443686  0.1168170086 -0.5857965096  0.            0.            0.          ]
 [ 0.1183524352  0.           -0.020878299   0.9920896001  0.0362632472  0.            0.            0.          ]
 [ 0.1689452311  0.           -0.7814585479 -0.0146514767 -0.600470966   0.            0.            0.          ]
 [ 0.           -0.6292997347  0.            0.            0.            0.0254989489  0.0378981531 -0.7758191655]
 [ 0.            0.7492876977  0.            0.            0.           -0.1600808523 -0.1648752786 -0.6210943643]
 [ 0.            0.1183524352  0.            0.            0.            0.9796091009 -0.1460362429 -0.0709374813]
 [ 0.           -0.1689452311  0.            0.            0.           -0.1187010268 -0.9747067704  0.0855236043]]
dm(NO)
[[ 1.0000000000e+00  0.0000000000e+00 -5.3179585376e-19  1.4501493177e-17 -1.8418943625e-17  0.0000000000e+00  0.0000000000e+00  0.0000000000e+00]
 [ 0.0000000000e+00  1.0000000000e+00  0.0000000000e+00  0.0000000000e+00  0.0000000000e+00  6.1391571046e-18  3.8450791948e-18 -5.1207109665e-17]
 [ 1.1693587152e-17  0.0000000000e+00 -4.5160906393e-18 -1.7751879172e-18  2.8494210669e-20  0.0000000000e+00  0.0000000000e+00  0.0000000000e+00]
 [ 9.6764994238e-18  0.0000000000e+00 -5.3397539143e-18 -6.0386934296e-19  3.6443214686e-18  0.0000000000e+00  0.0000000000e+00  0.0000000000e+00]
 [ 3.8971901166e-18  0.0000000000e+00  6.7386007590e-18  1.9000437651e-18 -1.4465118122e-17  0.0000000000e+00  0.0000000000e+00  0.0000000000e+00]
 [ 0.0000000000e+00  2.5386537333e-17  0.0000000000e+00  0.0000000000e+00  0.0000000000e+00 -1.6294806288e-18 -8.8601783470e-19 -2.7774921632e-18]
 [ 0.0000000000e+00  3.2973297176e-18  0.0000000000e+00  0.0000000000e+00  0.0000000000e+00 -5.0011677758e-18 -6.4882931320e-18 -1.3523616605e-17]
 [ 0.0000000000e+00  3.8639479675e-17  0.0000000000e+00  0.0000000000e+00  0.0000000000e+00 -2.7364775673e-18 -1.0677439199e-17 -4.9158816288e-17]]
D(g) (NO)
 [[ 9.9951368521e-01 -5.6113916732e-03  5.8120347757e-17  7.0107650082e-18  2.0305207962e-17  6.2299479623e-03 -2.5653212600e-03  2.9925110417e-02]
 [ 5.6113916732e-03  9.9951368521e-01 -2.1596142861e-02 -5.6132813476e-03  2.1047637499e-02  1.1912646381e-17  9.7122041213e-18  2.9570836163e-16]
 [ 1.4879313297e-16  2.1596142861e-02  9.9951368521e-01 -2.2282748056e-17  2.4919710680e-16  3.8673345715e-04  2.1722046538e-02  5.8311936790e-03]
 [ 9.7380780940e-18  5.6132813476e-03 -1.7015543588e-17  9.9951368521e-01 -1.8315712429e-17  2.9811458016e-02 -4.6216520268e-03 -5.5499054738e-03]
 [ 3.2127901848e-17 -2.1047637499e-02  2.7634508885e-16 -3.2773713255e-17  9.9951368521e-01  6.6864214145e-03  2.1739485466e-02 -3.4751360837e-03]
 [-6.2299479623e-03  2.2807631194e-17 -3.8673345715e-04 -2.9811458016e-02 -6.6864214145e-03  9.9951368521e-01 -2.0767693269e-16 -6.3753555484e-17]
 [ 2.5653212600e-03  2.7755575616e-17 -2.1722046538e-02  4.6216520268e-03 -2.1739485466e-02 -2.2204460493e-16  9.9951368521e-01 -4.8572257327e-17]
 [-2.9925110417e-02  2.7755575616e-16 -5.8311936790e-03  5.5499054738e-03  3.4751360837e-03 -5.5511151231e-17 -3.4694469520e-17  9.9951368521e-01]]
N(g) (NO)
 [[ 1.0004550187  0.0056166764]
 [-0.0056166764  1.0004550187]]
P(g) (NO)
 [[ 1.0000000000e+00 -6.5957560110e-19 -5.3179585376e-19  1.4501493177e-17 -1.8418943625e-17 -6.5644963188e-36  3.0092655381e-36  0.0000000000e+00]
 [-1.8091185835e-18  1.0000000000e+00  1.0501377901e-36 -2.4598888321e-35  3.3421613494e-35  6.1391571046e-18  3.8450791948e-18 -5.1207109665e-17]
 [-1.2129854668e-04  2.1605969510e-02  6.4506064190e-23 -1.7590100470e-21  2.2341910930e-21  1.3264244122e-19  8.3076663847e-20 -1.1063792501e-18]
 [-3.1527985063e-05  5.6158354956e-03  1.6766451734e-23 -4.5720286028e-22  5.8071217948e-22  3.4476496381e-20  2.1593332226e-20 -2.8757070408e-19]
 [ 1.1821776953e-04 -2.1057214567e-02 -6.2867719679e-23  1.7143341783e-21 -2.1774464325e-21 -1.2927354841e-19 -8.0966657633e-20  1.0782790956e-18]
 [-6.2327827051e-03 -3.4991601906e-05  3.3145680000e-21 -9.0384655872e-20  1.1480127327e-19 -2.1481894144e-22 -1.3454548048e-22  1.7918187961e-21]
 [ 2.5664885291e-03  1.4408579467e-05 -1.3648479585e-21  3.7217915895e-20 -4.7272007532e-20  8.8456533003e-23  5.5402129136e-23 -7.3782170889e-22]
 [-2.9938726902e-02 -1.6807966247e-04  1.5921290833e-20 -4.3415624390e-19  5.5143972299e-19 -1.0318674540e-21 -6.4627961322e-22  8.6068737084e-21]]
time for NO, Ng: 0.015
Pg_ortho
 [[ 3.9593631361e-01  4.7142910206e-01 -7.4463763974e-02 -1.0629521725e-01  1.4577963641e-02 -1.7357529666e-02 -2.7416784127e-03  3.9136794455e-03]
 [ 4.7159427408e-01  5.6151269162e-01 -8.8692760703e-02 -1.2660676501e-01 -1.2063281474e-02  1.4363375517e-02  2.2687420011e-03 -3.2385741872e-03]
 [-7.4463763974e-02 -8.8661696792e-02  1.4004404129e-02  1.9990947273e-02 -2.7416784127e-03  3.2644315457e-03  5.1562760776e-04 -7.3604590558e-04]
 [-1.0633245932e-01 -1.2660676501e-01  1.9997951391e-02  2.8546590640e-02  2.7199617492e-03 -3.2385741872e-03 -5.1154335368e-04  7.3021573193e-04]
 [-1.4577963641e-02 -1.7357529666e-02  2.7416784127e-03  3.9136794455e-03  3.9593631361e-01 -4.7142910206e-01 -7.4463763974e-02  1.0629521725e-01]
 [-1.2063281474e-02 -1.4363375517e-02  2.2687420011e-03  3.2385741872e-03 -4.7159427408e-01  5.6151269162e-01  8.8692760703e-02 -1.2660676501e-01]
 [ 2.7416784127e-03  3.2644315457e-03 -5.1562760776e-04 -7.3604590558e-04 -7.4463763974e-02  8.8661696792e-02  1.4004404129e-02 -1.9990947273e-02]
 [ 2.7199617492e-03  3.2385741872e-03 -5.1154335368e-04 -7.3021573193e-04  1.0633245932e-01 -1.2660676501e-01 -1.9997951391e-02  2.8546590640e-02]]
G(g) (NO)
 [[ 2.6700138907e-01  1.1589612576e-03 -9.2946420025e-04  2.1096557826e-02  5.9710901541e-02 -7.0760871318e-04 -2.6714658239e-04  1.7685701000e-04]
 [-1.1589612576e-03  2.6700138907e-01 -3.7293526364e-04  6.6892086521e-04 -1.2969176788e-04  1.4052674173e-02 -4.2037852380e-02 -4.5240045696e-02]
 [-9.0159363817e-04 -1.1318111322e-02  7.0761512117e-01 -4.2394393767e-02 -5.8495847907e-02  1.6298151504e-03  8.4957170339e-04 -7.9010009995e-04]
 [ 2.1106740372e-02  5.3974352598e-04 -4.2395152688e-02  7.9211213680e-01  1.0725042159e-01 -2.0917550073e-03 -1.2785191326e-03  2.8811473061e-04]
 [ 5.9678226173e-02  1.5338603138e-02 -5.8500588564e-02  1.0724872503e-01  9.7339759222e-01 -5.0194781172e-03 -3.2982854774e-03  1.3592050199e-03]
 [ 3.1683187591e-04  1.4064260662e-02 -9.6081219771e-04  1.4806829156e-03 -6.8155858682e-04  7.7515525317e-01 -3.7999700770e-02 -8.5116088552e-02]
 [ 2.0084870368e-03 -4.2037894619e-02  1.7313238162e-03 -2.1854381370e-03  1.1805872245e-03 -3.7998969068e-02  7.8137958300e-01  1.4172956567e-01]
 [ 1.8961258149e-02 -4.5197455984e-02  3.6680289683e-03 -4.4387812398e-03  1.4532536619e-03 -8.5114995342e-02  1.4172464656e-01  9.1659001402e-01]]
time for Gg: 0.023
C(NO)
[[-1.0000000000e+00  0.0000000000e+00 -7.7004133991e-17  3.0411216309e-16 -4.1798347950e-16  0.0000000000e+00  0.0000000000e+00  0.0000000000e+00]
 [ 0.0000000000e+00  1.0000000000e+00  0.0000000000e+00  0.0000000000e+00  0.0000000000e+00  3.0111940437e-16  6.9388939039e-17 -4.8572257327e-17]
 [ 5.3179585376e-19  0.0000000000e+00 -7.1557504431e-01 -3.4202390377e-01 -6.0907471234e-01  0.0000000000e+00  0.0000000000e+00  0.0000000000e+00]
 [-1.4501493177e-17  0.0000000000e+00 -1.3083788355e-01 -7.9087445038e-01  5.9782861421e-01  0.0000000000e+00  0.0000000000e+00  0.0000000000e+00]
 [ 4.5411558168e-18  0.0000000000e+00  6.8617330478e-01 -5.0748128339e-01 -5.2118033618e-01  0.0000000000e+00  0.0000000000e+00  0.0000000000e+00]
 [ 0.0000000000e+00  3.0600117396e-17  0.0000000000e+00  0.0000000000e+00  0.0000000000e+00  1.5052730245e-01  6.9630810714e-01 -7.0178098517e-01]
 [ 0.0000000000e+00 -2.3208468274e-17  0.0000000000e+00  0.0000000000e+00  0.0000000000e+00 -8.4859081374e-02 -6.9814877131e-01 -7.1090592165e-01]
 [ 0.0000000000e+00  2.0555586239e-17  0.0000000000e+00  0.0000000000e+00  0.0000000000e+00  9.8495708918e-01 -1.6656324041e-01  4.6002384926e-02]]
detC -1.0
detNg [ 1.0009417915  1.025082185   1.1471345476  1.5298148302  2.6405582894  6.2249309699 17.5901069852 30.0096808084]
xg [0.9990590946 0.9755315375 0.8717373233 0.6536738828 0.3787077922 0.1606443517 0.0568501375 0.0333225803]
ciS 1.0323816749911852
[[-0.7357011661  0.           -0.067821162   0.0563860789  0.0195872234  0.            0.            0.          ]
 [ 0.           -0.7357011661  0.            0.            0.            0.059084674   0.0288272283 -0.0619737964]
 [-0.067821162   0.           -0.1542962281 -0.0807393326  0.5794383057  0.            0.            0.          ]
 [ 0.0563860789  0.           -0.0807393326  0.2995850229  0.0845306532  0.            0.            0.          ]
 [ 0.0195872234  0.            0.5794383057  0.0845306532 -0.1826180152  0.            0.            0.          ]
 [ 0.            0.059084674   0.            0.            0.            0.2947266216  0.019511137  -0.1420954146]
 [ 0.            0.0288272283  0.            0.            0.            0.019511137   0.4068671377  0.0555809861]
 [ 0.           -0.0619737964  0.            0.            0.           -0.1420954146  0.0555809861 -0.7389229797]]
ciH -1.2136419122790654
0.9999999999999998 -1.360673726469308e-17 -0.03018718249835952j -8.586881206085195e-17
0.5162213486424981 0.00045563299359463157 -0.0004556329935946316 0.4837786513575014
0.9999999999999998 -7.914675859144182e-17 -0.15572286272798935j 3.903127820947816e-17
0.5170132265722577 0.012124804988100106 -0.012124804988100106 0.48298677342774193
0.9999999999999999 -2.693158196453993e-16 -0.37638951551664046j -5.117434254131581e-17
0.5213058091579111 0.07083453369542567 -0.07083453369542567 0.4786941908420886
0.9999999999999999 -4.787836793695988e-16 -0.7096258738648633j 1.5699247457590104e-16
0.5378919580048283 0.2517844404292355 -0.2517844404292355 0.4621080419951714
0.9999999999999999 -3.7990444123892075e-16 -1.2248596670301177j -1.0148132334464322e-16
0.6128913928862073 0.7501406019585654 -0.7501406019585655 0.3871086071137922
0.9999999999999997 -8.36136715420821e-16 -2.0424794604669128j 1.4983674023749671e-16
1.1273911575036906 2.0858611732146057 -2.0858611732146057 -0.12739115750369104
0.999999999999999 -1.3634926521177704e-15 -2.6721582479828285j 3.434752482434078e-16
5.509637205179917 3.57021485113133 -3.5702148511313307 -4.509637205179919
0.9999999999999982 -2.445960101127298e-16 -0.9050553378624338j 5.342948306008566e-16
15.08115968719 0.4095625822966421 -0.40956258229664216 -14.081159687190002
S2 = 0.000000
X(g)
[[ 2.0000000000e+00 -1.7347234760e-18 -1.2129854668e-04 -3.1527985063e-05  1.1821776953e-04  6.2327827051e-03 -2.5664885291e-03  2.9938726902e-02]
 [-2.6020852140e-18  2.0000000000e+00 -2.1605969510e-02 -5.6158354956e-03  2.1057214567e-02 -3.4991601906e-05  1.4408579467e-05 -1.6807966247e-04]
 [-1.2129854668e-04  2.1605969510e-02  0.0000000000e+00  0.0000000000e+00  0.0000000000e+00  0.0000000000e+00  0.0000000000e+00  0.0000000000e+00]
 [-3.1527985063e-05  5.6158354956e-03  0.0000000000e+00  0.0000000000e+00  0.0000000000e+00  0.0000000000e+00  0.0000000000e+00  0.0000000000e+00]
 [ 1.1821776953e-04 -2.1057214567e-02  0.0000000000e+00  0.0000000000e+00  0.0000000000e+00  0.0000000000e+00  0.0000000000e+00  0.0000000000e+00]
 [-6.2327827051e-03 -3.4991601906e-05  0.0000000000e+00  0.0000000000e+00  0.0000000000e+00  0.0000000000e+00  0.0000000000e+00  0.0000000000e+00]
 [ 2.5664885291e-03  1.4408579467e-05  0.0000000000e+00  0.0000000000e+00  0.0000000000e+00  0.0000000000e+00  0.0000000000e+00  0.0000000000e+00]
 [-2.9938726902e-02 -1.6807966247e-04  0.0000000000e+00  0.0000000000e+00  0.0000000000e+00  0.0000000000e+00  0.0000000000e+00  0.0000000000e+00]]
X(g) int
[[ 2.0000000000e+00 -4.0579478534e-17 -1.2071594285e-01 -3.1376554355e-02  1.1764996285e-01  1.5198932445e-01 -6.2585024414e-02  7.3006987282e-01]
 [-2.6520322445e-17  2.0000000000e+00 -5.2687168242e-01 -1.3694477790e-01  5.1349003622e-01 -3.4823535249e-02  1.4339374239e-02 -1.6727236628e-01]
 [-1.2071594285e-01  5.2687168242e-01  0.0000000000e+00  0.0000000000e+00  0.0000000000e+00  0.0000000000e+00  0.0000000000e+00  0.0000000000e+00]
 [-3.1376554355e-02  1.3694477790e-01  0.0000000000e+00  0.0000000000e+00  0.0000000000e+00  0.0000000000e+00  0.0000000000e+00  0.0000000000e+00]
 [ 1.1764996285e-01 -5.1349003622e-01  0.0000000000e+00  0.0000000000e+00  0.0000000000e+00  0.0000000000e+00  0.0000000000e+00  0.0000000000e+00]
 [-1.5198932445e-01 -3.4823535249e-02  0.0000000000e+00  0.0000000000e+00  0.0000000000e+00  0.0000000000e+00  0.0000000000e+00  0.0000000000e+00]
 [ 6.2585024414e-02  1.4339374239e-02  0.0000000000e+00  0.0000000000e+00  0.0000000000e+00  0.0000000000e+00  0.0000000000e+00  0.0000000000e+00]
 [-7.3006987282e-01 -1.6727236628e-01  0.0000000000e+00  0.0000000000e+00  0.0000000000e+00  0.0000000000e+00  0.0000000000e+00  0.0000000000e+00]]
Feff
 [[ 3.9356370594e-16 -3.3270262966e-18 -1.1164173082e-01  6.5654244984e-02  1.3831668878e-01  5.7017725962e-02 -9.6332769615e-03 -5.8409985419e-02]
 [ 2.4904826389e-17  3.3233058936e-16  3.7071546320e-02 -5.9548935145e-02 -4.2838910724e-02  5.8099447390e-02 -1.9498112594e-02 -1.7930460161e-01]
 [-1.1164173082e-01 -3.7071546320e-02  0.0000000000e+00  0.0000000000e+00  0.0000000000e+00  0.0000000000e+00  0.0000000000e+00  0.0000000000e+00]
 [ 6.5654244984e-02  5.9548935145e-02  0.0000000000e+00  0.0000000000e+00  0.0000000000e+00  0.0000000000e+00  0.0000000000e+00  0.0000000000e+00]
 [ 1.3831668878e-01  4.2838910724e-02  0.0000000000e+00  0.0000000000e+00  0.0000000000e+00  0.0000000000e+00  0.0000000000e+00  0.0000000000e+00]
 [-5.7017725962e-02  5.8099447390e-02  0.0000000000e+00  0.0000000000e+00  0.0000000000e+00  0.0000000000e+00  0.0000000000e+00  0.0000000000e+00]
 [ 9.6332769615e-03 -1.9498112594e-02  0.0000000000e+00  0.0000000000e+00  0.0000000000e+00  0.0000000000e+00  0.0000000000e+00  0.0000000000e+00]
[...]
 [ 0.0000000000e+00  1.6666441819e-17  0.0000000000e+00  0.0000000000e+00  0.0000000000e+00 -2.2620223042e-25  2.7627415833e-24 -7.5963049425e-18]]
D(g) (NO)
 [[ 9.9951368521e-01  3.1183217838e-02  9.4244965822e-18 -3.6204647543e-22 -8.5105492487e-17  2.1693670196e-10  4.1437238094e-09  2.5387097006e-16]
 [-3.1183217838e-02  9.9951368521e-01  2.1421041084e-10  4.1437166352e-09  3.5140978250e-11 -1.8583136490e-18  1.8226408540e-23 -4.3329451409e-17]
 [ 2.3194600677e-18 -2.1421041082e-10  9.9951368521e-01  4.6417654429e-22  7.4929508568e-18  3.0771367242e-02  1.0455010704e-06 -5.0513395938e-03]
 [-1.7916692028e-22 -4.1437166352e-09 -8.5133234719e-21  9.9951368521e-01 -1.4431698104e-21 -1.0309086232e-06  3.1183217821e-02  1.7413594051e-07]
 [-7.4476726263e-17 -3.5140977702e-11  1.9224982102e-17 -6.9733276893e-22  9.9951368521e-01  5.0513395968e-03 -4.8401492829e-09  3.0771367260e-02]
 [-2.1693670196e-10 -1.8583139117e-18 -3.0771367242e-02  1.0309086232e-06 -5.0513395968e-03  9.9951368521e-01  9.4533807398e-20 -1.0542505332e-16]
 [-4.1437238094e-09  1.3234889801e-23 -1.0455010704e-06 -3.1183217821e-02  4.8401492829e-09  9.4626848119e-20  9.9951368521e-01  1.8528845721e-22]
 [-2.5345353554e-16 -1.1595886910e-17  5.0513395938e-03 -1.7413594051e-07 -3.0771367260e-02 -1.0542505250e-16  1.7867101231e-22  9.9951368521e-01]]
N(g) (NO)
 [[ 0.9995136852 -0.0311832178]
 [ 0.0311832178  0.9995136852]]
P(g) (NO)
 [[ 1.0000000000e+00  3.6772559432e-19  2.2025897202e-17 -7.9345500250e-22 -6.6982078080e-17  7.3512720152e-36  9.1835496158e-41  0.0000000000e+00]
 [ 7.3157210509e-18  1.0000000000e+00  1.7097639691e-34 -6.0360074790e-39 -4.0387549735e-34 -1.2624376065e-17  1.9897661227e-23  4.2694306952e-18]
 [-6.6797433791e-12 -2.1410623842e-10 -1.4712734100e-28  5.3000757996e-33  4.4742309257e-28  2.7029576718e-27 -4.2602133988e-33 -9.1411174637e-28]
 [-1.2921441850e-10 -4.1417014846e-09 -2.8460634988e-27  1.0252582675e-31  8.6550502689e-27  5.2286397092e-26 -8.2410173044e-32 -1.7682707449e-26]
 [-1.0959673268e-12 -3.5123882728e-11 -2.4139663677e-29  8.6960075804e-34  7.3410169058e-29  4.4341710444e-28 -6.9888311952e-34 -1.4995898306e-28]
 [-2.1683120320e-10  6.7647699747e-12 -4.7759017918e-27  1.7204580288e-31  1.4523804583e-26 -8.5401000156e-29  1.3460310124e-34  2.8881716576e-29]
 [-4.1417086553e-09  1.2921464221e-10 -9.1224849080e-26  3.2862594514e-30  2.7742025253e-25 -1.6312542364e-27  2.5710691763e-33  5.5167295973e-28]
 [-2.5045971753e-16  1.2878852880e-17 -5.5165999915e-33  1.9872851580e-37  1.6776312356e-32 -1.6258748205e-34  2.5625905160e-40  5.4985369805e-35]]
time for NO, Ng: 0.015
Pg_ortho
 [[ 9.7533111767e-01  3.4352731717e-09 -1.5511392128e-01  6.5616918875e-08  2.7485350128e-16 -9.6800523081e-25 -4.3711928790e-17 -1.8491207229e-23]
 [ 3.4285925418e-09  1.2076054749e-17 -5.4527372704e-10  2.3066389926e-16 -2.1413347413e-10  7.5415565778e-19  3.4055186232e-11  1.4406170656e-17]
 [-1.5511392128e-01 -5.4633619565e-10  2.4668882331e-02 -1.0435530462e-08 -9.1175319049e-18  3.2110991981e-26  1.4500266633e-18  6.1339648607e-25]
 [ 6.5489307965e-08  2.3066388287e-16 -1.0415235581e-08  4.4058951161e-15 -4.0903043322e-09  1.4405623253e-17  6.5051051146e-10  2.7518174112e-16]
 [-2.5655055410e-16 -9.0361234218e-25  4.0801079481e-17 -1.7259837803e-23  9.7533111767e-01 -3.4350139958e-09 -1.5511392128e-01 -6.5616954958e-08]
 [-2.1413347439e-10 -7.5421256064e-19  3.4055186273e-11 -1.4406162751e-17 -3.4283333779e-09  1.2074230917e-17  5.4523251035e-10  2.3064659044e-16]
 [ 7.5891818441e-17  2.6730319900e-25 -1.2069621627e-17  5.1057401980e-24 -1.5511392128e-01  5.4629497704e-10  2.4668882331e-02  1.0435536201e-08]
 [-4.0903043322e-09 -1.4406710174e-17  6.5051051146e-10 -2.7518158979e-16 -6.5489344048e-08  2.3064660739e-16  1.0415241320e-08  4.4058999664e-15]]
G(g) (NO)
 [[ 4.3098893068e-01 -3.7597012879e-17  1.1745306093e-02 -4.0950094824e-07 -7.1549171018e-02  1.5034611988e-10  1.6710227950e-10  1.7654689129e-17]
 [ 2.9233056923e-17  4.3098893068e-01  1.4836603470e-10  1.6709730901e-10  2.4354397247e-11 -2.1100704401e-09  1.2309211057e-08 -7.2506800293e-02]
 [ 1.1745306102e-02  4.2095998011e-10  7.4668845713e-01  1.2897494270e-01 -1.4091622385e-02  1.2307888635e-10  2.2858143076e-11 -3.1096972950e-10]
 [-4.0945650000e-07  1.5917955255e-09  1.2897494270e-01  7.2147428248e-01  2.1172789494e-02 -4.2552355962e-15 -7.8403850579e-16 -3.2237076891e-10]
 [-7.1549171016e-02  6.9094714511e-11 -1.4091622399e-02  2.1172789499e-02  8.3021309166e-01 -7.4976328617e-10 -1.3924547492e-10 -5.1046155441e-11]
 [ 4.2654013729e-10 -2.1186871795e-09  5.1046175998e-11 -1.7408826858e-15 -3.1095892585e-10  7.4436645932e-01  1.3070203018e-01 -8.6119864057e-09]
 [ 1.5918096278e-09  1.2264762597e-08  5.2222285426e-11 -1.7574276089e-15 -3.1812334492e-10  1.3070203018e-01  7.2148292440e-01 -2.1002575105e-08]
 [ 4.7642252761e-17 -7.2506800293e-02 -7.4976801019e-10 -1.4108404814e-10 -1.2307890516e-10 -8.5981129472e-09 -2.1008230305e-08  8.3252644756e-01]]
time for Gg: 0.022
C(NO)
[[-1.0000000000e+00  0.0000000000e+00 -7.7918234400e-17 -2.3388033382e-16 -2.1012056104e-17  0.0000000000e+00  0.0000000000e+00  0.0000000000e+00]
 [ 0.0000000000e+00 -1.0000000000e+00  0.0000000000e+00  0.0000000000e+00  0.0000000000e+00  3.7330992047e-17  3.7788134991e-17 -6.3247420776e-18]
 [-2.6466192568e-17  0.0000000000e+00 -9.5928181202e-01  1.6198903868e-01 -2.3138270564e-01  0.0000000000e+00  0.0000000000e+00  0.0000000000e+00]
 [ 9.3903879031e-22  0.0000000000e+00  2.3447871081e-01 -5.4545404026e-06 -9.7212125486e-01  0.0000000000e+00  0.0000000000e+00  0.0000000000e+00]
 [ 9.4031136088e-17  0.0000000000e+00 -1.5747424964e-01 -9.8679255739e-01 -3.7977748514e-02  0.0000000000e+00  0.0000000000e+00  0.0000000000e+00]
 [ 0.0000000000e+00  1.2624376479e-17  0.0000000000e+00  0.0000000000e+00  0.0000000000e+00 -9.7212900614e-01  4.0058924006e-08  2.3444657262e-01]
 [ 0.0000000000e+00 -6.6627714265e-24  0.0000000000e+00  0.0000000000e+00  0.0000000000e+00  2.3444657262e-01  2.3452186804e-08  9.7212900614e-01]
 [ 0.0000000000e+00 -4.2694306952e-18  0.0000000000e+00  0.0000000000e+00  0.0000000000e+00  3.3444157621e-08  1.0000000000e+00 -3.2190228579e-08]]
detC 1.0
detNg [1. 1. 1. 1. 1. 1. 1. 1.]
xg [1. 1. 1. 1. 1. 1. 1. 1.]
ciS 1.9999999999999765
[[-8.0169115504e-01  0.0000000000e+00 -1.1745291013e-02  4.7998211912e-07  7.1549166168e-02  0.0000000000e+00  0.0000000000e+00  0.0000000000e+00]
 [ 0.0000000000e+00 -8.0169115504e-01  0.0000000000e+00  0.0000000000e+00  0.0000000000e+00 -1.1982974885e-08 -8.2790845316e-08  7.2506793065e-02]
 [-1.1745291013e-02  0.0000000000e+00 -6.3345689509e-01  1.9418230078e-01 -1.5512470648e-01  0.0000000000e+00  0.0000000000e+00  0.0000000000e+00]
 [ 4.7998211907e-07  0.0000000000e+00  1.9418230078e-01  3.7606914786e-01  3.1876039735e-02  0.0000000000e+00  0.0000000000e+00  0.0000000000e+00]
 [ 7.1549166168e-02  0.0000000000e+00 -1.5512470648e-01  3.1876039735e-02  2.8604851576e-01  0.0000000000e+00  0.0000000000e+00  0.0000000000e+00]
 [ 0.0000000000e+00 -1.1982974889e-08  0.0000000000e+00  0.0000000000e+00  0.0000000000e+00 -6.5893490817e-01  1.9674700128e-01  3.1932457749e-08]
 [ 0.0000000000e+00 -8.2790845369e-08  0.0000000000e+00  0.0000000000e+00  0.0000000000e+00  1.9674700128e-01  3.7608215779e-01  3.9460240337e-09]
 [ 0.0000000000e+00  7.2506793065e-02  0.0000000000e+00  0.0000000000e+00  0.0000000000e+00  3.1932457732e-08  3.9460241039e-09  3.1151351890e-01]]
ciH -2.344786758794756
1.0000000000000002 3.841723322187111e-18 -5.4839770140041035e-16j -4.336960017276133e-17
0.9999999999999916 1.5037874395858945e-31 -1.5037605378074072e-31 8.835945368134684e-15
1.0 -1.5029907579260604e-17 -2.8055672908177427e-15j 1.2316389036735488e-16
0.9999999999999916 3.935498576197081e-30 -3.935935145231565e-30 8.405417566479101e-15
1.0000000000000002 -1.0863333372191737e-17 -6.03321178352573e-15j 4.51014964299538e-17
0.9999999999999937 1.8199516318110922e-29 -1.8200246118773159e-29 6.506100324258174e-15
1.0000000000000002 -5.156817768699028e-18 -8.486768684777135e-15j 6.418379602762314e-17
0.999999999999998 3.601264694136541e-29 -3.601262236031919e-29 2.5157849146478753e-15
1.0000000000000002 2.3954266333477257e-17 -8.472730484331794e-15j 6.244950298584051e-17
1.0000000000000029 3.5894035284423684e-29 -3.5893700382581066e-29 -2.5157849146335007e-15
1.0 5.806572020083628e-18 -6.007846426018014e-15j 1.439818477190786e-16
1.0000000000000069 1.8047136017339212e-29 -1.80471163775559e-29 -6.506100324243106e-15
1.0000000000000002 -5.757951507296136e-20 -2.7815291135405744e-15j 1.2143060501712516e-16
1.0000000000000089 3.868450662609662e-30 -3.868453550179047e-30 -8.405417566455738e-15
1.0 8.273584930501032e-20 -5.523195865677103e-16j 5.204170279967409e-17
1.000000000000009 1.5252836939680962e-31 -1.5252856315474063e-31 -8.835945368160772e-15
S2 = -0.000000
X(g)
[[ 2.0000000000e+00 -6.9388939039e-18 -6.6797384929e-12 -1.2921441850e-10 -1.0959607588e-12  2.1683120322e-10  4.1417086553e-09  2.5279425679e-16]
 [ 6.9388939039e-18  2.0000000000e+00  2.1410623854e-10  4.1417014846e-09  3.5123883863e-11  6.7647699753e-12  1.2921464221e-10 -3.1194328887e-17]
 [-6.6797433791e-12 -2.1410623842e-10  0.0000000000e+00  0.0000000000e+00  0.0000000000e+00  0.0000000000e+00  0.0000000000e+00  0.0000000000e+00]
 [-1.2921441850e-10 -4.1417014846e-09  0.0000000000e+00  0.0000000000e+00  0.0000000000e+00  0.0000000000e+00  0.0000000000e+00  0.0000000000e+00]
 [-1.0959673268e-12 -3.5123882728e-11  0.0000000000e+00  0.0000000000e+00  0.0000000000e+00  0.0000000000e+00  0.0000000000e+00  0.0000000000e+00]
 [-2.1683120320e-10  6.7647699747e-12  0.0000000000e+00  0.0000000000e+00  0.0000000000e+00  0.0000000000e+00  0.0000000000e+00  0.0000000000e+00]
 [-4.1417086553e-09  1.2921464221e-10  0.0000000000e+00  0.0000000000e+00  0.0000000000e+00  0.0000000000e+00  0.0000000000e+00  0.0000000000e+00]
 [-2.5045971753e-16  1.2878852880e-17  0.0000000000e+00  0.0000000000e+00  0.0000000000e+00  0.0000000000e+00  0.0000000000e+00  0.0000000000e+00]]
X(g) int
[[ 2.0000000000e+00 -4.3971625381e-18 -3.4347066332e-09 -6.6441453488e-08 -5.6345982417e-10  2.7319452530e-09  5.2183085885e-08  3.1815142870e-15]
 [-1.0763379864e-17  2.0000000000e+00  2.6976123027e-09  5.2182995539e-08  4.4254023035e-10  3.4784207160e-09  6.6441568521e-08  4.0285933293e-15]
 [-3.4347066311e-09 -2.6976123053e-09  0.0000000000e+00  0.0000000000e+00  0.0000000000e+00  0.0000000000e+00  0.0000000000e+00  0.0000000000e+00]
 [-6.6441453488e-08 -5.2182995539e-08  0.0000000000e+00  0.0000000000e+00  0.0000000000e+00  0.0000000000e+00  0.0000000000e+00  0.0000000000e+00]
 [-5.6345983691e-10 -4.4254021522e-10  0.0000000000e+00  0.0000000000e+00  0.0000000000e+00  0.0000000000e+00  0.0000000000e+00  0.0000000000e+00]
 [-2.7319452528e-09  3.4784207157e-09  0.0000000000e+00  0.0000000000e+00  0.0000000000e+00  0.0000000000e+00  0.0000000000e+00  0.0000000000e+00]
 [-5.2183085885e-08  6.6441568521e-08  0.0000000000e+00  0.0000000000e+00  0.0000000000e+00  0.0000000000e+00  0.0000000000e+00  0.0000000000e+00]
 [-3.1617267565e-15  4.0301838451e-15  0.0000000000e+00  0.0000000000e+00  0.0000000000e+00  0.0000000000e+00  0.0000000000e+00  0.0000000000e+00]]
Feff
 [[ 1.4004104781e-17  6.1770298958e-18 -1.2091145916e-09 -2.6806051526e-09 -7.5235696372e-09  1.2959295376e-08  5.7457458631e-08  3.3914982172e-15]
 [ 2.6578013616e-18  1.2535593643e-16  1.2790062116e-08  5.7457030168e-08  2.0992580398e-09  2.4119326175e-09  2.6806874654e-09 -7.2283539149e-09]
 [-1.2091145882e-09 -1.2790046273e-08  0.0000000000e+00  0.0000000000e+00  0.0000000000e+00  0.0000000000e+00  0.0000000000e+00  0.0000000000e+00]
 [-2.6806051707e-09 -5.7457001015e-08  0.0000000000e+00  0.0000000000e+00  0.0000000000e+00  0.0000000000e+00  0.0000000000e+00  0.0000000000e+00]
 [-7.5235697239e-09 -2.0992554128e-09  0.0000000000e+00  0.0000000000e+00  0.0000000000e+00  0.0000000000e+00  0.0000000000e+00  0.0000000000e+00]
 [-1.2959279318e-08  2.4119325870e-09  0.0000000000e+00  0.0000000000e+00  0.0000000000e+00  0.0000000000e+00  0.0000000000e+00  0.0000000000e+00]
 [-5.7457429477e-08  2.6806873952e-09  0.0000000000e+00  0.0000000000e+00  0.0000000000e+00  0.0000000000e+00  0.0000000000e+00  0.0000000000e+00]
 [-3.3658808880e-15 -7.2283539878e-09  0.0000000000e+00  0.0000000000e+00  0.0000000000e+00  0.0000000000e+00  0.0000000000e+00  0.0000000000e+00]]
Feff (ortho)
 [[ 2.2424370833e-09 -2.3818542400e-09  6.8717232315e-09 -2.6473779199e-09  2.9226500134e-19  7.9292395360e-15 -1.2854546490e-17  1.4396046336e-14]
 [-2.3818542400e-09 -1.6778547940e-17  3.7880343325e-10 -1.6956744256e-16  7.9292540406e-15  2.0559748972e-27 -1.2610462898e-15 -4.8274800743e-22]
 [ 6.8717232315e-09  3.7880343325e-10 -2.2424366963e-09  4.2103203428e-10 -1.3130211048e-17 -1.2610439830e-15  4.1251506461e-18 -2.2895067705e-15]
 [-2.6473779199e-09 -1.6956744256e-16  4.2103203428e-10 -3.5621294964e-16  1.4396068144e-14  4.8275048701e-22 -2.2895102413e-15 -1.9997623947e-27]
 [ 2.9226500134e-19  7.9292540406e-15 -1.3130211048e-17  1.4396068144e-14  2.2424371655e-09  2.3819929107e-09  6.8717231332e-09  2.6474195280e-09]
 [ 7.9292395360e-15  2.0559748972e-27 -1.2610439830e-15  4.8275048701e-22  2.3819929107e-09 -1.6778258833e-17 -3.7882548704e-10 -1.6957630302e-16]
 [-1.2854546490e-17 -1.2610462898e-15  4.1251506461e-18 -2.2895102413e-15  6.8717231332e-09 -3.7882548704e-10 -2.2424366671e-09 -4.2103865153e-10]
 [ 1.4396046336e-14 -4.8274800743e-22 -2.2895067705e-15 -1.9997623947e-27  2.6474195280e-09 -1.6957630302e-16 -4.2103865153e-10 -3.5621874403e-16]]
Hsp + Hph =  -1.172393379397392
Feff (mod,ortho)
[[-5.5378243147e-01 -2.0580789887e-08  2.0381557843e-01 -8.9725664631e-08  0.0000000000e+00  0.0000000000e+00  0.0000000000e+00  0.0000000000e+00]
 [-2.0580789887e-08 -2.8675251617e-01  3.4516497471e-09  2.6209638070e-01  0.0000000000e+00  0.0000000000e+00  0.0000000000e+00  0.0000000000e+00]
 [ 2.0381557843e-01  3.4516497471e-09  6.9536248445e-01  1.8361273858e-08  0.0000000000e+00  0.0000000000e+00  0.0000000000e+00  0.0000000000e+00]
 [-8.9725664631e-08  2.6209638070e-01  1.8361273858e-08  7.3682445765e-01  0.0000000000e+00  0.0000000000e+00  0.0000000000e+00  0.0000000000e+00]
 [ 0.0000000000e+00  0.0000000000e+00  0.0000000000e+00  0.0000000000e+00 -5.5378243147e-01  2.0580869542e-08  2.0381557843e-01  8.9725697558e-08]
 [ 0.0000000000e+00  0.0000000000e+00  0.0000000000e+00  0.0000000000e+00  2.0580869542e-08 -2.8675251617e-01 -3.4516035122e-09  2.6209638070e-01]
 [ 0.0000000000e+00  0.0000000000e+00  0.0000000000e+00  0.0000000000e+00  2.0381557843e-01 -3.4516035122e-09  6.9536248445e-01 -1.8361204892e-08]
 [ 0.0000000000e+00  0.0000000000e+00  0.0000000000e+00  0.0000000000e+00  8.9725697558e-08  2.6209638070e-01 -1.8361204892e-08  7.3682445765e-01]]
F(mod,ortho) updated with CDIIS
[[[-5.5378242618e-01  2.1788042439e-11  2.0381557744e-01 -3.9605540048e-10]
  [ 2.1788042439e-11 -2.8675251658e-01 -6.7872631773e-11  2.6209637999e-01]
  [ 2.0381557744e-01 -6.7872631773e-11  6.9536248334e-01 -4.7038896445e-11]
  [-3.9605540048e-10  2.6209637999e-01 -4.7038896445e-11  7.3682445144e-01]]

 [[-5.5378242618e-01 -2.1451283734e-11  2.0381557744e-01  3.9619434069e-10]
  [-2.1451283734e-11 -2.8675251658e-01  6.8065930843e-11  2.6209637999e-01]
  [ 2.0381557744e-01  6.8065930843e-11  6.9536248334e-01  4.7333240196e-11]
  [ 3.9619434069e-10  2.6209637999e-01  4.7333240196e-11  7.3682445144e-01]]]
Alpha occ 1 vir 3; Beta occ 1 vir 3
Alpha energies:  [-0.5861966843] <- HOMO
         LUMO->  [-0.3499613932  0.7277767414  0.8000333281]
Beta energies:   [-0.5861966843] <- HOMO
         LUMO->  [-0.3499613932  0.7277767414  0.8000333281]
e_a, e_b
 [-0.5861966843 -0.3499613932  0.7277767414  0.8000333281] 
 [-0.5861966843 -0.3499613932  0.7277767414  0.8000333281]
v_a, v_b
 [[ 9.8758853575e-01 -5.1218727182e-10 -1.5706331223e-01 -5.2242836436e-10]
 [-4.3713677059e-10 -9.7212936749e-01 -3.5832518055e-10  2.3444507430e-01]
 [-1.5706331223e-01  4.7295171928e-11 -9.8758853575e-01 -1.6061714494e-09]
 [ 3.7665585681e-10  2.3444507430e-01 -1.6297041534e-09  9.7212936749e-01]] 
 [[ 9.8758853575e-01  5.1107216090e-10  1.5706331223e-01 -5.2332642062e-10]
 [ 4.3598867050e-10 -9.7212936749e-01 -3.5934855165e-10 -2.3444507430e-01]
 [-1.5706331223e-01 -4.6964074875e-11  9.8758853575e-01 -1.6110866535e-09]
 [-3.7649718933e-10  2.3444507430e-01 -1.6345957654e-09 -9.7212936749e-01]]
P_a, P_b
 [[ 9.7533111595e-01 -4.3171126319e-10 -1.5511392655e-01  3.7198100611e-10]
 [-4.3171126319e-10  1.9108855620e-19  6.8658149086e-11 -1.6465012487e-19]
 [-1.5511392655e-01  6.8658149086e-11  2.4668884049e-02 -5.9158816442e-11]
 [ 3.7198100611e-10 -1.6465012487e-19 -5.9158816442e-11  1.4186963447e-19]] 
 [[ 9.7533111595e-01  4.3057741271e-10 -1.5511392655e-01 -3.7182430792e-10]
 [ 4.3057741271e-10  1.9008612081e-19 -6.8477824685e-11 -1.6414850902e-19]
 [-1.5511392655e-01 -6.8477824685e-11  2.4668884049e-02  5.9133895602e-11]
 [-3.7182430792e-10 -1.6414850902e-19  5.9133895602e-11  1.4175013357e-19]]
time for xg, H, S2, Yg, Feff: 0.027

***************
SUHF converged at cycle 23
Final E(SUHF) =     -0.90780477, delta E = 2.9754e-14, MaxD(dm) = 6.52451e-08, RMSD(dm) = 2.34803e-08
dm_reg
 [[[0.0368703461 0.0968890837 0.0368703462 0.0968890835]
  [0.0968890837 0.2546082565 0.0968890838 0.2546082559]
  [0.0368703462 0.0968890838 0.0368703462 0.0968890836]
  [0.0968890835 0.2546082559 0.0968890836 0.2546082553]]

 [[0.0368703462 0.0968890836 0.0368703462 0.0968890838]
  [0.0968890836 0.2546082553 0.0968890835 0.2546082559]
  [0.0368703462 0.0968890835 0.0368703461 0.0968890837]
  [0.0968890838 0.2546082559 0.0968890837 0.2546082565]]]
mo_reg
 [[-0.1920165257 -0.2516496964  0.8975175731  0.9191521729]
 [-0.5045872139 -0.6013789013 -0.6403733488 -0.9380937577]
 [-0.1920165259  0.2516496967  0.8975175762 -0.9191521698]
 [-0.5045872128  0.6013789018 -0.640373352   0.9380937558]] 
 [[-0.1920165259 -0.2516496967 -0.8975175762 -0.9191521698]
 [-0.5045872128 -0.6013789018  0.640373352   0.9380937558]
 [-0.1920165257  0.2516496964 -0.8975175731  0.9191521729]
 [-0.5045872139  0.6013789013  0.6403733488 -0.9380937577]]
time for cyc: 1.540
******* suhf density *****
time for Ngg: 0.002
time for Pgg: 0.005
time for xgg: 0.000
Clebsch-Gordan coeff: < 0 0 0 0 | 0 0 > = 1
Clebsch-Gordan coeff: < 0 0 1 0 | 0 0 > = 0
xggint 0.9999999999999999
SUHF DM alpha
 [[0.0368703481 0.0968890855 0.0368703481 0.0968890855]
 [0.0968890855 0.2546082523 0.0968890855 0.2546082523]
 [0.0368703481 0.0968890855 0.0368703481 0.0968890855]
 [0.0968890855 0.2546082523 0.0968890855 0.2546082523]] 
SUHF DM beta
 [[0.0368703481 0.0968890855 0.0368703481 0.0968890855]
 [0.0968890855 0.2546082523 0.0968890855 0.2546082523]
 [0.0368703481 0.0968890855 0.0368703481 0.0968890855]
 [0.0968890855 0.2546082523 0.0968890855 0.2546082523]]
time for dm: 0.018
SUHF natural orbitals alpha
 [[-0.1920165308  1.0942935717  0.3800331426 -0.6097560727]
 [-0.5045872098 -0.4695494345 -0.1213278517  1.190192166 ]
 [-0.1920165308  0.419600905  -1.2303507461  0.1545257289]
 [-0.5045872098 -0.6106051062  0.7280243122 -0.8653880727]]
SUHF natural orbitals beta
 [[-0.1920165308  1.0942935717  0.3800331426 -0.6097560727]
 [-0.5045872098 -0.4695494345 -0.1213278517  1.190192166 ]
 [-0.1920165308  0.419600905  -1.2303507461  0.1545257289]
 [-0.5045872098 -0.6106051062  0.7280243122 -0.8653880727]]
SUHF natural orbitals, total
 [[-0.1920165308  1.0942935717  0.3800331426 -0.6097560727]
 [-0.5045872098 -0.4695494345 -0.1213278517  1.190192166 ]
 [-0.1920165308  0.419600905  -1.2303507461  0.1545257289]
 [-0.5045872098 -0.6106051062  0.7280243122 -0.8653880727]]
SUHF NO occ alpha:  1.000000  ...
SUHF NO occ beta:   1.000000  ...
SUHF NO occ total:  2.000000  ...
core 1, active 0, external 3
time for natorb: 0.002
time tot: 1.749
