#INFO: **** input file is /share/home/srwang/ExSCF/test/vhfopt/test.py ****
from pyphf import suscf, guess

xyz = 'H 0.0 0.0 0.0; H 0.0 0.0 2.0'''
bas = '3-21g'
mf = guess.mix(xyz, bas, conv='tight')

mf2 = suscf.SUHF(mf)
mf2.verbose = 8
mf2.kernel()

#INFO: ******************** input file end ********************


System: uname_result(system='Linux', node='xn01', release='3.10.0-1127.el7.x86_64', version='#1 SMP Tue Feb 18 16:39:12 EST 2020', machine='x86_64', processor='x86_64')  Threads 32
Python 3.7.4 (default, Aug 13 2019, 20:35:49) 
[GCC 7.3.0]
numpy 1.17.2  scipy 1.4.1
Date: Thu Jun 24 23:01:54 2021
PySCF version 1.7.6a1
PySCF path  /share/home/srwang/pyscf/pyscf
GIT HEAD      ref: refs/heads/master
GIT master branch  80f71dfe77ac5f9caae26788acf76446987635bd

[CONFIG] conf_file None
[INPUT] verbose = 4
[INPUT] num. atoms = 2
[INPUT] num. electrons = 2
[INPUT] charge = 0
[INPUT] spin (= nelec alpha-beta = 2S) = 0
[INPUT] symmetry False subgroup None
[INPUT] Mole.unit = angstrom
[INPUT]  1 H      0.000000000000   0.000000000000   0.000000000000 AA    0.000000000000   0.000000000000   0.000000000000 Bohr
[INPUT]  2 H      0.000000000000   0.000000000000   2.000000000000 AA    0.000000000000   0.000000000000   3.779452249130 Bohr

nuclear repulsion = 0.26458860546
number of shells = 4
number of NR pGTOs = 6
number of NR cGTOs = 4
basis = 3-21g
ecp = {}
CPU time:         1.07


******** <class 'pyscf.scf.hf.RHF'> ********
method = RHF
initial guess = minao
damping factor = 0
level_shift factor = 0
DIIS = <class 'pyscf.scf.diis.CDIIS'>
diis_start_cycle = 1
diis_space = 8
SCF conv_tol = 1e-05
SCF conv_tol_grad = None
SCF max_cycles = 50
direct_scf = True
direct_scf_tol = 1e-13
chkfile to save SCF result = /share/home/srwang/ExSCF/test/vhfopt/tmp2ixx31_b
max_memory 4000 MB (current use 105 MB)
Set gradient conv threshold to 0.00316228
init E= -0.648815945420394
  HOMO = -0.244674774926751  LUMO = -0.0864459286574333
cycle= 1 E= -0.907663399996247  delta_E= -0.259  |g|= 0.019  |ddm|= 0.828
  HOMO = -0.369605169894073  LUMO = -0.0101025752244096
cycle= 2 E= -0.907801422494246  delta_E= -0.000138  |g|= 0.00293  |ddm|= 0.0218
  HOMO = -0.370705495656876  LUMO = -0.011268420043164
cycle= 3 E= -0.907804773936949  delta_E= -3.35e-06  |g|= 1.06e-06  |ddm|= 0.00397
  HOMO = -0.370702164933128  LUMO = -0.0112672782402441
Extra cycle  E= -0.907804773937381  delta_E= -4.32e-13  |g|= 1.64e-07  |ddm|= 1.22e-06
converged SCF energy = -0.907804773937381
**** generating mix guess ****
rotating angle: 0.25 pi


******** <class 'pyscf.scf.uhf.UHF'> ********
method = UHF
initial guess = minao
damping factor = 0
level_shift factor = 0
DIIS = <class 'pyscf.scf.diis.CDIIS'>
diis_start_cycle = 1
diis_space = 8
SCF conv_tol = 1e-09
SCF conv_tol_grad = None
SCF max_cycles = 100
direct_scf = True
direct_scf_tol = 1e-13
chkfile to save SCF result = /share/home/srwang/ExSCF/test/vhfopt/tmp4f198so9
max_memory 4000 MB (current use 147 MB)
number electrons alpha = 1  beta = 1
Set gradient conv threshold to 3.16228e-05
init E= -1.69135654891561
  alpha nocc = 1  HOMO = -0.24136263647573  LUMO = 0.900983838942928
  beta  nocc = 1  HOMO = -0.24136263647573  LUMO = 0.900983838942928
cycle= 1 E= -0.98558925463628  delta_E= 0.706  |g|= 0.0835  |ddm|= 1.15
  alpha nocc = 1  HOMO = -0.500699367107887  LUMO = 0.115721881429081
  beta  nocc = 1  HOMO = -0.500699367107887  LUMO = 0.115721881429081
cycle= 2 E= -0.995568238270465  delta_E= -0.00998  |g|= 0.0263  |ddm|= 0.145
  alpha nocc = 1  HOMO = -0.497083605541942  LUMO = 0.125003394565144
  beta  nocc = 1  HOMO = -0.497083605541941  LUMO = 0.125003394565144
cycle= 3 E= -0.996982488678898  delta_E= -0.00141  |g|= 0.00453  |ddm|= 0.0714
  alpha nocc = 1  HOMO = -0.492766860752049  LUMO = 0.118670910813592
  beta  nocc = 1  HOMO = -0.492766860752049  LUMO = 0.118670910813592
cycle= 4 E= -0.997011162805863  delta_E= -2.87e-05  |g|= 0.000416  |ddm|= 0.00998
  alpha nocc = 1  HOMO = -0.49439549753304  LUMO = 0.120246563561694
  beta  nocc = 1  HOMO = -0.49439549753304  LUMO = 0.120246563561694
cycle= 5 E= -0.997011453176456  delta_E= -2.9e-07  |g|= 3.04e-05  |ddm|= 0.00094
  alpha nocc = 1  HOMO = -0.49433118049591  LUMO = 0.120178766572692
  beta  nocc = 1  HOMO = -0.494331180495909  LUMO = 0.120178766572693
cycle= 6 E= -0.997011455175521  delta_E= -2e-09  |g|= 5.7e-07  |ddm|= 7.89e-05
  alpha nocc = 1  HOMO = -0.494330560130689  LUMO = 0.120178160884734
  beta  nocc = 1  HOMO = -0.494330560130689  LUMO = 0.120178160884734
cycle= 7 E= -0.997011455176149  delta_E= -6.27e-13  |g|= 2.53e-07  |ddm|= 8.43e-07
  alpha nocc = 1  HOMO = -0.494330110948525  LUMO = 0.120177755068448
  beta  nocc = 1  HOMO = -0.494330110948524  LUMO = 0.120177755068448
Extra cycle  E= -0.997011455176268  delta_E= -1.19e-13  |g|= 1.16e-07  |ddm|= 3.54e-07
converged SCF energy = -0.997011455176268  <S^2> = 0.91048301  2S+1 = 2.1545143
**** checking UHF/UKS internal stability ...
tol 0.0001  toloose 0.01
max_cycle 50  max_space 12  max_memory 2000  incore True
davidson 0 1  |r|= 0.861  e= [1.13705881]  max|de|= 1.14  lindep= 0.529
davidson 1 2  |r|= 0.119  e= [0.67139996]  max|de|= -0.466  lindep= 0.998
Throwing out eigenvector 0 with norm=8.19e-16
davidson 2 3  |r|= 8.19e-16  e= [0.66357818]  max|de|= -0.00782  lindep=    1
Linear dependency in trial subspace. |r| for each state [8.191532507521053e-16]
UHF/UKS wavefunction is stable in the internal stability analysis
time for guess: 0.130

******** <class 'pyphf.suscf.SUHF'> ********
Date: Thu Jun 24 23:01:54 2021
pyphf version 0.4.0
pyphf path  /share/home/srwang/ExSCF
GIT ORIG_HEAD 198e48480b188f02e90f0e6e8cbbe5568091e1c6
GIT HEAD (branch main) 59f10e935e4c65793406791dc0bab52fad4872db
max_cycle = 70
verbose: 8, debug2
conv_tol: 1e-07
chkfile0: 17300_ges.pchk # the file store hf for guess
chkfile: 17300_su.pchk # the file store suhf info
DIIS: <class 'pyscf.scf.diis.CDIIS'>
diis_start_cyc = 10
S
[[1.         0.64589894 0.00227256 0.07465634]
 [0.64589894 1.         0.07465634 0.27025724]
 [0.00227256 0.07465634 1.         0.64589894]
 [0.07465634 0.27025724 0.64589894 1.        ]]
SVD: S^(-1/2)
[[-0.3306004   0.46012676 -0.85621932  0.83453679]
 [-0.39774539  0.36468663  0.71167752 -1.05293881]
 [-0.3306004  -0.46012676 -0.85621932 -0.83453679]
 [-0.39774539 -0.36468663  0.71167752  1.05293881]]
S^(1/2)
[[-0.61794925 -0.74345483 -0.61794925 -0.74345483]
 [ 0.66740563  0.52897143 -0.66740563 -0.52897143]
 [-0.34536213  0.28706017 -0.34536213  0.28706017]
 [ 0.23115675 -0.29165151 -0.23115675  0.29165151]]
C (ortho)
 [[-0.80171109 -0.57009486 -0.09238995 -0.15399766]
 [ 0.58103419 -0.75902561  0.10126721 -0.27572512]
 [ 0.08280271  0.16885271 -0.79177919 -0.58113526]
 [-0.11314731  0.26525597  0.59522665 -0.75002813]] 
 [[-0.80171109 -0.57009486 -0.09238995 -0.15399766]
 [-0.58103419  0.75902561 -0.10126721  0.27572512]
 [ 0.08280271  0.16885271 -0.79177919 -0.58113526]
 [ 0.11314731 -0.26525597 -0.59522665  0.75002813]]
density matrix (ortho)
[[[ 0.64274066 -0.46582155 -0.06638385  0.09071146]
  [-0.46582155  0.33760073  0.04811121 -0.06574246]
  [-0.06638385  0.04811121  0.00685629 -0.0093689 ]
  [ 0.09071146 -0.06574246 -0.0093689   0.01280231]]

 [[ 0.64274066  0.46582155 -0.06638385 -0.09071146]
  [ 0.46582155  0.33760073 -0.04811121 -0.06574246]
  [-0.06638385 -0.04811121  0.00685629  0.0093689 ]
  [-0.09071146 -0.06574246  0.0093689   0.01280231]]]
grids:  [0.06237655 0.31939555 0.74529195 1.28265786 1.85893479 2.39630071
 2.8221971  3.07921611] 
weights:  [0.15900941 0.34931531 0.49276925 0.56970235 0.56970235 0.49276925
 0.34931531 0.15900941]
S = 0.0, Sz = 0.0
Wigner small d:  1
value : [1. 1. 1. 1. 1. 1. 1. 1.]
hcore (ortho)
 [[-7.96723266e-01  9.17301167e-17  1.03744072e-01  1.33062106e-16]
 [ 8.50105048e-17 -6.58935537e-01  4.05701508e-16  1.96745347e-01]
 [ 1.03744072e-01  4.21576640e-16  3.06545630e-01 -2.77570797e-16]
 [ 9.15077779e-17  1.96745347e-01 -1.99832916e-16  3.76082787e-01]]
time for Preparation before cyc: 0.097
**** Start Cycle 1 ****
dm (ortho)
[[[ 0.6427406647 -0.4658215524 -0.0663838507  0.0907114563]
  [-0.4658215524  0.3376007317  0.0481112058 -0.0657424584]
  [-0.0663838507  0.0481112058  0.0068562888 -0.0093689043]
  [ 0.0907114563 -0.0657424584 -0.0093689043  0.0128023148]]

 [[ 0.6427406647  0.4658215524 -0.0663838507 -0.0907114563]
  [ 0.4658215524  0.3376007317 -0.0481112058 -0.0657424584]
  [-0.0663838507 -0.0481112058  0.0068562888  0.0093689043]
  [-0.0907114563 -0.0657424584  0.0093689043  0.0128023148]]]
Fock (ortho)
 (array([[-0.2388873235,  0.326413236 ,  0.2163657457,  0.0245837681],
       [ 0.326413236 ,  0.0110682141,  0.078060889 ,  0.339629591 ],
       [ 0.2163657457,  0.078060889 ,  1.1220172843,  0.0506526202],
       [ 0.0245837681,  0.339629591 ,  0.0506526202,  1.1126146476]]), array([[-0.2388873235, -0.326413236 ,  0.2163657457, -0.0245837681],
       [-0.326413236 ,  0.0110682141, -0.078060889 ,  0.339629591 ],
       [ 0.2163657457, -0.078060889 ,  1.1220172843, -0.0506526202],
       [-0.0245837681,  0.339629591 , -0.0506526202,  1.1126146476]]))
E1 = -1.53453994594051  Ecoul = 0.2729398853042426
E(UHF) =    -1.261600
NO eigenvalue
[-1.0000000000e+00 -3.2476485579e-18 -9.2905964738e-19  1.1779291611e-16] 
 [-1.0000000000e+00 -6.5765998208e-17  4.0396659049e-19  5.0866787664e-18]
NO vec
[[ 0.8017110856  0.            0.141334066   0.0029613373  0.5807540336  0.            0.            0.          ]
 [-0.5810341915  0.           -0.0436322449  0.0019374649  0.8127064302  0.            0.            0.          ]
 [-0.0828027103  0.            0.5766686472  0.8122108387 -0.0301750882  0.            0.            0.          ]
 [ 0.1131473145  0.           -0.8034763097  0.5833532636  0.0363658459  0.            0.            0.          ]
 [ 0.            0.8017110856  0.            0.            0.           -0.5525958206  0.0535244221  0.2214324515]
 [ 0.            0.5810341915  0.            0.            0.            0.800667493   0.0769122561 -0.1241585232]
 [ 0.           -0.0828027103  0.            0.            0.            0.2297497458 -0.2565714443  0.9351630122]
 [ 0.           -0.1131473145  0.            0.            0.            0.0280085533  0.9619723151  0.2470272679]]
dm(NO)
[[ 1.0000000000e+00  0.0000000000e+00  3.0416852558e-17  1.3974303792e-17  8.8298768164e-18  0.0000000000e+00  0.0000000000e+00  0.0000000000e+00]
 [ 0.0000000000e+00  1.0000000000e+00  0.0000000000e+00  0.0000000000e+00  0.0000000000e+00 -1.3907451282e-16 -9.6023525703e-18 -1.4067816319e-17]
 [ 4.6039362194e-17  0.0000000000e+00  2.0081692436e-18 -1.2051064695e-18 -2.9055484424e-18  0.0000000000e+00  0.0000000000e+00  0.0000000000e+00]
 [ 7.2789875135e-19  0.0000000000e+00  5.5998607553e-19  8.0038115539e-19  6.3808926184e-18  0.0000000000e+00  0.0000000000e+00  0.0000000000e+00]
 [-3.8070915596e-17  0.0000000000e+00  2.0422417546e-18  7.4716572367e-18  3.0594299210e-18  0.0000000000e+00  0.0000000000e+00  0.0000000000e+00]
 [ 0.0000000000e+00 -7.8241678069e-17  0.0000000000e+00  0.0000000000e+00  0.0000000000e+00 -1.5241027362e-17 -1.0978860254e-17  8.6444019182e-18]
 [ 0.0000000000e+00 -1.4579434426e-17  0.0000000000e+00  0.0000000000e+00  0.0000000000e+00 -1.0543658344e-17 -1.6479935148e-19  2.1817213077e-18]
 [ 0.0000000000e+00 -8.3225882691e-18  0.0000000000e+00  0.0000000000e+00  0.0000000000e+00  3.7588800507e-18  3.1958184084e-18 -2.6385799057e-18]]
D(g) (NO)
 [[ 9.9951368521e-01  9.3298287801e-03  6.4590039059e-17  1.3031143356e-17 -2.6748702735e-17 -2.8816168179e-02  4.0011769020e-03  6.2423076319e-03]
 [-9.3298287801e-03  9.9951368521e-01 -4.0887036436e-03  4.0462795765e-03 -2.9193449501e-02  7.0409669015e-17  7.1488933537e-18 -4.3647340956e-17]
 [ 3.7882410011e-17  4.0887036436e-03  9.9951368521e-01 -6.5863292616e-18 -3.1052581547e-17 -9.5117177851e-05 -2.8584711056e-02  1.1772035670e-02]
 [-3.0847759875e-18 -4.0462795765e-03  3.9040886676e-18  9.9951368521e-01 -4.0832399271e-17  6.3257950547e-03  1.1010391963e-02  2.8191776852e-02]
 [ 4.6178815051e-18  2.9193449501e-02 -3.2394645334e-17 -3.9383208800e-17  9.9951368521e-01  1.0099346310e-02  4.2507906083e-03  2.6375041308e-04]
 [ 2.8816168179e-02  1.1555660384e-16  9.5117177851e-05 -6.3257950547e-03 -1.0099346310e-02  9.9951368521e-01  2.8215178929e-17 -7.5476867566e-17]
 [-4.0011769020e-03  1.3877787808e-17  2.8584711056e-02 -1.1010391963e-02 -4.2507906083e-03  2.7755575616e-17  9.9951368521e-01 -1.3877787808e-16]
 [-6.2423076319e-03 -4.1633363423e-17 -1.1772035670e-02 -2.8191776852e-02 -2.6375041308e-04 -5.5511151231e-17 -1.3877787808e-16  9.9951368521e-01]]
N(g) (NO)
 [[ 1.0003993862 -0.0093380962]
 [ 0.0093380962  1.0003993862]]
P(g) (NO)
 [[ 1.0000000000e+00 -4.2561113230e-19  3.0416852558e-17  1.3974303792e-17  8.8298768164e-18  5.5133125100e-35  0.0000000000e+00  0.0000000000e+00]
 [ 2.4473312164e-18  1.0000000000e+00  7.9097597139e-35  1.4082502590e-35  1.7246440122e-35 -1.3907451282e-16 -9.6023525703e-18 -1.4067816319e-17]
 [ 3.8180708117e-05  4.0903366154e-03  1.1613369693e-21  5.3354881424e-22  3.3713094944e-22 -5.6886157207e-19 -3.9276854312e-20 -5.7542104186e-20]
 [-3.7784548095e-05 -4.0478956046e-03 -1.1492870284e-21 -5.2801275374e-22 -3.3363290524e-22  5.6295910918e-19  3.8869320763e-20  5.6945051843e-20]
 [ 2.7261124099e-04  2.9205108961e-02  8.2919759228e-21  3.8095522988e-21  2.4071236767e-21 -4.0616863008e-18 -2.8043775310e-19 -4.1085210844e-19]
 [ 2.8827676958e-02 -2.6908815169e-04  8.7684719961e-19  4.0284671544e-19  2.5454483644e-19  3.7423303604e-20  2.5838793050e-21  3.7854826916e-21]
 [-4.0027749167e-03  3.7363374980e-05 -1.2175181446e-19 -5.5935992699e-20 -3.5344009438e-20 -5.1962931728e-21 -3.5877629977e-22 -5.2562109627e-22]
 [-6.2448007232e-03  5.8291269420e-05 -1.8994718285e-19 -8.7266742429e-20 -5.5140821129e-20 -8.1068298965e-21 -5.5973332074e-22 -8.2003087118e-22]]
time for NO, Ng: 0.014
Pg_ortho
 [[ 6.4287182818e-01 -4.6591661217e-01 -6.6397397639e-02  9.0729967719e-02  1.4051671612e-02  1.0183845280e-02 -1.4512915120e-03 -1.9831444712e-03]
 [-4.6564532526e-01  3.3747301236e-01  4.8093004646e-02 -6.5717587048e-02  1.8879387425e-02  1.3682696680e-02 -1.9499099806e-03 -2.6644910175e-03]
 [-6.6397397639e-02  4.8121023832e-02  6.8576879868e-03 -9.3708162036e-03 -1.4512915120e-03 -1.0518128107e-03  1.4989298859e-04  2.0482408197e-04]
 [ 9.0677138839e-02 -6.5717587048e-02 -9.3653599057e-03  1.2797471469e-02 -3.6764652018e-03 -2.6644910175e-03  3.7971444884e-04  5.1886792119e-04]
 [-1.4051671612e-02  1.0183845280e-02  1.4512915120e-03 -1.9831444712e-03  6.4287182818e-01  4.6591661217e-01 -6.6397397639e-02 -9.0729967719e-02]
 [ 1.8879387425e-02 -1.3682696680e-02 -1.9499099806e-03  2.6644910175e-03  4.6564532526e-01  3.3747301236e-01 -4.8093004646e-02 -6.5717587048e-02]
 [ 1.4512915120e-03 -1.0518128107e-03 -1.4989298859e-04  2.0482408197e-04 -6.6397397639e-02 -4.8121023832e-02  6.8576879868e-03  9.3708162036e-03]
 [-3.6764652018e-03  2.6644910175e-03  3.7971444884e-04 -5.1886792119e-04 -9.0677138839e-02 -6.5717587048e-02  9.3653599057e-03  1.2797471469e-02]]
G(g) (NO)
 [[ 2.7295464423e-01 -1.5811381521e-03  1.8185747700e-02 -3.9411825545e-03  5.1041594182e-02 -5.7174797346e-04 -2.4793500263e-04 -3.6162730741e-04]
 [ 1.5811381521e-03  2.7295464423e-01  4.9774829946e-04  1.2761440548e-04 -5.0507723573e-04 -4.8624195196e-02  1.1602724371e-02  2.1273530612e-02]
 [ 1.8182271890e-02 -2.0987339238e-03  7.2699138040e-01  2.9488640057e-02 -1.3124025782e-02 -4.6973351439e-04 -1.2562978768e-05 -1.5367819865e-04]
 [-3.9339415631e-03 -2.7656630155e-03  2.9488527363e-02  8.3779936334e-01  1.8011989190e-01 -1.6935672162e-03 -1.6866032467e-03 -3.0688809214e-03]
 [ 5.0970993753e-02 -1.9168204690e-02 -1.3126560569e-02  1.8012461667e-01  9.4209544288e-01 -3.2531675222e-03 -2.2732761288e-03 -4.7194928627e-03]
 [-1.8080031424e-02 -4.8554215225e-02 -4.6805164838e-03 -1.5034482067e-03  2.1199329968e-03  8.8151137060e-01  1.4099095723e-01 -1.1674163334e-01]
 [-1.9182341126e-03  1.1599083508e-02 -2.9789871664e-03 -6.7043303205e-04  7.6592022004e-04  1.4098580859e-01  7.8173500030e-01 -9.4939850737e-02]
 [ 6.9933174266e-03  2.1261762795e-02  3.3989665907e-03  9.9258946054e-04 -1.5130623337e-03 -1.1674057296e-01 -9.4940913001e-02  8.4363981572e-01]]
time for Gg: 0.021
C(NO)
[[-1.0000000000e+00  0.0000000000e+00 -2.7944481601e-16 -3.9189489418e-16 -8.8001298279e-17  0.0000000000e+00  0.0000000000e+00  0.0000000000e+00]
 [ 0.0000000000e+00 -1.0000000000e+00  0.0000000000e+00  0.0000000000e+00  0.0000000000e+00  3.9905460113e-17  4.0939474033e-16  6.9388939039e-17]
 [-1.6539064750e-17  0.0000000000e+00 -1.6321066240e-01 -9.5232110872e-01  2.5777274016e-01  0.0000000000e+00  0.0000000000e+00  0.0000000000e+00]
 [-9.6515984498e-20  0.0000000000e+00  2.8872311026e-01 -2.9594162965e-01 -9.1052595649e-01  0.0000000000e+00  0.0000000000e+00  0.0000000000e+00]
 [ 8.0508382196e-17  0.0000000000e+00 -9.4339877320e-01  7.4182597209e-02 -3.2325794188e-01  0.0000000000e+00  0.0000000000e+00  0.0000000000e+00]
 [ 0.0000000000e+00  1.0476874006e-16  0.0000000000e+00  0.0000000000e+00  0.0000000000e+00  9.5412360226e-01 -2.2860956142e-01  1.9335413116e-01]
 [ 0.0000000000e+00  9.0746124287e-18  0.0000000000e+00  0.0000000000e+00  0.0000000000e+00 -2.7062731369e-01 -3.8217743362e-01  8.8357301131e-01]
 [ 0.0000000000e+00  3.6182205180e-18  0.0000000000e+00  0.0000000000e+00  0.0000000000e+00 -1.2809765297e-01 -8.9536477352e-01 -4.2651250116e-01]]
detC 0.9999999999999998
detNg [ 1.0008861319  1.0235662454  1.1372541875  1.4834076483  2.407356124   4.7572359479  8.8856775582 11.061660401 ]
xg [0.9991146526 0.9769763359 0.8793108973 0.6741235298 0.4153934642 0.2102060968 0.1125406581 0.0904023414]
ciS 1.0895169940285538
[[-0.767269973   0.           -0.0181810686  0.0039423922 -0.0510463819  0.            0.            0.          ]
 [ 0.           -0.767269973   0.            0.            0.            0.0486296105 -0.011600399  -0.0212701326]
 [-0.0181810686  0.            0.3582664996 -0.0262007117 -0.1528356024  0.            0.            0.          ]
 [ 0.0039423922  0.           -0.0262007117  0.3311396869  0.1402736203  0.            0.            0.          ]
 [-0.0510463819  0.           -0.1528356024  0.1402736203 -0.6951666     0.            0.            0.          ]
 [ 0.            0.0486296105  0.            0.            0.           -0.6667540664  0.1429955849  0.2213539904]
 [ 0.           -0.011600399   0.            0.            0.            0.1429955849  0.3882866325 -0.0077938231]
 [ 0.           -0.0212701326  0.            0.            0.            0.2213539904 -0.0077938231  0.2727070204]]
ciH -1.388130980632471
1.0 -3.618524750670371e-18 -0.028403129201640384j -5.117434254131581e-17
0.5448378560243621 0.00040336887422253836 -0.00040336887422253836 0.45516214397563787
1.0 -2.9110828331235794e-17 -0.14631114471446355j 1.444157293750692e-16
0.5468929338948363 0.010703475533828352 -0.010703475533828352 0.4531070661051636
1.0 -5.355958732078392e-17 -0.3511142553679061j -1.0625181290357943e-16
0.5578882717282883 0.061640610161279565 -0.06164061016127958 0.4421117282717117
1.0 -1.6458188978329957e-16 -0.6474688047363926j 2.0426368929626904e-16
0.5984909944004418 0.20960792655338636 -0.20960792655338642 0.40150900559955827
1.0 1.5178830414797062e-16 -1.050748251132989j -2.0079424234431542e-16
0.7593917602586914 0.5520359436295178 -0.5520359436295176 0.2406082397413086
0.9999999999999998 -8.803721640582296e-17 -1.4687423232666834j 2.3418766925686896e-17
1.5129426988331036 1.0786020060774077 -1.0786020060774077 -0.5129426988331041
1.0 4.336808689942018e-18 -1.2701411960035045j -1.8735013540549517e-16
4.0339190226436825 0.8066293288926064 -0.8066293288926064 -3.0339190226436816
0.9999999999999997 1.3660947373317356e-17 -0.31390760600879525j 3.365363543395006e-16
5.9766645019604585 0.049268992555086516 -0.049268992555086516 -4.9766645019604585
S2 = 0.000000
X(g)
[[ 2.0000000000e+00 -1.7347234760e-18  3.8180708117e-05 -3.7784548095e-05  2.7261124099e-04 -2.8827676958e-02  4.0027749167e-03  6.2448007232e-03]
 [-1.7347234760e-18  2.0000000000e+00 -4.0903366154e-03  4.0478956046e-03 -2.9205108961e-02 -2.6908815169e-04  3.7363374980e-05  5.8291269420e-05]
 [ 3.8180708117e-05  4.0903366154e-03  0.0000000000e+00  0.0000000000e+00  0.0000000000e+00  0.0000000000e+00  0.0000000000e+00  0.0000000000e+00]
 [-3.7784548095e-05 -4.0478956046e-03  0.0000000000e+00  0.0000000000e+00  0.0000000000e+00  0.0000000000e+00  0.0000000000e+00  0.0000000000e+00]
 [ 2.7261124099e-04  2.9205108961e-02  0.0000000000e+00  0.0000000000e+00  0.0000000000e+00  0.0000000000e+00  0.0000000000e+00  0.0000000000e+00]
 [ 2.8827676958e-02 -2.6908815169e-04  0.0000000000e+00  0.0000000000e+00  0.0000000000e+00  0.0000000000e+00  0.0000000000e+00  0.0000000000e+00]
 [-4.0027749167e-03  3.7363374980e-05  0.0000000000e+00  0.0000000000e+00  0.0000000000e+00  0.0000000000e+00  0.0000000000e+00  0.0000000000e+00]
 [-6.2448007232e-03  5.8291269420e-05  0.0000000000e+00  0.0000000000e+00  0.0000000000e+00  0.0000000000e+00  0.0000000000e+00  0.0000000000e+00]]
X(g) int
[[ 2.0000000000e+00 -5.3328139028e-17  3.6006710019e-02 -3.5633107230e-02  2.5708883848e-01 -6.6614868392e-01  9.2495945708e-02  1.4430457887e-01]
 [ 5.9483284896e-17  2.0000000000e+00 -9.4519317567e-02  9.3538592568e-02 -6.7487036596e-01 -2.5376635284e-01  3.5235915586e-02  5.4972181977e-02]
 [ 3.6006710019e-02  9.4519317567e-02  0.0000000000e+00  0.0000000000e+00  0.0000000000e+00  0.0000000000e+00  0.0000000000e+00  0.0000000000e+00]
 [-3.5633107230e-02 -9.3538592568e-02  0.0000000000e+00  0.0000000000e+00  0.0000000000e+00  0.0000000000e+00  0.0000000000e+00  0.0000000000e+00]
 [ 2.5708883848e-01  6.7487036596e-01  0.0000000000e+00  0.0000000000e+00  0.0000000000e+00  0.0000000000e+00  0.0000000000e+00  0.0000000000e+00]
 [ 6.6614868392e-01 -2.5376635284e-01  0.0000000000e+00  0.0000000000e+00  0.0000000000e+00  0.0000000000e+00  0.0000000000e+00  0.0000000000e+00]
 [-9.2495945708e-02  3.5235915586e-02  0.0000000000e+00  0.0000000000e+00  0.0000000000e+00  0.0000000000e+00  0.0000000000e+00  0.0000000000e+00]
 [-1.4430457887e-01  5.4972181977e-02  0.0000000000e+00  0.0000000000e+00  0.0000000000e+00  0.0000000000e+00  0.0000000000e+00  0.0000000000e+00]]
Feff
 [[ 6.2814136282e-16  1.1308717051e-17 -2.2721722987e-03  1.5162622225e-02  9.7406702803e-03 -2.1524945279e-02 -4.5750244491e-03 -6.5556498228e-03]
 [-1.6805594751e-18  4.4330190700e-16  1.0322430888e-02  4.1161677419e-03 -2.0093164167e-02 -7.2625187325e-03 -1.3684664169e-02  9.4833709946e-03]
 [-2.2721722987e-03 -1.0322430888e-02  0.0000000000e+00  0.0000000000e+00  0.0000000000e+00  0.0000000000e+00  0.0000000000e+00  0.0000000000e+00]
 [ 1.5162622225e-02 -4.1161677419e-03  0.0000000000e+00  0.0000000000e+00  0.0000000000e+00  0.0000000000e+00  0.0000000000e+00  0.0000000000e+00]
 [ 9.7406702803e-03  2.0093164167e-02  0.0000000000e+00  0.0000000000e+00  0.0000000000e+00  0.0000000000e+00  0.0000000000e+00  0.0000000000e+00]
 [ 2.1524945279e-02 -7.2625187325e-03  0.0000000000e+00  0.0000000000e+00  0.0000000000e+00  0.0000000000e+00  0.0000000000e+00  0.0000000000e+00]
 [ 4.5750244491e-03 -1.3684664169e-02  0.0000000000e+00  0.0000000000e+00  0.0000000000e+00  0.0000000000e+00  0.0000000000e+00  0.0000000000e+00]
 [ 6.5556498228e-03  9.4833709946e-03  0.0000000000e+00  0.0000000000e+00  0.0000000000e+00  0.0000000000e+00  0.0000000000e+00  0.0000000000e+00]]
Feff (ortho)
 [[ 8.6275334275e-03  3.3232527142e-03  8.1416149611e-03  9.4477000966e-03 -3.2959746044e-17  8.7603535537e-17 -2.1684043450e-17 -2.7321894747e-17]
 [ 3.3232527142e-03 -9.3486337563e-03 -6.8896077565e-03 -5.4956690449e-03  6.5052130349e-17 -3.6429192996e-17  1.0842021725e-17  1.4528309111e-17]
 [ 8.1416149611e-03 -6.8896077565e-03 -1.7738046284e-03  2.9902195761e-04 -4.1633363423e-17 -4.0766001685e-17  6.6136332522e-18  9.2157184661e-18]
 [ 9.4477000966e-03 -5.4956690449e-03  2.9902195761e-04  2.4949049572e-03 -5.6812193838e-17 -2.5370330836e-17  2.6020852140e-18  3.5778671692e-18]
 [-3.2959746044e-17  6.5052130349e-17 -4.1633363423e-17 -5.6812193838e-17  8.6275334275e-03 -3.3232527142e-03  8.1416149611e-03 -9.4477000966e-03]
 [ 8.7603535537e-17 -3.6429192996e-17 -4.0766001685e-17 -2.5370330836e-17 -3.3232527142e-03 -9.3486337563e-03  6.8896077565e-03 -5.4956690449e-03]
 [-2.1684043450e-17  1.0842021725e-17  6.6136332522e-18  2.6020852140e-18  8.1416149611e-03  6.8896077565e-03 -1.7738046284e-03 -2.9902195761e-04]
 [-2.7321894747e-17  1.4528309111e-17  9.2157184661e-18  3.5778671692e-18 -9.4477000966e-03 -5.4956690449e-03 -2.9902195761e-04  2.4949049572e-03]]
Hsp + Hph =  -1.2740792371670813
Feff (mod,ortho)
[[-0.2302597295  0.3297365156  0.2245073286  0.0340314871  0.            0.            0.            0.          ]
 [ 0.3297365156  0.0017195096  0.0711712972  0.3341339181  0.            0.            0.            0.          ]
 [ 0.2245073286  0.0711712972  1.1202434857  0.0509516366  0.            0.            0.            0.          ]
 [ 0.0340314871  0.3341339181  0.0509516366  1.1151095567  0.            0.            0.            0.          ]
 [ 0.            0.            0.            0.           -0.2302597295 -0.3297365156  0.2245073286 -0.0340314871]
 [ 0.            0.            0.            0.           -0.3297365156  0.0017195096 -0.0711712972  0.3341339181]
 [ 0.            0.            0.            0.            0.2245073286 -0.0711712972  1.1202434857 -0.0509516366]
 [ 0.            0.            0.            0.           -0.0340314871  0.3341339181 -0.0509516366  1.1151095567]]
Alpha occ 1 vir 3; Beta occ 1 vir 3
Alpha energies:  [-0.4945369813] <- HOMO
         LUMO->  [0.1202097884 1.099203477  1.2819365384]
Beta energies:   [-0.4945369813] <- HOMO
         LUMO->  [0.1202097884 1.099203477  1.2819365384]
v_a, v_b
 [[ 0.7959192725 -0.5758526377  0.0931821925  0.1619361922]
 [-0.5890939817 -0.7547802912 -0.1018733654  0.2699940928]
 [-0.0881101107  0.1695190739  0.7916389213  0.5803513679]
 [ 0.1082469437  0.2645065883 -0.5951862857  0.7510473682]] 
 [[ 0.7959192725  0.5758526377 -0.0931821925  0.1619361922]
 [ 0.5890939817 -0.7547802912 -0.1018733654 -0.2699940928]
 [-0.0881101107 -0.1695190739 -0.7916389213  0.5803513679]
 [-0.1082469437  0.2645065883 -0.5951862857 -0.7510473682]]
P_a, P_b
 [[ 0.6334874883 -0.4688712533 -0.0701285352  0.0861558286]
 [-0.4688712533  0.3470317192  0.0519051359 -0.063767623 ]
 [-0.0701285352  0.0519051359  0.0077633916 -0.0095376502]
 [ 0.0861558286 -0.063767623  -0.0095376502  0.0117174008]] 
 [[ 0.6334874883  0.4688712533 -0.0701285352 -0.0861558286]
 [ 0.4688712533  0.3470317192 -0.0519051359 -0.063767623 ]
 [-0.0701285352 -0.0519051359  0.0077633916  0.0095376502]
 [-0.0861558286 -0.063767623   0.0095376502  0.0117174008]]
dm_reg
 [[[1.3572703441e-01 2.6086898347e-01 2.5670195034e-03 1.8592658994e-02]
  [2.6086898347e-01 5.0139330632e-01 4.9338421879e-03 3.5735312962e-02]
  [2.5670195034e-03 4.9338421879e-03 4.8550306572e-05 3.5164489128e-04]
  [1.8592658994e-02 3.5735312962e-02 3.5164489128e-04 2.5469278835e-03]]

 [[4.8550306572e-05 3.5164489128e-04 2.5670195034e-03 4.9338421879e-03]
  [3.5164489128e-04 2.5469278835e-03 1.8592658994e-02 3.5735312962e-02]
  [2.5670195034e-03 1.8592658994e-02 1.3572703441e-01 2.6086898347e-01]
  [4.9338421879e-03 3.5735312962e-02 2.6086898347e-01 5.0139330632e-01]]]
mo_reg
 [[-0.3684115015 -0.0813225227 -1.2522021181  0.2005639432]
 [-0.7080913121 -0.2040818896  1.1158717218 -0.3437300395]
 [-0.006967805   0.1717857395 -0.1650430939 -1.3014523862]
 [-0.050467097   0.9034531786 -0.0632140502  1.0409573352]] 
 [[-0.006967805  -0.1717857395  0.1650430939 -1.3014523862]
 [-0.050467097  -0.9034531786  0.0632140502  1.0409573352]
 [-0.3684115015  0.0813225227  1.2522021181  0.2005639432]
 [-0.7080913121  0.2040818896 -1.1158717218 -0.3437300395]]
time for xg, H, S2, Yg, Feff: 0.024
 E =     -1.00949063
**** Start Cycle 2 ****
dm (ortho)
[[[ 0.6334874883 -0.4688712533 -0.0701285352  0.0861558286]
  [-0.4688712533  0.3470317192  0.0519051359 -0.063767623 ]
  [-0.0701285352  0.0519051359  0.0077633916 -0.0095376502]
  [ 0.0861558286 -0.063767623  -0.0095376502  0.0117174008]]

 [[ 0.6334874883  0.4688712533 -0.0701285352 -0.0861558286]
  [ 0.4688712533  0.3470317192 -0.0519051359 -0.063767623 ]
  [-0.0701285352 -0.0519051359  0.0077633916  0.0095376502]
  [-0.0861558286 -0.063767623   0.0095376502  0.0117174008]]]
Fock (ortho)
 (array([[-0.2363081016,  0.3284564986,  0.2173277084,  0.0261901497],
       [ 0.3284564986,  0.0087229249,  0.0778261308,  0.3390100841],
       [ 0.2173277084,  0.0778261308,  1.1216808993,  0.0509166931],
       [ 0.0261901497,  0.3390100841,  0.0509166931,  1.1127032785]]), array([[-0.2363081016, -0.3284564986,  0.2173277084, -0.0261901497],
       [-0.3284564986,  0.0087229249, -0.0778261308,  0.3390100841],
       [ 0.2173277084, -0.0778261308,  1.1216808993, -0.0509166931],
       [-0.0261901497,  0.3390100841, -0.0509166931,  1.1127032785]]))
E1 = -1.5324840245868936  Ecoul = 0.2712126226598585
E(UHF) =    -1.261271
NO eigenvalue
[-1.0000000000e+00 -6.4596837433e-17  4.3201633515e-19  1.5687106555e-18] 
 [-1.0000000000e+00 -1.9179675023e-17  1.5016222321e-18  2.6034225574e-17]
NO vec
[[ 0.7959192725  0.            0.5622957351 -0.0208162883  0.2233891227  0.            0.            0.          ]
 [-0.5890939817  0.            0.7966354457 -0.1064156663  0.0837612879  0.            0.            0.          ]
 [-0.0881101107  0.            0.0240248593  0.9357430235  0.340652915   0.            0.            0.          ]
 [ 0.1082469437  0.            0.2204955308  0.3356000329 -0.9094157124  0.            0.            0.          ]
 [ 0.            0.7959192725  0.            0.            0.            0.4545399307  0.0903767967  0.389535618 ]
 [ 0.            0.5890939817  0.            0.            0.           -0.480455078   0.0264698378 -0.6491768222]
 [ 0.           -0.0881101107  0.            0.            0.           -0.0271497942  0.9955542268 -0.0192685876]
 [ 0.           -0.1082469437  0.            0.            0.            0.7495460347 -0.00177868   -0.6530391852]]
dm(NO)
[[ 1.0000000000e+00  0.0000000000e+00  2.0453166757e-16 -5.0577264012e-18  1.0930264984e-16  0.0000000000e+00  0.0000000000e+00  0.0000000000e+00]
 [ 0.0000000000e+00  1.0000000000e+00  0.0000000000e+00  0.0000000000e+00  0.0000000000e+00  9.9749414547e-17  7.0359595052e-18  1.1893101652e-16]
 [ 1.6388074681e-16  0.0000000000e+00  1.8214797943e-17 -1.7901456015e-18 -1.3109090302e-18  0.0000000000e+00  0.0000000000e+00  0.0000000000e+00]
 [-4.2627032083e-18  0.0000000000e+00  1.8835905317e-18  2.1574104243e-19 -7.0859329871e-19  0.0000000000e+00  0.0000000000e+00  0.0000000000e+00]
 [ 7.6647812188e-17  0.0000000000e+00 -1.9285601679e-18  1.2095101750e-18 -3.6042990026e-19  0.0000000000e+00  0.0000000000e+00  0.0000000000e+00]
 [ 0.0000000000e+00  9.2977978573e-17  0.0000000000e+00  0.0000000000e+00  0.0000000000e+00 -9.4351965775e-18  7.6689316273e-18 -1.5636799586e-17]
 [ 0.0000000000e+00  8.5673979686e-19  0.0000000000e+00  0.0000000000e+00  0.0000000000e+00 -2.3305974640e-18 -3.6955965070e-21 -8.2472902716e-19]
 [ 0.0000000000e+00  9.4401901485e-17  0.0000000000e+00  0.0000000000e+00  0.0000000000e+00 -1.1321828387e-18  1.0260842675e-18 -1.6950231771e-17]]
D(g) (NO)
 [[ 9.9951368521e-01  8.8093139182e-03 -5.3020974670e-17  1.0008443845e-17  2.0097916974e-17  2.2711938873e-02 -9.8450151359e-04  1.9441904548e-02]
 [-8.8093139182e-03  9.9951368521e-01 -2.7779580797e-02  6.1753065790e-03 -9.2168076047e-03  2.2067573564e-17  1.1353249890e-17  6.7234422138e-17]
 [ 7.6249369494e-18  2.7779580797e-02  9.9951368521e-01 -9.0378633970e-17 -1.9080464817e-16  1.1680485005e-03  2.9758505783e-03 -1.3801012336e-02]
 [ 6.2212302108e-18 -6.1753065790e-03 -9.2499676889e-17  9.9951368521e-01  1.3257112988e-16  8.3511325529e-03  2.8884636816e-02 -5.4949981335e-03]
 [ 2.8293465096e-17  9.2168076047e-03 -2.1702323473e-16  1.2616240052e-16  9.9951368521e-01 -1.9633011872e-02  1.1324570670e-02  1.9332420343e-02]
 [-2.2711938873e-02  9.5179993809e-17 -1.1680485005e-03 -8.3511325529e-03  1.9633011872e-02  9.9951368521e-01 -7.7381277547e-18 -4.3830598042e-18]
 [ 9.8450151359e-04  1.0408340856e-17 -2.9758505783e-03 -2.8884636816e-02 -1.1324570670e-02 -1.5612511284e-17  9.9951368521e-01 -5.5511151231e-17]
 [-1.9441904548e-02  5.5511151231e-17  1.3801012336e-02  5.4949981335e-03 -1.9332420343e-02  2.7755575616e-17 -5.5511151231e-17  9.9951368521e-01]]
N(g) (NO)
 [[ 1.0004088401 -0.0088172035]
 [ 0.0088172035  1.0004088401]]
P(g) (NO)
 [[ 1.0000000000e+00 -7.2055807037e-18  2.0453166757e-16 -5.0577264012e-18  1.0930264984e-16 -6.9424699352e-34 -4.8148248610e-35 -7.7037197775e-34]
 [ 3.4217504705e-18  1.0000000000e+00  9.2042258835e-34 -1.9246365609e-35  5.1366020657e-34  9.9749414547e-17  7.0359595052e-18  1.1893101652e-16]
 [ 2.4493821580e-04  2.7790938204e-02  5.0097621727e-20 -1.2388304807e-21  2.6772396033e-20  2.7721298155e-18  1.9553591581e-19  3.3052045306e-18]
 [-5.4448934507e-05 -6.1778312920e-03 -1.1136531372e-20  2.7538781357e-22 -5.9514128225e-21 -6.1623505455e-19 -4.3466970800e-20 -7.3473575544e-19]
 [ 8.1266467860e-05  9.2205758052e-03  1.6621566189e-20 -4.1102356002e-22  8.8826402801e-21  9.1974703836e-19  6.4875597980e-20  1.0966124534e-18]
 [-2.2721224424e-02  2.0025578591e-04 -4.6472099207e-18  1.1491773664e-19 -2.4834900372e-18  1.9975397404e-20  1.4089916003e-21  2.3816624182e-20]
 [ 9.8490401729e-04 -8.6805501475e-06  2.0144406105e-19 -4.9813750509e-21  1.0765261893e-19 -8.6587979516e-22 -6.1075999321e-23 -1.0323866530e-21]
 [-1.9449853178e-02  1.7142322796e-04 -3.9781109044e-18  9.8372035916e-20 -2.1259204913e-18  1.7099366628e-20  1.2061268902e-21  2.0387538756e-20]]
time for NO, Ng: 0.013
Pg_ortho
 [[ 6.3361245974e-01 -4.6896375003e-01 -7.0142369841e-02  8.6172825060e-02  1.4179382930e-02  1.0494769302e-02 -1.5696905992e-03 -1.9284303297e-03]
 [-4.6870591887e-01  3.4690934813e-01  5.1886833036e-02 -6.3745137158e-02  1.8759014792e-02  1.3884351212e-02 -2.0766664751e-03 -2.5512713253e-03]
 [-7.0142369841e-02  5.1915375543e-02  7.7649231344e-03 -9.5395317321e-03 -1.5696905992e-03 -1.1617953190e-03  1.7376839241e-04  2.1348171318e-04]
 [ 8.6125448181e-02 -6.3745137158e-02 -9.5342870016e-03  1.1713268995e-02 -3.4469984084e-03 -2.5512713253e-03  3.8159072392e-04  4.6880011000e-04]
 [-1.4179382930e-02  1.0494769302e-02  1.5696905992e-03 -1.9284303297e-03  6.3361245974e-01  4.6896375003e-01 -7.0142369841e-02 -8.6172825060e-02]
 [ 1.8759014792e-02 -1.3884351212e-02 -2.0766664751e-03  2.5512713253e-03  4.6870591887e-01  3.4690934813e-01 -5.1886833036e-02 -6.3745137158e-02]
 [ 1.5696905992e-03 -1.1617953190e-03 -1.7376839241e-04  2.1348171318e-04 -7.0142369841e-02 -5.1915375543e-02  7.7649231344e-03  9.5395317321e-03]
 [-3.4469984084e-03  2.5512713253e-03  3.8159072392e-04 -4.6880011000e-04 -8.6125448181e-02 -6.3745137158e-02  9.5342870016e-03  1.1713268995e-02]]
G(g) (NO)
 [[ 2.7122543777e-01 -1.4540154567e-03  4.1897458708e-02 -8.2110758273e-03  2.5900580764e-02  5.9859688240e-05 -3.5798633595e-04  5.0032047129e-04]
 [ 1.4540154567e-03  2.7122543777e-01 -4.4907433814e-04  2.9223889620e-04  3.0819902559e-04  4.3652164894e-02  3.8098116543e-03  2.3950631131e-02]
 [ 4.1832690585e-02 -1.9178128212e-02  9.9449379009e-01  1.5252735177e-01 -1.8364916790e-02 -1.3420169012e-03 -4.9841971120e-03  4.1914678846e-03]
 [-8.1973940536e-03 -1.0518499568e-03  1.5252321786e-01  8.0749324742e-01  2.7018413047e-02 -9.1049626732e-04 -2.2936357914e-03  1.9417627640e-03]
 [ 2.5886361410e-02 -4.2249646577e-03 -1.8361157259e-02  2.7018898772e-02  7.0661259703e-01  3.3647581018e-04 -2.3975877586e-04  3.1737107821e-04]
 [ 1.2144782214e-02  4.3605372471e-02 -1.2717997118e-03  1.4428410274e-03  1.4008251935e-03  7.0473375551e-01  5.3422189196e-02  7.6803847616e-02]
 [ 3.5198652448e-03  3.8140232541e-03 -1.3785416325e-03  1.7904498890e-03  2.5278073053e-03  5.3420330158e-02  8.2789293481e-01  1.3590863060e-01]
 [ 1.5062275061e-02  2.3901876415e-02 -2.3969818738e-03  3.2964872198e-03  4.5357960104e-03  7.6798896217e-02  1.3591049789e-01  9.7597294422e-01]]
time for Gg: 0.021
C(NO)
[[ 1.0000000000e+00  0.0000000000e+00  2.7482870309e-16 -1.6520076830e-16 -2.8797948965e-16  0.0000000000e+00  0.0000000000e+00  0.0000000000e+00]
 [ 0.0000000000e+00  1.0000000000e+00  0.0000000000e+00  0.0000000000e+00  0.0000000000e+00 -4.6498321790e-17 -6.9388939039e-18  6.9388939039e-17]
 [ 1.8024553890e-16  0.0000000000e+00 -8.6268902341e-01 -1.4097688668e-01  4.8568834278e-01  0.0000000000e+00  0.0000000000e+00  0.0000000000e+00]
 [-5.0577264012e-18  0.0000000000e+00  3.3970227259e-01  5.4992727540e-01  7.6300875341e-01  0.0000000000e+00  0.0000000000e+00  0.0000000000e+00]
 [ 8.1547074223e-17  0.0000000000e+00 -3.7465986560e-01  8.2322871014e-01 -4.2652605537e-01  0.0000000000e+00  0.0000000000e+00  0.0000000000e+00]
 [ 0.0000000000e+00  1.0322516153e-16  0.0000000000e+00  0.0000000000e+00  0.0000000000e+00  8.2724831409e-01 -4.1803613814e-01 -3.7537449839e-01]
 [ 0.0000000000e+00  7.1148537571e-18  0.0000000000e+00  0.0000000000e+00  0.0000000000e+00 -1.3717109824e-01 -7.9817890787e-01  5.8659570475e-01]
 [ 0.0000000000e+00  1.1411596795e-16  0.0000000000e+00  0.0000000000e+00  0.0000000000e+00  5.4483421024e-01  4.3376977561e-01  7.1763463205e-01]]
detC 1.0
detNg [ 1.0008955904  1.0238235524  1.1389212638  1.4910946134  2.4440377096  4.9558084798  9.7015378317 12.3912615067]
xg [0.9991052109 0.9767308025 0.8780238211 0.6706482547 0.4091589897 0.2017834232 0.1030764418 0.0807020334]
ciS 1.0798072443385682
[[-0.7662420123  0.           -0.0507516399 -0.0034262324 -0.0220933302  0.            0.            0.          ]
 [ 0.           -0.7662420123  0.            0.            0.           -0.0408070777 -0.0137938088 -0.03492988  ]
 [-0.0507516399  0.           -0.5797012923  0.2024255895 -0.3354242801  0.            0.            0.          ]
 [-0.0034262324  0.            0.2024255895  0.2848715874  0.0380347116  0.            0.            0.          ]
 [-0.0220933302  0.           -0.3354242801  0.0380347116  0.2880413307  0.            0.            0.          ]
 [ 0.           -0.0408070777  0.            0.            0.           -0.2494641597  0.0176269843 -0.5665250288]
 [ 0.           -0.0137938088  0.            0.            0.            0.0176269843  0.3155081411  0.0147086109]
 [ 0.           -0.03492988    0.            0.            0.           -0.5665250288  0.0147086109 -0.0728323557]]
ciH -1.3762059921027006
0.9999999999999999 2.1277467635028025e-18 -0.028706302644300376j 1.1839487723541708e-16
0.5399751287793504 0.00041202590575308343 -0.00041202590575308343 0.46002487122064933
0.9999999999999998 2.0111950299606107e-17 -0.14790863679661334j 3.2959746043559335e-17
0.5418275620056376 0.010938482419516239 -0.010938482419516242 0.458172437994362
1.0 3.924811864397526e-17 -0.35537885587105494j 1.97758476261356e-16
0.5517606501108668 0.06314706560011002 -0.06314706560011002 0.44823934988913317
1.0000000000000002 5.074066167232161e-17 -0.6577646081167323j 3.5561831257524545e-17
0.5887202429278512 0.21632713984547924 -0.2163271398454792 0.41127975707214876
0.9999999999999998 -2.6454533008646308e-17 -1.0781351443449245j 1.9949319973733282e-17
0.7383571173754312 0.5811876947358254 -0.5811876947358255 0.26164288262456853
0.9999999999999999 6.938893903907228e-18 -1.546366376148867j -1.3617579286417936e-16
1.4800344643952288 1.1956244846418904 -1.19562448464189 -0.4800344643952287
1.0 -1.8214596497756474e-17 -1.4015513045175672j -2.237793284010081e-16
4.255722386357257 0.9821730295974475 -0.9821730295974473 -3.255722386357257
1.0000000000000002 5.204170427930421e-17 -0.3553890199510449j -9.71445146547012e-17
6.626936292951461 0.0631506777508821 -0.0631506777508821 -5.62693629295146
S2 = 0.000000
X(g)
[[ 2.0000000000e+00 -1.2143064332e-17  2.4493821580e-04 -5.4448934507e-05  8.1266467860e-05  2.2721224424e-02 -9.8490401729e-04  1.9449853178e-02]
 [ 1.0408340856e-17  2.0000000000e+00 -2.7790938204e-02  6.1778312920e-03 -9.2205758052e-03  2.0025578591e-04 -8.6805501475e-06  1.7142322796e-04]
 [ 2.4493821580e-04  2.7790938204e-02  0.0000000000e+00  0.0000000000e+00  0.0000000000e+00  0.0000000000e+00  0.0000000000e+00  0.0000000000e+00]
 [-5.4448934507e-05 -6.1778312920e-03  0.0000000000e+00  0.0000000000e+00  0.0000000000e+00  0.0000000000e+00  0.0000000000e+00  0.0000000000e+00]
 [ 8.1266467860e-05  9.2205758052e-03  0.0000000000e+00  0.0000000000e+00  0.0000000000e+00  0.0000000000e+00  0.0000000000e+00  0.0000000000e+00]
 [-2.2721224424e-02  2.0025578591e-04  0.0000000000e+00  0.0000000000e+00  0.0000000000e+00  0.0000000000e+00  0.0000000000e+00  0.0000000000e+00]
 [ 9.8490401729e-04 -8.6805501475e-06  0.0000000000e+00  0.0000000000e+00  0.0000000000e+00  0.0000000000e+00  0.0000000000e+00  0.0000000000e+00]
 [-1.9449853178e-02  1.7142322796e-04  0.0000000000e+00  0.0000000000e+00  0.0000000000e+00  0.0000000000e+00  0.0000000000e+00  0.0000000000e+00]]
X(g) int
[[ 2.0000000000e+00 -2.5878947724e-16  2.3306640648e-01 -5.1809871568e-02  7.7327596963e-02  5.2975727151e-01 -2.2963554039e-02  4.5348353408e-01]
 [ 2.4680264146e-16  2.0000000000e+00 -6.4796030885e-01  1.4403937869e-01 -2.1498256384e-01  1.9054967086e-01 -8.2598161443e-03  1.6311458626e-01]
 [ 2.3306640648e-01  6.4796030885e-01  0.0000000000e+00  0.0000000000e+00  0.0000000000e+00  0.0000000000e+00  0.0000000000e+00  0.0000000000e+00]
 [-5.1809871568e-02 -1.4403937869e-01  0.0000000000e+00  0.0000000000e+00  0.0000000000e+00  0.0000000000e+00  0.0000000000e+00  0.0000000000e+00]
 [ 7.7327596963e-02  2.1498256384e-01  0.0000000000e+00  0.0000000000e+00  0.0000000000e+00  0.0000000000e+00  0.0000000000e+00  0.0000000000e+00]
 [-5.2975727151e-01  1.9054967086e-01  0.0000000000e+00  0.0000000000e+00  0.0000000000e+00  0.0000000000e+00  0.0000000000e+00  0.0000000000e+00]
 [ 2.2963554039e-02 -8.2598161443e-03  0.0000000000e+00  0.0000000000e+00  0.0000000000e+00  0.0000000000e+00  0.0000000000e+00  0.0000000000e+00]
 [-4.5348353408e-01  1.6311458626e-01  0.0000000000e+00  0.0000000000e+00  0.0000000000e+00  0.0000000000e+00  0.0000000000e+00  0.0000000000e+00]]
Feff
 [[ 7.4739784289e-17 -1.1201376006e-17 -2.1952798516e-04 -3.7722766863e-04 -4.1011939508e-03  3.5640877959e-03 -1.4049663718e-02  2.5972213391e-02]
 [ 2.1039122179e-17  2.8762237898e-16 -2.3772734316e-02  1.1094037725e-02  1.4015386934e-02 -3.3154994772e-03 -1.8218061155e-03  1.6427935861e-03]
 [-2.1952798516e-04  2.3772734316e-02  0.0000000000e+00  0.0000000000e+00  0.0000000000e+00  0.0000000000e+00  0.0000000000e+00  0.0000000000e+00]
 [-3.7722766863e-04 -1.1094037725e-02  0.0000000000e+00  0.0000000000e+00  0.0000000000e+00  0.0000000000e+00  0.0000000000e+00  0.0000000000e+00]
 [-4.1011939508e-03 -1.4015386934e-02  0.0000000000e+00  0.0000000000e+00  0.0000000000e+00  0.0000000000e+00  0.0000000000e+00  0.0000000000e+00]
 [-3.5640877959e-03 -3.3154994772e-03  0.0000000000e+00  0.0000000000e+00  0.0000000000e+00  0.0000000000e+00  0.0000000000e+00  0.0000000000e+00]
 [ 1.4049663718e-02 -1.8218061155e-03  0.0000000000e+00  0.0000000000e+00  0.0000000000e+00  0.0000000000e+00  0.0000000000e+00  0.0000000000e+00]
 [-2.5972213391e-02  1.6427935861e-03  0.0000000000e+00  0.0000000000e+00  0.0000000000e+00  0.0000000000e+00  0.0000000000e+00  0.0000000000e+00]]
Feff (ortho)
 [[-1.6423782864e-03  2.2713925169e-04 -1.3062061374e-03  2.7175607100e-03 -6.7654215563e-17  2.0816681712e-17 -2.1684043450e-17 -6.2450045135e-17]
 [ 2.2713925169e-04  5.6348268233e-04  1.0762034713e-03 -2.1458155214e-03 -1.7347234760e-17 -6.5919492087e-17  2.2985086057e-17  5.5511151231e-17]
 [-1.3062061374e-03  1.0762034713e-03  3.0932745417e-04 -5.0321475884e-04  1.9949319974e-17  6.9388939039e-18  8.6736173799e-19  4.9873299934e-18]
 [ 2.7175607100e-03 -2.1458155214e-03 -5.0321475884e-04  7.6956814991e-04 -2.3418766926e-17 -7.3725747729e-18 -1.3010426070e-18 -6.7220534694e-18]
 [-6.7654215563e-17 -1.7347234760e-17  1.9949319974e-17 -2.3418766926e-17 -1.6423782864e-03 -2.2713925169e-04 -1.3062061374e-03 -2.7175607100e-03]
 [ 2.0816681712e-17 -6.5919492087e-17  6.9388939039e-18 -7.3725747729e-18 -2.2713925169e-04  5.6348268233e-04 -1.0762034713e-03 -2.1458155214e-03]
 [-2.1684043450e-17  2.2985086057e-17  8.6736173799e-19 -1.3010426070e-18 -1.3062061374e-03 -1.0762034713e-03  3.0932745417e-04  5.0321475884e-04]
 [-6.2450045135e-17  5.5511151231e-17  4.9873299934e-18 -6.7220534694e-18 -2.7175607100e-03 -2.1458155214e-03  5.0321475884e-04  7.6956814991e-04]]
Hsp + Hph =  -1.2744922756521144
Feff (mod,ortho)
[[-0.2317673778  0.330767483   0.2234860663  0.0367442925  0.            0.            0.            0.          ]
 [ 0.330767483   0.0028145471  0.0726401881  0.3319698847  0.            0.            0.            0.          ]
 [ 0.2234860663  0.0726401881  1.1202617637  0.0506542407  0.            0.            0.            0.          ]
 [ 0.0367442925  0.3319698847  0.0506542407  1.1154900681  0.            0.            0.            0.          ]
 [ 0.            0.            0.            0.           -0.2317673778 -0.330767483   0.2234860663 -0.0367442925]
 [ 0.            0.            0.            0.           -0.330767483   0.0028145471 -0.0726401881  0.3319698847]
 [ 0.            0.            0.            0.            0.2234860663 -0.0726401881  1.1202617637 -0.0506542407]
 [ 0.            0.            0.            0.           -0.0367442925  0.3319698847 -0.0506542407  1.1154900681]]
Alpha occ 1 vir 3; Beta occ 1 vir 3
Alpha energies:  [-0.4950424854] <- HOMO
         LUMO->  [0.1210952317 1.0986655487 1.2820807062]
Beta energies:   [-0.4950424854] <- HOMO
         LUMO->  [0.1210952317 1.0986655487 1.2820807062]
v_a, v_b
 [[ 0.7974915584 -0.5736705522  0.0914127488  0.1629509779]
 [-0.5875665017 -0.7561938732 -0.100614062   0.2698392906]
 [-0.0872278145  0.1698559336  0.7911459207  0.5810580025]
 [ 0.1056604407  0.2649941235 -0.596329315   0.7503368136]] 
 [[ 0.7974915584  0.5736705522 -0.0914127488  0.1629509779]
 [ 0.5875665017 -0.7561938732 -0.100614062  -0.2698392906]
 [-0.0872278145 -0.1698559336 -0.7911459207  0.5810580025]
 [-0.1056604407  0.2649941235 -0.596329315  -0.7503368136]]
P_a, P_b
 [[ 0.6359927857 -0.4685793251 -0.0695634458  0.0842633095]
 [-0.4685793251  0.3452343939  0.0512521418 -0.0620825355]
 [-0.0695634458  0.0512521418  0.0076086916 -0.0092165293]
 [ 0.0842633095 -0.0620825355 -0.0092165293  0.0111641287]] 
 [[ 0.6359927857  0.4685793251 -0.0695634458 -0.0842633095]
 [ 0.4685793251  0.3452343939 -0.0512521418 -0.0620825355]
 [-0.0695634458 -0.0512521418  0.0076086916  0.0092165293]
 [-0.0842633095 -0.0620825355  0.0092165293  0.0111641287]]
dm_reg
 [[[1.3774670800e-01 2.6158426600e-01 2.5190717357e-03 1.9947063962e-02]
  [2.6158426600e-01 4.9675472623e-01 4.7837769815e-03 3.7879947632e-02]
  [2.5190717357e-03 4.7837769815e-03 4.6068051295e-05 3.6478610464e-04]
  [1.9947063962e-02 3.7879947632e-02 3.6478610464e-04 2.8885290000e-03]]

 [[4.6068051295e-05 3.6478610464e-04 2.5190717357e-03 4.7837769815e-03]
  [3.6478610464e-04 2.8885290000e-03 1.9947063962e-02 3.7879947632e-02]
  [2.5190717357e-03 1.9947063962e-02 1.3774670800e-01 2.6158426600e-01]
  [4.7837769815e-03 3.7879947632e-02 2.6158426600e-01 4.9675472623e-01]]]
mo_reg
 [[-0.3711424363 -0.0825759076 -1.2515694835  0.1989592078]
 [-0.7048082904 -0.2057389277  1.1178874435 -0.3429390536]
 [-0.0067873449  0.1710194762 -0.1636615375 -1.3017286963]
 [-0.053745037   0.9038538588 -0.0645239106  1.0403648886]] 
 [[-0.0067873449 -0.1710194762  0.1636615375 -1.3017286963]
 [-0.053745037  -0.9038538588  0.0645239106  1.0403648886]
 [-0.3711424363  0.0825759076  1.2515694835  0.1989592078]
 [-0.7048082904  0.2057389277 -1.1178874435 -0.3429390536]]
time for xg, H, S2, Yg, Feff: 0.024
 E =     -1.00990367, delta E = -0.000413038, MaxD(dm) =  0.0025053, RMSD(dm) = 0.00123863
**** Start Cycle 3 ****
dm (ortho)
[[[ 0.6359927857 -0.4685793251 -0.0695634458  0.0842633095]
  [-0.4685793251  0.3452343939  0.0512521418 -0.0620825355]
  [-0.0695634458  0.0512521418  0.0076086916 -0.0092165293]
  [ 0.0842633095 -0.0620825355 -0.0092165293  0.0111641287]]

 [[ 0.6359927857  0.4685793251 -0.0695634458 -0.0842633095]
  [ 0.4685793251  0.3452343939 -0.0512521418 -0.0620825355]
  [-0.0695634458 -0.0512521418  0.0076086916  0.0092165293]
  [-0.0842633095 -0.0620825355  0.0092165293  0.0111641287]]]
Fock (ortho)
 (array([[-0.2364629329,  0.3286842211,  0.21724542  ,  0.0271364021],
       [ 0.3286842211,  0.0096475354,  0.078571497 ,  0.3387525615],
       [ 0.21724542  ,  0.078571497 ,  1.1222633262,  0.0510834219],
       [ 0.0271364021,  0.3387525615,  0.0510834219,  1.1132570917]]), array([[-0.2364629329, -0.3286842211,  0.21724542  , -0.0271364021],
       [-0.3286842211,  0.0096475354, -0.078571497 ,  0.3387525615],
       [ 0.21724542  , -0.078571497 ,  1.1222633262, -0.0510834219],
       [-0.0271364021,  0.3387525615, -0.0510834219,  1.1132570917]]))
E1 = -1.5330578051195332  Ecoul = 0.2718086658426153
E(UHF) =    -1.261249
NO eigenvalue
[-1.0000000000e+00 -2.2777939701e-17 -3.8286319222e-19  1.7554999995e-17] 
 [-1.0000000000e+00 -2.2478129791e-16 -1.0015251507e-18  2.1367881420e-18]
NO vec
[[ 0.7974915584  0.           -0.3971359855 -0.0401781214 -0.4524112531  0.            0.            0.          ]
 [-0.5875665017  0.           -0.6775656874  0.0133750219 -0.4421441554  0.            0.            0.          ]
 [-0.0872278145  0.            0.5122780995  0.551621389  -0.652438733   0.            0.            0.          ]
 [ 0.1056604407  0.           -0.3475038089  0.8330190097  0.4173203848  0.            0.            0.          ]
 [ 0.            0.7974915584  0.            0.            0.           -0.5996744702 -0.0236253449  0.0619644021]
 [ 0.            0.5875665017  0.            0.            0.            0.7962989015 -0.0947194316  0.1081752966]
 [ 0.           -0.0872278145  0.            0.            0.           -0.0667725898 -0.9889691467  0.0993617459]
 [ 0.           -0.1056604407  0.            0.            0.           -0.0428953429  0.1114006251  0.9872111028]]
dm(NO)
[[ 1.0000000000e+00  0.0000000000e+00 -1.3012687848e-17 -1.1174807358e-17  1.5416524215e-16  0.0000000000e+00  0.0000000000e+00  0.0000000000e+00]
 [ 0.0000000000e+00  1.0000000000e+00  0.0000000000e+00  0.0000000000e+00  0.0000000000e+00 -1.1290534349e-16  1.3885035559e-17  1.0121692502e-18]
 [-3.2115037307e-17  0.0000000000e+00  6.7126086980e-18  5.4197520832e-19  7.2160001549e-18  0.0000000000e+00  0.0000000000e+00  0.0000000000e+00]
 [-2.0606706966e-17  0.0000000000e+00  2.0693537473e-18  5.6605620307e-19  3.9558653111e-18  0.0000000000e+00  0.0000000000e+00  0.0000000000e+00]
 [ 1.3524384567e-16  0.0000000000e+00 -5.9436950857e-18  6.5240888131e-18 -6.6646843976e-18  0.0000000000e+00  0.0000000000e+00  0.0000000000e+00]
 [ 0.0000000000e+00 -1.7697265636e-16  0.0000000000e+00  0.0000000000e+00  0.0000000000e+00  2.6182609530e-17  7.0746609832e-18  2.4844364023e-18]
 [ 0.0000000000e+00  1.9990229130e-17  0.0000000000e+00  0.0000000000e+00  0.0000000000e+00  3.5400564150e-18 -8.8468838224e-19  2.3931894468e-18]
 [ 0.0000000000e+00 -8.2393643169e-18  0.0000000000e+00  0.0000000000e+00  0.0000000000e+00  2.0912331969e-19  1.3105442700e-18 -2.7778490008e-18]]
D(g) (NO)
 [[ 9.9951368521e-01  8.9559122983e-03 -1.6144474409e-16 -1.8731204529e-17 -7.5993747584e-18 -2.9462584053e-02  4.2050322417e-03  2.5413686161e-03]
 [-8.9559122983e-03  9.9951368521e-01  2.2539073626e-02  4.9991962474e-03  1.8952121428e-02  4.3780799936e-17  1.0599637853e-17 -2.3940134676e-17]
 [-8.4036564503e-17 -2.2539073626e-02  9.9951368521e-01 -1.3084472243e-17  2.0023812898e-17 -1.0000219134e-02 -1.4711564410e-02 -1.2163417477e-02]
 [-2.4110096477e-17 -4.9991962474e-03  5.1599801289e-17  9.9951368521e-01 -1.1351416485e-16 -1.1793965695e-03 -1.4127723623e-02  2.7320643488e-02]
 [-8.0540201631e-18 -1.8952121428e-02  4.5007682597e-17 -9.5853884615e-17  9.9951368521e-01 -1.7186787630e-03  2.3209654811e-02  8.4598011204e-03]
 [ 2.9462584053e-02  2.8381894674e-17  1.0000219134e-02  1.1793965695e-03  1.7186787630e-03  9.9951368521e-01  1.8927487208e-17 -1.3715395630e-17]
 [-4.2050322417e-03  1.3877787808e-17  1.4711564410e-02  1.4127723623e-02 -2.3209654811e-02  2.7755575616e-17  9.9951368521e-01  5.5511151231e-17]
 [-2.5413686161e-03 -3.4694469520e-17  1.2163417477e-02 -2.7320643488e-02 -8.4598011204e-03 -2.0816681712e-17  4.1633363423e-17  9.9951368521e-01]]
N(g) (NO)
 [[ 1.0004062324 -0.0089639098]
 [ 0.0089639098  1.0004062324]]
P(g) (NO)
 [[ 1.0000000000e+00  4.4575534347e-18 -1.3012687848e-17 -1.1174807358e-17  1.5416524215e-16 -5.9126774200e-34  4.8148248610e-35  4.5138983072e-36]
 [ 1.9798315631e-18  1.0000000000e+00 -3.8345847065e-35 -7.3759325369e-36  3.2933885794e-34 -1.1290534349e-16  1.3885035559e-17  1.0121692502e-18]
 [-2.0203822209e-04 -2.2548229727e-02  2.6290603173e-21  2.2577382109e-21 -3.1147271432e-20  2.5458156224e-18 -3.1308297155e-19 -2.2822624777e-20]
 [-4.4812344042e-05 -5.0012270826e-03  5.8312904473e-22  5.0076931194e-22 -6.9085058704e-21  5.6466526164e-19 -6.9442215882e-20 -5.0620882665e-21]
 [-1.6988510627e-04 -1.8959820393e-02  2.2106618579e-21  1.8984333356e-21 -2.6190378546e-20  2.1406650340e-18 -2.6325778035e-19 -1.9190547192e-20]
 [ 2.9474552707e-02 -2.6409994479e-04 -3.8354315383e-19 -3.2937244848e-19  4.5439515554e-18  2.9818294982e-20 -3.6670371246e-21 -2.6731384310e-22]
 [-4.2067404619e-03  3.7693529559e-05  5.4741000486e-20  4.7009514268e-20 -6.4853316196e-19 -4.2558009022e-21  5.2337599828e-22  3.8152231553e-23]
 [-2.5424010022e-03  2.2780598945e-05  3.3083470625e-20  2.8410841427e-20 -3.9194986615e-19 -2.5720513488e-21  3.1630942641e-22  2.3057821754e-23]]
time for NO, Ng: 0.013
Pg_ortho
 [[ 6.3611950316e-01 -4.6867268652e-01 -6.9577305819e-02  8.4280098463e-02  1.4142148634e-02  1.0419486843e-02 -1.5468360828e-03 -1.8737071784e-03]
 [-4.6841072861e-01  3.4511017739e-01  5.1233701139e-02 -6.2060198016e-02  1.8816007077e-02  1.3863037594e-02 -2.0580520990e-03 -2.4929512792e-03]
 [-6.9577305819e-02  5.1262353500e-02  7.6102076119e-03 -9.2183656625e-03 -1.5468360828e-03 -1.1396597950e-03  1.6918941590e-04  2.0494183360e-04]
 [ 8.4232991304e-02 -6.2060198016e-02 -9.2132131885e-03  1.1160111843e-02 -3.3836299292e-03 -2.4929512792e-03  3.7009375313e-04  4.4830045640e-04]
 [-1.4142148634e-02  1.0419486843e-02  1.5468360828e-03 -1.8737071784e-03  6.3611950316e-01  4.6867268652e-01 -6.9577305819e-02 -8.4280098463e-02]
 [ 1.8816007077e-02 -1.3863037594e-02 -2.0580520990e-03  2.4929512792e-03  4.6841072861e-01  3.4511017739e-01 -5.1233701139e-02 -6.2060198016e-02]
 [ 1.5468360828e-03 -1.1396597950e-03 -1.6918941590e-04  2.0494183360e-04 -6.9577305819e-02 -5.1262353500e-02  7.6102076119e-03  9.2183656625e-03]
 [-3.3836299292e-03  2.4929512792e-03  3.7009375313e-04 -4.4830045640e-04 -8.4232991304e-02 -6.2060198016e-02  9.2132131885e-03  1.1160111843e-02]]
G(g) (NO)
 [[ 2.7182187537e-01 -1.4742329413e-03 -2.9911000918e-02 -1.3663413514e-02 -3.8573790143e-02 -3.8146818123e-04  3.7078931801e-04 -3.4536241105e-04]
 [ 1.4742329413e-03  2.7182187537e-01  6.2462162230e-04 -2.5869751283e-05 -1.0703490795e-04 -4.8378389570e-02  2.4334081371e-03  1.4929972479e-02]
 [-2.9855278258e-02  1.3950504477e-02  8.3072789420e-01 -1.0623733484e-01  1.0384791816e-01  9.5136565596e-04 -2.8791424068e-03  2.6289577653e-03]
 [-1.3656420306e-02 -2.0065052876e-03 -1.0623288322e-01  8.0484073864e-01 -1.5061863905e-01 -4.9280665699e-04  2.4193194166e-03 -2.5918440988e-03]
 [-3.8534053869e-02  1.3731355081e-02  1.0384839510e-01 -1.5062224148e-01  8.7434019243e-01  1.4270651612e-03 -3.6132022733e-03  3.2496090500e-03]
 [-1.9543201412e-02 -4.8310491409e-02 -5.4057662776e-03  2.5998703281e-04  3.3160286366e-03  9.5035526638e-01  1.3740773955e-01  1.2306549351e-01]
 [-1.7776692269e-03  2.4223855102e-03 -2.4838278830e-03  3.0084064044e-04  1.7227637987e-03  1.3740447844e-01  8.1079512050e-01  3.6117121893e-02]
 [-1.4477298341e-03  1.4931082724e-02 -1.6301434939e-03  3.4526234462e-04  1.5102842659e-03  1.2306078052e-01  3.6117540002e-02  7.4875843839e-01]]
time for Gg: 0.021
C(NO)
[[ 1.0000000000e+00  0.0000000000e+00 -1.4929769281e-16  6.5994811259e-18  1.1342233182e-16  0.0000000000e+00  0.0000000000e+00  0.0000000000e+00]
 [ 0.0000000000e+00  1.0000000000e+00  0.0000000000e+00  0.0000000000e+00  0.0000000000e+00 -1.9272850180e-16 -6.9388939039e-18 -1.2490009027e-16]
 [-2.9006785437e-17  0.0000000000e+00  7.3512324915e-01  6.4438278100e-01 -2.1062915305e-01  0.0000000000e+00  0.0000000000e+00  0.0000000000e+00]
 [-8.8574806072e-18  0.0000000000e+00  3.2737620390e-01 -6.5359151570e-02  9.4263089406e-01  0.0000000000e+00  0.0000000000e+00  0.0000000000e+00]
 [ 1.5531265230e-16  0.0000000000e+00  5.9364857423e-01 -7.6190485814e-01 -2.5900262056e-01  0.0000000000e+00  0.0000000000e+00  0.0000000000e+00]
 [ 0.0000000000e+00 -1.8175014399e-16  0.0000000000e+00  0.0000000000e+00  0.0000000000e+00 -9.4619722825e-01  5.3105637149e-02 -3.1920306477e-01]
 [ 0.0000000000e+00  1.6977024034e-17  0.0000000000e+00  0.0000000000e+00  0.0000000000e+00  2.5557587794e-01  7.2767721213e-01 -6.3652717582e-01]
 [ 0.0000000000e+00  6.5720604760e-19  0.0000000000e+00  0.0000000000e+00  0.0000000000e+00  1.9847361504e-01 -6.8386085299e-01 -7.0209868102e-01]]
detC 1.0000000000000002
detNg [ 1.0008929814  1.0237525651  1.1384609372  1.4889663308  2.4338084505  4.89939833    9.4619009517 11.9936114546]
xg [0.9991078153 0.9767985293 0.8783788423 0.6716068586 0.4108786785 0.2041066949 0.1056870078 0.0833777219]
ciS 1.0824855371541235
[[-0.7665289026  0.            0.0345570711 -0.0009592443  0.0429781589  0.            0.            0.          ]
 [ 0.           -0.7665289026  0.            0.            0.            0.0545992695  0.00693954   -0.0036049979]
 [ 0.0345570711  0.           -0.2518714468 -0.1658085886 -0.520113566   0.            0.            0.          ]
 [-0.0009592443  0.           -0.1658085886  0.3526307495 -0.0847078099  0.            0.            0.          ]
 [ 0.0429781589  0.           -0.520113566  -0.0847078099 -0.1072607866  0.            0.            0.          ]
 [ 0.            0.0545992695  0.            0.            0.           -0.7074086525  0.1368009062  0.1020254363]
 [ 0.            0.00693954    0.            0.            0.            0.1368009062  0.2988265893 -0.0034722686]
 [ 0.           -0.0036049979  0.            0.            0.            0.1020254363 -0.0034722686  0.4020805793]]
ciH -1.3796559397301495
0.9999999999999998 1.1926223897340549e-18 -0.028622676100253538j 1.2576745200831851e-17
0.541316459516302 0.00040962879357001253 -0.0004096287935700126 0.458683540483698
1.0000000000000002 -2.9219248548484344e-17 -0.14746791169784118j 1.0364972768961422e-16
0.5432252801945672 0.010873392490261142 -0.010873392490261142 0.456774719805433
1.0000000000000002 -2.7321894746634712e-17 -0.3542012798190219j 4.597017211338539e-17
0.5534544762542704 0.06272927331271654 -0.06272927331271652 0.4465455237457298
0.9999999999999998 2.3852447794681098e-18 -0.6549140189796178j -9.454242944073599e-17
0.591436073073842 0.2144561861280176 -0.2144561861280176 0.4085639269261577
0.9999999999999999 -4.0722633598555547e-16 -1.0704978620387988j 3.5128150388530344e-17
0.7442983876439203 0.5729828363148198 -0.5729828363148197 0.25570161235607947
1.0 1.8908485888147197e-16 -1.5243150661737084j 1.457167719820518e-16
1.489995706001444 1.1617682104820788 -1.1617682104820786 -0.4899957060014439
1.0000000000000002 1.7520707107365752e-16 -1.3629531408004227j 6.418476861114186e-17
4.192364835081381 0.9288206320088687 -0.9288206320088686 -3.192364835081382
1.0 -2.7321894746634712e-17 -0.34298297851085324j 2.896988204881268e-16
6.4326368071262285 0.058818661774088205 -0.05881866177408822 -5.432636807126227
S2 = -0.000000
X(g)
[[ 2.0000000000e+00 -1.7347234760e-18 -2.0203822209e-04 -4.4812344042e-05 -1.6988510627e-04 -2.9474552707e-02  4.2067404619e-03  2.5424010022e-03]
 [-1.7347234760e-18  2.0000000000e+00  2.2548229727e-02  5.0012270826e-03  1.8959820393e-02 -2.6409994479e-04  3.7693529559e-05  2.2780598945e-05]
 [-2.0203822209e-04 -2.2548229727e-02  0.0000000000e+00  0.0000000000e+00  0.0000000000e+00  0.0000000000e+00  0.0000000000e+00  0.0000000000e+00]
 [-4.4812344042e-05 -5.0012270826e-03  0.0000000000e+00  0.0000000000e+00  0.0000000000e+00  0.0000000000e+00  0.0000000000e+00  0.0000000000e+00]
 [-1.6988510627e-04 -1.8959820393e-02  0.0000000000e+00  0.0000000000e+00  0.0000000000e+00  0.0000000000e+00  0.0000000000e+00  0.0000000000e+00]
 [ 2.9474552707e-02 -2.6409994479e-04  0.0000000000e+00  0.0000000000e+00  0.0000000000e+00  0.0000000000e+00  0.0000000000e+00  0.0000000000e+00]
 [-4.2067404619e-03  3.7693529559e-05  0.0000000000e+00  0.0000000000e+00  0.0000000000e+00  0.0000000000e+00  0.0000000000e+00  0.0000000000e+00]
 [-2.5424010022e-03  2.2780598945e-05  0.0000000000e+00  0.0000000000e+00  0.0000000000e+00  0.0000000000e+00  0.0000000000e+00  0.0000000000e+00]]
X(g) int
[[ 2.0000000000e+00 -7.8640281693e-17 -1.9177055915e-01 -4.2534962863e-02 -1.6125147748e-01 -6.8551614045e-01  9.7839940572e-02  5.9130903183e-02]
 [ 3.5269984081e-17  2.0000000000e+00  5.2442442705e-01  1.1631802936e-01  4.4096556879e-01 -2.5067828037e-01  3.5777929369e-02  2.1622879831e-02]
 [-1.9177055915e-01 -5.2442442705e-01  0.0000000000e+00  0.0000000000e+00  0.0000000000e+00  0.0000000000e+00  0.0000000000e+00  0.0000000000e+00]
 [-4.2534962863e-02 -1.1631802936e-01  0.0000000000e+00  0.0000000000e+00  0.0000000000e+00  0.0000000000e+00  0.0000000000e+00  0.0000000000e+00]
 [-1.6125147748e-01 -4.4096556879e-01  0.0000000000e+00  0.0000000000e+00  0.0000000000e+00  0.0000000000e+00  0.0000000000e+00  0.0000000000e+00]
 [ 6.8551614045e-01 -2.5067828037e-01  0.0000000000e+00  0.0000000000e+00  0.0000000000e+00  0.0000000000e+00  0.0000000000e+00  0.0000000000e+00]
 [-9.7839940572e-02  3.5777929369e-02  0.0000000000e+00  0.0000000000e+00  0.0000000000e+00  0.0000000000e+00  0.0000000000e+00  0.0000000000e+00]
 [-5.9130903183e-02  2.1622879831e-02  0.0000000000e+00  0.0000000000e+00  0.0000000000e+00  0.0000000000e+00  0.0000000000e+00  0.0000000000e+00]]
Feff
 [[ 4.8047062231e-16 -1.6400247335e-18 -1.1032372216e-03  1.4232562334e-03  5.5404047887e-04 -2.0123876564e-02  1.3566127250e-02 -1.9347926696e-02]
 [-4.6663676750e-18 -2.8601917955e-17  3.0317437682e-02 -6.0487123395e-03 -2.7601694466e-03 -4.0680331232e-04 -1.4234580044e-05 -1.8395814652e-03]
 [-1.1032372216e-03 -3.0317437682e-02  0.0000000000e+00  0.0000000000e+00  0.0000000000e+00  0.0000000000e+00  0.0000000000e+00  0.0000000000e+00]
 [ 1.4232562334e-03  6.0487123395e-03  0.0000000000e+00  0.0000000000e+00  0.0000000000e+00  0.0000000000e+00  0.0000000000e+00  0.0000000000e+00]
 [ 5.5404047887e-04  2.7601694466e-03  0.0000000000e+00  0.0000000000e+00  0.0000000000e+00  0.0000000000e+00  0.0000000000e+00  0.0000000000e+00]
 [ 2.0123876564e-02 -4.0680331232e-04  0.0000000000e+00  0.0000000000e+00  0.0000000000e+00  0.0000000000e+00  0.0000000000e+00  0.0000000000e+00]
 [-1.3566127250e-02 -1.4234580044e-05  0.0000000000e+00  0.0000000000e+00  0.0000000000e+00  0.0000000000e+00  0.0000000000e+00  0.0000000000e+00]
 [ 1.9347926696e-02 -1.8395814652e-03  0.0000000000e+00  0.0000000000e+00  0.0000000000e+00  0.0000000000e+00  0.0000000000e+00  0.0000000000e+00]]
Feff (ortho)
 [[ 2.0782198115e-04  3.3940211584e-04 -1.2424501918e-04  1.4494044116e-03 -3.4694469520e-17 -2.6020852140e-18 -1.7347234760e-17  1.3877787808e-17]
 [ 3.3940211584e-04 -6.1293293454e-04  3.7669208594e-05 -1.0026209326e-03 -5.8113236445e-17 -5.8980598183e-17  2.2117724319e-17  1.3010426070e-18]
 [-1.2424501918e-04  3.7669208594e-05  2.4693000123e-05 -1.7198224059e-04  1.0321604682e-16  7.4159428598e-17 -8.6736173799e-18 -1.4528309111e-17]
 [ 1.4494044116e-03 -1.0026209326e-03 -1.7198224059e-04  3.8041795326e-04 -1.3010426070e-16 -9.3241386834e-17  1.1492543028e-17  1.8648277367e-17]
 [-3.4694469520e-17 -5.8113236445e-17  1.0321604682e-16 -1.3010426070e-16  2.0782198115e-04 -3.3940211585e-04 -1.2424501918e-04 -1.4494044116e-03]
 [-2.6020852140e-18 -5.8980598183e-17  7.4159428598e-17 -9.3241386834e-17 -3.3940211585e-04 -6.1293293454e-04 -3.7669208594e-05 -1.0026209326e-03]
 [-1.7347234760e-17  2.2117724319e-17 -8.6736173799e-18  1.1492543028e-17 -1.2424501918e-04 -3.7669208594e-05  2.4693000123e-05  1.7198224059e-04]
 [ 1.3877787808e-17  1.3010426070e-18 -1.4528309111e-17  1.8648277367e-17 -1.4494044116e-03 -1.0026209326e-03  1.7198224059e-04  3.8041795326e-04]]
Hsp + Hph =  -1.274525979679408
Feff (mod,ortho)
[[-0.2310739402  0.3313317711  0.223666772   0.0384629739  0.            0.            0.            0.          ]
 [ 0.3313317711  0.0028209801  0.0731165878  0.3312843263  0.            0.            0.            0.          ]
 [ 0.223666772   0.0731165878  1.1207941493  0.0507734134  0.            0.            0.            0.          ]
 [ 0.0384629739  0.3312843263  0.0507734134  1.1161638314  0.            0.            0.            0.          ]
 [ 0.            0.            0.            0.           -0.2310739402 -0.3313317711  0.223666772  -0.0384629739]
 [ 0.            0.            0.            0.           -0.3313317711  0.0028209801 -0.0731165878  0.3312843263]
 [ 0.            0.            0.            0.            0.223666772  -0.0731165878  1.1207941493 -0.0507734134]
 [ 0.            0.            0.            0.           -0.0384629739  0.3312843263 -0.0507734134  1.1161638314]]
Alpha occ 1 vir 3; Beta occ 1 vir 3
Alpha energies:  [-0.4947223317] <- HOMO
         LUMO->  [0.1214844235 1.0988027767 1.283140152 ]
Beta energies:   [-0.4947223317] <- HOMO
         LUMO->  [0.1214844235 1.0988027767 1.283140152 ]
v_a, v_b
 [[ 0.7974155857 -0.5736013608  0.0906731316  0.1639763574]
 [-0.5878800685 -0.7560562714 -0.1003878331  0.269626079 ]
 [-0.0870821898  0.1702230952  0.7905455423  0.5817890817]
 [ 0.1046044975  0.2653007562 -0.5972758255  0.7496232361]] 
 [[ 0.7974155857  0.5736013608 -0.0906731316  0.1639763574]
 [ 0.5878800685 -0.7560562714 -0.1003878331 -0.269626079 ]
 [-0.0870821898 -0.1702230952 -0.7905455423  0.5817890817]
 [-0.1046044975  0.2653007562 -0.5972758255 -0.7496232361]]
P_a, P_b
 [[ 0.6358716164 -0.4687847292 -0.0694406954  0.0834132566]
 [-0.4687847292  0.345602975   0.0511938837 -0.0614948992]
 [-0.0694406954  0.0511938837  0.0075833078 -0.0091091887]
 [ 0.0834132566 -0.0614948992 -0.0091091887  0.0109421009]] 
 [[ 0.6358716164  0.4687847292 -0.0694406954 -0.0834132566]
 [ 0.4687847292  0.345602975  -0.0511938837 -0.0614948992]
 [-0.0694406954 -0.0511938837  0.0075833078  0.0091091887]
 [-0.0834132566 -0.0614948992  0.0091091887  0.0109421009]]
dm_reg
 [[[1.3858309928e-01 2.6195606434e-01 2.1820129336e-03 2.0329034114e-02]
  [2.6195606434e-01 4.9516124260e-01 4.1245398854e-03 3.8426862986e-02]
  [2.1820129336e-03 4.1245398854e-03 3.4356140591e-05 3.2008387454e-04]
  [2.0329034114e-02 3.8426862986e-02 3.2008387454e-04 2.9821069823e-03]]

 [[3.4356140591e-05 3.2008387454e-04 2.1820129336e-03 4.1245398854e-03]
  [3.2008387454e-04 2.9821069823e-03 2.0329034114e-02 3.8426862986e-02]
  [2.1820129336e-03 2.0329034114e-02 1.3858309928e-01 2.6195606434e-01]
  [4.1245398854e-03 3.8426862986e-02 2.6195606434e-01 4.9516124260e-01]]]
mo_reg
 [[-0.3722675104 -0.0825939426 -1.2514967139  0.1973006417]
 [-0.7036769448 -0.2057778316  1.1188334673 -0.342153003 ]
 [-0.0058614111  0.1703630201 -0.1622171604 -1.3020000403]
 [-0.0546086713  0.9043603228 -0.0657361274  1.0398037433]] 
 [[-0.0058614111 -0.1703630201  0.1622171604 -1.3020000403]
 [-0.0546086713 -0.9043603228  0.0657361274  1.0398037433]
 [-0.3722675104  0.0825939426  1.2514967139  0.1973006417]
 [-0.7036769448  0.2057778316 -1.1188334673 -0.342153003 ]]
time for xg, H, S2, Yg, Feff: 0.024
 E =     -1.00993737, delta E = -3.3704e-05, MaxD(dm) = 0.000850053, RMSD(dm) = 0.000393751
**** Start Cycle 4 ****
dm (ortho)
[[[ 0.6358716164 -0.4687847292 -0.0694406954  0.0834132566]
  [-0.4687847292  0.345602975   0.0511938837 -0.0614948992]
  [-0.0694406954  0.0511938837  0.0075833078 -0.0091091887]
  [ 0.0834132566 -0.0614948992 -0.0091091887  0.0109421009]]

 [[ 0.6358716164  0.4687847292 -0.0694406954 -0.0834132566]
  [ 0.4687847292  0.345602975  -0.0511938837 -0.0614948992]
  [-0.0694406954 -0.0511938837  0.0075833078  0.0091091887]
  [-0.0834132566 -0.0614948992  0.0091091887  0.0109421009]]]
Fock (ortho)
 (array([[-0.2362400512,  0.3289820046,  0.2172415354,  0.0275600898],
       [ 0.3289820046,  0.0097338328,  0.0788642211,  0.3386483747],
       [ 0.2172415354,  0.0788642211,  1.1224638275,  0.0511749333],
       [ 0.0275600898,  0.3386483747,  0.0511749333,  1.1134700019]]), array([[-0.2362400512, -0.3289820046,  0.2172415354, -0.0275600898],
       [-0.3289820046,  0.0097338328, -0.0788642211,  0.3386483747],
       [ 0.2172415354, -0.0788642211,  1.1224638275, -0.0511749333],
       [-0.0275600898,  0.3386483747, -0.0511749333,  1.1134700019]]))
E1 = -1.533019637462873  Ecoul = 0.2718267860723609
E(UHF) =    -1.261193
NO eigenvalue
[-1.0000000000e+00 -2.7942877929e-16 -2.5319085554e-19  1.0816077293e-18] 
 [-1.0000000000e+00 -8.2120335048e-18 -8.6593269331e-19  4.5213462715e-18]
NO vec
[[ 0.7974155857  0.            0.6014070352  0.0372557773  0.0324032213  0.            0.            0.          ]
 [-0.5878800685  0.            0.790866802  -0.0400471748 -0.1652965528  0.            0.            0.          ]
 [-0.0870821898  0.            0.0962472503 -0.455709779   0.8806144198  0.            0.            0.          ]
 [ 0.1046044975  0.           -0.0597975451 -0.8884463001 -0.4428829693  0.            0.            0.          ]
 [ 0.            0.7974155857  0.            0.            0.           -0.3223963503 -0.2448026118  0.4475049254]
 [ 0.            0.5878800685  0.            0.            0.            0.5947859041  0.1945842605 -0.512604837 ]
 [ 0.           -0.0870821898  0.            0.            0.            0.2183033086 -0.9496761136 -0.2070643302]
 [ 0.           -0.1046044975  0.            0.            0.            0.7033022018  0.0179979443  0.7029224609]]
dm(NO)
[[ 1.0000000000e+00  0.0000000000e+00  1.1225777824e-16  1.3593237132e-17 -4.9474878433e-18  0.0000000000e+00  0.0000000000e+00  0.0000000000e+00]
 [ 0.0000000000e+00  1.0000000000e+00  0.0000000000e+00  0.0000000000e+00  0.0000000000e+00 -2.3698011698e-17 -1.1982291608e-17 -2.7628681681e-17]
 [ 4.4692367566e-17  0.0000000000e+00  2.6014371989e-17 -4.2112753954e-18 -1.0406607451e-20  0.0000000000e+00  0.0000000000e+00  0.0000000000e+00]
 [ 7.8020464707e-18  0.0000000000e+00 -2.8066743198e-18  3.1322315164e-19 -1.2630605049e-18  0.0000000000e+00  0.0000000000e+00  0.0000000000e+00]
 [ 9.0694587978e-18  0.0000000000e+00  8.5771604797e-19  1.0994586290e-20 -5.3955447617e-19  0.0000000000e+00  0.0000000000e+00  0.0000000000e+00]
 [ 0.0000000000e+00 -2.6720151489e-18  0.0000000000e+00  0.0000000000e+00  0.0000000000e+00  7.5886015102e-18  7.4263577896e-18 -8.1804814134e-18]
 [ 0.0000000000e+00 -7.5648076946e-18  0.0000000000e+00  0.0000000000e+00  0.0000000000e+00 -5.0433126366e-18  5.0907716430e-19  3.9072554720e-18]
 [ 0.0000000000e+00 -1.5663872202e-17  0.0000000000e+00  0.0000000000e+00  0.0000000000e+00 -7.3812519811e-18 -1.3700715227e-18  5.0893206004e-18]]
D(g) (NO)
 [[ 9.9951368521e-01  8.9467722981e-03 -3.2212154115e-16  2.0637066909e-18  4.6858313687e-19 -1.7219011454e-02 -7.0168191453e-03  2.3379868131e-02]
 [-8.9467722981e-03  9.9951368521e-01 -2.9386435955e-02 -4.3277655644e-03  3.1711460491e-03  1.6119068448e-17 -4.3674457071e-18 -7.7268800396e-17]
 [-3.0222106273e-16  2.9386435955e-02  9.9951368521e-01  6.6455439515e-18 -4.8873030941e-17  7.9660754543e-03 -2.6760105587e-03 -6.1815100052e-03]
 [ 6.2748578627e-18  4.3277655644e-03 -3.1155001206e-18  9.9951368521e-01 -1.0975817107e-16 -2.3704229049e-02  1.2469346305e-02 -1.5371676807e-02]
 [-1.2424112212e-17 -3.1711460491e-03 -2.8826270268e-17 -1.0029542895e-16  9.9951368521e-01 -7.1098443243e-03 -2.7577376489e-02 -1.2299403528e-02]
 [ 1.7219011454e-02 -3.7101252148e-17 -7.9660754543e-03  2.3704229049e-02  7.1098443243e-03  9.9951368521e-01 -1.3054672010e-16 -1.4497644213e-16]
 [ 7.0168191453e-03 -1.3877787808e-17  2.6760105587e-03 -1.2469346305e-02  2.7577376489e-02 -1.3877787808e-16  9.9951368521e-01  6.9388939039e-17]
 [-2.3379868131e-02 -1.1102230246e-16  6.1815100052e-03  1.5371676807e-02  1.2299403528e-02 -1.1102230246e-16  8.3266726847e-17  9.9951368521e-01]]
N(g) (NO)
 [[ 1.0004063962 -0.0089547631]
 [ 0.0089547631  1.0004063962]]
P(g) (NO)
 [[ 1.0000000000e+00 -1.5665900771e-18  1.1225777824e-16  1.3593237132e-17 -4.9474878433e-18  4.8061132366e-35  2.4074124305e-35  9.6296497219e-35]
 [-2.0763965325e-18  1.0000000000e+00 -3.0784817969e-34 -4.1274499864e-35  4.5598882331e-36 -2.3698011698e-17 -1.1982291608e-17 -2.7628681681e-17]
 [ 2.6314857133e-04  2.9398378491e-02  2.9540473966e-20  3.5770409310e-21 -1.3019243577e-21 -6.9668311739e-19 -3.5225994388e-19 -8.1223844127e-19]
 [ 3.8754115235e-05  4.3295243519e-03  4.3504508741e-21  5.2679387821e-22 -1.9173551400e-22 -1.0260111874e-19 -5.1877623308e-20 -1.1961905015e-19]
 [-2.8396861517e-05 -3.1724347908e-03 -3.1877685830e-21 -3.8600527240e-22  1.4049312715e-22  7.5180396783e-20  3.8013038770e-20  8.7650190988e-20]
 [ 1.7226009195e-02 -1.5419216780e-04  1.9337535203e-18  2.3415722782e-19 -8.5225471082e-20  3.6540477964e-21  1.8475755183e-21  4.2601263220e-21]
 [ 7.0196707540e-03 -6.2833952924e-05  7.8801264285e-19  9.5420049145e-20 -3.4729735720e-20  1.4890397514e-21  7.5289474682e-22  1.7360192841e-21]
 [-2.3389369620e-02  2.0936117963e-04 -2.6256386681e-18 -3.1793724761e-19  1.1571862186e-19 -4.9614436839e-21 -2.5086267057e-21 -5.7843733883e-21]]
time for NO, Ng: 0.013
Pg_ortho
 [[ 6.3599823245e-01 -4.6887807458e-01 -6.9454522530e-02  8.3429866069e-02  1.4145270817e-02  1.0428342418e-02 -1.5447417626e-03 -1.8555681282e-03]
 [-4.6861626925e-01  3.4547878097e-01  5.1175486928e-02 -6.1472800689e-02  1.8819971816e-02  1.3874680304e-02 -2.0552449517e-03 -2.4687925971e-03]
 [-6.9454522530e-02  5.1204077517e-02  7.5848177774e-03 -9.1110025421e-03 -1.5447417626e-03 -1.1388326358e-03  1.6869433920e-04  2.0263829645e-04]
 [ 8.3383281713e-02 -6.1472800689e-02 -9.1059152729e-03  1.0938168804e-02 -3.3487335262e-03 -2.4687925971e-03  3.6570021153e-04  4.3928485228e-04]
 [-1.4145270817e-02  1.0428342418e-02  1.5447417626e-03 -1.8555681282e-03  6.3599823245e-01  4.6887807458e-01 -6.9454522530e-02 -8.3429866069e-02]
 [ 1.8819971816e-02 -1.3874680304e-02 -2.0552449517e-03  2.4687925971e-03  4.6861626925e-01  3.4547878097e-01 -5.1175486928e-02 -6.1472800689e-02]
 [ 1.5447417626e-03 -1.1388326358e-03 -1.6869433920e-04  2.0263829645e-04 -6.9454522530e-02 -5.1204077517e-02  7.5848177774e-03  9.1110025421e-03]
 [-3.3487335262e-03  2.4687925971e-03  3.6570021153e-04 -4.3928485228e-04 -8.3383281713e-02 -6.1472800689e-02  9.1059152729e-03  1.0938168804e-02]]
G(g) (NO)
 [[ 2.7183994384e-01 -1.4699564463e-03  4.8411044085e-02  1.3947089404e-02  4.3312337945e-03 -5.6512036139e-04  2.2929774710e-04  1.6150698516e-04]
 [ 1.4699564463e-03  2.7183994384e-01 -3.6251704744e-04  8.5490119479e-05  5.0921097369e-04 -1.9051437361e-02 -1.6192452680e-02  4.3951760934e-02]
 [ 4.8343551484e-02 -1.9572893023e-02  9.5323268544e-01 -1.8002344226e-01  4.1477349004e-02 -5.0378142417e-03  3.9324225505e-03 -3.4609996530e-05]
 [ 1.3942250483e-02  2.2471664649e-03 -1.8001769098e-01  8.0109009983e-01 -3.7029356645e-02  2.6971176711e-03 -2.2395918424e-03  5.6442192755e-04]
 [ 4.3434869289e-03 -2.8771013348e-05  4.1477161214e-02 -3.7028751289e-02  7.5629035791e-01 -9.3394221714e-04  6.3648334951e-04  5.3832831090e-05]
 [-1.2957728179e-02 -1.9006209877e-02  8.6297810245e-04 -9.3523897277e-04 -4.9086595297e-03  9.0364442709e-01  1.6003730677e-01 -5.6457967900e-02]
 [-8.6902910584e-03 -1.6178050941e-02  1.0123061914e-03 -9.0416425693e-04 -4.7929814116e-03  1.6003641297e-01  9.1125220762e-01 -4.8969894135e-02]
 [ 1.2030164087e-02  4.3902002815e-02 -7.8994429179e-04  7.9213449066e-05  1.8905517564e-03 -5.6462745420e-02 -4.8973033465e-02  6.9571650847e-01]]
time for Gg: 0.021
C(NO)
[[ 1.0000000000e+00  0.0000000000e+00  1.9326635757e-16 -2.0217090035e-17 -1.2912048466e-16  0.0000000000e+00  0.0000000000e+00  0.0000000000e+00]
 [ 0.0000000000e+00  1.0000000000e+00  0.0000000000e+00  0.0000000000e+00  0.0000000000e+00  8.2374371859e-17  4.1633363423e-17 -9.7144514655e-17]
 [ 5.9311208131e-17  0.0000000000e+00 -9.4238852831e-01  8.6941517499e-02  3.2302481987e-01  0.0000000000e+00  0.0000000000e+00  0.0000000000e+00]
 [ 1.2045118555e-17  0.0000000000e+00 -3.0436985127e-01  1.7778651004e-01 -9.3581566053e-01  0.0000000000e+00  0.0000000000e+00  0.0000000000e+00]
 [ 1.1987480286e-18  0.0000000000e+00  1.3879068900e-01  9.8022095947e-01  1.4108159080e-01  0.0000000000e+00  0.0000000000e+00  0.0000000000e+00]
 [ 0.0000000000e+00 -2.7815520784e-17  0.0000000000e+00  0.0000000000e+00  0.0000000000e+00 -4.8519225702e-01 -6.2312069202e-01 -6.1344036132e-01]
 [ 0.0000000000e+00 -1.1081998653e-17  0.0000000000e+00  0.0000000000e+00  0.0000000000e+00 -1.2110408603e-01  7.4267560842e-01 -6.5860970309e-01]
 [ 0.0000000000e+00 -1.7873672924e-17  0.0000000000e+00  0.0000000000e+00  0.0000000000e+00  8.6598052754e-01 -2.4526219405e-01 -4.3580291658e-01]]
detC 1.0000000000000004
detNg [ 1.0008931453  1.0237570249  1.1384898484  1.4890998711  2.4344486294  4.9029047234  9.4766081671 12.0178427422]
xg [0.9991076517 0.9767942741 0.8783565364 0.6715466299 0.4107706311 0.2039607246 0.105522987  0.0832096094]
ciS 1.0823172610257346
[[-0.7665098187  0.           -0.0549235572  0.0019307209 -0.0051677422  0.            0.            0.          ]
 [ 0.           -0.7665098187  0.            0.            0.            0.0310011359  0.0265187217 -0.0371849075]
 [-0.0549235572  0.           -0.7027260321 -0.1562780824  0.0948561836  0.            0.            0.          ]
 [ 0.0019307209  0.           -0.1562780824  0.3688317328  0.0538929619  0.            0.            0.          ]
 [-0.0051677422  0.            0.0948561836  0.0538929619  0.3273737315  0.            0.            0.          ]
 [ 0.            0.0310011359  0.            0.            0.            0.0347091261 -0.1426841321  0.516303157 ]
 [ 0.            0.0265187217  0.            0.            0.           -0.1426841321  0.2535106146  0.2043093583]
 [ 0.           -0.0371849075  0.            0.            0.            0.516303157   0.2043093583 -0.2947403085]]
ciH -1.379447933484812
1.0000000000000002 1.1587410718438829e-17 -0.02862793031166896j 1.478851763270228e-16
0.5412321846232975 0.00040977919696488725 -0.00040977919696488725 0.4587678153767028
1.0 6.120321263680673e-17 -0.14749560049040683j 1.1666015375944028e-16
0.5431374735120448 0.010877476082012855 -0.010877476082012852 0.45686252648795533
1.0 1.3010426069826053e-18 -0.35427523845301506j 1.7954387976359953e-16
0.5533481349190382 0.06275547229047036 -0.06275547229047036 0.44665186508096183
0.9999999999999999 2.211772431870429e-16 -0.6550928808243536j 1.5092094240998222e-16
0.5912659056940651 0.21457334125337538 -0.21457334125337532 0.4087340943059347
1.0 6.023827270329463e-16 -1.0709758269463259j 2.905661822261152e-17
0.7439282754019545 0.5734946109516834 -0.5734946109516833 0.2560717245980455
0.9999999999999999 5.872038966181492e-16 -1.5256857515793045j -1.5612511283791264e-17
1.489390699390008 1.1638585062860538 -1.1638585062860536 -0.48939069939000807
[...]
 [ 0.0000000000e+00  1.0000000000e+00  0.0000000000e+00  0.0000000000e+00  0.0000000000e+00  8.9442937675e-18 -6.2634359163e-18  1.8872398774e-16]
 [-2.1046877260e-16  0.0000000000e+00 -2.3120192472e-18 -1.8115989568e-19  4.5513622506e-18  0.0000000000e+00  0.0000000000e+00  0.0000000000e+00]
 [ 2.6618004609e-18  0.0000000000e+00  1.3942416709e-18  1.6791272429e-18 -1.4275677391e-18  0.0000000000e+00  0.0000000000e+00  0.0000000000e+00]
 [-6.2480820965e-18  0.0000000000e+00 -2.0701168328e-19 -5.7268180643e-19 -6.7237924531e-19  0.0000000000e+00  0.0000000000e+00  0.0000000000e+00]
 [ 0.0000000000e+00  3.2156395254e-20  0.0000000000e+00  0.0000000000e+00  0.0000000000e+00  1.3051374014e-17 -2.5921896992e-18 -1.1206892072e-17]
 [ 0.0000000000e+00 -3.0200033710e-19  0.0000000000e+00  0.0000000000e+00  0.0000000000e+00 -9.0151058353e-19 -1.2183523542e-19  3.3056234202e-18]
 [ 0.0000000000e+00  1.7190399286e-16  0.0000000000e+00  0.0000000000e+00  0.0000000000e+00 -1.1468069449e-18  4.6681727752e-19  6.0880575547e-18]]
D(g) (NO)
 [[ 9.9951368521e-01  8.9589007532e-03 -1.4432748555e-16 -9.6301976433e-18  1.8251113801e-18  2.1476351589e-02 -2.0177808024e-04 -2.0757089875e-02]
 [-8.9589007532e-03  9.9951368521e-01 -2.9521441815e-02 -2.8671186162e-04  4.5313840613e-03 -4.1624548069e-17  6.2189161082e-18  2.2081128980e-16]
 [-1.4050507326e-16  2.9521441815e-02  9.9951368521e-01  1.7510180210e-17 -6.5240383620e-20 -9.6498251768e-03 -3.6765598592e-04  2.7610235495e-03]
 [-1.2741260452e-17  2.8671186162e-04  3.5163160384e-17  9.9951368521e-01 -1.1266627614e-16  3.0859331344e-03 -3.0817382962e-02  3.6161851642e-03]
 [ 5.2680291231e-18 -4.5313840613e-03 -3.4432588406e-18 -1.1971639961e-16  9.9951368521e-01 -2.0211810605e-02 -4.7440591086e-03 -2.2821837097e-02]
 [-2.1476351589e-02 -7.6220490192e-18  9.6498251768e-03 -3.0859331344e-03  2.0211810605e-02  9.9951368521e-01 -1.9799438847e-16 -4.2057999202e-16]
 [ 2.0177808024e-04  1.3877787808e-17  3.6765598592e-04  3.0817382962e-02  4.7440591086e-03 -1.6653345369e-16  9.9951368521e-01 -1.1102230246e-16]
 [ 2.0757089875e-02  1.1102230246e-16 -2.7610235495e-03 -3.6161851642e-03  2.2821837097e-02 -4.7184478547e-16 -1.1102230246e-16  9.9951368521e-01]]
N(g) (NO)
 [[ 1.0004061787 -0.0089669004]
 [ 0.0089669004  1.0004061787]]
P(g) (NO)
 [[ 1.0000000000e+00  5.9274380107e-18 -1.6434279693e-16  1.8180118394e-17  1.5353992571e-17  4.8116177320e-35 -3.6111186457e-35  1.1555579666e-33]
 [-1.6308802934e-18  1.0000000000e+00  3.2688336570e-34 -4.8687554208e-35 -4.2993756659e-35  8.9442937675e-18 -6.2634359163e-18  1.8872398774e-16]
 [ 2.6471582855e-04  2.9533432797e-02 -4.3504139656e-20  4.8125651039e-21  4.0644448651e-21  2.6415569890e-19 -1.8498076371e-19  5.5736672091e-18]
 [ 2.5709167079e-06  2.8682831788e-04 -4.2251164245e-22  4.6739570132e-23  3.9473836034e-23  2.5654767360e-21 -1.7965307880e-21  5.4131383947e-20]
 [-4.0632469572e-05 -4.5332246132e-03  6.6776536957e-21 -7.3870310747e-22 -6.2387063596e-22 -4.0546492654e-20  2.8393561859e-20 -8.5552822632e-19]
 [-2.1485074826e-02  1.9257630575e-04  3.5309172892e-18 -3.9060120405e-19 -3.2988167927e-19  1.7224590513e-21 -1.2061893501e-21  3.6343768365e-20]
 [ 2.0186003821e-04 -1.8093239493e-06 -3.3174243268e-20  3.6698393938e-21  3.0993575271e-21 -1.6183124924e-23  1.1332584609e-23 -3.4146283083e-22]
 [ 2.0765520964e-02 -1.8612675760e-04 -3.4126637950e-18  3.7751962964e-19  3.1883365462e-19 -1.6647723980e-21  1.1657930185e-21 -3.5126583919e-20]]
time for NO, Ng: 0.013
Pg_ortho
 [[ 6.3623144058e-01 -4.6896203824e-01 -6.9290290093e-02  8.2711832561e-02  1.4142734155e-02  1.0424516949e-02 -1.5402479189e-03 -1.8385942360e-03]
 [-4.6869983116e-01  3.4547558345e-01  5.1044863859e-02 -6.0932263770e-02  1.8829023813e-02  1.3878750439e-02 -2.0506193799e-03 -2.4478247467e-03]
 [-6.9290290093e-02  5.1073420142e-02  7.5462229543e-03 -9.0079277866e-03 -1.5402479189e-03 -1.1353066783e-03  1.6774434319e-04  2.0023645461e-04]
 [ 8.2665586540e-02 -6.0932263770e-02 -9.0028912542e-03  1.0746753015e-02 -3.3209149950e-03 -2.4478247467e-03  3.6167210342e-04  4.3172805916e-04]
 [-1.4142734155e-02  1.0424516949e-02  1.5402479189e-03 -1.8385942360e-03  6.3623144058e-01  4.6896203824e-01 -6.9290290093e-02 -8.2711832561e-02]
 [ 1.8829023813e-02 -1.3878750439e-02 -2.0506193799e-03  2.4478247467e-03  4.6869983116e-01  3.4547558345e-01 -5.1044863859e-02 -6.0932263770e-02]
 [ 1.5402479189e-03 -1.1353066783e-03 -1.6774434319e-04  2.0023645461e-04 -6.9290290093e-02 -5.1073420142e-02  7.5462229543e-03  9.0079277866e-03]
 [-3.3209149950e-03  2.4478247467e-03  3.6167210342e-04 -4.3172805916e-04 -8.2665586540e-02 -6.0932263770e-02  9.0028912542e-03  1.0746753015e-02]]
G(g) (NO)
 [[ 2.7192295173e-01 -1.4700361256e-03  4.8143851450e-02  1.2023686235e-02 -9.8444480281e-03  6.2641317484e-04  2.2870347376e-05  7.2502054043e-05]
 [ 1.4700361256e-03  2.7192295173e-01 -3.8979403777e-04  4.7979044696e-04  1.2662859614e-04  2.7527589862e-02  3.0461268529e-03 -4.2335157112e-02]
 [ 4.8075687226e-02 -1.9553009642e-02  9.4799988929e-01 -2.7265083222e-02  1.8365108194e-01  5.5365052655e-03  8.3215110251e-04  2.9360675456e-03]
 [ 1.2029705896e-02 -8.2211436767e-06 -2.7262851580e-02  7.3297100623e-01  1.5112225091e-02  1.5904261706e-05  3.6872026791e-05 -3.2881435802e-04]
 [-9.8365993372e-03 -2.5402846921e-03  1.8364570980e-01  1.5112517151e-02  8.3022456626e-01  3.1607587574e-03  3.0906587818e-04  2.1669196423e-03]
 [ 1.3395796687e-02  2.7473872783e-02 -9.7064988495e-04  3.6594412468e-03  9.8451453964e-04  8.2884751461e-01 -1.2514595088e-01 -7.4904246912e-02]
 [-5.6007078211e-03  3.0497198522e-03  9.4569507529e-04 -4.5952169853e-03 -9.8076527536e-04 -1.2514197400e-01  8.8809677366e-01  1.5089108913e-01]
 [-1.3340090066e-02 -4.2292194739e-02  1.3481003253e-03 -3.6751366820e-03 -1.1215369443e-03 -7.4906042411e-02  1.5089494736e-01  7.9425117350e-01]]
time for Gg: 0.021
C(NO)
[[ 1.0000000000e+00  0.0000000000e+00  1.2332446525e-16  3.6351768708e-19  9.3280520121e-18  0.0000000000e+00  0.0000000000e+00  0.0000000000e+00]
 [ 0.0000000000e+00  1.0000000000e+00  0.0000000000e+00  0.0000000000e+00  0.0000000000e+00 -1.6305586205e-16 -7.6327832943e-17  1.3877787808e-16]
 [-2.2072130990e-16  0.0000000000e+00 -9.4882006283e-01  3.5146142339e-02  3.1385543974e-01  0.0000000000e+00  0.0000000000e+00  0.0000000000e+00]
 [-2.3453245029e-17  0.0000000000e+00 -4.5200369389e-02  9.6844504037e-01 -2.4509412557e-01  0.0000000000e+00  0.0000000000e+00  0.0000000000e+00]
 [ 1.4762047634e-18  0.0000000000e+00  3.1256585703e-01  2.4673660544e-01  9.1729146543e-01  0.0000000000e+00  0.0000000000e+00  0.0000000000e+00]
 [ 0.0000000000e+00  3.4347236655e-18  0.0000000000e+00  0.0000000000e+00  0.0000000000e+00  6.9430501286e-01  6.8116180123e-01  2.3229108823e-01]
 [ 0.0000000000e+00  3.0456299131e-18  0.0000000000e+00  0.0000000000e+00  0.0000000000e+00  1.6073307768e-01  1.6785049677e-01 -9.7262073208e-01]
 [ 0.0000000000e+00  1.8015028198e-16  0.0000000000e+00  0.0000000000e+00  0.0000000000e+00 -7.0150226433e-01  7.1263231142e-01  7.0542086105e-03]]
detC 1.0
detNg [ 1.0008929278  1.0237511059  1.1384514782  1.4889226435  2.4335990661  4.8982521761  9.4570988642 11.9857045199]
xg [0.9991078688 0.9767999216 0.8783861404 0.6716265646 0.4109140301 0.2041544543 0.1057406732 0.0834327259]
ciS 1.0825405947341333
[[-0.766530541   0.           -0.0546508951 -0.0054947126 -0.005653809   0.            0.            0.          ]
 [ 0.           -0.766530541   0.            0.            0.           -0.0339408537  0.0137764404  0.041317138 ]
 [-0.0546508951  0.           -0.710416597  -0.0288765487  0.1593635463  0.            0.            0.          ]
 [-0.0054947126  0.           -0.0288765487  0.3749841685 -0.0429307034  0.            0.            0.          ]
 [-0.005653809   0.            0.1593635463 -0.0429307034  0.3289325829  0.            0.            0.          ]
 [ 0.           -0.0339408537  0.            0.            0.           -0.1909572625 -0.0256978774  0.5510231784]
 [ 0.            0.0137764404  0.            0.            0.           -0.0256978774  0.360619371  -0.0420172786]
 [ 0.            0.041317138   0.            0.            0.            0.5510231784 -0.0420172786 -0.1761619541]]
ciH -1.3797342556400798
1.0 1.734723475976807e-18 -0.028620956996627332j -2.5977484052752686e-16
0.5413440330627801 0.0004095795897013954 -0.00040957958970139544 0.45865596693722
1.0 1.6371452804531117e-17 -0.1474588523671287j 1.951563910473908e-17
0.5432540089722796 0.01087205657071533 -0.010872056570715327 0.4567459910277203
1.0 8.023096076392733e-17 -0.35417708241080603j -4.206704429243757e-17
0.5534892672817612 0.06272070285251546 -0.06272070285251544 0.44651073271823893
0.9999999999999999 9.71445146547012e-17 -0.6548555048672375j 1.6479873021779667e-17
0.5914917358733447 0.21441786612746233 -0.2144178661274623 0.4085082641266551
0.9999999999999998 1.8127860323957634e-16 -1.0703415332244295j -5.551115123125783e-17
0.7444193913200166 0.5728154988726111 -0.5728154988726112 0.25558060867998295
0.9999999999999999 1.5005358067199381e-16 -1.523867022775958j -1.1882855810441129e-16
1.4901930603702322 1.161085351552031 -1.161085351552031 -0.49019306037023286
0.9999999999999996 1.4051260155412137e-16 -1.3621796715484047j 8.847089727481716e-17
4.191079985671827 0.92776672878986 -0.92776672878986 -3.1910799856718275
0.9999999999999997 1.207801220148852e-16 -0.3427362948787422j 1.231653667943533e-16
6.428771765718358 0.05873408391360407 -0.05873408391360408 -5.42877176571836
S2 = -0.000000
X(g)
[[ 2.0000000000e+00  6.9388939039e-18  2.6471582855e-04  2.5709167079e-06 -4.0632469572e-05  2.1485074826e-02 -2.0186003821e-04 -2.0765520964e-02]
 [-8.6736173799e-18  2.0000000000e+00 -2.9533432797e-02 -2.8682831788e-04  4.5332246132e-03  1.9257630575e-04 -1.8093239494e-06 -1.8612675760e-04]
 [ 2.6471582855e-04  2.9533432797e-02  0.0000000000e+00  0.0000000000e+00  0.0000000000e+00  0.0000000000e+00  0.0000000000e+00  0.0000000000e+00]
 [ 2.5709167079e-06  2.8682831788e-04  0.0000000000e+00  0.0000000000e+00  0.0000000000e+00  0.0000000000e+00  0.0000000000e+00  0.0000000000e+00]
 [-4.0632469572e-05 -4.5332246132e-03  0.0000000000e+00  0.0000000000e+00  0.0000000000e+00  0.0000000000e+00  0.0000000000e+00  0.0000000000e+00]
 [-2.1485074826e-02  1.9257630575e-04  0.0000000000e+00  0.0000000000e+00  0.0000000000e+00  0.0000000000e+00  0.0000000000e+00  0.0000000000e+00]
 [ 2.0186003821e-04 -1.8093239493e-06  0.0000000000e+00  0.0000000000e+00  0.0000000000e+00  0.0000000000e+00  0.0000000000e+00  0.0000000000e+00]
 [ 2.0765520964e-02 -1.8612675760e-04  0.0000000000e+00  0.0000000000e+00  0.0000000000e+00  0.0000000000e+00  0.0000000000e+00  0.0000000000e+00]]
X(g) int
[[ 2.0000000000e+00  1.8624947663e-16  2.5125009901e-01  2.4401377165e-03 -3.8565551818e-02  4.9967229117e-01 -4.6946016528e-03 -4.8293783109e-01]
 [-2.3503054476e-16  2.0000000000e+00 -6.8685066965e-01 -6.6706848325e-03  1.0542791902e-01  1.8278021436e-01 -1.7172861325e-03 -1.7665874584e-01]
 [ 2.5125009901e-01  6.8685066965e-01  0.0000000000e+00  0.0000000000e+00  0.0000000000e+00  0.0000000000e+00  0.0000000000e+00  0.0000000000e+00]
 [ 2.4401377165e-03  6.6706848325e-03  0.0000000000e+00  0.0000000000e+00  0.0000000000e+00  0.0000000000e+00  0.0000000000e+00  0.0000000000e+00]
 [-3.8565551818e-02 -1.0542791902e-01  0.0000000000e+00  0.0000000000e+00  0.0000000000e+00  0.0000000000e+00  0.0000000000e+00  0.0000000000e+00]
 [-4.9967229117e-01  1.8278021436e-01  0.0000000000e+00  0.0000000000e+00  0.0000000000e+00  0.0000000000e+00  0.0000000000e+00  0.0000000000e+00]
 [ 4.6946016528e-03 -1.7172861325e-03  0.0000000000e+00  0.0000000000e+00  0.0000000000e+00  0.0000000000e+00  0.0000000000e+00  0.0000000000e+00]
 [ 4.8293783109e-01 -1.7665874584e-01  0.0000000000e+00  0.0000000000e+00  0.0000000000e+00  0.0000000000e+00  0.0000000000e+00  0.0000000000e+00]]
Feff
 [[-6.3772198135e-16 -2.2333454304e-18 -3.0062276351e-10  4.2036064060e-11 -1.7305318947e-10  3.1807838303e-02 -5.9492734621e-03  3.7964388330e-03]
 [-1.1221663480e-17 -6.1320330216e-16 -2.0841848813e-02  2.5036696729e-02 -5.7143237276e-04 -2.1179917321e-10  2.2144299385e-10  1.6790549891e-10]
 [-3.0062288746e-10  2.0841848813e-02  0.0000000000e+00  0.0000000000e+00  0.0000000000e+00  0.0000000000e+00  0.0000000000e+00  0.0000000000e+00]
 [ 4.2036121675e-11 -2.5036696729e-02  0.0000000000e+00  0.0000000000e+00  0.0000000000e+00  0.0000000000e+00  0.0000000000e+00  0.0000000000e+00]
 [-1.7305320362e-10  5.7143237276e-04  0.0000000000e+00  0.0000000000e+00  0.0000000000e+00  0.0000000000e+00  0.0000000000e+00  0.0000000000e+00]
 [-3.1807838303e-02 -2.1179914382e-10  0.0000000000e+00  0.0000000000e+00  0.0000000000e+00  0.0000000000e+00  0.0000000000e+00  0.0000000000e+00]
 [ 5.9492734621e-03  2.2144284304e-10  0.0000000000e+00  0.0000000000e+00  0.0000000000e+00  0.0000000000e+00  0.0000000000e+00  0.0000000000e+00]
 [-3.7964388330e-03  1.6790563459e-10  0.0000000000e+00  0.0000000000e+00  0.0000000000e+00  0.0000000000e+00  0.0000000000e+00  0.0000000000e+00]]
Feff (ortho)
 [[-2.8065029194e-10 -9.0435186759e-11 -8.3797889637e-11 -1.2104463210e-10  1.7347234760e-17 -2.7755575616e-17 -3.2092384306e-17  5.2041704279e-18]
 [-9.0435186759e-11  2.8579757676e-10  9.4145111201e-11  5.0571303130e-11 -1.7347234760e-17  1.9081958236e-17  2.4286128664e-17 -1.7347234760e-18]
 [-8.3797889637e-11  9.4145111201e-11  2.1581155793e-11 -1.6848222814e-12  6.9388939039e-17  5.5944832100e-17 -4.1199682554e-18 -9.5409791179e-18]
 [-1.2104463210e-10  5.0571303130e-11 -1.6848222814e-12 -2.6729078335e-11 -1.9081958236e-17 -1.9081958236e-17 -2.1684043450e-18  3.4694469520e-18]
 [ 1.7347234760e-17 -1.7347234760e-17  6.9388939039e-17 -1.9081958236e-17 -2.8064991996e-10  9.0435055616e-11 -8.3797753741e-11  1.2104429262e-10]
 [-2.7755575616e-17  1.9081958236e-17  5.5944832100e-17 -1.9081958236e-17  9.0435055616e-11  2.8579718133e-10 -9.4144966889e-11  5.0571105593e-11]
 [-3.2092384306e-17  2.4286128664e-17 -4.1199682554e-18 -2.1684043450e-18 -8.3797753741e-11 -9.4144966889e-11  2.1581121781e-11  1.6848363200e-12]
 [ 5.2041704279e-18 -1.7347234760e-18 -9.5409791179e-18  3.4694469520e-18  1.2104429262e-10  5.0571105593e-11  1.6848363200e-12 -2.6728996354e-11]]
Hsp + Hph =  -1.274533502347721
Feff (mod,ortho)
[[-0.2308163172  0.3318709593  0.2236619129  0.0397983682  0.            0.            0.            0.          ]
 [ 0.3318709593  0.0030568182  0.0736695092  0.3306629314  0.            0.            0.            0.          ]
 [ 0.2236619129  0.0736695092  1.1211906459  0.0508694262  0.            0.            0.            0.          ]
 [ 0.0397983682  0.3306629314  0.0508694262  1.1166619521  0.            0.            0.            0.          ]
 [ 0.            0.            0.            0.           -0.2308163172 -0.3318709593  0.2236619129 -0.0397983682]
 [ 0.            0.            0.            0.           -0.3318709593  0.0030568182 -0.0736695092  0.3306629314]
 [ 0.            0.            0.            0.            0.2236619129 -0.0736695092  1.1211906459 -0.0508694262]
 [ 0.            0.            0.            0.           -0.0397983682  0.3306629314 -0.0508694262  1.1166619521]]
F(mod,ortho) updated with CDIIS
[[[-0.2308163171  0.3318709593  0.223661913   0.0397983682]
  [ 0.3318709593  0.0030568181  0.0736695092  0.3306629315]
  [ 0.223661913   0.0736695092  1.1211906459  0.0508694262]
  [ 0.0397983682  0.3306629315  0.0508694262  1.1166619521]]

 [[-0.2308163171 -0.3318709593  0.223661913  -0.0397983682]
  [-0.3318709593  0.0030568181 -0.0736695092  0.3306629315]
  [ 0.223661913  -0.0736695092  1.1211906459 -0.0508694262]
  [-0.0397983682  0.3306629315 -0.0508694262  1.1166619521]]]
Alpha occ 1 vir 3; Beta occ 1 vir 3
Alpha energies:  [-0.4946207656] <- HOMO
         LUMO->  [0.1219281958 1.0988253817 1.283960287 ]
Beta energies:   [-0.4946207656] <- HOMO
         LUMO->  [0.1219281958 1.0988253817 1.283960287 ]
v_a, v_b
 [[ 0.7975617066 -0.5732885075  0.0900046244  0.1647263759]
 [-0.5878775229 -0.7561293528 -0.100110005   0.2695299736]
 [-0.0868603443  0.1705432304  0.7900354027  0.5824211102]
 [ 0.1036852097  0.2655629786 -0.5980979994  0.749002313 ]] 
 [[ 0.7975617066  0.5732885075 -0.0900046244  0.1647263759]
 [ 0.5878775229 -0.7561293528 -0.100110005  -0.2695299736]
 [-0.0868603443 -0.1705432304 -0.7900354027  0.5824211102]
 [-0.1036852097  0.2655629786 -0.5980979994 -0.749002313 ]]
P_a, P_b
 [[ 0.6361046759 -0.4688686005 -0.0692764845  0.0826953528]
 [-0.4688686005  0.345599982   0.0510632441 -0.0609542043]
 [-0.0692764845  0.0510632441  0.0075447194 -0.009006133 ]
 [ 0.0826953528 -0.0609542043 -0.009006133   0.0107506227]] 
 [[ 0.6361046759  0.4688686005 -0.0692764845 -0.0826953528]
 [ 0.4688686005  0.345599982  -0.0510632441 -0.0609542043]
 [-0.0692764845 -0.0510632441  0.0075447194  0.009006133 ]
 [-0.0826953528 -0.0609542043  0.009006133   0.0107506227]]
dm_reg
 [[[1.3933181765e-01 2.6226384662e-01 1.9909043412e-03 2.0708293090e-02]
  [2.6226384662e-01 4.9365842207e-01 3.7474730437e-03 3.8979155619e-02]
  [1.9909043412e-03 3.7474730437e-03 2.8447917801e-05 2.9589961078e-04]
  [2.0708293090e-02 3.8979155619e-02 2.9589961078e-04 3.0777851746e-03]]

 [[2.8447917801e-05 2.9589961078e-04 1.9909043412e-03 3.7474730437e-03]
  [2.9589961078e-04 3.0777851746e-03 2.0708293090e-02 3.8979155619e-02]
  [1.9909043412e-03 2.0708293090e-02 1.3933181765e-01 2.6226384662e-01]
  [3.7474730437e-03 3.8979155619e-02 2.6226384662e-01 4.9365842207e-01]]]
mo_reg
 [[-0.3732717745 -0.0827862706 -1.2513972121  0.1959491265]
 [-0.7026082992 -0.2059771904  1.1197033271 -0.3413827732]
 [-0.005333659   0.1698002773 -0.1610010621 -1.3022267479]
 [-0.0554777899  0.9047664758 -0.0668003056  1.0393364815]] 
 [[-0.005333659  -0.1698002773  0.1610010621 -1.3022267479]
 [-0.0554777899 -0.9047664758  0.0668003056  1.0393364815]
 [-0.3732717745  0.0827862706  1.2513972121  0.1959491265]
 [-0.7026082992  0.2059771904 -1.1197033271 -0.3413827732]]
time for xg, H, S2, Yg, Feff: 0.025

***************
SUHF converged at cycle 12
Final E(SUHF) =     -1.00994490, delta E = -2.85791e-11, MaxD(dm) = 3.05487e-10, RMSD(dm) = 1.14883e-10
time for cyc: 0.707
******* suhf density *****
time for Ngg: 0.002
time for Pgg: 0.004
time for xgg: 0.000
Clebsch-Gordan coeff: < 0 0 0 0 | 0 0 > = 1
Clebsch-Gordan coeff: < 0 0 1 0 | 0 0 > = 0
xggint 0.9999999999999998
SUHF DM alpha
 [[0.0648955961 0.1245153575 0.0203317291 0.046136313 ]
 [0.1245153575 0.2397755512 0.046136313  0.1019222852]
 [0.0203317291 0.046136313  0.0648955961 0.1245153575]
 [0.046136313  0.1019222852 0.1245153575 0.2397755512]] 
SUHF DM beta
 [[0.0648955961 0.1245153575 0.0203317291 0.046136313 ]
 [0.1245153575 0.2397755512 0.046136313  0.1019222852]
 [0.0203317291 0.046136313  0.0648955961 0.1245153575]
 [0.046136313  0.1019222852 0.1245153575 0.2397755512]]
time for 1pdm: 0.016
SUHF natural orbitals alpha
 [[-0.2359566186  0.3081811236 -1.1321633899  0.564031342 ]
 [-0.4724586982  0.5420297568  1.1315161469 -0.3301825164]
 [-0.2359566186 -0.3081811236  0.582678271   1.1226804214]
 [-0.4724586982 -0.5420297568 -0.7198999132 -0.933323845 ]]
SUHF natural orbitals beta
 [[-0.2359566186  0.3081811236 -1.1321633899  0.564031342 ]
 [-0.4724586982  0.5420297568  1.1315161469 -0.3301825164]
 [-0.2359566186 -0.3081811236  0.582678271   1.1226804214]
 [-0.4724586982 -0.5420297568 -0.7198999132 -0.933323845 ]]
SUHF natural orbitals, total
 [[-0.2359566186  0.3081811236 -1.1321633899  0.564031342 ]
 [-0.4724586982  0.5420297568  1.1315161469 -0.3301825164]
 [-0.2359566186 -0.3081811236  0.582678271   1.1226804214]
 [-0.4724586982 -0.5420297568 -0.7198999132 -0.933323845 ]]
SUHF NO occ alpha:  0.765393  0.234607  ...
SUHF NO occ beta:   0.765393  0.234607  ...
SUHF NO occ total:  1.530786  0.469214  ...
core 0, active 2, external 2
time for natorb: 0.002
time tot: 0.821
Date: Thu Jun 24 23:01:55 2021
