#INFO: **** input file is /share/home/srwang/ExSCF/test/vhfopt/test.py ****
from pyphf import util, guess

xyz = 'H 0.0 0.0 0.0; H 0.0 0.0 2.0'''
bas = '3-21g'
mf = guess.mix(xyz, bas, conv='tight')

mf2 = util.SUHF(mf)
mf2.verbose = 8
mf2.kernel()

#INFO: ******************** input file end ********************


System: uname_result(system='Linux', node='xn01', release='3.10.0-1127.el7.x86_64', version='#1 SMP Tue Feb 18 16:39:12 EST 2020', machine='x86_64', processor='x86_64')  Threads 32
Python 3.7.4 (default, Aug 13 2019, 20:35:49) 
[GCC 7.3.0]
numpy 1.17.2  scipy 1.4.1
Date: Sun Apr 25 15:54:06 2021
PySCF version 1.7.6a1
PySCF path  /share/home/srwang/pyscf/pyscf
GIT HEAD      ref: refs/heads/master
GIT master branch  80f71dfe77ac5f9caae26788acf76446987635bd

[CONFIG] conf_file None
[INPUT] verbose = 4
[INPUT] num. atoms = 2
[INPUT] num. electrons = 2
[INPUT] charge = 0
[INPUT] spin (= nelec alpha-beta = 2S) = 0
[INPUT] symmetry False subgroup None
[INPUT] Mole.unit = angstrom
[INPUT]  1 H      0.000000000000   0.000000000000   0.000000000000 AA    0.000000000000   0.000000000000   0.000000000000 Bohr
[INPUT]  2 H      0.000000000000   0.000000000000   2.000000000000 AA    0.000000000000   0.000000000000   3.779452249130 Bohr

nuclear repulsion = 0.26458860546
number of shells = 4
number of NR pGTOs = 6
number of NR cGTOs = 4
basis = 3-21g
ecp = {}
CPU time:         1.15


******** <class 'pyscf.scf.hf.RHF'> ********
method = RHF
initial guess = minao
damping factor = 0
level_shift factor = 0
DIIS = <class 'pyscf.scf.diis.CDIIS'>
diis_start_cycle = 1
diis_space = 8
SCF conv_tol = 1e-05
SCF conv_tol_grad = None
SCF max_cycles = 50
direct_scf = True
direct_scf_tol = 1e-13
chkfile to save SCF result = /share/home/srwang/ExSCF/test/vhfopt/tmp0m0jnz2i
max_memory 4000 MB (current use 108 MB)
Set gradient conv threshold to 0.00316228
init E= -0.648815945420394
  HOMO = -0.244674774926751  LUMO = -0.0864459286574333
cycle= 1 E= -0.907663399996247  delta_E= -0.259  |g|= 0.019  |ddm|= 0.828
  HOMO = -0.369605169894073  LUMO = -0.0101025752244096
cycle= 2 E= -0.907801422494246  delta_E= -0.000138  |g|= 0.00293  |ddm|= 0.0218
  HOMO = -0.370705495656876  LUMO = -0.011268420043164
cycle= 3 E= -0.907804773936949  delta_E= -3.35e-06  |g|= 1.06e-06  |ddm|= 0.00397
  HOMO = -0.370702164933128  LUMO = -0.0112672782402441
Extra cycle  E= -0.907804773937381  delta_E= -4.32e-13  |g|= 1.64e-07  |ddm|= 1.22e-06
converged SCF energy = -0.907804773937381


******** <class 'pyscf.scf.uhf.UHF'> ********
method = UHF
initial guess = minao
damping factor = 0
level_shift factor = 0
DIIS = <class 'pyscf.scf.diis.CDIIS'>
diis_start_cycle = 1
diis_space = 8
SCF conv_tol = 1e-09
SCF conv_tol_grad = None
SCF max_cycles = 100
direct_scf = True
direct_scf_tol = 1e-13
chkfile to save SCF result = /share/home/srwang/ExSCF/test/vhfopt/tmpb8gd9yx8
max_memory 4000 MB (current use 162 MB)
number electrons alpha = 1  beta = 1
Set gradient conv threshold to 3.16228e-05
init E= -1.69135654891561
  alpha nocc = 1  HOMO = -0.24136263647573  LUMO = 0.900983838942928
  beta  nocc = 1  HOMO = -0.24136263647573  LUMO = 0.900983838942928
cycle= 1 E= -0.98558925463628  delta_E= 0.706  |g|= 0.0835  |ddm|= 1.15
  alpha nocc = 1  HOMO = -0.500699367107887  LUMO = 0.115721881429081
  beta  nocc = 1  HOMO = -0.500699367107887  LUMO = 0.115721881429081
cycle= 2 E= -0.995568238270465  delta_E= -0.00998  |g|= 0.0263  |ddm|= 0.145
  alpha nocc = 1  HOMO = -0.497083605541942  LUMO = 0.125003394565144
  beta  nocc = 1  HOMO = -0.497083605541941  LUMO = 0.125003394565144
cycle= 3 E= -0.996982488678898  delta_E= -0.00141  |g|= 0.00453  |ddm|= 0.0714
  alpha nocc = 1  HOMO = -0.492766860752049  LUMO = 0.118670910813591
  beta  nocc = 1  HOMO = -0.492766860752048  LUMO = 0.118670910813591
cycle= 4 E= -0.997011162805863  delta_E= -2.87e-05  |g|= 0.000416  |ddm|= 0.00998
  alpha nocc = 1  HOMO = -0.494395497533039  LUMO = 0.120246563561694
  beta  nocc = 1  HOMO = -0.49439549753304  LUMO = 0.120246563561694
cycle= 5 E= -0.997011453176456  delta_E= -2.9e-07  |g|= 3.04e-05  |ddm|= 0.00094
  alpha nocc = 1  HOMO = -0.494331180495912  LUMO = 0.120178766572695
  beta  nocc = 1  HOMO = -0.494331180495912  LUMO = 0.120178766572695
cycle= 6 E= -0.997011455175522  delta_E= -2e-09  |g|= 5.7e-07  |ddm|= 7.89e-05
  alpha nocc = 1  HOMO = -0.494330560131711  LUMO = 0.120178160885809
  beta  nocc = 1  HOMO = -0.494330560131711  LUMO = 0.120178160885809
cycle= 7 E= -0.997011455176148  delta_E= -6.27e-13  |g|= 2.53e-07  |ddm|= 8.43e-07
  alpha nocc = 1  HOMO = -0.494330110948598  LUMO = 0.120177755068587
  beta  nocc = 1  HOMO = -0.494330110948599  LUMO = 0.120177755068587
Extra cycle  E= -0.997011455176268  delta_E= -1.19e-13  |g|= 1.16e-07  |ddm|= 3.54e-07
converged SCF energy = -0.997011455176268  <S^2> = 0.91048301  2S+1 = 2.1545143
checking UHF/UKS internal stability ...
tol 0.0001  toloose 0.01
max_cycle 50  max_space 12  max_memory 2000  incore True
davidson 0 1  |r|= 0.861  e= [1.13705881]  max|de|= 1.14  lindep= 0.529
davidson 1 2  |r|= 0.119  e= [0.67139996]  max|de|= -0.466  lindep= 0.998
Throwing out eigenvector 0 with norm=5.62e-16
davidson 2 3  |r|= 5.62e-16  e= [0.66357818]  max|de|= -0.00782  lindep=    1
Linear dependency in trial subspace. |r| for each state [5.618897607145285e-16]
UHF/UKS wavefunction is stable in the internal stability analysis
time for guess: 0.189

******** <class 'pyphf.util.SUHF'> ********
max_cycle = 70
verbose: 8, debug2
chkfile0: 13140_ges.pchk # the file store hf for guess
chkfile: 13140_su.pchk # the file store suhf info
conv_tol: 1e-07
DIIS: <class 'pyscf.scf.diis.CDIIS'>
diis_start_cyc = 10
S
[[1.         0.64589894 0.00227256 0.07465634]
 [0.64589894 1.         0.07465634 0.27025724]
 [0.00227256 0.07465634 1.         0.64589894]
 [0.07465634 0.27025724 0.64589894 1.        ]]
SVD: S^(-1/2)
[[-0.3306004   0.46012676 -0.85621932  0.83453679]
 [-0.39774539  0.36468663  0.71167752 -1.05293881]
 [-0.3306004  -0.46012676 -0.85621932 -0.83453679]
 [-0.39774539 -0.36468663  0.71167752  1.05293881]]
S^(1/2)
[[-0.61794925 -0.74345483 -0.61794925 -0.74345483]
 [ 0.66740563  0.52897143 -0.66740563 -0.52897143]
 [-0.34536213  0.28706017 -0.34536213  0.28706017]
 [ 0.23115675 -0.29165151 -0.23115675  0.29165151]]
C (ortho)
 [[-0.80171109 -0.57009486 -0.09238995 -0.15399766]
 [ 0.58103419 -0.75902561  0.10126721 -0.27572512]
 [ 0.08280271  0.16885271 -0.79177919 -0.58113526]
 [-0.11314731  0.26525597  0.59522665 -0.75002813]] 
 [[-0.80171109 -0.57009486 -0.09238995 -0.15399766]
 [-0.58103419  0.75902561 -0.10126721  0.27572512]
 [ 0.08280271  0.16885271 -0.79177919 -0.58113526]
 [ 0.11314731 -0.26525597 -0.59522665  0.75002813]]
density matrix (ortho)
[[[ 0.64274066 -0.46582155 -0.06638385  0.09071146]
  [-0.46582155  0.33760073  0.04811121 -0.06574246]
  [-0.06638385  0.04811121  0.00685629 -0.0093689 ]
  [ 0.09071146 -0.06574246 -0.0093689   0.01280231]]

 [[ 0.64274066  0.46582155 -0.06638385 -0.09071146]
  [ 0.46582155  0.33760073 -0.04811121 -0.06574246]
  [-0.06638385 -0.04811121  0.00685629  0.0093689 ]
  [-0.09071146 -0.06574246  0.0093689   0.01280231]]]
grids:  [0.06237655 0.31939555 0.74529195 1.28265786 1.85893479 2.39630071
 2.8221971  3.07921611] 
weights:  [0.15900941 0.34931531 0.49276925 0.56970235 0.56970235 0.49276925
 0.34931531 0.15900941]
S = 0.0, Sz = 0.0
Wigner small d:  1
value : [1. 1. 1. 1. 1. 1. 1. 1.]
hcore (ortho)
 [[-7.96723266e-01  9.17301167e-17  1.03744072e-01  1.33062106e-16]
 [ 8.50105048e-17 -6.58935537e-01  4.05701508e-16  1.96745347e-01]
 [ 1.03744072e-01  4.21576640e-16  3.06545630e-01 -2.77570797e-16]
 [ 9.15077779e-17  1.96745347e-01 -1.99832916e-16  3.76082787e-01]]
time for Preparation before cyc: 0.360
**** Start Cycle 1 ****
dm (ortho)
[[[ 0.6427406647 -0.4658215524 -0.0663838507  0.0907114563]
  [-0.4658215524  0.3376007317  0.0481112058 -0.0657424584]
  [-0.0663838507  0.0481112058  0.0068562888 -0.0093689043]
  [ 0.0907114563 -0.0657424584 -0.0093689043  0.0128023148]]

 [[ 0.6427406647  0.4658215524 -0.0663838507 -0.0907114563]
  [ 0.4658215524  0.3376007317 -0.0481112058 -0.0657424584]
  [-0.0663838507 -0.0481112058  0.0068562888  0.0093689043]
  [-0.0907114563 -0.0657424584  0.0093689043  0.0128023148]]]
Fock (ortho)
 (array([[-0.2388873235,  0.326413236 ,  0.2163657457,  0.0245837681],
       [ 0.326413236 ,  0.0110682141,  0.078060889 ,  0.339629591 ],
       [ 0.2163657457,  0.078060889 ,  1.1220172843,  0.0506526202],
       [ 0.0245837681,  0.339629591 ,  0.0506526202,  1.1126146476]]), array([[-0.2388873235, -0.326413236 ,  0.2163657457, -0.0245837681],
       [-0.326413236 ,  0.0110682141, -0.078060889 ,  0.339629591 ],
       [ 0.2163657457, -0.078060889 ,  1.1220172843, -0.0506526202],
       [-0.0245837681,  0.339629591 , -0.0506526202,  1.1126146476]]))
E1 = -1.5345399459404376  Ecoul = 0.27293988530417057
E(UHF) =    -1.261600
NO eigenvalue
[-1.0000000000e+00 -4.6137787035e-18 -1.5743915264e-18  6.0147742300e-17] 
 [-1.0000000000e+00 -4.3420735881e-18 -1.0462632884e-18  1.2094990070e-16]
NO vec
[[ 0.8017110856  0.           -0.1584878729  0.0219578954  0.5758982378  0.            0.            0.          ]
 [-0.5810341915  0.           -0.0495302255  0.1988938637  0.7876466569  0.            0.            0.          ]
 [-0.0828027103  0.           -0.9736895545  0.1417000915 -0.1580931585  0.            0.            0.          ]
 [ 0.1131473145  0.            0.156067301   0.9694741698 -0.1515272811  0.            0.            0.          ]
 [ 0.            0.8017110856  0.            0.            0.            0.167583755   0.0151464869 -0.5735377967]
 [ 0.            0.5810341915  0.            0.            0.           -0.0090007777 -0.1072875016  0.8067265003]
 [ 0.           -0.0828027103  0.            0.            0.            0.2600402784 -0.9598350692 -0.065110711 ]
 [ 0.           -0.1131473145  0.            0.            0.            0.9509015326  0.2587984077  0.1265201357]]
dm(NO)
[[ 1.0000000000e+00  0.0000000000e+00 -1.8368740836e-17  2.7569052356e-18  2.7494426806e-16  0.0000000000e+00  0.0000000000e+00  0.0000000000e+00]
 [ 0.0000000000e+00  1.0000000000e+00  0.0000000000e+00  0.0000000000e+00  0.0000000000e+00 -1.9933976981e-18  2.9325281523e-17 -1.1159018660e-16]
 [ 1.3744232686e-17  0.0000000000e+00  7.5762222797e-19  1.7758613337e-18  3.9020969665e-18  0.0000000000e+00  0.0000000000e+00  0.0000000000e+00]
 [ 2.2937222833e-17  0.0000000000e+00 -1.1113938475e-18  3.5953351269e-19  2.9169134111e-18  0.0000000000e+00  0.0000000000e+00  0.0000000000e+00]
 [ 2.2661225093e-16  0.0000000000e+00  1.0231442445e-18 -4.6933961506e-19  1.3398381727e-18  0.0000000000e+00  0.0000000000e+00  0.0000000000e+00]
 [ 0.0000000000e+00 -7.6264573827e-18  0.0000000000e+00  0.0000000000e+00  0.0000000000e+00 -1.0330214170e-18  3.6463251744e-19  1.9777217068e-19]
 [ 0.0000000000e+00  1.9858132710e-17  0.0000000000e+00  0.0000000000e+00  0.0000000000e+00 -3.6796577721e-18 -1.3853800115e-18  7.1154706693e-18]
 [ 0.0000000000e+00 -1.2284313387e-16  0.0000000000e+00  0.0000000000e+00  0.0000000000e+00 -3.1536576506e-18  1.0652704706e-18  2.1352685763e-17]]
1.0000000000000009
1.0000000000000009
1.0000000000000009
1.0000000000000007
1.0000000000000016
1.000000000000001
1.0000000000000007
1.0000000000000018
D(g) (NO)
 [[ 9.9951368521e-01  9.3298287801e-03 -5.5231563200e-17  1.8611103282e-17  4.4340200666e-16  7.0362881902e-03  5.7140160541e-03 -2.8340572308e-02]
 [-9.3298287801e-03  9.9951368521e-01  2.8961320340e-03 -3.6613691205e-04 -2.9611243349e-02 -1.1710559671e-17  2.3713237106e-18 -1.3934970832e-16]
 [-5.9769116927e-17 -2.8961320340e-03  9.9951368521e-01 -1.0212792102e-16  9.6499352758e-17 -4.0821342239e-03  3.0493594413e-02  4.1811928817e-03]
 [ 2.1270882256e-17  3.6613691205e-04 -8.9307409450e-17  9.9951368521e-01 -6.8528957693e-17  2.9954966774e-02  2.9275869371e-03  8.1478965880e-03]
 [ 4.4597880306e-16  2.9611243349e-02  9.7307129137e-17 -1.0037099860e-16  9.9951368521e-01 -2.9866149741e-03  1.1458751036e-03  9.2376643858e-03]
 [-7.0362881902e-03 -6.8936523635e-18  4.0821342239e-03 -2.9954966774e-02  2.9866149741e-03  9.9951368521e-01 -3.0425724241e-16 -2.5003348345e-17]
 [-5.7140160541e-03  0.0000000000e+00 -3.0493594413e-02 -2.9275869371e-03 -1.1458751036e-03 -3.0531133177e-16  9.9951368521e-01 -1.1102230246e-16]
 [ 2.8340572308e-02 -1.1102230246e-16 -4.1811928817e-03 -8.1478965880e-03 -9.2376643858e-03 -2.7755575616e-17 -1.0408340856e-16  9.9951368521e-01]]
N(g) (NO)
 [[ 1.0003993862 -0.0093380962]
 [ 0.0093380962  1.0003993862]]
P(g) (NO)
 [[ 1.0000000000e+00 -8.6721001451e-18 -1.8368740836e-17  2.7569052356e-18  2.7494426806e-16  2.0207671630e-35 -2.8888949166e-34  7.7037197775e-34]
 [ 4.5708422198e-18  1.0000000000e+00 -6.1597998012e-35  1.2748827246e-35  4.6371483464e-34 -1.9933976981e-18  2.9325281523e-17 -1.1159018660e-16]
 [-2.7044359655e-05 -2.8972887091e-03  4.9677083356e-22 -7.4558736726e-23 -7.4356916704e-21  5.7754486433e-21 -8.4963807048e-20  3.2330898768e-19]
 [ 3.4190217214e-06  3.6628314207e-04 -6.2803123912e-23  9.4259188844e-24  9.4004042467e-22 -7.3014797224e-22  1.0741356258e-20 -4.0873604171e-20]
 [ 2.7651264015e-04  2.9623069670e-02 -5.0791890247e-21  7.6231914535e-22  7.6025565456e-20 -5.9050558890e-20  8.6870485766e-19 -3.3056438721e-18]
 [-7.0390983864e-03  6.5705536285e-05  1.2929937398e-19 -1.9406127196e-20 -1.9353597537e-18 -1.3097726478e-22  1.9268333492e-21 -7.3320930545e-21]
 [-5.7162981532e-03  5.3358031825e-05  1.0500119931e-19 -1.5759292307e-20 -1.5716634117e-18 -1.0636377781e-22  1.5647393048e-21 -5.9542327278e-21]
 [ 2.8351891140e-02 -2.6464699168e-04 -5.2078854056e-19  7.8163477125e-20  7.7951899577e-18  5.2754670400e-22 -7.7608475351e-21  2.9532007184e-20]]
time for NO, Ng: 0.014
Pg_ortho
 [[ 6.4287182818e-01 -4.6591661217e-01 -6.6397397638e-02  9.0729967719e-02  1.4051671612e-02  1.0183845280e-02 -1.4512915120e-03 -1.9831444712e-03]
 [-4.6564532526e-01  3.3747301236e-01  4.8093004646e-02 -6.5717587048e-02  1.8879387425e-02  1.3682696680e-02 -1.9499099806e-03 -2.6644910175e-03]
 [-6.6397397638e-02  4.8121023832e-02  6.8576879868e-03 -9.3708162036e-03 -1.4512915120e-03 -1.0518128107e-03  1.4989298859e-04  2.0482408197e-04]
 [ 9.0677138839e-02 -6.5717587048e-02 -9.3653599057e-03  1.2797471469e-02 -3.6764652018e-03 -2.6644910175e-03  3.7971444884e-04  5.1886792119e-04]
 [-1.4051671612e-02  1.0183845280e-02  1.4512915120e-03 -1.9831444712e-03  6.4287182818e-01  4.6591661217e-01 -6.6397397638e-02 -9.0729967719e-02]
 [ 1.8879387425e-02 -1.3682696680e-02 -1.9499099806e-03  2.6644910175e-03  4.6564532526e-01  3.3747301236e-01 -4.8093004646e-02 -6.5717587048e-02]
 [ 1.4512915120e-03 -1.0518128107e-03 -1.4989298859e-04  2.0482408197e-04 -6.6397397638e-02 -4.8121023832e-02  6.8576879868e-03  9.3708162036e-03]
 [-3.6764652018e-03  2.6644910175e-03  3.7971444884e-04 -5.1886792119e-04 -9.0677138839e-02 -6.5717587048e-02  9.3653599057e-03  1.2797471469e-02]]
G(g) (NO)
 [[ 2.7295464423e-01 -1.5811381521e-03 -1.5062697091e-02 -4.9827814197e-03  5.1959462292e-02 -3.9133498767e-04  3.5034841606e-04 -4.9320861199e-04]
 [ 1.5811381521e-03  2.7295464423e-01 -3.9223655915e-04 -3.6663610303e-04 -4.8048961464e-04  2.1572304488e-02  3.2333006342e-03 -4.9756206870e-02]
 [-1.5058445430e-02  5.2849546398e-03  8.3531480493e-01 -9.3667776006e-02 -1.1091691758e-01  2.5864987248e-03 -2.0956018611e-03  1.2873885202e-03]
 [-4.9899063621e-03 -4.3453027137e-03 -9.3667491594e-02  8.1341398044e-01  1.5322901909e-01 -2.8796726088e-03  2.0862465050e-03 -9.3387444999e-04]
 [ 5.1888892522e-02 -1.8239003421e-02 -1.1091853493e-01  1.5323412444e-01  8.5815740124e-01 -3.5906017439e-03  3.1988885581e-03 -2.0046171424e-03]
 [ 2.2110072162e-03  2.1562170849e-02  5.6237460066e-04  4.5544583150e-04 -1.9785325618e-04  7.1268211861e-01 -3.9885156778e-03  5.9864594464e-02]
 [-1.0887830450e-03  3.2196169864e-03  2.3533269248e-03  1.6978160362e-03  8.6045259339e-04 -3.9886471405e-03  8.0719720069e-01  1.4844737318e-01]
 [-1.9323551578e-02 -4.9687221357e-02  5.1373446973e-03  3.3940074315e-03  2.4008762006e-03  5.9868610349e-02  1.4845092518e-01  9.8700686732e-01]]
time for Gg: 0.021
C(NO)
[[-1.0000000000e+00  0.0000000000e+00 -3.6583270747e-16 -3.5531275244e-18 -9.8506056975e-17  0.0000000000e+00  0.0000000000e+00  0.0000000000e+00]
 [ 0.0000000000e+00 -1.0000000000e+00  0.0000000000e+00  0.0000000000e+00  0.0000000000e+00 -7.6960350549e-17  3.1225022568e-16 -5.5511151231e-17]
 [-1.5884441440e-17  0.0000000000e+00  4.9354970685e-03  8.7346944412e-01  4.8685395249e-01  0.0000000000e+00  0.0000000000e+00  0.0000000000e+00]
 [-2.9241587868e-17  0.0000000000e+00  1.1760164068e-01  4.8297441278e-01 -8.6770131423e-01  0.0000000000e+00  0.0000000000e+00  0.0000000000e+00]
 [-2.4434954903e-16  0.0000000000e+00 -9.9304858641e-01  6.1537360878e-02 -1.0033772092e-01  0.0000000000e+00  0.0000000000e+00  0.0000000000e+00]
 [ 0.0000000000e+00  1.9933976981e-18  0.0000000000e+00  0.0000000000e+00  0.0000000000e+00 -3.1069426636e-01 -7.8646798461e-01  5.3379507494e-01]
 [ 0.0000000000e+00 -2.9325281523e-17  0.0000000000e+00  0.0000000000e+00  0.0000000000e+00 -3.2078747124e-01  6.1539904831e-01  7.1998570099e-01]
 [ 0.0000000000e+00  1.1159018660e-16  0.0000000000e+00  0.0000000000e+00  0.0000000000e+00  8.9474268432e-01 -5.2460656913e-02  4.4349003183e-01]]
detC 0.9999999999999998
detNg [ 1.0008861319  1.0235662454  1.1372541875  1.4834076483  2.407356124   4.7572359479  8.8856775582 11.061660401 ]
xg [0.9991146526 0.9769763359 0.8793108973 0.6741235298 0.4153934642 0.2102060968 0.1125406581 0.0904023414]
ciS 1.0895169940281422
[[-0.767269973   0.            0.0150590068  0.0049793335 -0.05196402    0.            0.            0.          ]
 [ 0.           -0.767269973   0.            0.            0.           -0.0215686317 -0.003236608   0.0497608814]
 [ 0.0150590068  0.            0.3071358809  0.0159836839  0.1068067654  0.            0.            0.          ]
 [ 0.0049793335  0.            0.0159836839  0.4096964687 -0.0230052113  0.            0.            0.          ]
 [-0.05196402    0.            0.1068067654 -0.0230052113 -0.7225927631  0.            0.            0.          ]
 [ 0.           -0.0215686317  0.            0.            0.            0.3440335111 -0.0234293772  0.2555158245]
 [ 0.           -0.003236608   0.            0.            0.           -0.0234293772  0.2858945233  0.1908398156]
 [ 0.            0.0497608814  0.            0.            0.            0.2555158245  0.1908398156 -0.635688448 ]]
ciH -1.3881309806319542
0.9999999999999999 -8.253489038045903e-18 -0.02840312920165327j -1.9081958235744878e-17
0.5448378560241556 0.00040336887422290433 -0.00040336887422290433 0.4551621439758442
0.9999999999999999 -8.272462576064399e-17 -0.14631114471453147j 6.591949208711867e-17
0.5468929338946213 0.010703475533838288 -0.010703475533838285 0.4531070661053784
0.9999999999999999 -2.1488887058662698e-16 -0.35111425536808705j 3.8163916471489756e-17
0.5578882717280289 0.061640610161343125 -0.06164061016134312 0.44211172827197087
0.9999999999999999 -3.8098864341140626e-16 -0.6474688047368277j -6.765421556309548e-17
0.5984909944000312 0.2096079265536682 -0.20960792655366814 0.40150900559996855
1.0 -7.2121128513735755e-16 -1.0507482511341353j 6.808789643208968e-17
0.7593917602578276 0.5520359436307217 -0.552035943630722 0.24060823974217244
1.0000000000000002 -5.720250662033521e-16 -1.4687423232698489j 1.4051260155412137e-16
1.512942698831887 1.0786020060820567 -1.0786020060820565 -0.5129426988318865
1.0000000000000007 -8.183557997920587e-16 -1.2701411960086155j 3.885780586188048e-16
4.033919022652647 0.8066293288990982 -0.8066293288990981 -3.033919022652645
1.0000000000000007 -1.0614339268633088e-16 -0.3139076060103677j 3.452099717193846e-16
5.976664501985145 0.04926899255558013 -0.049268992555580114 -4.976664501985145
S2 = -0.000000
X(g)
[[ 2.0000000000e+00 -1.2143064332e-17 -2.7044359655e-05  3.4190217214e-06  2.7651264015e-04  7.0390983864e-03  5.7162981532e-03 -2.8351891140e-02]
 [ 1.0408340856e-17  2.0000000000e+00  2.8972887091e-03 -3.6628314207e-04 -2.9623069670e-02  6.5705536285e-05  5.3358031825e-05 -2.6464699168e-04]
 [-2.7044359655e-05 -2.8972887091e-03  0.0000000000e+00  0.0000000000e+00  0.0000000000e+00  0.0000000000e+00  0.0000000000e+00  0.0000000000e+00]
 [ 3.4190217214e-06  3.6628314207e-04  0.0000000000e+00  0.0000000000e+00  0.0000000000e+00  0.0000000000e+00  0.0000000000e+00  0.0000000000e+00]
 [ 2.7651264015e-04  2.9623069670e-02  0.0000000000e+00  0.0000000000e+00  0.0000000000e+00  0.0000000000e+00  0.0000000000e+00  0.0000000000e+00]
 [-7.0390983864e-03  6.5705536285e-05  0.0000000000e+00  0.0000000000e+00  0.0000000000e+00  0.0000000000e+00  0.0000000000e+00  0.0000000000e+00]
 [-5.7162981532e-03  5.3358031825e-05  0.0000000000e+00  0.0000000000e+00  0.0000000000e+00  0.0000000000e+00  0.0000000000e+00  0.0000000000e+00]
 [ 2.8351891140e-02 -2.6464699168e-04  0.0000000000e+00  0.0000000000e+00  0.0000000000e+00  0.0000000000e+00  0.0000000000e+00  0.0000000000e+00]]
X(g) int
[[ 2.0000000000e+00 -2.5762246434e-16 -2.5504461906e-02  3.2243436474e-03  2.6076809314e-01  1.6265917413e-01  1.3209196486e-01 -6.5515424629e-01]
 [ 2.1956326209e-16  2.0000000000e+00  6.6950419325e-02 -8.4640546440e-03 -6.8452858353e-01  6.1964282705e-02  5.0319841455e-02 -2.4957807114e-01]
 [-2.5504461906e-02 -6.6950419325e-02  0.0000000000e+00  0.0000000000e+00  0.0000000000e+00  0.0000000000e+00  0.0000000000e+00  0.0000000000e+00]
 [ 3.2243436474e-03  8.4640546440e-03  0.0000000000e+00  0.0000000000e+00  0.0000000000e+00  0.0000000000e+00  0.0000000000e+00  0.0000000000e+00]
 [ 2.6076809314e-01  6.8452858353e-01  0.0000000000e+00  0.0000000000e+00  0.0000000000e+00  0.0000000000e+00  0.0000000000e+00  0.0000000000e+00]
 [-1.6265917413e-01  6.1964282705e-02  0.0000000000e+00  0.0000000000e+00  0.0000000000e+00  0.0000000000e+00  0.0000000000e+00  0.0000000000e+00]
 [-1.3209196486e-01  5.0319841455e-02  0.0000000000e+00  0.0000000000e+00  0.0000000000e+00  0.0000000000e+00  0.0000000000e+00  0.0000000000e+00]
 [ 6.5515424629e-01 -2.4957807114e-01  0.0000000000e+00  0.0000000000e+00  0.0000000000e+00  0.0000000000e+00  0.0000000000e+00  0.0000000000e+00]]
Feff
 [[ 5.0645700898e-16 -4.1320723339e-18 -9.9598089773e-03  1.3924449895e-02  6.0712797197e-03 -7.0131133023e-03  9.7442185024e-03 -1.9572866682e-02]
 [ 2.0446839698e-18 -1.9196403377e-16 -8.2282840572e-03 -8.5778654368e-03 -1.9645514210e-02 -6.7242906696e-03 -1.2189474706e-02 -1.1668297158e-02]
 [-9.9598089773e-03  8.2282840572e-03  0.0000000000e+00  0.0000000000e+00  0.0000000000e+00  0.0000000000e+00  0.0000000000e+00  0.0000000000e+00]
 [ 1.3924449895e-02  8.5778654368e-03  0.0000000000e+00  0.0000000000e+00  0.0000000000e+00  0.0000000000e+00  0.0000000000e+00  0.0000000000e+00]
 [ 6.0712797197e-03  1.9645514210e-02  0.0000000000e+00  0.0000000000e+00  0.0000000000e+00  0.0000000000e+00  0.0000000000e+00  0.0000000000e+00]
 [ 7.0131133023e-03 -6.7242906696e-03  0.0000000000e+00  0.0000000000e+00  0.0000000000e+00  0.0000000000e+00  0.0000000000e+00  0.0000000000e+00]
 [-9.7442185024e-03 -1.2189474706e-02  0.0000000000e+00  0.0000000000e+00  0.0000000000e+00  0.0000000000e+00  0.0000000000e+00  0.0000000000e+00]
 [ 1.9572866682e-02 -1.1668297158e-02  0.0000000000e+00  0.0000000000e+00  0.0000000000e+00  0.0000000000e+00  0.0000000000e+00  0.0000000000e+00]]
Feff (ortho)
 [[ 8.6275334273e-03  3.3232527141e-03  8.1416149612e-03  9.4477000966e-03  3.2959746044e-17 -1.4268100590e-16  0.0000000000e+00  8.6736173799e-18]
 [ 3.3232527141e-03 -9.3486337561e-03 -6.8896077566e-03 -5.4956690450e-03 -1.3400738852e-16  2.2551405188e-17  1.1709383463e-17  9.2157184661e-18]
 [ 8.1416149612e-03 -6.8896077566e-03 -1.7738046285e-03  2.9902195763e-04  2.7755575616e-17  3.8163916471e-17 -3.3610267347e-18 -5.3125906452e-18]
 [ 9.4477000966e-03 -5.4956690450e-03  2.9902195763e-04  2.4949049572e-03 -3.2092384306e-17 -4.6729113634e-17  3.7947076037e-18  6.5052130349e-18]
 [ 3.2959746044e-17 -1.3400738852e-16  2.7755575616e-17 -3.2092384306e-17  8.6275334273e-03 -3.3232527141e-03  8.1416149612e-03 -9.4477000966e-03]
 [-1.4268100590e-16  2.2551405188e-17  3.8163916471e-17 -4.6729113634e-17 -3.3232527141e-03 -9.3486337561e-03  6.8896077566e-03 -5.4956690450e-03]
 [ 0.0000000000e+00  1.1709383463e-17 -3.3610267347e-18  3.7947076037e-18  8.1416149612e-03  6.8896077566e-03 -1.7738046285e-03 -2.9902195763e-04]
 [ 8.6736173799e-18  9.2157184661e-18 -5.3125906452e-18  6.5052130349e-18 -9.4477000966e-03 -5.4956690450e-03 -2.9902195763e-04  2.4949049572e-03]]
Hsp + Hph =  -1.2740792371670882
Feff (mod,ortho)
[[-0.2302597295  0.3297365156  0.2245073286  0.0340314871  0.            0.            0.            0.          ]
 [ 0.3297365156  0.0017195096  0.0711712972  0.3341339181  0.            0.            0.            0.          ]
 [ 0.2245073286  0.0711712972  1.1202434857  0.0509516366  0.            0.            0.            0.          ]
 [ 0.0340314871  0.3341339181  0.0509516366  1.1151095567  0.            0.            0.            0.          ]
 [ 0.            0.            0.            0.           -0.2302597295 -0.3297365156  0.2245073286 -0.0340314871]
 [ 0.            0.            0.            0.           -0.3297365156  0.0017195096 -0.0711712972  0.3341339181]
 [ 0.            0.            0.            0.            0.2245073286 -0.0711712972  1.1202434857 -0.0509516366]
 [ 0.            0.            0.            0.           -0.0340314871  0.3341339181 -0.0509516366  1.1151095567]]
Alpha occ 1 vir 3; Beta occ 1 vir 3
Alpha energies:  [-0.4945369813] <- HOMO
         LUMO->  [0.1202097884 1.099203477  1.2819365384]
Beta energies:   [-0.4945369813] <- HOMO
         LUMO->  [0.1202097884 1.099203477  1.2819365384]
e_a, e_b
 [-0.4945369813  0.1202097884  1.099203477   1.2819365384] 
 [-0.4945369813  0.1202097884  1.099203477   1.2819365384]
v_a, v_b
 [[ 0.7959192725 -0.5758526377  0.0931821925  0.1619361922]
 [-0.5890939817 -0.7547802912 -0.1018733654  0.2699940928]
 [-0.0881101107  0.1695190739  0.7916389213  0.5803513679]
 [ 0.1082469437  0.2645065883 -0.5951862857  0.7510473682]] 
 [[ 0.7959192725  0.5758526377 -0.0931821925  0.1619361922]
 [ 0.5890939817 -0.7547802912 -0.1018733654 -0.2699940928]
 [-0.0881101107 -0.1695190739 -0.7916389213  0.5803513679]
 [-0.1082469437  0.2645065883 -0.5951862857 -0.7510473682]]
P_a, P_b
 [[ 0.6334874883 -0.4688712533 -0.0701285352  0.0861558286]
 [-0.4688712533  0.3470317192  0.0519051359 -0.063767623 ]
 [-0.0701285352  0.0519051359  0.0077633916 -0.0095376502]
 [ 0.0861558286 -0.063767623  -0.0095376502  0.0117174008]] 
 [[ 0.6334874883  0.4688712533 -0.0701285352 -0.0861558286]
 [ 0.4688712533  0.3470317192 -0.0519051359 -0.063767623 ]
 [-0.0701285352 -0.0519051359  0.0077633916  0.0095376502]
 [-0.0861558286 -0.063767623   0.0095376502  0.0117174008]]
time for xg, H, S2, Yg, Feff: 0.023
 E(SUHF) =     -1.00949063
**** Start Cycle 2 ****
dm (ortho)
[[[ 0.6334874883 -0.4688712533 -0.0701285352  0.0861558286]
  [-0.4688712533  0.3470317192  0.0519051359 -0.063767623 ]
  [-0.0701285352  0.0519051359  0.0077633916 -0.0095376502]
  [ 0.0861558286 -0.063767623  -0.0095376502  0.0117174008]]

 [[ 0.6334874883  0.4688712533 -0.0701285352 -0.0861558286]
  [ 0.4688712533  0.3470317192 -0.0519051359 -0.063767623 ]
  [-0.0701285352 -0.0519051359  0.0077633916  0.0095376502]
  [-0.0861558286 -0.063767623   0.0095376502  0.0117174008]]]
Fock (ortho)
 (array([[-0.2363081016,  0.3284564986,  0.2173277084,  0.0261901497],
       [ 0.3284564986,  0.0087229249,  0.0778261308,  0.3390100841],
       [ 0.2173277084,  0.0778261308,  1.1216808993,  0.0509166931],
       [ 0.0261901497,  0.3390100841,  0.0509166931,  1.1127032785]]), array([[-0.2363081016, -0.3284564986,  0.2173277084, -0.0261901497],
       [-0.3284564986,  0.0087229249, -0.0778261308,  0.3390100841],
       [ 0.2173277084, -0.0778261308,  1.1216808993, -0.0509166931],
       [-0.0261901497,  0.3390100841, -0.0509166931,  1.1127032785]]))
E1 = -1.5324840245868965  Ecoul = 0.2712126226598609
E(UHF) =    -1.261271
NO eigenvalue
[-1.0000000000e+00 -1.6392195593e-18 -6.9595013219e-19  8.3266726847e-17] 
 [-1.0000000000e+00 -1.1534833202e-16 -5.8929172076e-19  9.1082431956e-18]
NO vec
[[-0.7959192725  0.            0.           -0.            0.6054027681  0.            0.            0.          ]
 [ 0.5890939817  0.            0.2022749318  0.1106193114  0.7744782119  0.            0.            0.          ]
 [ 0.0881101107  0.           -0.1668254812 -0.975185863   0.1158378172  0.            0.            0.          ]
 [-0.1082469437  0.            0.9650150832 -0.1917704373 -0.1423115869  0.            0.            0.          ]
 [ 0.            0.7959192725  0.            0.            0.           -0.5947628558 -0.0195958349 -0.1112908814]
 [ 0.            0.5890939817  0.            0.            0.            0.7221514192 -0.0387245565  0.3605079988]
 [ 0.           -0.0881101107  0.            0.            0.           -0.1537547224 -0.9185717681  0.3533015718]
 [ 0.           -0.1082469437  0.            0.            0.           -0.317984211   0.3928642499  0.8560527565]]
dm(NO)
[[ 1.0000000000e+00  0.0000000000e+00  2.9253184410e-17  1.2891135036e-17  3.2398485788e-17  0.0000000000e+00  0.0000000000e+00  0.0000000000e+00]
 [ 0.0000000000e+00  1.0000000000e+00  0.0000000000e+00  0.0000000000e+00  0.0000000000e+00  3.0082717422e-16  7.6254293039e-18  4.2331909717e-17]
 [ 6.6262725178e-18  0.0000000000e+00  1.1839228666e-18  1.4564078261e-18  1.0871474831e-17  0.0000000000e+00  0.0000000000e+00  0.0000000000e+00]
 [ 7.5237039954e-18  0.0000000000e+00  1.3762534252e-18  9.6751761029e-19  6.1755834061e-18  0.0000000000e+00  0.0000000000e+00  0.0000000000e+00]
 [ 4.1245221003e-17  0.0000000000e+00  2.2280287784e-18  2.2599545501e-18  4.8431388161e-18  0.0000000000e+00  0.0000000000e+00  0.0000000000e+00]
 [ 0.0000000000e+00  3.0193974165e-16  0.0000000000e+00  0.0000000000e+00  0.0000000000e+00  3.4151006478e-17 -9.4843078711e-18  6.5839600237e-18]
 [ 0.0000000000e+00  1.0295769965e-17  0.0000000000e+00  0.0000000000e+00  0.0000000000e+00  2.8744097095e-18 -3.3358433641e-19  4.9626896914e-19]
 [ 0.0000000000e+00  2.6285940420e-17  0.0000000000e+00  0.0000000000e+00  0.0000000000e+00  2.7300776620e-17  2.6004163729e-19  9.2926289295e-18]]
1.0000000000000009
1.0000000000000007
1.0000000000000004
1.0000000000000004
1.0000000000000013
1.0000000000000007
1.0000000000000009
1.0000000000000013
D(g) (NO)
 [[ 9.9951368521e-01 -8.8093139182e-03  2.5528663655e-17 -1.0911936114e-18 -5.7513401691e-18  2.8678324450e-02 -4.0749454172e-03  7.4657611553e-03]
 [ 8.8093139182e-03  9.9951368521e-01 -9.1672496255e-04 -5.3587570513e-03 -2.9414833014e-02  2.9679460211e-16  1.9497307788e-18  6.8301225906e-17]
 [ 1.9311805777e-17  9.1672496255e-04  9.9951368521e-01  3.3101881372e-17  9.7107591933e-18 -4.2139823488e-03  1.6356473913e-02  2.6196580006e-02]
 [-1.3484898249e-18  5.3587570513e-03  2.1823547639e-17  9.9951368521e-01  4.4334886013e-18  9.0681825160e-03  2.5450331968e-02 -1.4619352454e-02]
 [ 4.2395860214e-17  2.9414833014e-02  3.4283394768e-18 -2.9201710421e-18  9.9951368521e-01  7.0680407548e-03 -6.3666520601e-03  4.0827949906e-03]
 [-2.8678324450e-02  2.4926518107e-16  4.2139823488e-03 -9.0681825160e-03 -7.0680407548e-03  9.9951368521e-01 -3.6104425060e-17 -2.3345282539e-16]
 [ 4.0749454172e-03 -1.3877787808e-17 -1.6356473913e-02 -2.5450331968e-02  6.3666520601e-03 -2.7755575616e-17  9.9951368521e-01 -5.5511151231e-17]
 [-7.4657611553e-03  6.9388939039e-17 -2.6196580006e-02  1.4619352454e-02 -4.0827949906e-03 -1.8041124150e-16 -1.1102230246e-16  9.9951368521e-01]]
N(g) (NO)
 [[ 1.0004088401  0.0088172035]
 [-0.0088172035  1.0004088401]]
P(g) (NO)
 [[ 1.0000000000e+00 -1.7730623222e-18  2.9253184410e-17  1.2891135036e-17  3.2398485788e-17 -1.0733895198e-33 -2.4074124305e-35 -4.8148248610e-35]
 [ 9.0431065798e-18  1.0000000000e+00  2.9399438123e-34  1.1616071313e-34  2.6475442657e-34  3.0082717422e-16  7.6254293039e-18  4.2331909717e-17]
 [-8.0829505074e-06  9.1709975648e-04 -2.3645204177e-22 -1.0419840648e-22 -2.6187535714e-22  2.7588852822e-19  6.9932793577e-21  3.8822584093e-20]
 [-4.7249251189e-05  5.3609479260e-03 -1.3821910583e-21 -6.0909647742e-22 -1.5308041932e-21  1.6127188157e-18  4.0879529412e-20  2.2693916360e-19]
 [-2.5935656729e-04  2.9426858977e-02 -7.5870054908e-21 -3.3434005314e-21 -8.4027600595e-21  8.8523988324e-18  2.2439243277e-19  1.2456951375e-18]
 [-2.8690049299e-02 -2.5286262144e-04 -8.3927530286e-19 -3.6984729970e-19 -9.2951415448e-19 -7.6067947873e-20 -1.9281860434e-21 -1.0704157661e-20]
 [ 4.0766114183e-03  3.5929622813e-05  1.1925386559e-19  5.2552148282e-20  1.3207603710e-19  1.0808606902e-20  2.7397879868e-22  1.5209695491e-21]
 [-7.4688134578e-03 -6.5827135056e-05 -2.1848657740e-19 -9.6281482843e-20 -2.4197824667e-19 -1.9802591026e-20 -5.0196016465e-22 -2.7865883381e-21]]
time for NO, Ng: 0.014
Pg_ortho
 [[ 6.3361245974e-01 -4.6896375003e-01 -7.0142369841e-02  8.6172825060e-02  1.4179382930e-02  1.0494769302e-02 -1.5696905992e-03 -1.9284303297e-03]
 [-4.6870591887e-01  3.4690934813e-01  5.1886833036e-02 -6.3745137158e-02  1.8759014792e-02  1.3884351212e-02 -2.0766664751e-03 -2.5512713253e-03]
 [-7.0142369841e-02  5.1915375543e-02  7.7649231344e-03 -9.5395317321e-03 -1.5696905992e-03 -1.1617953190e-03  1.7376839241e-04  2.1348171318e-04]
 [ 8.6125448181e-02 -6.3745137158e-02 -9.5342870016e-03  1.1713268995e-02 -3.4469984084e-03 -2.5512713253e-03  3.8159072392e-04  4.6880011000e-04]
 [-1.4179382930e-02  1.0494769302e-02  1.5696905992e-03 -1.9284303297e-03  6.3361245974e-01  4.6896375003e-01 -7.0142369841e-02 -8.6172825060e-02]
 [ 1.8759014792e-02 -1.3884351212e-02 -2.0766664751e-03  2.5512713253e-03  4.6870591887e-01  3.4690934813e-01 -5.1886833036e-02 -6.3745137158e-02]
 [ 1.5696905992e-03 -1.1617953190e-03 -1.7376839241e-04  2.1348171318e-04 -7.0142369841e-02 -5.1915375543e-02  7.7649231344e-03  9.5395317321e-03]
 [-3.4469984084e-03  2.5512713253e-03  3.8159072392e-04 -4.6880011000e-04 -8.6125448181e-02 -6.3745137158e-02  9.5342870016e-03  1.1713268995e-02]]
G(g) (NO)
 [[ 2.7122543777e-01  1.4540154567e-03  9.4657153027e-03 -5.2096806348e-03 -4.8753649687e-02  2.2906454035e-04 -2.3757944654e-04  5.2263124279e-04]
 [-1.4540154567e-03  2.7122543777e-01 -4.0615336388e-04 -3.4476509776e-04 -3.1342374732e-04 -4.9614282933e-02  5.5674190655e-03 -1.0419550585e-03]
 [ 9.4746271427e-03 -3.3716990013e-03  7.6987747312e-01 -4.2171609420e-02  1.3262635697e-01  4.0958264863e-04  1.1480637813e-03 -2.3694634591e-03]
 [-5.1968147249e-03  1.2376883706e-03 -4.2170664448e-02  8.0666045399e-01 -1.3808892509e-01 -1.9094277837e-04 -1.3273034297e-03  2.6805005378e-03]
 [-4.8687776034e-02 -1.9335384396e-02  1.3263069876e-01 -1.3809234782e-01  9.3206170743e-01 -1.3462557584e-04  3.0265181611e-03 -5.3927628112e-03]
 [ 1.8378190839e-02 -4.9551345263e-02  4.0325559979e-03  3.7762185260e-03  1.0107390100e-03  8.8014933114e-01  1.5787724497e-01  1.2194252166e-01]
 [ 2.5682806452e-03  5.5589450404e-03  2.8591363515e-03  2.3330850084e-03  2.8808892320e-04  1.5787318356e-01  8.3357285888e-01  6.3646564729e-02]
 [ 6.5117856553e-03 -1.0184746114e-03  2.3218880999e-03  1.9214860222e-03  1.2699248093e-04  1.2193900240e-01  6.3648170619e-02  7.9487744451e-01]]
time for Gg: 0.021
C(NO)
[[-1.0000000000e+00  0.0000000000e+00  4.3879312079e-17  5.2591003456e-17  1.0906867826e-16  0.0000000000e+00  0.0000000000e+00  0.0000000000e+00]
 [ 0.0000000000e+00  1.0000000000e+00  0.0000000000e+00  0.0000000000e+00  0.0000000000e+00  8.5962332138e-17  9.7144514655e-17 -2.6367796835e-16]
 [-1.5860909854e-17  0.0000000000e+00  7.4299614338e-02 -7.2703571501e-01  6.8256767900e-01  0.0000000000e+00  0.0000000000e+00  0.0000000000e+00]
 [-1.6746966649e-18  0.0000000000e+00 -2.9953042456e-01 -6.6912511189e-01 -6.8011257112e-01  0.0000000000e+00  0.0000000000e+00  0.0000000000e+00]
 [-3.6108179270e-17  0.0000000000e+00 -9.5118930402e-01  1.5391768494e-01  2.6748505414e-01  0.0000000000e+00  0.0000000000e+00  0.0000000000e+00]
 [ 0.0000000000e+00  3.2605677334e-16  0.0000000000e+00  0.0000000000e+00  0.0000000000e+00 -9.4560597842e-01  2.9283137561e-01 -1.4170080814e-01]
 [ 0.0000000000e+00  9.1122365098e-18  0.0000000000e+00  0.0000000000e+00  0.0000000000e+00  2.7757483664e-01  4.9912073369e-01 -8.2087191648e-01]
 [ 0.0000000000e+00  4.4329579018e-17  0.0000000000e+00  0.0000000000e+00  0.0000000000e+00 -1.6965124118e-01 -8.1555397041e-01 -5.5325417098e-01]]
detC -0.9999999999999998
detNg [ 1.0008955904  1.0238235524  1.1389212638  1.4910946134  2.4440377096  4.9558084798  9.7015378317 12.3912615067]
xg [0.9991052109 0.9767308025 0.8780238211 0.6706482547 0.4091589897 0.2017834232 0.1030764418 0.0807020334]
ciS 1.0798072443385713
[[-0.7662420123  0.           -0.0009956362 -0.0055316476  0.0551723921  0.            0.            0.          ]
 [ 0.           -0.7662420123  0.            0.            0.            0.054438567   0.0069643182  0.0079701922]
 [-0.0009956362  0.            0.4086083264 -0.0211011706 -0.0298967922  0.            0.            0.          ]
 [-0.0055316476  0.           -0.0211011706  0.2889413633 -0.1743839028  0.            0.            0.          ]
 [ 0.0551723921  0.           -0.0298967922 -0.1743839028 -0.7043380639  0.            0.            0.          ]
 [ 0.            0.054438567   0.            0.            0.           -0.6515817477  0.120686439  -0.2642614505]
 [ 0.            0.0069643182  0.            0.            0.            0.120686439   0.3131551328  0.0656891728]
 [ 0.            0.0079701922  0.            0.            0.           -0.2642614505  0.0656891728  0.3316382407]]
ciH -1.3762059921027052
0.9999999999999999 -4.6349642873755315e-18 -0.028706302644300272j 8.673617379884035e-17
0.5399751287793523 0.0004120259057530805 -0.0004120259057530804 0.4600248712206475
0.9999999999999998 -4.466912950640278e-17 -0.14790863679661276j -8.673617379884035e-19
0.5418275620056395 0.01093848241951616 -0.010938482419516157 0.45817243799436
1.0 -8.304988641238964e-17 -0.35537885587105345j 3.469446951953614e-18
0.551760650110869 0.06314706560010949 -0.06314706560010949 0.44823934988913083
0.9999999999999998 -1.700029006457271e-16 -0.6577646081167285j 3.5561831257524545e-17
0.5887202429278546 0.2163271398454767 -0.21632713984547672 0.4112797570721449
0.9999999999999999 -2.502338614096544e-16 -1.078135144344914j -2.949029909160572e-17
0.7383571173754394 0.5811876947358146 -0.5811876947358144 0.2616428826245603
0.9999999999999998 -2.671474153004283e-16 -1.546366376148837j 7.28583859910259e-17
1.480034464395243 1.1956244846418436 -1.1956244846418436 -0.48003446439524355
0.9999999999999997 -1.6306400674181987e-16 -1.401551304517514j 3.7816971776294395e-16
4.25572238635717 0.9821730295973728 -0.9821730295973727 -3.2557223863571707
0.9999999999999998 2.168404344971009e-18 -0.3553890199510275j 4.614364446098307e-16
6.62693629295119 0.06315067775087592 -0.06315067775087592 -5.62693629295119
S2 = 0.000000
X(g)
[[ 2.0000000000e+00 -1.0408340856e-17 -8.0829505074e-06 -4.7249251189e-05 -2.5935656729e-04  2.8690049299e-02 -4.0766114183e-03  7.4688134578e-03]
 [ 1.0408340856e-17  2.0000000000e+00 -9.1709975648e-04 -5.3609479260e-03 -2.9426858977e-02 -2.5286262144e-04  3.5929622813e-05 -6.5827135056e-05]
 [-8.0829505074e-06  9.1709975648e-04  0.0000000000e+00  0.0000000000e+00  0.0000000000e+00  0.0000000000e+00  0.0000000000e+00  0.0000000000e+00]
 [-4.7249251189e-05  5.3609479260e-03  0.0000000000e+00  0.0000000000e+00  0.0000000000e+00  0.0000000000e+00  0.0000000000e+00  0.0000000000e+00]
 [-2.5935656729e-04  2.9426858977e-02  0.0000000000e+00  0.0000000000e+00  0.0000000000e+00  0.0000000000e+00  0.0000000000e+00  0.0000000000e+00]
 [-2.8690049299e-02 -2.5286262144e-04  0.0000000000e+00  0.0000000000e+00  0.0000000000e+00  0.0000000000e+00  0.0000000000e+00  0.0000000000e+00]
 [ 4.0766114183e-03  3.5929622813e-05  0.0000000000e+00  0.0000000000e+00  0.0000000000e+00  0.0000000000e+00  0.0000000000e+00  0.0000000000e+00]
 [-7.4688134578e-03 -6.5827135056e-05  0.0000000000e+00  0.0000000000e+00  0.0000000000e+00  0.0000000000e+00  0.0000000000e+00  0.0000000000e+00]]
X(g) int
[[ 2.0000000000e+00 -2.0230016914e-16 -7.6911813146e-03 -4.4959146730e-02 -2.4678592085e-01  6.6892355588e-01 -9.5048334616e-02  1.7413930539e-01]
 [ 2.1577518996e-16  2.0000000000e+00 -2.1382662114e-02 -1.2499331431e-01 -6.8610266021e-01 -2.4060672738e-01  3.4188164751e-02 -6.2636586809e-02]
 [-7.6911813146e-03  2.1382662114e-02  0.0000000000e+00  0.0000000000e+00  0.0000000000e+00  0.0000000000e+00  0.0000000000e+00  0.0000000000e+00]
 [-4.4959146730e-02  1.2499331431e-01  0.0000000000e+00  0.0000000000e+00  0.0000000000e+00  0.0000000000e+00  0.0000000000e+00  0.0000000000e+00]
 [-2.4678592085e-01  6.8610266021e-01  0.0000000000e+00  0.0000000000e+00  0.0000000000e+00  0.0000000000e+00  0.0000000000e+00  0.0000000000e+00]
 [-6.6892355588e-01 -2.4060672738e-01  0.0000000000e+00  0.0000000000e+00  0.0000000000e+00  0.0000000000e+00  0.0000000000e+00  0.0000000000e+00]
 [ 9.5048334616e-02  3.4188164751e-02  0.0000000000e+00  0.0000000000e+00  0.0000000000e+00  0.0000000000e+00  0.0000000000e+00  0.0000000000e+00]
 [-1.7413930539e-01 -6.2636586809e-02  0.0000000000e+00  0.0000000000e+00  0.0000000000e+00  0.0000000000e+00  0.0000000000e+00  0.0000000000e+00]]
Feff
 [[ 5.6507078797e-16 -2.2822622637e-17 -3.6264232044e-03 -9.7719953259e-04  1.7042361597e-03  1.3128348180e-02 -8.3213581774e-03  2.5358491930e-02]
 [-1.0727912455e-17  6.8396474154e-16 -2.0030512455e-02 -1.3582682206e-02 -1.7289909071e-02  2.3592511102e-03  2.1759904245e-04 -3.3759250477e-03]
 [-3.6264232044e-03  2.0030512455e-02  0.0000000000e+00  0.0000000000e+00  0.0000000000e+00  0.0000000000e+00  0.0000000000e+00  0.0000000000e+00]
 [-9.7719953259e-04  1.3582682206e-02  0.0000000000e+00  0.0000000000e+00  0.0000000000e+00  0.0000000000e+00  0.0000000000e+00  0.0000000000e+00]
 [ 1.7042361597e-03  1.7289909071e-02  0.0000000000e+00  0.0000000000e+00  0.0000000000e+00  0.0000000000e+00  0.0000000000e+00  0.0000000000e+00]
 [-1.3128348180e-02  2.3592511102e-03  0.0000000000e+00  0.0000000000e+00  0.0000000000e+00  0.0000000000e+00  0.0000000000e+00  0.0000000000e+00]
 [ 8.3213581774e-03  2.1759904245e-04  0.0000000000e+00  0.0000000000e+00  0.0000000000e+00  0.0000000000e+00  0.0000000000e+00  0.0000000000e+00]
 [-2.5358491930e-02 -3.3759250477e-03  0.0000000000e+00  0.0000000000e+00  0.0000000000e+00  0.0000000000e+00  0.0000000000e+00  0.0000000000e+00]]
Feff (ortho)
 [[-1.6423782864e-03  2.2713925168e-04 -1.3062061373e-03  2.7175607100e-03  1.9081958236e-17 -3.2092384306e-17 -3.4694469520e-17  2.4286128664e-17]
 [ 2.2713925168e-04  5.6348268232e-04  1.0762034712e-03 -2.1458155214e-03 -4.9439619065e-17 -3.4694469520e-18  2.9056618223e-17 -1.3877787808e-17]
 [-1.3062061373e-03  1.0762034712e-03  3.0932745416e-04 -5.0321475883e-04  6.0715321659e-18  8.2399365109e-18  2.8189256485e-18 -3.6862873865e-18]
 [ 2.7175607100e-03 -2.1458155214e-03 -5.0321475883e-04  7.6956814991e-04 -3.1225022568e-17 -2.7755575616e-17 -8.6736173799e-19  7.5894152074e-18]
 [ 1.9081958236e-17 -4.9439619065e-17  6.0715321659e-18 -3.1225022568e-17 -1.6423782864e-03 -2.2713925168e-04 -1.3062061373e-03 -2.7175607100e-03]
 [-3.2092384306e-17 -3.4694469520e-18  8.2399365109e-18 -2.7755575616e-17 -2.2713925168e-04  5.6348268232e-04 -1.0762034712e-03 -2.1458155214e-03]
 [-3.4694469520e-17  2.9056618223e-17  2.8189256485e-18 -8.6736173799e-19 -1.3062061373e-03 -1.0762034712e-03  3.0932745416e-04  5.0321475883e-04]
 [ 2.4286128664e-17 -1.3877787808e-17 -3.6862873865e-18  7.5894152074e-18 -2.7175607100e-03 -2.1458155214e-03  5.0321475883e-04  7.6956814991e-04]]
Hsp + Hph =  -1.274492275652115
Feff (mod,ortho)
[[-0.2317673778  0.330767483   0.2234860663  0.0367442925  0.            0.            0.            0.          ]
 [ 0.330767483   0.0028145471  0.0726401881  0.3319698847  0.            0.            0.            0.          ]
 [ 0.2234860663  0.0726401881  1.1202617637  0.0506542407  0.            0.            0.            0.          ]
 [ 0.0367442925  0.3319698847  0.0506542407  1.1154900681  0.            0.            0.            0.          ]
 [ 0.            0.            0.            0.           -0.2317673778 -0.330767483   0.2234860663 -0.0367442925]
 [ 0.            0.            0.            0.           -0.330767483   0.0028145471 -0.0726401881  0.3319698847]
 [ 0.            0.            0.            0.            0.2234860663 -0.0726401881  1.1202617637 -0.0506542407]
 [ 0.            0.            0.            0.           -0.0367442925  0.3319698847 -0.0506542407  1.1154900681]]
Alpha occ 1 vir 3; Beta occ 1 vir 3
Alpha energies:  [-0.4950424854] <- HOMO
         LUMO->  [0.1210952317 1.0986655487 1.2820807062]
Beta energies:   [-0.4950424854] <- HOMO
         LUMO->  [0.1210952317 1.0986655487 1.2820807062]
e_a, e_b
 [-0.4950424854  0.1210952317  1.0986655487  1.2820807062] 
 [-0.4950424854  0.1210952317  1.0986655487  1.2820807062]
v_a, v_b
 [[ 0.7974915584 -0.5736705522  0.0914127488  0.1629509779]
 [-0.5875665017 -0.7561938732 -0.100614062   0.2698392906]
 [-0.0872278145  0.1698559336  0.7911459207  0.5810580025]
 [ 0.1056604407  0.2649941235 -0.596329315   0.7503368136]] 
 [[ 0.7974915584  0.5736705522 -0.0914127488  0.1629509779]
 [ 0.5875665017 -0.7561938732 -0.100614062  -0.2698392906]
 [-0.0872278145 -0.1698559336 -0.7911459207  0.5810580025]
 [-0.1056604407  0.2649941235 -0.596329315  -0.7503368136]]
P_a, P_b
 [[ 0.6359927857 -0.4685793251 -0.0695634458  0.0842633095]
 [-0.4685793251  0.3452343939  0.0512521418 -0.0620825355]
 [-0.0695634458  0.0512521418  0.0076086916 -0.0092165293]
 [ 0.0842633095 -0.0620825355 -0.0092165293  0.0111641287]] 
 [[ 0.6359927857  0.4685793251 -0.0695634458 -0.0842633095]
 [ 0.4685793251  0.3452343939 -0.0512521418 -0.0620825355]
 [-0.0695634458 -0.0512521418  0.0076086916  0.0092165293]
 [-0.0842633095 -0.0620825355  0.0092165293  0.0111641287]]
time for xg, H, S2, Yg, Feff: 0.024
 E =     -1.00990367, delta E = -0.000413038, MaxD(dm) =  0.0025053, RMSD(dm) = 0.00123863
**** Start Cycle 3 ****
dm (ortho)
[[[ 0.6359927857 -0.4685793251 -0.0695634458  0.0842633095]
  [-0.4685793251  0.3452343939  0.0512521418 -0.0620825355]
  [-0.0695634458  0.0512521418  0.0076086916 -0.0092165293]
  [ 0.0842633095 -0.0620825355 -0.0092165293  0.0111641287]]

 [[ 0.6359927857  0.4685793251 -0.0695634458 -0.0842633095]
  [ 0.4685793251  0.3452343939 -0.0512521418 -0.0620825355]
  [-0.0695634458 -0.0512521418  0.0076086916  0.0092165293]
  [-0.0842633095 -0.0620825355  0.0092165293  0.0111641287]]]
Fock (ortho)
 (array([[-0.2364629329,  0.3286842211,  0.21724542  ,  0.0271364021],
       [ 0.3286842211,  0.0096475354,  0.078571497 ,  0.3387525615],
       [ 0.21724542  ,  0.078571497 ,  1.1222633262,  0.0510834219],
       [ 0.0271364021,  0.3387525615,  0.0510834219,  1.1132570917]]), array([[-0.2364629329, -0.3286842211,  0.21724542  , -0.0271364021],
       [-0.3286842211,  0.0096475354, -0.078571497 ,  0.3387525615],
       [ 0.21724542  , -0.078571497 ,  1.1222633262, -0.0510834219],
       [-0.0271364021,  0.3387525615, -0.0510834219,  1.1132570917]]))
E1 = -1.5330578051195316  Ecoul = 0.271808665842615
E(UHF) =    -1.261249
NO eigenvalue
[-1.0000000000e+00 -1.2207582626e-17 -4.7605002794e-20  1.0173198999e-17] 
 [-1.0000000000e+00  6.0441507303e-20  1.4696081038e-18  1.6727240564e-16]
NO vec
[[ 0.7974915584  0.           -0.403958784  -0.0706119906  0.4425363961  0.            0.            0.          ]
 [-0.5875665017  0.           -0.6608070936  0.0525980537  0.4640399076  0.            0.            0.          ]
 [-0.0872278145  0.           -0.008232621  -0.9961112956 -0.00926386    0.            0.            0.          ]
 [ 0.1056604407  0.           -0.6325215489  0.0031109985 -0.7672956947  0.            0.            0.          ]
 [ 0.            0.7974915584  0.            0.            0.           -0.0281651897 -0.0286756308 -0.6019897379]
 [ 0.            0.5875665017  0.            0.            0.            0.0159985701 -0.1889740111  0.7866374482]
 [ 0.           -0.0872278145  0.            0.            0.            0.7065579713 -0.6926756894 -0.1156180385]
 [ 0.           -0.1056604407  0.            0.            0.           -0.7069134325 -0.6954616601 -0.0737722822]]
dm(NO)
[[ 1.0000000000e+00  0.0000000000e+00  4.4237920701e-17  9.9903447218e-18  4.0563837914e-18  0.0000000000e+00  0.0000000000e+00  0.0000000000e+00]
 [ 0.0000000000e+00  1.0000000000e+00  0.0000000000e+00  0.0000000000e+00  0.0000000000e+00  8.1192303202e-18  1.4093163479e-17  1.8820601348e-18]
 [ 8.5732983296e-17  0.0000000000e+00 -1.8613670857e-17  2.0666754653e-18  1.2742054916e-17  0.0000000000e+00  0.0000000000e+00  0.0000000000e+00]
 [ 2.6485088804e-18  0.0000000000e+00  3.5568085277e-19  6.7984526296e-19 -1.8209588523e-18  0.0000000000e+00  0.0000000000e+00  0.0000000000e+00]
 [-1.8617831279e-17  0.0000000000e+00 -7.9301263817e-19 -2.0071833802e-18  2.4259124864e-18  0.0000000000e+00  0.0000000000e+00  0.0000000000e+00]
 [ 0.0000000000e+00  1.3545192528e-17  0.0000000000e+00  0.0000000000e+00  0.0000000000e+00 -1.4124279159e-19  4.5001247957e-19  1.2255614373e-18]
 [ 0.0000000000e+00  5.3654919134e-18  0.0000000000e+00  0.0000000000e+00  0.0000000000e+00  9.6871124455e-19 -2.2078385102e-18  3.8463199961e-18]
 [ 0.0000000000e+00  8.0134042380e-17  0.0000000000e+00  0.0000000000e+00  0.0000000000e+00  3.3334828155e-18  6.2489218071e-18 -1.7507656025e-17]]
0.9999999999999986
0.999999999999998
0.999999999999998
0.9999999999999983
0.9999999999999991
0.9999999999999986
0.9999999999999978
0.9999999999999986
D(g) (NO)
 [[ 9.9951368521e-01  8.9559122983e-03 -6.5159182560e-17 -8.5575604791e-18  1.4133746478e-16 -5.2445812179e-03  2.3419852080e-03 -2.9312014308e-02]
 [-8.9559122983e-03  9.9951368521e-01  2.0046793087e-02 -1.9069251777e-03 -2.2060698832e-02  8.2158919175e-18  6.6151230947e-18  3.3616202343e-17]
 [-3.8131831187e-17 -2.0046793087e-02  9.9951368521e-01 -1.1375644020e-17  1.5367130511e-16  1.3786935145e-02  1.8150384119e-02 -7.1416480811e-03]
 [-9.3470768633e-18  1.9069251777e-03 -1.6699862190e-17  9.9951368521e-01  9.0178553934e-17 -2.1927392951e-02  2.1201584451e-02  6.1999166329e-03]
 [ 1.2013812940e-16  2.2060698832e-02  1.9221243987e-16  8.3629406746e-17  9.9951368521e-01  1.6552863808e-02  1.3710016526e-02  4.8740935970e-03]
 [ 5.2445812179e-03  1.4762902866e-17 -1.3786935145e-02  2.1927392951e-02 -1.6552863808e-02  9.9951368521e-01 -7.4850206740e-17 -1.8648772868e-17]
 [-2.3419852080e-03  1.3877787808e-17 -1.8150384119e-02 -2.1201584451e-02 -1.3710016526e-02 -1.1102230246e-16  9.9951368521e-01 -1.3877787808e-17]
 [ 2.9312014308e-02  1.1102230246e-16  7.1416480811e-03 -6.1999166329e-03 -4.8740935970e-03 -1.3877787808e-17 -2.7755575616e-17  9.9951368521e-01]]
N(g) (NO)
 [[ 1.0004062324 -0.0089639098]
 [ 0.0089639098  1.0004062324]]
P(g) (NO)
 [[ 1.0000000000e+00  2.1560722272e-18  4.4237920701e-17  9.9903447218e-18  4.0563837914e-18  1.1320998376e-35  2.4074124305e-35  3.0092655381e-36]
 [ 8.1202437517e-19  1.0000000000e+00 -6.7237989119e-36  7.4872916180e-38  6.4511763116e-36  8.1192303202e-18  1.4093163479e-17  1.8820601348e-18]
 [-1.7969764424e-04 -2.0054936743e-02 -7.9494501360e-21 -1.7952414116e-21 -7.2892261143e-22 -1.6283065047e-19 -2.8263750207e-19 -3.7744596950e-20]
 [ 1.7093505215e-05  1.9076998324e-03  7.5618112822e-22  1.7077000960e-22  6.9337817493e-23  1.5489054321e-20  2.6885525607e-20  3.5904058039e-21]
 [ 1.9775011361e-04  2.2069660602e-02  8.7480538444e-21  1.9755918037e-21  8.0215035557e-22  1.7918865751e-19  3.1103133477e-19  4.1536428408e-20]
 [ 5.2467117365e-03 -4.7011952774e-05  2.3210361774e-19  5.2416458903e-20  2.1282676446e-20 -3.8170087238e-22 -6.6254713589e-22 -8.8479322178e-23]
 [-2.3429365982e-03  2.0993344067e-05 -1.0364664344e-19 -2.3406744277e-20 -9.5038500410e-21  1.7044979567e-22  2.9586262990e-22  3.9510735966e-23]
 [ 2.9323921797e-02 -2.6275025119e-04  1.2972293271e-18  2.9295608734e-19  1.1894908107e-19 -2.1333298061e-21 -3.7029822440e-21 -4.9451177317e-22]]
time for NO, Ng: 0.016
Pg_ortho
 [[ 6.3611950316e-01 -4.6867268652e-01 -6.9577305819e-02  8.4280098463e-02  1.4142148634e-02  1.0419486843e-02 -1.5468360828e-03 -1.8737071784e-03]
 [-4.6841072861e-01  3.4511017739e-01  5.1233701139e-02 -6.2060198016e-02  1.8816007077e-02  1.3863037594e-02 -2.0580520990e-03 -2.4929512792e-03]
 [-6.9577305819e-02  5.1262353500e-02  7.6102076119e-03 -9.2183656625e-03 -1.5468360828e-03 -1.1396597950e-03  1.6918941590e-04  2.0494183360e-04]
 [ 8.4232991304e-02 -6.2060198016e-02 -9.2132131885e-03  1.1160111843e-02 -3.3836299292e-03 -2.4929512792e-03  3.7009375313e-04  4.4830045640e-04]
 [-1.4142148634e-02  1.0419486843e-02  1.5468360828e-03 -1.8737071784e-03  6.3611950316e-01  4.6867268652e-01 -6.9577305819e-02 -8.4280098463e-02]
 [ 1.8816007077e-02 -1.3863037594e-02 -2.0580520990e-03  2.4929512792e-03  4.6841072861e-01  3.4511017739e-01 -5.1233701139e-02 -6.2060198016e-02]
 [ 1.5468360828e-03 -1.1396597950e-03 -1.6918941590e-04  2.0494183360e-04 -6.9577305819e-02 -5.1262353500e-02  7.6102076119e-03  9.2183656625e-03]
 [-3.3836299292e-03  2.4929512792e-03  3.7009375313e-04 -4.4830045640e-04 -8.4232991304e-02 -6.2060198016e-02  9.2132131885e-03  1.1160111843e-02]]
G(g) (NO)
 [[ 2.7182187537e-01 -1.4742329413e-03 -2.5823788822e-02 -2.5077991396e-03  4.3544655299e-02 -7.6704262711e-05  5.2254286778e-04 -3.5120263953e-04]
 [ 1.4742329413e-03  2.7182187537e-01  5.0493568996e-04 -3.8073065448e-04 -4.8600456206e-05 -1.1883355994e-02 -7.3188398967e-03 -4.8728990998e-02]
 [-2.5772955582e-02  1.5513850833e-02  9.8854532836e-01  1.3209562901e-01 -7.3104449641e-02  8.0543245538e-04 -6.1324121097e-03  9.9131189739e-04]
 [-2.5142953126e-03  2.9116037466e-03  1.3209356100e-01  8.1904688000e-01 -4.9830923869e-02  3.5161253640e-04 -3.1230253674e-03  5.3353411612e-04]
 [ 4.3498756795e-02 -1.1748861518e-02 -7.3109515886e-02 -4.9832678396e-02  7.0231661690e-01 -5.3454200284e-04  2.0616054712e-03 -7.9741650823e-04]
 [ 2.0427412112e-03 -1.1874605910e-02  2.1271072725e-03 -2.7377991269e-03  1.2509011180e-03  8.1696181773e-01 -1.2303501395e-02 -1.8350910223e-01]
 [ 1.1305776916e-03 -7.3304886824e-03  5.8365428092e-06 -1.4794333204e-04  2.6272464050e-04 -1.2302748868e-02  7.3967404082e-01 -2.1590435744e-02]
 [-1.9538212646e-02 -4.8661755344e-02 -3.9054427917e-03  4.8872558397e-03 -1.3257904230e-03 -1.8351456516e-01 -2.1592051881e-02  9.5327296672e-01]]
time for Gg: 0.022
C(NO)
[[ 1.0000000000e+00  0.0000000000e+00 -2.1578050884e-16  6.1054818900e-17  1.5105656204e-16  0.0000000000e+00  0.0000000000e+00  0.0000000000e+00]
 [ 0.0000000000e+00  1.0000000000e+00  0.0000000000e+00  0.0000000000e+00  0.0000000000e+00  4.5053574617e-16  7.6327832943e-17 -2.7755575616e-17]
 [ 3.5459920862e-17  0.0000000000e+00  5.6242468123e-01  4.0023744053e-01 -7.2352503008e-01  0.0000000000e+00  0.0000000000e+00  0.0000000000e+00]
 [ 1.0033518499e-17  0.0000000000e+00 -1.6763732413e-01 -8.0167150774e-01 -5.7377741436e-01  0.0000000000e+00  0.0000000000e+00  0.0000000000e+00]
 [-6.5919830457e-18  0.0000000000e+00 -8.0967660551e-01  4.4399637935e-01 -3.8378510865e-01  0.0000000000e+00  0.0000000000e+00  0.0000000000e+00]
 [ 0.0000000000e+00  3.1807412743e-17  0.0000000000e+00  0.0000000000e+00  0.0000000000e+00 -3.3559652993e-01 -1.3647227749e-01  9.3206774785e-01]
 [ 0.0000000000e+00 -4.0109427904e-18  0.0000000000e+00  0.0000000000e+00  0.0000000000e+00  5.9812447251e-02  9.8436648258e-01  1.6566562448e-01]
 [ 0.0000000000e+00  8.9642030012e-17  0.0000000000e+00  0.0000000000e+00  0.0000000000e+00 -9.4010501554e-01  1.1134606171e-01 -3.2218723483e-01]]
detC 0.9999999999999998
detNg [ 1.0008929814  1.0237525651  1.1384609372  1.4889663308  2.4338084505  4.89939833    9.4619009517 11.9936114546]
xg [0.9991078153 0.9767985293 0.8783788423 0.6716068586 0.4108786785 0.2041066949 0.1056870078 0.0833777219]
ciS 1.0824855371541175
[[-0.7665289026  0.            0.0382668505  0.0109481936 -0.0381840106  0.            0.            0.          ]
 [ 0.           -0.7665289026  0.            0.            0.           -0.0024412373  0.004025318   0.0549551693]
 [ 0.0382668505  0.           -0.1021017142  0.036806152   0.5690511773  0.            0.            0.          ]
 [ 0.0109481936  0.            0.036806152   0.3130328531 -0.0425761074  0.            0.            0.          ]
 [-0.0381840106  0.            0.5690511773 -0.0425761074 -0.2174326229  0.            0.            0.          ]
 [ 0.           -0.0024412373  0.            0.            0.            0.3315935705  0.0602303521 -0.1806583427]
 [ 0.            0.004025318   0.            0.            0.            0.0602303521  0.3606282851  0.0667569001]
 [ 0.            0.0549551693  0.            0.            0.           -0.1806583427  0.0667569001 -0.6987233396]]
ciH -1.3796559397301418
0.9999999999999998 9.093745721722168e-18 -0.028622676100253645j 8.673617379884035e-19
0.5413164595162997 0.0004096287935700157 -0.0004096287935700156 0.4586835404837
0.9999999999999998 3.8055496254241206e-17 -0.1474679116978418j -2.7798943702528334e-16
0.5432252801945645 0.010873392490261232 -0.010873392490261232 0.45677471980543505
0.9999999999999999 1.231653667943533e-16 -0.35420127981902355j -5.811323644522304e-17
0.5534544762542675 0.06272927331271709 -0.0627292733127171 0.44654552374573236
0.9999999999999998 2.909998630951094e-16 -0.6549140189796216j -1.3183898417423734e-16
0.5914360730738374 0.21445618612802017 -0.21445618612802012 0.40856392692616195
0.9999999999999997 2.3288662664988635e-16 -1.0704978620388108j -7.502679033599691e-17
0.7442983876439104 0.5729828363148325 -0.5729828363148324 0.255701612356089
0.9999999999999997 1.734723475976807e-16 -1.5243150661737421j -9.540979117872439e-18
1.4899957060014266 1.1617682104821296 -1.1617682104821296 -0.48999570600142744
1.0000000000000002 1.491862189340054e-16 -1.3629531408004818j 3.5214886562329184e-16
4.192364835081477 0.9288206320089489 -0.9288206320089489 -3.1923648350814777
1.0000000000000002 1.496198998029996e-16 -0.3429829785108725j 5.152128723651117e-16
6.432636807126523 0.058818661774094796 -0.0588186617740948 -5.4326368071265225
S2 = 0.000000
X(g)
[[ 2.0000000000e+00  3.4694469520e-18 -1.7969764424e-04  1.7093505215e-05  1.9775011361e-04 -5.2467117365e-03  2.3429365982e-03 -2.9323921797e-02]
 [-1.7347234760e-18  2.0000000000e+00  2.0054936743e-02 -1.9076998324e-03 -2.2069660602e-02 -4.7011952774e-05  2.0993344067e-05 -2.6275025119e-04]
 [-1.7969764424e-04 -2.0054936743e-02  0.0000000000e+00  0.0000000000e+00  0.0000000000e+00  0.0000000000e+00  0.0000000000e+00  0.0000000000e+00]
 [ 1.7093505215e-05  1.9076998324e-03  0.0000000000e+00  0.0000000000e+00  0.0000000000e+00  0.0000000000e+00  0.0000000000e+00  0.0000000000e+00]
 [ 1.9775011361e-04  2.2069660602e-02  0.0000000000e+00  0.0000000000e+00  0.0000000000e+00  0.0000000000e+00  0.0000000000e+00  0.0000000000e+00]
 [ 5.2467117365e-03 -4.7011952774e-05  0.0000000000e+00  0.0000000000e+00  0.0000000000e+00  0.0000000000e+00  0.0000000000e+00  0.0000000000e+00]
 [-2.3429365982e-03  2.0993344067e-05  0.0000000000e+00  0.0000000000e+00  0.0000000000e+00  0.0000000000e+00  0.0000000000e+00  0.0000000000e+00]
 [ 2.9323921797e-02 -2.6275025119e-04  0.0000000000e+00  0.0000000000e+00  0.0000000000e+00  0.0000000000e+00  0.0000000000e+00  0.0000000000e+00]]
X(g) int
[[ 2.0000000000e+00  7.2434505495e-17 -1.7056533836e-01  1.6224806470e-02  1.8770037405e-01 -1.2202748640e-01  5.4491780419e-02 -6.8201278209e-01]
 [-1.8548709747e-17  2.0000000000e+00  4.6643567315e-01 -4.4369088117e-02 -5.1329391515e-01 -4.4622786604e-02  1.9926453958e-02 -2.4939717873e-01]
 [-1.7056533836e-01 -4.6643567315e-01  0.0000000000e+00  0.0000000000e+00  0.0000000000e+00  0.0000000000e+00  0.0000000000e+00  0.0000000000e+00]
 [ 1.6224806470e-02  4.4369088117e-02  0.0000000000e+00  0.0000000000e+00  0.0000000000e+00  0.0000000000e+00  0.0000000000e+00  0.0000000000e+00]
 [ 1.8770037405e-01  5.1329391515e-01  0.0000000000e+00  0.0000000000e+00  0.0000000000e+00  0.0000000000e+00  0.0000000000e+00  0.0000000000e+00]
 [ 1.2202748640e-01 -4.4622786604e-02  0.0000000000e+00  0.0000000000e+00  0.0000000000e+00  0.0000000000e+00  0.0000000000e+00  0.0000000000e+00]
 [-5.4491780419e-02  1.9926453958e-02  0.0000000000e+00  0.0000000000e+00  0.0000000000e+00  0.0000000000e+00  0.0000000000e+00  0.0000000000e+00]
 [ 6.8201278209e-01 -2.4939717873e-01  0.0000000000e+00  0.0000000000e+00  0.0000000000e+00  0.0000000000e+00  0.0000000000e+00  0.0000000000e+00]]
Feff
 [[ 1.3217538526e-16  8.1946721571e-18 -1.5347968125e-03  1.6482698482e-04 -1.0802695657e-03  1.3278967450e-03  2.4690521178e-02 -1.8760792578e-02]
 [-1.1067544463e-17 -1.2768697106e-16  2.7546799544e-02 -1.4268507504e-02 -9.6747735949e-04  1.1605562908e-03  1.4448371813e-03 -3.3956757886e-04]
 [-1.5347968125e-03 -2.7546799544e-02  0.0000000000e+00  0.0000000000e+00  0.0000000000e+00  0.0000000000e+00  0.0000000000e+00  0.0000000000e+00]
 [ 1.6482698482e-04  1.4268507504e-02  0.0000000000e+00  0.0000000000e+00  0.0000000000e+00  0.0000000000e+00  0.0000000000e+00  0.0000000000e+00]
 [-1.0802695657e-03  9.6747735949e-04  0.0000000000e+00  0.0000000000e+00  0.0000000000e+00  0.0000000000e+00  0.0000000000e+00  0.0000000000e+00]
 [-1.3278967450e-03  1.1605562908e-03  0.0000000000e+00  0.0000000000e+00  0.0000000000e+00  0.0000000000e+00  0.0000000000e+00  0.0000000000e+00]
 [-2.4690521178e-02  1.4448371813e-03  0.0000000000e+00  0.0000000000e+00  0.0000000000e+00  0.0000000000e+00  0.0000000000e+00  0.0000000000e+00]
 [ 1.8760792578e-02 -3.3956757886e-04  0.0000000000e+00  0.0000000000e+00  0.0000000000e+00  0.0000000000e+00  0.0000000000e+00  0.0000000000e+00]]
Feff (ortho)
 [[ 2.0782198115e-04  3.3940211584e-04 -1.2424501918e-04  1.4494044116e-03  1.5612511284e-17  6.3317406873e-17 -2.7755575616e-17 -2.1684043450e-17]
 [ 3.3940211584e-04 -6.1293293453e-04  3.7669208593e-05 -1.0026209326e-03  5.3776427755e-17  3.4694469520e-18  1.4311468677e-17  6.5052130349e-18]
 [-1.2424501918e-04  3.7669208593e-05  2.4693000122e-05 -1.7198224059e-04  2.7755575616e-17  1.4745149546e-17  0.0000000000e+00 -1.5178830415e-18]
 [ 1.4494044116e-03 -1.0026209326e-03 -1.7198224059e-04  3.8041795326e-04 -1.1709383463e-16 -8.0230960764e-17  9.1072982489e-18  1.2793585635e-17]
 [ 1.5612511284e-17  5.3776427755e-17  2.7755575616e-17 -1.1709383463e-16  2.0782198115e-04 -3.3940211584e-04 -1.2424501918e-04 -1.4494044116e-03]
 [ 6.3317406873e-17  3.4694469520e-18  1.4745149546e-17 -8.0230960764e-17 -3.3940211584e-04 -6.1293293453e-04 -3.7669208593e-05 -1.0026209326e-03]
 [-2.7755575616e-17  1.4311468677e-17  0.0000000000e+00  9.1072982489e-18 -1.2424501918e-04 -3.7669208593e-05  2.4693000122e-05  1.7198224059e-04]
 [-2.1684043450e-17  6.5052130349e-18 -1.5178830415e-18  1.2793585635e-17 -1.4494044116e-03 -1.0026209326e-03  1.7198224059e-04  3.8041795326e-04]]
Hsp + Hph =  -1.274525979679408
Feff (mod,ortho)
[[-0.2310739402  0.3313317711  0.223666772   0.0384629739  0.            0.            0.            0.          ]
 [ 0.3313317711  0.0028209801  0.0731165878  0.3312843263  0.            0.            0.            0.          ]
 [ 0.223666772   0.0731165878  1.1207941493  0.0507734134  0.            0.            0.            0.          ]
 [ 0.0384629739  0.3312843263  0.0507734134  1.1161638314  0.            0.            0.            0.          ]
 [ 0.            0.            0.            0.           -0.2310739402 -0.3313317711  0.223666772  -0.0384629739]
 [ 0.            0.            0.            0.           -0.3313317711  0.0028209801 -0.0731165878  0.3312843263]
 [ 0.            0.            0.            0.            0.223666772  -0.0731165878  1.1207941493 -0.0507734134]
 [ 0.            0.            0.            0.           -0.0384629739  0.3312843263 -0.0507734134  1.1161638314]]
Alpha occ 1 vir 3; Beta occ 1 vir 3
Alpha energies:  [-0.4947223317] <- HOMO
         LUMO->  [0.1214844235 1.0988027767 1.283140152 ]
Beta energies:   [-0.4947223317] <- HOMO
         LUMO->  [0.1214844235 1.0988027767 1.283140152 ]
e_a, e_b
 [-0.4947223317  0.1214844235  1.0988027767  1.283140152 ] 
 [-0.4947223317  0.1214844235  1.0988027767  1.283140152 ]
v_a, v_b
 [[ 0.7974155857 -0.5736013608  0.0906731316  0.1639763574]
 [-0.5878800685 -0.7560562714 -0.1003878331  0.269626079 ]
 [-0.0870821898  0.1702230952  0.7905455423  0.5817890817]
 [ 0.1046044975  0.2653007562 -0.5972758255  0.7496232361]] 
 [[ 0.7974155857  0.5736013608 -0.0906731316  0.1639763574]
 [ 0.5878800685 -0.7560562714 -0.1003878331 -0.269626079 ]
 [-0.0870821898 -0.1702230952 -0.7905455423  0.5817890817]
 [-0.1046044975  0.2653007562 -0.5972758255 -0.7496232361]]
P_a, P_b
 [[ 0.6358716164 -0.4687847292 -0.0694406954  0.0834132566]
 [-0.4687847292  0.345602975   0.0511938837 -0.0614948992]
 [-0.0694406954  0.0511938837  0.0075833078 -0.0091091887]
 [ 0.0834132566 -0.0614948992 -0.0091091887  0.0109421009]] 
 [[ 0.6358716164  0.4687847292 -0.0694406954 -0.0834132566]
 [ 0.4687847292  0.345602975  -0.0511938837 -0.0614948992]
 [-0.0694406954 -0.0511938837  0.0075833078  0.0091091887]
 [-0.0834132566 -0.0614948992  0.0091091887  0.0109421009]]
time for xg, H, S2, Yg, Feff: 0.024
 E =     -1.00993737, delta E = -3.3704e-05, MaxD(dm) = 0.000850053, RMSD(dm) = 0.000393751
**** Start Cycle 4 ****
dm (ortho)
[[[ 0.6358716164 -0.4687847292 -0.0694406954  0.0834132566]
  [-0.4687847292  0.345602975   0.0511938837 -0.0614948992]
  [-0.0694406954  0.0511938837  0.0075833078 -0.0091091887]
  [ 0.0834132566 -0.0614948992 -0.0091091887  0.0109421009]]

 [[ 0.6358716164  0.4687847292 -0.0694406954 -0.0834132566]
  [ 0.4687847292  0.345602975  -0.0511938837 -0.0614948992]
  [-0.0694406954 -0.0511938837  0.0075833078  0.0091091887]
  [-0.0834132566 -0.0614948992  0.0091091887  0.0109421009]]]
Fock (ortho)
 (array([[-0.2362400512,  0.3289820046,  0.2172415354,  0.0275600898],
       [ 0.3289820046,  0.0097338328,  0.0788642211,  0.3386483747],
       [ 0.2172415354,  0.0788642211,  1.1224638275,  0.0511749333],
       [ 0.0275600898,  0.3386483747,  0.0511749333,  1.1134700019]]), array([[-0.2362400512, -0.3289820046,  0.2172415354, -0.0275600898],
       [-0.3289820046,  0.0097338328, -0.0788642211,  0.3386483747],
       [ 0.2172415354, -0.0788642211,  1.1224638275, -0.0511749333],
       [-0.0275600898,  0.3386483747, -0.0511749333,  1.1134700019]]))
E1 = -1.5330196374628733  Ecoul = 0.27182678607236144
E(UHF) =    -1.261193
NO eigenvalue
[-1.0000000000e+00 -2.1438190370e-17  2.1181842457e-19  1.8577812078e-17] 
 [-1.0000000000e+00 -5.6072307219e-17 -1.3972233245e-18  2.4396472955e-19]
NO vec
[[ 0.7974155857  0.            0.4110213808  0.0155872283  0.4415278547  0.            0.            0.          ]
 [-0.5878800685  0.            0.686308604   0.0841723665  0.4198720494  0.            0.            0.          ]
 [-0.0870821898  0.           -0.5287959701  0.5624017695  0.629679096   0.            0.            0.          ]
 [ 0.1046044975  0.            0.2835784664  0.8224209997 -0.481938639   0.            0.            0.          ]
 [ 0.            0.7974155857  0.            0.            0.            0.6003504797  0.0521895289  0.0313677892]
 [ 0.            0.5878800685  0.            0.            0.           -0.7905840766  0.1553989401 -0.0722842467]
 [ 0.           -0.0870821898  0.            0.            0.            0.114448261   0.5200544822 -0.8419392041]
 [ 0.           -0.1046044975  0.            0.            0.            0.0381800328  0.8382545903  0.53378781  ]]
dm(NO)
[[ 1.0000000000e+00  0.0000000000e+00 -7.1902941049e-17 -6.7823502600e-18 -9.3969992310e-17  0.0000000000e+00  0.0000000000e+00  0.0000000000e+00]
 [ 0.0000000000e+00  1.0000000000e+00  0.0000000000e+00  0.0000000000e+00  0.0000000000e+00 -1.4452879518e-16 -6.0670498439e-18  9.9247851287e-18]
 [-4.7730818560e-17  0.0000000000e+00 -4.1745988304e-18  2.6089240876e-18 -7.7445405816e-18  0.0000000000e+00  0.0000000000e+00  0.0000000000e+00]
 [-3.6798622751e-18  0.0000000000e+00  3.6750814944e-18  7.6371702945e-19  3.5362634891e-18  0.0000000000e+00  0.0000000000e+00  0.0000000000e+00]
 [-1.1041804366e-16  0.0000000000e+00  8.2811173397e-18  2.6021129128e-18 -2.0894587650e-18  0.0000000000e+00  0.0000000000e+00  0.0000000000e+00]
 [ 0.0000000000e+00 -1.1580658525e-16  0.0000000000e+00  0.0000000000e+00  0.0000000000e+00  2.1132139065e-17  7.5065703072e-18  3.0040949672e-18]
 [ 0.0000000000e+00 -1.3118958598e-17  0.0000000000e+00  0.0000000000e+00  0.0000000000e+00 -7.8984514034e-19  1.6847359071e-18 -2.8531590497e-19]
 [ 0.0000000000e+00  1.4214056375e-17  0.0000000000e+00  0.0000000000e+00  0.0000000000e+00  1.6755427995e-18  8.4441558810e-19  1.3395710605e-18]]
1.0000000000000002
1.0
0.9999999999999998
1.0000000000000002
1.0000000000000004
1.0000000000000004
1.0000000000000002
1.0000000000000002
D(g) (NO)
 [[ 9.9951368521e-01  8.9467722981e-03 -1.2689953327e-16 -1.1535454739e-17 -1.3005369062e-16  2.9235041580e-02 -2.2893093093e-04  6.1325585716e-03]
 [-8.9467722981e-03  9.9951368521e-01 -2.3312796064e-02  2.2792237264e-03 -1.8538258253e-02 -1.3564358796e-16  1.5991981028e-17  1.7074167838e-17]
 [-1.0355303391e-16  2.3312796064e-02  9.9951368521e-01  1.0318912907e-16  3.3141042772e-16 -1.0774441481e-02  2.8317754093e-03  1.7458495732e-02]
 [ 1.4587870086e-18 -2.2792237264e-03  1.0818142142e-16  9.9951368521e-01 -1.6147005379e-16  1.2029996676e-03  3.1051360404e-02 -1.2506089708e-03]
 [-1.1610677196e-16  1.8538258253e-02  2.9951315977e-16 -1.0948609621e-16  9.9951368521e-01 -4.1185087118e-04  3.6705647166e-04 -2.5068340673e-02]
 [-2.9235041580e-02 -7.9748253548e-17  1.0774441481e-02 -1.2029996676e-03  4.1185087118e-04  9.9951368521e-01 -2.7907086904e-17 -3.8910309631e-17]
 [ 2.2893093093e-04 -6.9388939039e-18 -2.8317754093e-03 -3.1051360404e-02 -3.6705647166e-04 -4.1633363423e-17  9.9951368521e-01  1.6653345369e-16]
 [-6.1325585716e-03  1.3877787808e-17 -1.7458495732e-02  1.2506089708e-03  2.5068340673e-02 -4.1633363423e-17  1.6653345369e-16  9.9951368521e-01]]
N(g) (NO)
 [[ 1.0004063962 -0.0089547631]
 [ 0.0089547631  1.0004063962]]
P(g) (NO)
 [[ 1.0000000000e+00  2.6901583339e-18 -7.1902941049e-17 -6.7823502600e-18 -9.3969992310e-17 -4.5763509842e-34 -2.4074124305e-35  2.4074124305e-35]
 [-5.6092231814e-18  1.0000000000e+00  3.8888143607e-34  4.7404922388e-35  5.8866992174e-34 -1.4452879518e-16 -6.0670498439e-18  9.9247851287e-18]
 [ 2.0876056516e-04  2.3322270296e-02 -1.5010498610e-20 -1.4158872734e-21 -1.9617228703e-20 -3.3707396267e-18 -1.4149737636e-19  2.3146852140e-19]
 [-2.0409908444e-05 -2.2801499943e-03  1.4675324437e-21  1.3842714785e-22  1.9179189396e-21  3.2954733150e-19  1.3833783667e-20 -2.2629998754e-20]
 [ 1.6600571031e-04  1.8545792131e-02 -1.1936298802e-20 -1.1259088725e-21 -1.5599555322e-20 -2.6804009923e-18 -1.1251824525e-19  1.8406300194e-19]
 [-2.9246922590e-02  2.6179287057e-04  2.1029397508e-18  1.9836287303e-19  2.7483330908e-18 -3.7836608171e-20 -1.5883103945e-21  2.5982379887e-21]
 [ 2.2902396759e-04 -2.0500222450e-06 -1.6467496841e-20 -1.5533207661e-21 -2.1521380473e-20  2.9628724516e-22  1.2437587141e-23 -2.0346030291e-23]
 [-6.1350508201e-03  5.4915608997e-05  4.4112819745e-19  4.1610063525e-20  5.7651067839e-19 -7.9368868050e-21 -3.3317573699e-22  5.4502561951e-22]]
time for NO, Ng: 0.014
Pg_ortho
 [[ 6.3599823245e-01 -4.6887807458e-01 -6.9454522530e-02  8.3429866069e-02  1.4145270817e-02  1.0428342418e-02 -1.5447417626e-03 -1.8555681282e-03]
 [-4.6861626925e-01  3.4547878097e-01  5.1175486928e-02 -6.1472800689e-02  1.8819971816e-02  1.3874680304e-02 -2.0552449517e-03 -2.4687925971e-03]
 [-6.9454522530e-02  5.1204077517e-02  7.5848177774e-03 -9.1110025421e-03 -1.5447417626e-03 -1.1388326358e-03  1.6869433920e-04  2.0263829645e-04]
 [ 8.3383281713e-02 -6.1472800689e-02 -9.1059152729e-03  1.0938168804e-02 -3.3487335262e-03 -2.4687925971e-03  3.6570021153e-04  4.3928485228e-04]
 [-1.4145270817e-02  1.0428342418e-02  1.5447417626e-03 -1.8555681282e-03  6.3599823245e-01  4.6887807458e-01 -6.9454522530e-02 -8.3429866069e-02]
 [ 1.8819971816e-02 -1.3874680304e-02 -2.0552449517e-03  2.4687925971e-03  4.6861626925e-01  3.4547878097e-01 -5.1175486928e-02 -6.1472800689e-02]
 [ 1.5447417626e-03 -1.1388326358e-03 -1.6869433920e-04  2.0263829645e-04 -6.9454522530e-02 -5.1204077517e-02  7.5848177774e-03  9.1110025421e-03]
 [-3.3487335262e-03  2.4687925971e-03  3.6570021153e-04 -4.3928485228e-04 -8.3383281713e-02 -6.1472800689e-02  9.1059152729e-03  1.0938168804e-02]]
G(g) (NO)
 [[ 2.7183994384e-01 -1.4699564463e-03  3.1641197890e-02 -9.3786657959e-03  3.8311686238e-02  3.6143265217e-04 -4.7715122484e-04  1.9928906774e-04]
 [ 1.4699564463e-03  2.7183994384e-01 -6.1581802428e-04 -5.4049560121e-05  1.2597536251e-04  4.8035751556e-02  1.1325225509e-02  1.1009810081e-02]
 [ 3.1584100661e-02 -1.4166030716e-02  8.2242582614e-01  1.1749895138e-01  8.7975966293e-02  8.1611155737e-04 -3.5414857135e-03  1.4620407340e-03]
 [-9.3778950481e-03 -3.8108720118e-03  1.1749440923e-01  8.3970333750e-01  1.5631404307e-01  5.0751555118e-04 -3.9215166968e-03  1.2800722579e-03]
 [ 3.8273370210e-02 -1.3151028646e-02  8.7976505831e-02  1.5631758661e-01  8.4848397954e-01  1.1956569846e-03 -4.1878049664e-03  1.7737765739e-03]
 [ 1.9627112909e-02  4.7968498389e-02 -5.4058918772e-03 -3.7054360874e-04  3.5761441076e-03  9.6356595123e-01 -5.5460330042e-02 -1.7181263346e-01]
 [-9.6507662275e-04  1.1332640051e-02  4.6992359226e-04  1.6907601522e-04 -7.0443159877e-04 -5.5457539746e-02  7.3450687810e-01 -5.3024879982e-04]
 [-1.4120170586e-03  1.0997528321e-02  2.6320402628e-03  4.3126379384e-04 -2.1736426713e-03 -1.7180760481e-01 -5.3088593539e-04  8.1254031385e-01]]
time for Gg: 0.021
C(NO)
[[ 1.0000000000e+00  0.0000000000e+00  2.3375154861e-16  4.2921032748e-17  2.0431990597e-16  0.0000000000e+00  0.0000000000e+00  0.0000000000e+00]
 [ 0.0000000000e+00  1.0000000000e+00  0.0000000000e+00  0.0000000000e+00  0.0000000000e+00 -4.5155117437e-16 -4.1633363423e-17  2.7755575616e-17]
 [-5.5021701121e-17  0.0000000000e+00 -7.6943005266e-01 -6.1904029740e-01  1.5737377245e-01  0.0000000000e+00  0.0000000000e+00  0.0000000000e+00]
 [-4.3179465747e-18  0.0000000000e+00  2.4134278212e-01 -5.3644508336e-02  9.6895610233e-01  0.0000000000e+00  0.0000000000e+00  0.0000000000e+00]
 [-8.7281750141e-17  0.0000000000e+00 -5.9138063511e-01  7.8352496892e-01  1.9067660449e-01  0.0000000000e+00  0.0000000000e+00  0.0000000000e+00]
 [ 0.0000000000e+00 -9.0414860080e-17  0.0000000000e+00  0.0000000000e+00  0.0000000000e+00  9.3273535564e-01 -8.8351208919e-02  3.4956947840e-01]
 [ 0.0000000000e+00 -1.7700169176e-17  0.0000000000e+00  0.0000000000e+00  0.0000000000e+00  4.6309934645e-02 -9.3212830587e-01 -3.5915485707e-01]
 [ 0.0000000000e+00  1.6394778975e-17  0.0000000000e+00  0.0000000000e+00  0.0000000000e+00  3.5757537149e-01  3.5118497304e-01 -8.6533748816e-01]]
detC 1.0
detNg [ 1.0008931453  1.0237570249  1.1384898484  1.4890998711  2.4344486294  4.9029047234  9.4766081671 12.0178427422]
xg [0.9991076517 0.9767942741 0.8783565364 0.6715466299 0.4107706311 0.2039607246 0.105522987  0.0832096094]
ciS 1.082317261025735
[[-0.7665098187  0.           -0.0361330381 -0.0069617509 -0.0411456918  0.            0.            0.          ]
 [ 0.           -0.7665098187  0.            0.            0.           -0.0549881606 -0.0039065686  0.0028410011]
 [-0.0361330381  0.           -0.2975222815  0.0922474695 -0.5269578292  0.            0.            0.          ]
 [-0.0069617509  0.            0.0922474695  0.3755287822  0.0174607688  0.            0.            0.          ]
 [-0.0411456918  0.           -0.5269578292  0.0174607688 -0.0845270685  0.            0.            0.          ]
 [ 0.           -0.0549881606  0.            0.            0.           -0.692063075  -0.0099348597 -0.2101695838]
 [ 0.           -0.0039065686  0.            0.            0.           -0.0099348597  0.3859762311  0.0416859685]
 [ 0.            0.0028410011  0.            0.            0.           -0.2101695838  0.0416859685  0.2995662762]]
ciH -1.3794479334848129
1.0 -1.64663204946236e-17 -0.028627930311668916j 4.714111045966973e-16
0.5412321846232981 0.000409779196964886 -0.00040977919696488606 0.458767815376702
0.9999999999999998 -3.973600962159374e-17 -0.14749560049040658j 2.207435623180487e-16
0.5431374735120453 0.010877476082012815 -0.010877476082012812 0.45686252648795433
0.9999999999999999 -3.252606517456513e-17 -0.35427523845301445j 2.3418766925686896e-17
0.553348134919039 0.0627554722904701 -0.06275547229047013 0.4466518650809607
0.9999999999999998 -1.2685165418080402e-16 -0.6550928808243519j 1.6653345369377348e-16
0.5912659056940665 0.21457334125337438 -0.21457334125337427 0.4087340943059333
0.9999999999999999 7.502679033599691e-17 -1.0709758269463217j 9.367506770274758e-17
0.7439282754019576 0.573494610951679 -0.5734946109516788 0.2560717245980422
0.9999999999999999 -7.32920668600201e-16 -1.5256857515792932j 3.0184188481996443e-16
1.4893906993900128 1.1638585062860363 -1.163858506286036 -0.48939069939001334
0.9999999999999997 -1.4051260155412137e-16 -1.3653220228741187j 2.393918396847994e-16
4.196296184553199 0.932052113072538 -0.932052113072538 -3.1962961845531996
0.9999999999999996 -7.719519468096792e-17 -0.3437389556750282j 2.949029909160572e-16
6.444481085265958 0.05907823482427952 -0.05907823482427952 -5.444481085265958
S2 = 0.000000
X(g)
[[ 2.0000000000e+00  8.6736173799e-18  2.0876056516e-04 -2.0409908444e-05  1.6600571031e-04  2.9246922590e-02 -2.2902396759e-04  6.1350508201e-03]
 [-8.6736173799e-18  2.0000000000e+00 -2.3322270296e-02  2.2801499943e-03 -1.8545792131e-02  2.6179287057e-04 -2.0500222450e-06  5.4915608997e-05]
 [ 2.0876056516e-04  2.3322270296e-02  0.0000000000e+00  0.0000000000e+00  0.0000000000e+00  0.0000000000e+00  0.0000000000e+00  0.0000000000e+00]
 [-2.0409908444e-05 -2.2801499943e-03  0.0000000000e+00  0.0000000000e+00  0.0000000000e+00  0.0000000000e+00  0.0000000000e+00  0.0000000000e+00]
 [ 1.6600571031e-04  1.8545792131e-02  0.0000000000e+00  0.0000000000e+00  0.0000000000e+00  0.0000000000e+00  0.0000000000e+00  0.0000000000e+00]
 [-2.9246922590e-02  2.6179287057e-04  0.0000000000e+00  0.0000000000e+00  0.0000000000e+00  0.0000000000e+00  0.0000000000e+00  0.0000000000e+00]
 [ 2.2902396759e-04 -2.0500222450e-06  0.0000000000e+00  0.0000000000e+00  0.0000000000e+00  0.0000000000e+00  0.0000000000e+00  0.0000000000e+00]
 [-6.1350508201e-03  5.4915608997e-05  0.0000000000e+00  0.0000000000e+00  0.0000000000e+00  0.0000000000e+00  0.0000000000e+00  0.0000000000e+00]]
X(g) int
[[ 2.0000000000e+00  1.7743095357e-16  1.9818204570e-01 -1.9375677609e-02  1.5759370666e-01  6.8032759027e-01 -5.3274433748e-03  1.4271054768e-01]
 [-1.5958844717e-16  2.0000000000e+00 -5.4251123008e-01  5.3039732515e-02 -4.3140313417e-01  2.4852704628e-01 -1.9461415135e-03  5.2132871567e-02]
 [ 1.9818204570e-01  5.4251123008e-01  0.0000000000e+00  0.0000000000e+00  0.0000000000e+00  0.0000000000e+00  0.0000000000e+00  0.0000000000e+00]
 [-1.9375677609e-02 -5.3039732515e-02  0.0000000000e+00  0.0000000000e+00  0.0000000000e+00  0.0000000000e+00  0.0000000000e+00  0.0000000000e+00]
 [ 1.5759370666e-01  4.3140313417e-01  0.0000000000e+00  0.0000000000e+00  0.0000000000e+00  0.0000000000e+00  0.0000000000e+00  0.0000000000e+00]
 [-6.8032759027e-01  2.4852704628e-01  0.0000000000e+00  0.0000000000e+00  0.0000000000e+00  0.0000000000e+00  0.0000000000e+00  0.0000000000e+00]
[...]
 [ 0.0000000000e+00  9.4310687228e-18  0.0000000000e+00  0.0000000000e+00  0.0000000000e+00  2.6322864903e-17  4.7930368358e-18 -1.1580774457e-18]
 [ 0.0000000000e+00 -2.5246512740e-18  0.0000000000e+00  0.0000000000e+00  0.0000000000e+00  2.5592600489e-18 -1.7410509699e-18 -1.1701473464e-18]
 [ 0.0000000000e+00 -5.5726113727e-17  0.0000000000e+00  0.0000000000e+00  0.0000000000e+00 -6.5343015133e-18 -8.0689548443e-19  1.4602181001e-18]]
0.9999999999999994
0.9999999999999986
0.9999999999999993
0.9999999999999986
0.9999999999999993
0.9999999999999991
0.999999999999999
0.9999999999999992
D(g) (NO)
 [[ 9.9951368521e-01  8.9589007532e-03 -1.4594612262e-16  1.5729063956e-17  7.2503103926e-18 -2.9086394384e-02  3.9595013519e-03  5.5168091169e-03]
 [-8.9589007532e-03  9.9951368521e-01 -2.9343093609e-02 -5.5419731278e-03 -6.3290075588e-04  2.7837155495e-16 -5.7106557273e-18 -7.5687465815e-17]
 [-1.0888953677e-16  2.9343093609e-02  9.9951368521e-01 -2.4918651036e-17  2.9360193182e-17  7.2928089439e-03 -3.1225698719e-03 -6.9599157555e-03]
 [ 1.4254682250e-17  5.5419731278e-03 -2.1323352835e-17  9.9951368521e-01  1.2138172690e-16  8.0881152594e-03  6.7024001721e-03  2.8832964330e-02]
 [ 1.5884164960e-17  6.3290075588e-04  2.8322751889e-17  1.5387028316e-16  9.9951368521e-01  2.7878424904e-03  3.0034027587e-02 -7.8852794820e-03]
 [ 2.9086394384e-02  3.1892414116e-16 -7.2928089439e-03 -8.0881152594e-03 -2.7878424904e-03  9.9951368521e-01 -5.1737819617e-18 -8.6575338651e-17]
 [-3.9595013519e-03  0.0000000000e+00  3.1225698719e-03 -6.7024001721e-03 -3.0034027587e-02 -2.7755575616e-17  9.9951368521e-01  5.5511151231e-17]
 [-5.5168091169e-03 -8.3266726847e-17  6.9599157555e-03 -2.8832964330e-02  7.8852794820e-03 -8.3266726847e-17  0.0000000000e+00  9.9951368521e-01]]
N(g) (NO)
 [[ 1.0004061787 -0.0089669004]
 [ 0.0089669004  1.0004061787]]
P(g) (NO)
 [[ 1.0000000000e+00  6.1798762896e-18 -2.1984694385e-16 -1.1930594212e-17 -2.4247442647e-17  2.4349355137e-34 -2.1064858767e-35 -5.7777898332e-34]
 [ 5.8502510460e-19  1.0000000000e+00 -1.6209496573e-34 -7.8918881029e-36  4.1327937534e-35  3.7543682038e-17 -2.8840442689e-18 -6.7648947782e-17]
 [ 2.6311659795e-04  2.9355012150e-02 -5.7845379937e-20 -3.1391373606e-21 -6.3799046182e-21  1.1020952424e-18 -8.4661154553e-20 -1.9858356841e-18]
 [ 4.9694321081e-05  5.5442241595e-03 -1.0925144617e-20 -5.9288277947e-22 -1.2049602003e-21  2.0815058899e-19 -1.5989787913e-20 -3.7506093066e-19]
 [ 5.6751580440e-06  6.3315782672e-04 -1.2476661519e-21 -6.7708007712e-23 -1.3760806918e-22  2.3771076127e-20 -1.8260552015e-21 -4.2832460758e-20]
 [ 2.9098208659e-02 -2.6081480157e-04 -6.3971522454e-18 -3.4715891981e-19 -7.0555714559e-19 -9.7919479809e-21  7.5220143370e-22  1.7643846892e-20]
 [-3.9611096172e-03  3.5504454274e-05  8.7083784361e-19  4.7258391472e-20  9.6046778261e-20  1.3329679422e-21 -1.0239641787e-22 -2.4018389732e-21]
 [-5.5190499275e-03  4.9468677902e-05  1.2133462595e-18  6.5845545122e-20  1.3382284658e-19  1.8572363140e-21 -1.4266985699e-22 -3.3465040083e-21]]
time for NO, Ng: 0.016
Pg_ortho
 [[ 6.3623144058e-01 -4.6896203824e-01 -6.9290290093e-02  8.2711832561e-02  1.4142734155e-02  1.0424516949e-02 -1.5402479189e-03 -1.8385942360e-03]
 [-4.6869983116e-01  3.4547558345e-01  5.1044863859e-02 -6.0932263770e-02  1.8829023813e-02  1.3878750439e-02 -2.0506193799e-03 -2.4478247467e-03]
 [-6.9290290093e-02  5.1073420142e-02  7.5462229543e-03 -9.0079277866e-03 -1.5402479189e-03 -1.1353066783e-03  1.6774434319e-04  2.0023645461e-04]
 [ 8.2665586540e-02 -6.0932263770e-02 -9.0028912542e-03  1.0746753015e-02 -3.3209149950e-03 -2.4478247467e-03  3.6167210342e-04  4.3172805916e-04]
 [-1.4142734155e-02  1.0424516949e-02  1.5402479189e-03 -1.8385942360e-03  6.3623144058e-01  4.6896203824e-01 -6.9290290093e-02 -8.2711832561e-02]
 [ 1.8829023813e-02 -1.3878750439e-02 -2.0506193799e-03  2.4478247467e-03  4.6869983116e-01  3.4547558345e-01 -5.1044863859e-02 -6.0932263770e-02]
 [ 1.5402479189e-03 -1.1353066783e-03 -1.6774434319e-04  2.0023645461e-04 -6.9290290093e-02 -5.1073420142e-02  7.5462229543e-03  9.0079277866e-03]
 [-3.3209149950e-03  2.4478247467e-03  3.6167210342e-04 -4.3172805916e-04 -8.2665586540e-02 -6.0932263770e-02  9.0028912542e-03  1.0746753015e-02]]
G(g) (NO)
 [[ 2.7192295173e-01 -1.4700361256e-03  4.8754820647e-02  8.2098002351e-03 -1.0718174465e-02 -3.0946433590e-04 -2.2456340203e-05  5.4945482419e-04]
 [ 1.4700361256e-03  2.7192295173e-01 -3.4615165811e-04 -2.7061113366e-04 -4.5290364335e-04 -4.9100029086e-02  1.2123312867e-02 -1.2349287594e-03]
 [ 4.8687564628e-02 -1.9535950568e-02  9.4971996568e-01 -1.6219042312e-01  9.3382606963e-02 -8.3956404082e-04 -1.4714393047e-04  6.3104859332e-03]
 [ 8.1976726317e-03  1.6008606282e-03 -1.6218592040e-01  8.1653228225e-01 -2.1640672293e-02  1.4217223338e-04  3.1340369406e-04 -3.3583336577e-03]
 [-1.0726762176e-02 -2.1347553939e-03  9.3378995725e-02 -2.1641453158e-02  7.4494321384e-01  1.6035928066e-04 -2.2342159325e-04  1.6839906425e-03]
 [-1.9397244657e-02 -4.9033798016e-02  1.2756645674e-03  3.2606042783e-03  5.2823075573e-03  9.4554047351e-01  1.8965383443e-01 -4.2751686957e-03]
 [-2.7375690217e-03  1.2118591132e-02  3.0472685256e-04  1.7389810403e-03  3.3990486198e-03  1.8964815833e-01  8.1971031675e-01  1.1027937085e-02]
 [ 2.2418553747e-03 -1.2532413320e-03  1.5271527249e-04  9.1740087867e-06 -3.9544482857e-05 -4.2745675924e-03  1.1026776958e-02  7.4594467151e-01]]
time for Gg: 0.021
C(NO)
[[ 1.0000000000e+00  0.0000000000e+00 -3.6429026838e-17 -1.3724171415e-16 -6.2803401666e-17  0.0000000000e+00  0.0000000000e+00  0.0000000000e+00]
 [ 0.0000000000e+00  1.0000000000e+00  0.0000000000e+00  0.0000000000e+00  0.0000000000e+00  1.3167174422e-17 -3.4694469520e-17  2.4980018054e-16]
 [-1.3188048755e-16  0.0000000000e+00 -9.4256044607e-01  1.2006974479e-01  3.1170990022e-01  0.0000000000e+00  0.0000000000e+00  0.0000000000e+00]
 [ 7.3018055056e-18  0.0000000000e+00 -3.2850031397e-01 -5.0236771563e-01 -7.9982136881e-01  0.0000000000e+00  0.0000000000e+00  0.0000000000e+00]
 [-9.1542931837e-18  0.0000000000e+00  6.0558642886e-02 -8.5627678625e-01  5.1295488700e-01  0.0000000000e+00  0.0000000000e+00  0.0000000000e+00]
 [ 0.0000000000e+00  2.0500383674e-17  0.0000000000e+00  0.0000000000e+00  0.0000000000e+00 -9.3543471341e-01  1.8735766645e-01 -2.9976491085e-01]
 [ 0.0000000000e+00 -1.1707823728e-17  0.0000000000e+00  0.0000000000e+00  0.0000000000e+00  2.9747136477e-01 -4.0920339124e-02 -9.5385340225e-01]
 [ 0.0000000000e+00 -5.9340205115e-17  0.0000000000e+00  0.0000000000e+00  0.0000000000e+00  1.9097822939e-01  9.8143906111e-01  1.7455235037e-02]]
detC 0.9999999999999999
detNg [ 1.0008929278  1.0237511059  1.1384514782  1.4889226435  2.4335990661  4.8982521761  9.4570988642 11.9857045199]
xg [0.9991078688 0.9767999216 0.8783861404 0.6716265646 0.4109140301 0.2041544543 0.1057406732 0.0834327259]
ciS 1.082540594734132
[[-7.6653054097e-01  0.0000000000e+00 -5.5024271357e-02  4.5937317482e-03 -3.2395582395e-04  0.0000000000e+00  0.0000000000e+00  0.0000000000e+00]
 [ 0.0000000000e+00 -7.6653054097e-01  0.0000000000e+00  0.0000000000e+00  0.0000000000e+00  5.4996020994e-02  4.6965763069e-03 -1.5025321786e-03]
 [-5.5024271357e-02  0.0000000000e+00 -7.0081989240e-01 -1.8644166110e-01 -8.0177922858e-03  0.0000000000e+00  0.0000000000e+00  0.0000000000e+00]
 [ 4.5937317482e-03  0.0000000000e+00 -1.8644166110e-01  2.9530485752e-01 -3.4875741720e-02  0.0000000000e+00  0.0000000000e+00  0.0000000000e+00]
 [-3.2395582395e-04  0.0000000000e+00 -8.0177922858e-03 -3.4875741720e-02  3.9901518934e-01  0.0000000000e+00  0.0000000000e+00  0.0000000000e+00]
 [ 0.0000000000e+00  5.4996020994e-02  0.0000000000e+00  0.0000000000e+00  0.0000000000e+00 -6.8491980976e-01  1.3511712470e-01  1.7782590574e-01]
 [ 0.0000000000e+00  4.6965763069e-03  0.0000000000e+00  0.0000000000e+00  0.0000000000e+00  1.3511712470e-01  3.6110712267e-01 -6.9607732875e-02]
 [ 0.0000000000e+00 -1.5025321786e-03  0.0000000000e+00  0.0000000000e+00  0.0000000000e+00  1.7782590574e-01 -6.9607732875e-02  3.1731284155e-01]]
ciH -1.3797342556400785
0.9999999999999999 -1.418949593240404e-17 -0.0286209569966273j -3.2959746043559335e-16
0.54134403306278 0.0004095795897013946 -0.0004095795897013947 0.4586559669372199
1.0 -1.1779856604055006e-16 -0.1474588523671286j 6.938893903907228e-18
0.5432540089722797 0.010872056570715315 -0.010872056570715315 0.45674599102772045
1.0 -1.3292318634672284e-16 -0.3541770824108058j -1.6002824065886045e-16
0.5534892672817611 0.06272070285251537 -0.06272070285251538 0.44651073271823893
0.9999999999999999 -2.437286483747414e-16 -0.6548555048672372j -2.419939248987646e-16
0.5914917358733447 0.21441786612746208 -0.21441786612746205 0.4085082641266551
0.9999999999999999 -5.546778314435841e-16 -1.070341533224429j 3.122502256758253e-17
0.744419391320017 0.5728154988726109 -0.5728154988726106 0.255580608679983
0.9999999999999997 -8.135853102331225e-16 -1.5238670227759576j -1.97758476261356e-16
1.4901930603702314 1.1610853515520296 -1.1610853515520299 -0.4901930603702318
0.9999999999999994 -1.0451708942760263e-15 -1.3621796715484036j 8.153200337090993e-17
4.191079985671821 0.9277667287898586 -0.9277667287898583 -3.1910799856718217
0.9999999999999998 -1.9103642279194588e-16 -0.34273629487874196j -7.806255641895632e-17
6.4287717657183485 0.05873408391360398 -0.058734083913603984 -5.428771765718349
S2 = 0.000000
X(g)
[[ 2.0000000000e+00  5.2041704279e-18  2.6311659795e-04  4.9694321081e-05  5.6751580439e-06 -2.9098208659e-02  3.9611096172e-03  5.5190499275e-03]
 [-5.2041704279e-18  2.0000000000e+00 -2.9355012150e-02 -5.5442241595e-03 -6.3315782672e-04 -2.6081480157e-04  3.5504454274e-05  4.9468677902e-05]
 [ 2.6311659795e-04  2.9355012150e-02  0.0000000000e+00  0.0000000000e+00  0.0000000000e+00  0.0000000000e+00  0.0000000000e+00  0.0000000000e+00]
 [ 4.9694321081e-05  5.5442241595e-03  0.0000000000e+00  0.0000000000e+00  0.0000000000e+00  0.0000000000e+00  0.0000000000e+00  0.0000000000e+00]
 [ 5.6751580440e-06  6.3315782672e-04  0.0000000000e+00  0.0000000000e+00  0.0000000000e+00  0.0000000000e+00  0.0000000000e+00  0.0000000000e+00]
 [ 2.9098208659e-02 -2.6081480157e-04  0.0000000000e+00  0.0000000000e+00  0.0000000000e+00  0.0000000000e+00  0.0000000000e+00  0.0000000000e+00]
 [-3.9611096172e-03  3.5504454274e-05  0.0000000000e+00  0.0000000000e+00  0.0000000000e+00  0.0000000000e+00  0.0000000000e+00  0.0000000000e+00]
 [-5.5190499275e-03  4.9468677902e-05  0.0000000000e+00  0.0000000000e+00  0.0000000000e+00  0.0000000000e+00  0.0000000000e+00  0.0000000000e+00]]
X(g) int
[[ 2.0000000000e+00  1.5006913076e-16  2.4973221907e-01  4.7166439424e-02  5.3864705721e-03 -6.7672878532e-01  9.2122402831e-02  1.2835497873e-01]
 [-1.5676096730e-16  2.0000000000e+00 -6.8270119126e-01 -1.2894044870e-01 -1.4725171986e-02 -2.4754751190e-01  3.3698391594e-02  4.6952274402e-02]
 [ 2.4973221907e-01  6.8270119126e-01  0.0000000000e+00  0.0000000000e+00  0.0000000000e+00  0.0000000000e+00  0.0000000000e+00  0.0000000000e+00]
 [ 4.7166439424e-02  1.2894044870e-01  0.0000000000e+00  0.0000000000e+00  0.0000000000e+00  0.0000000000e+00  0.0000000000e+00  0.0000000000e+00]
 [ 5.3864705721e-03  1.4725171986e-02  0.0000000000e+00  0.0000000000e+00  0.0000000000e+00  0.0000000000e+00  0.0000000000e+00  0.0000000000e+00]
 [ 6.7672878532e-01 -2.4754751190e-01  0.0000000000e+00  0.0000000000e+00  0.0000000000e+00  0.0000000000e+00  0.0000000000e+00  0.0000000000e+00]
 [-9.2122402831e-02  3.3698391594e-02  0.0000000000e+00  0.0000000000e+00  0.0000000000e+00  0.0000000000e+00  0.0000000000e+00  0.0000000000e+00]
 [-1.2835497873e-01  4.6952274402e-02  0.0000000000e+00  0.0000000000e+00  0.0000000000e+00  0.0000000000e+00  0.0000000000e+00  0.0000000000e+00]]
Feff
 [[ 4.0194561641e-16  4.0939914314e-18 -2.9968883254e-10  1.4166842607e-10 -1.1047666914e-10 -1.6851004438e-02 -8.0562875255e-03  2.6696165657e-02]
 [-3.6440338512e-18  5.5683662964e-16 -1.8713007598e-02 -7.2485246334e-03 -2.5667637548e-02  2.9575329015e-10  1.8253231137e-10 -3.6056986133e-11]
 [-2.9968886531e-10  1.8713007598e-02  0.0000000000e+00  0.0000000000e+00  0.0000000000e+00  0.0000000000e+00  0.0000000000e+00  0.0000000000e+00]
 [ 1.4166841679e-10  7.2485246334e-03  0.0000000000e+00  0.0000000000e+00  0.0000000000e+00  0.0000000000e+00  0.0000000000e+00  0.0000000000e+00]
 [-1.1047665433e-10  2.5667637548e-02  0.0000000000e+00  0.0000000000e+00  0.0000000000e+00  0.0000000000e+00  0.0000000000e+00  0.0000000000e+00]
 [ 1.6851004438e-02  2.9575331527e-10  0.0000000000e+00  0.0000000000e+00  0.0000000000e+00  0.0000000000e+00  0.0000000000e+00  0.0000000000e+00]
 [ 8.0562875255e-03  1.8253215017e-10  0.0000000000e+00  0.0000000000e+00  0.0000000000e+00  0.0000000000e+00  0.0000000000e+00  0.0000000000e+00]
 [-2.6696165657e-02 -3.6057015189e-11  0.0000000000e+00  0.0000000000e+00  0.0000000000e+00  0.0000000000e+00  0.0000000000e+00  0.0000000000e+00]]
Feff (ortho)
 [[-2.8064959464e-10 -9.0435663742e-11 -8.3797854826e-11 -1.2104445636e-10  8.8470897275e-17 -6.6786853825e-17 -1.0408340856e-17  3.4694469520e-17]
 [-9.0435663742e-11  2.8579790107e-10  9.4145081513e-11  5.0571178396e-11 -2.1684043450e-17  8.3266726847e-17  2.1684043450e-18 -3.0357660830e-17]
 [-8.3797854826e-11  9.4145081513e-11  2.1581139940e-11 -1.6848270234e-12 -1.3877787808e-17  4.3368086899e-18  1.5178830415e-18 -3.2526065175e-18]
 [-1.2104445636e-10  5.0571178396e-11 -1.6848270234e-12 -2.6729044424e-11 -2.0816681712e-17 -3.2092384306e-17  2.3852447795e-18  8.6736173799e-18]
 [ 8.8470897275e-17 -2.1684043450e-17 -1.3877787808e-17 -2.0816681712e-17 -2.8064899005e-10  9.0435581508e-11 -8.3797917574e-11  1.2104444203e-10]
 [-6.6786853825e-17  8.3266726847e-17  4.3368086899e-18 -3.2092384306e-17  9.0435581508e-11  2.8579745136e-10 -9.4145070275e-11  5.0571236462e-11]
 [-1.0408340856e-17  2.1684043450e-18  1.5178830415e-18  2.3852447795e-18 -8.3797917574e-11 -9.4145070275e-11  2.1581146436e-11  1.6848281812e-12]
 [ 3.4694469520e-17 -3.0357660830e-17 -3.2526065175e-18  8.6736173799e-18  1.2104444203e-10  5.0571236462e-11  1.6848281812e-12 -2.6729050917e-11]]
Hsp + Hph =  -1.2745335023477216
Feff (mod,ortho)
[[-0.2308163172  0.3318709593  0.2236619129  0.0397983682  0.            0.            0.            0.          ]
 [ 0.3318709593  0.0030568182  0.0736695092  0.3306629314  0.            0.            0.            0.          ]
 [ 0.2236619129  0.0736695092  1.1211906459  0.0508694262  0.            0.            0.            0.          ]
 [ 0.0397983682  0.3306629314  0.0508694262  1.1166619521  0.            0.            0.            0.          ]
 [ 0.            0.            0.            0.           -0.2308163172 -0.3318709593  0.2236619129 -0.0397983682]
 [ 0.            0.            0.            0.           -0.3318709593  0.0030568182 -0.0736695092  0.3306629314]
 [ 0.            0.            0.            0.            0.2236619129 -0.0736695092  1.1211906459 -0.0508694262]
 [ 0.            0.            0.            0.           -0.0397983682  0.3306629314 -0.0508694262  1.1166619521]]
F(mod,ortho) updated with CDIIS
[[[-0.2308163171  0.3318709593  0.223661913   0.0397983681]
  [ 0.3318709593  0.0030568181  0.0736695092  0.3306629315]
  [ 0.223661913   0.0736695092  1.1211906459  0.0508694262]
  [ 0.0397983681  0.3306629315  0.0508694262  1.1166619521]]

 [[-0.2308163171 -0.3318709593  0.223661913  -0.0397983681]
  [-0.3318709593  0.0030568181 -0.0736695092  0.3306629315]
  [ 0.223661913  -0.0736695092  1.1211906459 -0.0508694262]
  [-0.0397983681  0.3306629315 -0.0508694262  1.1166619521]]]
Alpha occ 1 vir 3; Beta occ 1 vir 3
Alpha energies:  [-0.4946207656] <- HOMO
         LUMO->  [0.1219281958 1.0988253817 1.283960287 ]
Beta energies:   [-0.4946207656] <- HOMO
         LUMO->  [0.1219281958 1.0988253817 1.283960287 ]
e_a, e_b
 [-0.4946207656  0.1219281958  1.0988253817  1.283960287 ] 
 [-0.4946207656  0.1219281958  1.0988253817  1.283960287 ]
v_a, v_b
 [[ 0.7975617066 -0.5732885075  0.0900046244  0.1647263759]
 [-0.5878775229 -0.7561293528 -0.100110005   0.2695299736]
 [-0.0868603443  0.1705432304  0.7900354027  0.5824211102]
 [ 0.1036852097  0.2655629786 -0.5980979994  0.749002313 ]] 
 [[ 0.7975617066  0.5732885075 -0.0900046244  0.1647263759]
 [ 0.5878775229 -0.7561293528 -0.100110005  -0.2695299736]
 [-0.0868603443 -0.1705432304 -0.7900354027  0.5824211102]
 [-0.1036852097  0.2655629786 -0.5980979994 -0.749002313 ]]
P_a, P_b
 [[ 0.6361046759 -0.4688686005 -0.0692764845  0.0826953528]
 [-0.4688686005  0.345599982   0.0510632441 -0.0609542043]
 [-0.0692764845  0.0510632441  0.0075447194 -0.009006133 ]
 [ 0.0826953528 -0.0609542043 -0.009006133   0.0107506227]] 
 [[ 0.6361046759  0.4688686005 -0.0692764845 -0.0826953528]
 [ 0.4688686005  0.345599982  -0.0510632441 -0.0609542043]
 [-0.0692764845 -0.0510632441  0.0075447194  0.009006133 ]
 [-0.0826953528 -0.0609542043  0.009006133   0.0107506227]]
time for xg, H, S2, Yg, Feff: 0.024

***************
SUHF converged at cycle 12
Final E(SUHF) =     -1.00994490, delta E = -2.85798e-11, MaxD(dm) = 3.05624e-10, RMSD(dm) = 1.15061e-10
dm_reg
 [[[1.3933181765e-01 2.6226384662e-01 1.9909043420e-03 2.0708293089e-02]
  [2.6226384662e-01 4.9365842207e-01 3.7474730452e-03 3.8979155617e-02]
  [1.9909043420e-03 3.7474730452e-03 2.8447917825e-05 2.9589961088e-04]
  [2.0708293089e-02 3.8979155617e-02 2.9589961088e-04 3.0777851742e-03]]

 [[2.8447917825e-05 2.9589961088e-04 1.9909043420e-03 3.7474730452e-03]
  [2.9589961088e-04 3.0777851742e-03 2.0708293089e-02 3.8979155617e-02]
  [1.9909043420e-03 2.0708293089e-02 1.3933181765e-01 2.6226384662e-01]
  [3.7474730452e-03 3.8979155617e-02 2.6226384662e-01 4.9365842207e-01]]]
mo_reg
 [[-0.3732717745 -0.0827862706 -1.2513972121  0.1959491265]
 [-0.7026082992 -0.2059771904  1.119703327  -0.3413827732]
 [-0.005333659   0.1698002773 -0.1610010621 -1.3022267479]
 [-0.0554777899  0.9047664758 -0.0668003056  1.0393364815]] 
 [[-0.005333659  -0.1698002773  0.1610010621 -1.3022267479]
 [-0.0554777899 -0.9047664758  0.0668003056  1.0393364815]
 [-0.3732717745  0.0827862706  1.2513972121  0.1959491265]
 [-0.7026082992  0.2059771904 -1.119703327  -0.3413827732]]
time for cyc: 0.731
******* suhf density *****
time for Ngg: 0.002
time for Pgg: 0.004
time for xgg: 0.000
Clebsch-Gordan coeff: < 0 0 0 0 | 0 0 > = 1
Clebsch-Gordan coeff: < 0 0 1 0 | 0 0 > = 0
xggint 1.0
SUHF DM alpha
 [[0.0648955961 0.1245153575 0.0203317291 0.046136313 ]
 [0.1245153575 0.2397755512 0.046136313  0.1019222852]
 [0.0203317291 0.046136313  0.0648955961 0.1245153575]
 [0.046136313  0.1019222852 0.1245153575 0.2397755512]] 
SUHF DM beta
 [[0.0648955961 0.1245153575 0.0203317291 0.046136313 ]
 [0.1245153575 0.2397755512 0.046136313  0.1019222852]
 [0.0203317291 0.046136313  0.0648955961 0.1245153575]
 [0.046136313  0.1019222852 0.1245153575 0.2397755512]]
time for 1pdm: 0.017
SUHF natural orbitals alpha
 [[-0.2359566186  0.3081811236 -0.7154972259 -1.0430671195]
 [-0.4724586982  0.5420297568  0.4838154484  1.0748357533]
 [-0.2359566186 -0.3081811236 -1.0310913466  0.7326499376]
 [-0.4724586982 -0.5420297568  0.8245442964 -0.842303976 ]]
SUHF natural orbitals beta
 [[-0.2359566186  0.3081811236 -0.7154972259 -1.0430671195]
 [-0.4724586982  0.5420297568  0.4838154484  1.0748357533]
 [-0.2359566186 -0.3081811236 -1.0310913466  0.7326499376]
 [-0.4724586982 -0.5420297568  0.8245442964 -0.842303976 ]]
SUHF natural orbitals, total
 [[-0.2359566186  0.3081811236 -0.7154972259 -1.0430671195]
 [-0.4724586982  0.5420297568  0.4838154484  1.0748357533]
 [-0.2359566186 -0.3081811236 -1.0310913466  0.7326499376]
 [-0.4724586982 -0.5420297568  0.8245442964 -0.842303976 ]]
SUHF NO occ alpha:  0.765393  0.234607  ...
SUHF NO occ beta:   0.765393  0.234607  ...
SUHF NO occ total:  1.530786  0.469214  ...
core 0, active 2, external 2
time for natorb: 0.002
time tot: 1.109
