#INFO: **** input file is /share/home/srwang/ExSCF/test/vhfopt/test.py ****
from pyphf import util, guess

xyz = 'H 0.0 0.0 0.0; H 0.0 0.0 2.0'''
bas = '3-21g'
mf = guess.mix(xyz, bas, conv='tight')

mf2 = util.SUHF(mf)
mf2.verbose = 8
mf2.kernel()

#INFO: ******************** input file end ********************


System: uname_result(system='Linux', node='xn01', release='3.10.0-1127.el7.x86_64', version='#1 SMP Tue Feb 18 16:39:12 EST 2020', machine='x86_64', processor='x86_64')  Threads 32
Python 3.7.4 (default, Aug 13 2019, 20:35:49) 
[GCC 7.3.0]
numpy 1.17.2  scipy 1.4.1
Date: Thu Apr 22 23:18:05 2021
PySCF version 1.7.6a1
PySCF path  /share/home/srwang/pyscf/pyscf
GIT HEAD      ref: refs/heads/master
GIT master branch  80f71dfe77ac5f9caae26788acf76446987635bd

[CONFIG] conf_file None
[INPUT] verbose = 4
[INPUT] num. atoms = 2
[INPUT] num. electrons = 2
[INPUT] charge = 0
[INPUT] spin (= nelec alpha-beta = 2S) = 0
[INPUT] symmetry False subgroup None
[INPUT] Mole.unit = angstrom
[INPUT]  1 H      0.000000000000   0.000000000000   0.000000000000 AA    0.000000000000   0.000000000000   0.000000000000 Bohr
[INPUT]  2 H      0.000000000000   0.000000000000   2.000000000000 AA    0.000000000000   0.000000000000   3.779452249130 Bohr

nuclear repulsion = 0.26458860546
number of shells = 4
number of NR pGTOs = 6
number of NR cGTOs = 4
basis = 3-21g
ecp = {}
CPU time:         1.05


******** <class 'pyscf.scf.hf.RHF'> ********
method = RHF
initial guess = minao
damping factor = 0
level_shift factor = 0
DIIS = <class 'pyscf.scf.diis.CDIIS'>
diis_start_cycle = 1
diis_space = 8
SCF conv_tol = 1e-05
SCF conv_tol_grad = None
SCF max_cycles = 50
direct_scf = True
direct_scf_tol = 1e-13
chkfile to save SCF result = /share/home/srwang/ExSCF/test/vhfopt/tmphtnz0_ng
max_memory 4000 MB (current use 107 MB)
Set gradient conv threshold to 0.00316228
init E= -0.648815945420394
  HOMO = -0.244674774926751  LUMO = -0.0864459286574333
cycle= 1 E= -0.907663399996247  delta_E= -0.259  |g|= 0.019  |ddm|= 0.828
  HOMO = -0.369605169894073  LUMO = -0.0101025752244096
cycle= 2 E= -0.907801422494246  delta_E= -0.000138  |g|= 0.00293  |ddm|= 0.0218
  HOMO = -0.370705495656876  LUMO = -0.0112684200431641
cycle= 3 E= -0.907804773936949  delta_E= -3.35e-06  |g|= 1.06e-06  |ddm|= 0.00397
  HOMO = -0.370702164933128  LUMO = -0.011267278240244
Extra cycle  E= -0.907804773937381  delta_E= -4.32e-13  |g|= 1.64e-07  |ddm|= 1.22e-06
converged SCF energy = -0.907804773937381


******** <class 'pyscf.scf.uhf.UHF'> ********
method = UHF
initial guess = minao
damping factor = 0
level_shift factor = 0
DIIS = <class 'pyscf.scf.diis.CDIIS'>
diis_start_cycle = 1
diis_space = 8
SCF conv_tol = 1e-09
SCF conv_tol_grad = None
SCF max_cycles = 100
direct_scf = True
direct_scf_tol = 1e-13
chkfile to save SCF result = /share/home/srwang/ExSCF/test/vhfopt/tmp_pn1onvq
max_memory 4000 MB (current use 149 MB)
number electrons alpha = 1  beta = 1
Set gradient conv threshold to 3.16228e-05
init E= -1.69135654891561
  alpha nocc = 1  HOMO = -0.24136263647573  LUMO = 0.900983838942928
  beta  nocc = 1  HOMO = -0.24136263647573  LUMO = 0.900983838942928
cycle= 1 E= -0.985589254636279  delta_E= 0.706  |g|= 0.0835  |ddm|= 1.15
  alpha nocc = 1  HOMO = -0.500699367107887  LUMO = 0.115721881429081
  beta  nocc = 1  HOMO = -0.500699367107887  LUMO = 0.115721881429081
cycle= 2 E= -0.995568238270465  delta_E= -0.00998  |g|= 0.0263  |ddm|= 0.145
  alpha nocc = 1  HOMO = -0.497083605541941  LUMO = 0.125003394565144
  beta  nocc = 1  HOMO = -0.497083605541942  LUMO = 0.125003394565143
cycle= 3 E= -0.996982488678898  delta_E= -0.00141  |g|= 0.00453  |ddm|= 0.0714
  alpha nocc = 1  HOMO = -0.492766860752049  LUMO = 0.118670910813591
  beta  nocc = 1  HOMO = -0.492766860752049  LUMO = 0.118670910813592
cycle= 4 E= -0.997011162805863  delta_E= -2.87e-05  |g|= 0.000416  |ddm|= 0.00998
  alpha nocc = 1  HOMO = -0.49439549753304  LUMO = 0.120246563561694
  beta  nocc = 1  HOMO = -0.49439549753304  LUMO = 0.120246563561695
cycle= 5 E= -0.997011453176457  delta_E= -2.9e-07  |g|= 3.04e-05  |ddm|= 0.00094
  alpha nocc = 1  HOMO = -0.494331180495964  LUMO = 0.12017876657275
  beta  nocc = 1  HOMO = -0.494331180495965  LUMO = 0.12017876657275
cycle= 6 E= -0.997011455175521  delta_E= -2e-09  |g|= 5.7e-07  |ddm|= 7.89e-05
  alpha nocc = 1  HOMO = -0.494330560131557  LUMO = 0.120178160885649
  beta  nocc = 1  HOMO = -0.494330560131556  LUMO = 0.120178160885648
cycle= 7 E= -0.997011455176148  delta_E= -6.27e-13  |g|= 2.53e-07  |ddm|= 8.43e-07
  alpha nocc = 1  HOMO = -0.494330110948589  LUMO = 0.120177755068568
  beta  nocc = 1  HOMO = -0.494330110948588  LUMO = 0.120177755068568
Extra cycle  E= -0.997011455176267  delta_E= -1.19e-13  |g|= 1.16e-07  |ddm|= 3.54e-07
converged SCF energy = -0.997011455176267  <S^2> = 0.91048301  2S+1 = 2.1545143
checking UHF/UKS internal stability ...
UHF/UKS wavefunction is stable in the internal stability analysis
time for guess: 0.120

******** <class 'pyphf.util.SUHF'> ********
max_cycle = 70
verbose: 8, debug2
chkfile0: 19056_ges.pchk # the file store hf for guess
chkfile: 19056_su.pchk # the file store suhf info
conv_tol: 1e-07
DIIS: <class 'pyscf.scf.diis.CDIIS'>
diis_start_cyc = 10
S
[[1.         0.64589894 0.00227256 0.07465634]
 [0.64589894 1.         0.07465634 0.27025724]
 [0.00227256 0.07465634 1.         0.64589894]
 [0.07465634 0.27025724 0.64589894 1.        ]]
SVD: S^(-1/2)
[[-0.3306004   0.46012676 -0.85621932  0.83453679]
 [-0.39774539  0.36468663  0.71167752 -1.05293881]
 [-0.3306004  -0.46012676 -0.85621932 -0.83453679]
 [-0.39774539 -0.36468663  0.71167752  1.05293881]]
S^(1/2)
[[-0.61794925 -0.74345483 -0.61794925 -0.74345483]
 [ 0.66740563  0.52897143 -0.66740563 -0.52897143]
 [-0.34536213  0.28706017 -0.34536213  0.28706017]
 [ 0.23115675 -0.29165151 -0.23115675  0.29165151]]
C (ortho)
 [[-0.80171109 -0.57009486 -0.09238995 -0.15399766]
 [-0.58103419  0.75902561 -0.10126721  0.27572512]
 [ 0.08280271  0.16885271 -0.79177919 -0.58113526]
 [ 0.11314731 -0.26525597 -0.59522665  0.75002813]] 
 [[-0.80171109 -0.57009486 -0.09238995 -0.15399766]
 [ 0.58103419 -0.75902561  0.10126721 -0.27572512]
 [ 0.08280271  0.16885271 -0.79177919 -0.58113526]
 [-0.11314731  0.26525597  0.59522665 -0.75002813]]
density matrix (ortho)
[[[ 0.64274066  0.46582155 -0.06638385 -0.09071146]
  [ 0.46582155  0.33760073 -0.04811121 -0.06574246]
  [-0.06638385 -0.04811121  0.00685629  0.0093689 ]
  [-0.09071146 -0.06574246  0.0093689   0.01280231]]

 [[ 0.64274066 -0.46582155 -0.06638385  0.09071146]
  [-0.46582155  0.33760073  0.04811121 -0.06574246]
  [-0.06638385  0.04811121  0.00685629 -0.0093689 ]
  [ 0.09071146 -0.06574246 -0.0093689   0.01280231]]]
grids:  [0.06237655 0.31939555 0.74529195 1.28265786 1.85893479 2.39630071
 2.8221971  3.07921611] 
weights:  [0.15900941 0.34931531 0.49276925 0.56970235 0.56970235 0.49276925
 0.34931531 0.15900941]
S = 0.0, Sz = 0.0
Wigner small d:  1
value : [1. 1. 1. 1. 1. 1. 1. 1.]
hcore (ortho)
 [[-7.96723266e-01  9.17301167e-17  1.03744072e-01  1.33062106e-16]
 [ 8.50105048e-17 -6.58935537e-01  4.05701508e-16  1.96745347e-01]
 [ 1.03744072e-01  4.21576640e-16  3.06545630e-01 -2.77570797e-16]
 [ 9.15077779e-17  1.96745347e-01 -1.99832916e-16  3.76082787e-01]]
time for Preparation before cyc: 0.098
**** Start Cycle 1 ****
dm (ortho)
[[[ 0.6427406647  0.4658215524 -0.0663838507 -0.0907114563]
  [ 0.4658215524  0.3376007317 -0.0481112058 -0.0657424584]
  [-0.0663838507 -0.0481112058  0.0068562888  0.0093689043]
  [-0.0907114563 -0.0657424584  0.0093689043  0.0128023148]]

 [[ 0.6427406647 -0.4658215524 -0.0663838507  0.0907114563]
  [-0.4658215524  0.3376007317  0.0481112058 -0.0657424584]
  [-0.0663838507  0.0481112058  0.0068562888 -0.0093689043]
  [ 0.0907114563 -0.0657424584 -0.0093689043  0.0128023148]]]
Fock (ortho)
 (array([[-0.2388873235, -0.326413236 ,  0.2163657457, -0.0245837681],
       [-0.326413236 ,  0.0110682141, -0.078060889 ,  0.339629591 ],
       [ 0.2163657457, -0.078060889 ,  1.1220172843, -0.0506526202],
       [-0.0245837681,  0.339629591 , -0.0506526202,  1.1126146476]]), array([[-0.2388873235,  0.326413236 ,  0.2163657457,  0.0245837681],
       [ 0.326413236 ,  0.0110682141,  0.078060889 ,  0.339629591 ],
       [ 0.2163657457,  0.078060889 ,  1.1220172843,  0.0506526202],
       [ 0.0245837681,  0.339629591 ,  0.0506526202,  1.1126146476]]))
E(UHF) =    -1.261600
NO eigenvalue
[-1.0000000000e+00 -6.6105513243e-17 -1.0041912724e-19  1.7575685382e-17] 
 [-1.0000000000e+00 -1.8179503082e-17 -5.7226184132e-20  1.3622612541e-17]
NO vec
[[ 0.8017110856  0.           -0.558558587   0.0139714187 -0.2123121279  0.            0.            0.          ]
 [ 0.5810341915  0.            0.6448163687 -0.0263889463  0.4958979154  0.            0.            0.          ]
 [-0.0828027103  0.           -0.3157079121 -0.8236825431  0.4637017291  0.            0.            0.          ]
 [-0.1131473145  0.           -0.4153945954  0.5662645063  0.7028438833  0.            0.            0.          ]
 [ 0.            0.8017110856  0.            0.            0.            0.3911341151  0.0105768056  0.4518424177]
 [ 0.           -0.5810341915  0.            0.            0.            0.6848399995  0.0496984981  0.4369479405]
 [ 0.           -0.0828027103  0.            0.            0.           -0.4578860937  0.7114382607  0.5266304563]
 [ 0.            0.1131473145  0.            0.            0.            0.4103030639  0.7009092606 -0.5723419339]]
dm(NO)
[[ 1.0000000000e+00  0.0000000000e+00  1.7142241081e-16  1.5843486284e-18  2.7147900821e-17  0.0000000000e+00  0.0000000000e+00  0.0000000000e+00]
 [ 0.0000000000e+00  1.0000000000e+00  0.0000000000e+00  0.0000000000e+00  0.0000000000e+00  1.1798929166e-17  1.3944874614e-17  3.1054342322e-17]
 [ 1.7835811172e-16  0.0000000000e+00  1.8995388429e-17 -3.0100637518e-18  1.2035616813e-17  0.0000000000e+00  0.0000000000e+00  0.0000000000e+00]
 [-4.2116628107e-18  0.0000000000e+00 -5.3416937490e-19 -6.6465533755e-21 -1.0269757594e-18  0.0000000000e+00  0.0000000000e+00  0.0000000000e+00]
 [ 1.0524125510e-17  0.0000000000e+00  8.0957749385e-18 -1.4077091388e-18  2.2586717889e-18  0.0000000000e+00  0.0000000000e+00  0.0000000000e+00]
 [ 0.0000000000e+00 -4.2440318708e-17  0.0000000000e+00  0.0000000000e+00  0.0000000000e+00 -5.8269940760e-18 -9.0928954556e-18  5.4451988961e-19]
 [ 0.0000000000e+00  5.0809628255e-18  0.0000000000e+00  0.0000000000e+00  0.0000000000e+00 -2.9493219529e-18  3.3386008594e-19 -2.2164628729e-18]
 [ 0.0000000000e+00  1.0543893327e-18  0.0000000000e+00  0.0000000000e+00  0.0000000000e+00  5.0132063261e-18  2.8042456859e-19  4.1457514705e-18]]
D(g) (NO)
 [[ 9.9951368521e-01  9.3298287801e-03  2.6073545107e-16 -1.8599416871e-17  8.6689649706e-17  2.1921226224e-02 -3.1451065374e-03  1.9872481360e-02]
 [-9.3298287801e-03  9.9951368521e-01  2.6297502386e-02 -4.9521562000e-03  1.3010183968e-02  2.8035633770e-17  1.5083061870e-17  4.0080592611e-17]
 [ 2.4500825008e-16 -2.6297502386e-02  9.9951368521e-01  3.6847458462e-17 -1.0770500153e-16  6.1507434794e-03 -1.5267988459e-02  3.1450478631e-03]
 [ 1.8888952315e-19  4.9521562000e-03  4.5619613981e-17  9.9951368521e-01 -1.9704623720e-17  1.8612805475e-02 -5.9330112474e-03 -2.3795631397e-02]
 [ 3.5853535323e-17 -1.3010183968e-02 -1.0202977803e-16 -1.2598661702e-17  9.9951368521e-01  1.0372306522e-02  2.6347472091e-02 -1.1636836770e-03]
 [-2.1921226224e-02  6.7222233413e-17 -6.1507434794e-03 -1.8612805475e-02 -1.0372306522e-02  9.9951368521e-01  1.0237297920e-16  1.8455591013e-16]
 [ 3.1451065374e-03  0.0000000000e+00  1.5267988459e-02  5.9330112474e-03 -2.6347472091e-02  5.5511151231e-17  9.9951368521e-01 -1.1102230246e-16]
 [-1.9872481360e-02  5.5511151231e-17 -3.1450478631e-03  2.3795631397e-02  1.1636836770e-03  1.1102230246e-16 -1.1102230246e-16  9.9951368521e-01]]
N(g) (NO)
 [[ 1.0003993862 -0.0093380962]
 [ 0.0093380962  1.0003993862]]
P(g) (NO)
 [[ 1.0000000000e+00  5.6380324140e-18  1.7142241081e-16  1.5843486284e-18  2.7147900821e-17  4.4520663318e-35  9.6296497219e-35  9.6296497219e-35]
 [ 2.1465863931e-18  1.0000000000e+00  1.0257536234e-34 -3.8575250869e-37 -8.2473629431e-36  1.1798929166e-17  1.3944874614e-17  3.1054342322e-17]
 [-2.4556860813e-04 -2.6308005245e-02 -4.2095962824e-20 -3.8906628747e-22 -6.6666722183e-21 -3.1040629039e-19 -3.6686183450e-19 -8.1697780069e-19]
 [ 4.6243711186e-05  4.9541340227e-03  7.9272084562e-21  7.3266160389e-23  1.2554196849e-21  5.8453476413e-20  6.9084777769e-20  1.5384737385e-19]
 [-1.2149034998e-04 -1.3015380056e-02 -2.0826168684e-20 -1.9248306936e-22 -3.2982079721e-21 -1.5356754735e-19 -1.8149784294e-19 -4.0418406771e-19]
 [-2.1929981259e-02  2.0470252015e-04 -3.7592902563e-18 -3.4744735728e-20 -5.9535295622e-19  2.4152705354e-21  2.8545509768e-21  6.3569021350e-21]
 [ 3.1463626495e-03 -2.9369307529e-05  5.3935707065e-19  4.9849353482e-21  8.5417141156e-20 -3.4652637919e-22 -4.0955131099e-22 -9.1204452975e-22]
 [-1.9880418154e-02  1.8557114345e-04 -3.4079492078e-18 -3.1497513234e-20 -5.3971162033e-19  2.1895407768e-21  2.5877663274e-21  5.7627898136e-21]]
time for NO, Ng: 0.014
Pg_ortho
 [[ 6.4287182818e-01  4.6591661217e-01 -6.6397397638e-02 -9.0729967719e-02  1.4051671612e-02 -1.0183845280e-02 -1.4512915120e-03  1.9831444712e-03]
 [ 4.6564532526e-01  3.3747301236e-01 -4.8093004646e-02 -6.5717587048e-02 -1.8879387425e-02  1.3682696680e-02  1.9499099806e-03 -2.6644910175e-03]
 [-6.6397397638e-02 -4.8121023832e-02  6.8576879868e-03  9.3708162036e-03 -1.4512915120e-03  1.0518128107e-03  1.4989298859e-04 -2.0482408197e-04]
 [-9.0677138839e-02 -6.5717587048e-02  9.3653599057e-03  1.2797471469e-02  3.6764652018e-03 -2.6644910175e-03 -3.7971444884e-04  5.1886792119e-04]
 [-1.4051671612e-02 -1.0183845280e-02  1.4512915120e-03  1.9831444712e-03  6.4287182818e-01 -4.6591661217e-01 -6.6397397638e-02  9.0729967719e-02]
 [-1.8879387425e-02 -1.3682696680e-02  1.9499099806e-03  2.6644910175e-03 -4.6564532526e-01  3.3747301236e-01  4.8093004646e-02 -6.5717587048e-02]
 [ 1.4512915120e-03  1.0518128107e-03 -1.4989298859e-04 -2.0482408197e-04 -6.6397397638e-02  4.8121023832e-02  6.8576879868e-03 -9.3708162036e-03]
 [ 3.6764652018e-03  2.6644910175e-03 -3.7971444884e-04 -5.1886792119e-04  9.0677138839e-02 -6.5717587048e-02 -9.3653599057e-03  1.2797471469e-02]]
G(g) (NO)
 [[ 2.7295464423e-01 -1.5811381521e-03 -5.2285534063e-02  5.3155941238e-03 -1.3764667187e-02  7.0983445756e-04 -2.3960682306e-05 -1.2125489152e-04]
 [ 1.5811381521e-03  2.7295464423e-01  1.3187453490e-04 -1.5415189168e-04  6.9136685015e-04  3.1646793633e-02 -4.1018070894e-03  4.3967650692e-02]
 [-5.2225527140e-02  1.7026969524e-02  8.6636336019e-01  1.6080992732e-01  1.1213330822e-01 -4.6524123766e-03  6.6699935918e-04  2.5730995269e-03]
 [ 5.3060374269e-03  2.1555275770e-03  1.6080606016e-01  8.2685061249e-01  7.6628796345e-02 -2.9406686687e-03  2.2961755288e-04  2.2106925048e-03]
 [-1.3727832796e-02  9.2146436019e-03  1.1213068088e-01  7.6631423790e-02  8.1367221393e-01 -2.6947649400e-03  3.2787408814e-04  1.9319429503e-03]
 [ 1.4021023887e-02  3.1590466879e-02 -9.0145243456e-04 -1.3020826622e-03  3.9967719416e-03  8.4926833882e-01  1.2391320412e-01  9.1571356819e-02]
 [ 3.3760002539e-03 -4.0976967265e-03 -1.1761011724e-03 -1.0391182895e-03  3.7850708976e-03  1.2390920686e-01  8.4469045815e-01  1.4465540259e-01]
 [ 1.3095310552e-02  4.3924530679e-02 -5.4576710240e-04 -1.3372777031e-03  4.0051983121e-03  9.1573126959e-02  1.4465850901e-01  8.1292738965e-01]]
time for Gg: 0.022
C(NO)
[[-1.0000000000e+00  0.0000000000e+00 -1.6458305012e-16  4.0551777718e-16  1.6129269514e-16  0.0000000000e+00  0.0000000000e+00  0.0000000000e+00]
 [ 0.0000000000e+00 -1.0000000000e+00  0.0000000000e+00  0.0000000000e+00  0.0000000000e+00 -3.3129616968e-16 -7.6327832943e-17 -5.5511151231e-17]
 [-1.8177779106e-16  0.0000000000e+00  8.6474128134e-01  4.8353133889e-01  1.3572015569e-01  0.0000000000e+00  0.0000000000e+00  0.0000000000e+00]
 [-5.7644282575e-18  0.0000000000e+00 -3.1728099250e-01  3.1650049013e-01  8.9395761172e-01  0.0000000000e+00  0.0000000000e+00  0.0000000000e+00]
 [-3.9519509423e-17  0.0000000000e+00  3.8930102511e-01 -8.1610347632e-01  4.2710634249e-01  0.0000000000e+00  0.0000000000e+00  0.0000000000e+00]
 [ 0.0000000000e+00  2.0788586417e-18  0.0000000000e+00  0.0000000000e+00  0.0000000000e+00 -7.1127461661e-01  6.3998296752e-01 -2.9070641730e-01]
 [ 0.0000000000e+00 -6.7086806407e-20  0.0000000000e+00  0.0000000000e+00  0.0000000000e+00  2.6229643134e-01 -1.4204650382e-01 -9.5447544382e-01]
 [ 0.0000000000e+00 -1.7176554514e-17  0.0000000000e+00  0.0000000000e+00  0.0000000000e+00 -6.5214185717e-01 -7.5514541119e-01 -6.6831175956e-02]]
detC 0.9999999999999994
detNg [ 1.0008861319  1.0235662454  1.1372541875  1.4834076483  2.407356124   4.7572359479  8.8856775582 11.061660401 ]
xg [0.9991146526 0.9769763359 0.8793108973 0.6741235298 0.4153934642 0.2102060968 0.1125406581 0.0904023414]
ciS 1.089516994028197
[[-0.767269973   0.            0.0522868064 -0.0053170546  0.0137711885  0.            0.            0.          ]
 [ 0.           -0.767269973   0.            0.            0.           -0.0316535     0.0041020402 -0.043966533 ]
 [ 0.0522868064  0.           -0.4959065082  0.1299497151 -0.4311410067  0.            0.            0.          ]
 [-0.0053170546  0.            0.1299497151  0.3196876474  0.1139961008  0.            0.            0.          ]
 [ 0.0137711885  0.           -0.4311410067  0.1139961008  0.1704584473  0.            0.            0.          ]
 [ 0.           -0.0316535     0.            0.            0.           -0.2299411036  0.1093910336 -0.5421599295]
 [ 0.            0.0041020402  0.            0.            0.            0.1093910336  0.353467514   0.0344521477]
 [ 0.           -0.043966533   0.            0.            0.           -0.5421599295  0.0344521477 -0.129286824 ]]
ciH -1.3881309806320228
0.9999999999999999 1.4446993948369347e-17 -0.028403129201651535j 1.8778381627448937e-16
0.5448378560241831 0.00040336887422285505 -0.00040336887422285516 0.45516214397581656
0.9999999999999999 8.673617379884035e-17 -0.1463111447145223j 2.1640675362810669e-16
0.5468929338946501 0.010703475533836944 -0.010703475533836944 0.4531070661053496
0.9999999999999997 1.9678269430611905e-16 -0.3511142553680626j 2.415602440297704e-16
0.5578882717280633 0.06164061016133454 -0.061640610161334534 0.442111728271936
1.0000000000000002 2.5912431922403556e-16 -0.6474688047367693j -8.673617379884035e-18
0.5984909944000865 0.20960792655363025 -0.20960792655363025 0.40150900559991354
0.9999999999999999 4.193694003173931e-16 -1.0507482511339807j 8.283304597789254e-17
0.759391760257943 0.5520359436305595 -0.5520359436305594 0.24060823974205664
0.9999999999999998 3.2829641782861074e-16 -1.4687423232694232j -5.2475385148298415e-17
1.5129426988320491 1.0786020060814314 -1.0786020060814314 -0.5129426988320493
1.0 5.299580219109146e-16 -1.2701411960079296j -2.723515857283587e-16
4.033919022651439 0.8066293288982269 -0.8066293288982269 -3.033919022651439
0.9999999999999998 1.584019374001322e-16 -0.3139076060101566j -4.423544863740858e-16
5.976664501981829 0.049268992555513876 -0.04926899255551386 -4.976664501981829
S2 = 0.000000
X(g)
[[ 2.0000000000e+00  6.9388939039e-18 -2.4556860813e-04  4.6243711186e-05 -1.2149034998e-04  2.1929981259e-02 -3.1463626495e-03  1.9880418154e-02]
 [-5.2041704279e-18  2.0000000000e+00  2.6308005245e-02 -4.9541340227e-03  1.3015380056e-02  2.0470252015e-04 -2.9369307528e-05  1.8557114345e-04]
 [-2.4556860813e-04 -2.6308005245e-02  0.0000000000e+00  0.0000000000e+00  0.0000000000e+00  0.0000000000e+00  0.0000000000e+00  0.0000000000e+00]
 [ 4.6243711186e-05  4.9541340227e-03  0.0000000000e+00  0.0000000000e+00  0.0000000000e+00  0.0000000000e+00  0.0000000000e+00  0.0000000000e+00]
 [-1.2149034998e-04 -1.3015380056e-02  0.0000000000e+00  0.0000000000e+00  0.0000000000e+00  0.0000000000e+00  0.0000000000e+00  0.0000000000e+00]
 [-2.1929981259e-02  2.0470252015e-04  0.0000000000e+00  0.0000000000e+00  0.0000000000e+00  0.0000000000e+00  0.0000000000e+00  0.0000000000e+00]
 [ 3.1463626495e-03 -2.9369307529e-05  0.0000000000e+00  0.0000000000e+00  0.0000000000e+00  0.0000000000e+00  0.0000000000e+00  0.0000000000e+00]
 [-1.9880418154e-02  1.8557114345e-04  0.0000000000e+00  0.0000000000e+00  0.0000000000e+00  0.0000000000e+00  0.0000000000e+00  0.0000000000e+00]]
X(g) int
[[ 2.0000000000e+00  1.2024276519e-16 -2.3158600505e-01  4.3610608105e-02 -1.1457272580e-01  5.0675703682e-01 -7.2706008922e-02  4.5939582327e-01]
 [-9.1685601067e-17  2.0000000000e+00  6.0792422144e-01 -1.1447990984e-01  3.0075882659e-01  1.9304681990e-01 -2.7697027944e-02  1.7500477805e-01]
 [-2.3158600505e-01 -6.0792422144e-01  0.0000000000e+00  0.0000000000e+00  0.0000000000e+00  0.0000000000e+00  0.0000000000e+00  0.0000000000e+00]
 [ 4.3610608105e-02  1.1447990984e-01  0.0000000000e+00  0.0000000000e+00  0.0000000000e+00  0.0000000000e+00  0.0000000000e+00  0.0000000000e+00]
 [-1.1457272580e-01 -3.0075882659e-01  0.0000000000e+00  0.0000000000e+00  0.0000000000e+00  0.0000000000e+00  0.0000000000e+00  0.0000000000e+00]
 [-5.0675703682e-01  1.9304681990e-01  0.0000000000e+00  0.0000000000e+00  0.0000000000e+00  0.0000000000e+00  0.0000000000e+00  0.0000000000e+00]
 [ 7.2706008922e-02 -2.7697027944e-02  0.0000000000e+00  0.0000000000e+00  0.0000000000e+00  0.0000000000e+00  0.0000000000e+00  0.0000000000e+00]
 [-4.5939582327e-01  1.7500477805e-01  0.0000000000e+00  0.0000000000e+00  0.0000000000e+00  0.0000000000e+00  0.0000000000e+00  0.0000000000e+00]]
Feff
 [[ 8.7720462765e-17 -1.4587169901e-17 -6.9946885238e-03 -1.4778100916e-02 -7.9139498963e-03  2.2726764022e-02 -1.4609658475e-03  2.9309449775e-03]
 [-2.4428317113e-17 -3.8043423216e-16  1.0633769322e-02 -4.9907265696e-03  1.9729324897e-02  7.2331631307e-03  1.5804508031e-02  5.2770649255e-03]
 [-6.9946885238e-03 -1.0633769322e-02  0.0000000000e+00  0.0000000000e+00  0.0000000000e+00  0.0000000000e+00  0.0000000000e+00  0.0000000000e+00]
 [-1.4778100916e-02  4.9907265696e-03  0.0000000000e+00  0.0000000000e+00  0.0000000000e+00  0.0000000000e+00  0.0000000000e+00  0.0000000000e+00]
 [-7.9139498963e-03 -1.9729324897e-02  0.0000000000e+00  0.0000000000e+00  0.0000000000e+00  0.0000000000e+00  0.0000000000e+00  0.0000000000e+00]
 [-2.2726764022e-02  7.2331631307e-03  0.0000000000e+00  0.0000000000e+00  0.0000000000e+00  0.0000000000e+00  0.0000000000e+00  0.0000000000e+00]
 [ 1.4609658475e-03  1.5804508031e-02  0.0000000000e+00  0.0000000000e+00  0.0000000000e+00  0.0000000000e+00  0.0000000000e+00  0.0000000000e+00]
 [-2.9309449775e-03  5.2770649255e-03  0.0000000000e+00  0.0000000000e+00  0.0000000000e+00  0.0000000000e+00  0.0000000000e+00  0.0000000000e+00]]
Feff (ortho)
 [[ 8.6275334274e-03 -3.3232527142e-03  8.1416149612e-03 -9.4477000966e-03 -1.0581813203e-16 -1.0148132334e-16  8.9338259013e-17  5.6812193838e-17]
 [-3.3232527142e-03 -9.3486337561e-03  6.8896077566e-03 -5.4956690450e-03 -5.6378512969e-17 -8.8470897275e-17  6.2450045135e-17  4.4343868855e-17]
 [ 8.1416149612e-03  6.8896077566e-03 -1.7738046285e-03 -2.9902195763e-04  6.7654215563e-17 -3.0791341699e-17 -1.5178830415e-17  2.2768245622e-18]
 [-9.4477000966e-03 -5.4956690450e-03 -2.9902195763e-04  2.4949049572e-03 -2.1684043450e-17  4.0549161251e-17 -8.7820375971e-18 -1.3010426070e-17]
 [-1.0581813203e-16 -5.6378512969e-17  6.7654215563e-17 -2.1684043450e-17  8.6275334274e-03  3.3232527142e-03  8.1416149612e-03  9.4477000966e-03]
 [-1.0148132334e-16 -8.8470897275e-17 -3.0791341699e-17  4.0549161251e-17  3.3232527142e-03 -9.3486337561e-03 -6.8896077566e-03 -5.4956690450e-03]
 [ 8.9338259013e-17  6.2450045135e-17 -1.5178830415e-17 -8.7820375971e-18  8.1416149612e-03 -6.8896077566e-03 -1.7738046285e-03  2.9902195763e-04]
 [ 5.6812193838e-17  4.4343868855e-17  2.2768245622e-18 -1.3010426070e-17  9.4477000966e-03 -5.4956690450e-03  2.9902195763e-04  2.4949049572e-03]]
Hsp + Hph =  -1.2740792371670868
Feff (mod,ortho)
[[-0.2302597295 -0.3297365156  0.2245073286 -0.0340314871  0.            0.            0.            0.          ]
 [-0.3297365156  0.0017195096 -0.0711712972  0.3341339181  0.            0.            0.            0.          ]
 [ 0.2245073286 -0.0711712972  1.1202434857 -0.0509516366  0.            0.            0.            0.          ]
 [-0.0340314871  0.3341339181 -0.0509516366  1.1151095567  0.            0.            0.            0.          ]
 [ 0.            0.            0.            0.           -0.2302597295  0.3297365156  0.2245073286  0.0340314871]
 [ 0.            0.            0.            0.            0.3297365156  0.0017195096  0.0711712972  0.3341339181]
 [ 0.            0.            0.            0.            0.2245073286  0.0711712972  1.1202434857  0.0509516366]
 [ 0.            0.            0.            0.            0.0340314871  0.3341339181  0.0509516366  1.1151095567]]
Alpha occ 1 vir 3; Beta occ 1 vir 3
Alpha energies:  [-0.4945369813] <- HOMO
         LUMO->  [0.1202097884 1.099203477  1.2819365384]
Beta energies:   [-0.4945369813] <- HOMO
         LUMO->  [0.1202097884 1.099203477  1.2819365384]
e_a, e_b
 [-0.4945369813  0.1202097884  1.099203477   1.2819365384] 
 [-0.4945369813  0.1202097884  1.099203477   1.2819365384]
v_a, v_b
 [[ 0.7959192725  0.5758526377 -0.0931821925  0.1619361922]
 [ 0.5890939817 -0.7547802912 -0.1018733654 -0.2699940928]
 [-0.0881101107 -0.1695190739 -0.7916389213  0.5803513679]
 [-0.1082469437  0.2645065883 -0.5951862857 -0.7510473682]] 
 [[ 0.7959192725 -0.5758526377  0.0931821925  0.1619361922]
 [-0.5890939817 -0.7547802912 -0.1018733654  0.2699940928]
 [-0.0881101107  0.1695190739  0.7916389213  0.5803513679]
 [ 0.1082469437  0.2645065883 -0.5951862857  0.7510473682]]
P_a, P_b
 [[ 0.6334874883  0.4688712533 -0.0701285352 -0.0861558286]
 [ 0.4688712533  0.3470317192 -0.0519051359 -0.063767623 ]
 [-0.0701285352 -0.0519051359  0.0077633916  0.0095376502]
 [-0.0861558286 -0.063767623   0.0095376502  0.0117174008]] 
 [[ 0.6334874883 -0.4688712533 -0.0701285352  0.0861558286]
 [-0.4688712533  0.3470317192  0.0519051359 -0.063767623 ]
 [-0.0701285352  0.0519051359  0.0077633916 -0.0095376502]
 [ 0.0861558286 -0.063767623  -0.0095376502  0.0117174008]]
time for xg, H, S2, Yg, Feff: 0.024
 E(SUHF) =     -1.00949063
**** Start Cycle 2 ****
dm (ortho)
[[[ 0.6334874883  0.4688712533 -0.0701285352 -0.0861558286]
  [ 0.4688712533  0.3470317192 -0.0519051359 -0.063767623 ]
  [-0.0701285352 -0.0519051359  0.0077633916  0.0095376502]
  [-0.0861558286 -0.063767623   0.0095376502  0.0117174008]]

 [[ 0.6334874883 -0.4688712533 -0.0701285352  0.0861558286]
  [-0.4688712533  0.3470317192  0.0519051359 -0.063767623 ]
  [-0.0701285352  0.0519051359  0.0077633916 -0.0095376502]
  [ 0.0861558286 -0.063767623  -0.0095376502  0.0117174008]]]
Fock (ortho)
 (array([[-0.2363081016, -0.3284564986,  0.2173277084, -0.0261901497],
       [-0.3284564986,  0.0087229249, -0.0778261308,  0.3390100841],
       [ 0.2173277084, -0.0778261308,  1.1216808993, -0.0509166931],
       [-0.0261901497,  0.3390100841, -0.0509166931,  1.1127032785]]), array([[-0.2363081016,  0.3284564986,  0.2173277084,  0.0261901497],
       [ 0.3284564986,  0.0087229249,  0.0778261308,  0.3390100841],
       [ 0.2173277084,  0.0778261308,  1.1216808993,  0.0509166931],
       [ 0.0261901497,  0.3390100841,  0.0509166931,  1.1127032785]]))
E(UHF) =    -1.261271
NO eigenvalue
[-1.0000000000e+00 -6.0266022530e-18  6.1812739577e-19  1.1317707097e-16] 
 [-1.0000000000e+00 -1.1457289694e-17  6.4480541369e-19  1.3783002510e-17]
NO vec
[[ 0.7959192725  0.           -0.0531938535  0.0634010609 -0.5997192936  0.            0.            0.          ]
 [ 0.5890939817  0.            0.2549772726  0.0538164953  0.7648912707  0.            0.            0.          ]
 [-0.0881101107  0.            0.0390717616  0.9952282845 -0.015187745   0.            0.            0.          ]
 [-0.1082469437  0.            0.9646918689 -0.0510367717 -0.2346219198  0.            0.            0.          ]
 [ 0.            0.7959192725  0.            0.            0.           -0.4400586047 -0.1116647906  0.4004895886]
 [ 0.           -0.5890939817  0.            0.            0.           -0.5262786798  0.0627581305  0.6099675803]
 [ 0.           -0.0881101107  0.            0.            0.            0.3362020621 -0.8895453452  0.2965027162]
 [ 0.            0.1082469437  0.            0.            0.            0.6452498345  0.4385219156  0.6161442848]]
dm(NO)
[[ 1.0000000000e+00  0.0000000000e+00  2.9966267002e-18  2.3838118534e-17  2.6428093874e-17  0.0000000000e+00  0.0000000000e+00  0.0000000000e+00]
 [ 0.0000000000e+00  1.0000000000e+00  0.0000000000e+00  0.0000000000e+00  0.0000000000e+00 -8.9004223157e-17 -1.2478019693e-17  8.0878301731e-17]
 [ 1.8744010000e-17  0.0000000000e+00  2.6319003037e-18 -1.1780255681e-19  3.9538739663e-18  0.0000000000e+00  0.0000000000e+00  0.0000000000e+00]
 [ 3.4708124885e-17  0.0000000000e+00 -8.7031396035e-20 -1.2423224996e-20 -4.8673483997e-18  0.0000000000e+00  0.0000000000e+00  0.0000000000e+00]
 [-1.4465821315e-17  0.0000000000e+00 -6.2647239278e-18 -9.4758246201e-19 -4.1597025161e-18  0.0000000000e+00  0.0000000000e+00  0.0000000000e+00]
 [ 0.0000000000e+00 -5.8268483669e-17  0.0000000000e+00  0.0000000000e+00  0.0000000000e+00 -2.1275670760e-17 -2.4127319166e-18  2.2972947366e-17]
 [ 0.0000000000e+00  7.8700856425e-18  0.0000000000e+00  0.0000000000e+00  0.0000000000e+00 -3.7496343071e-18 -2.2426546274e-18  1.3247999643e-18]
 [ 0.0000000000e+00  1.1782625622e-16  0.0000000000e+00  0.0000000000e+00  0.0000000000e+00 -2.5435963849e-18  3.6084714308e-18  1.9188963707e-18]]
D(g) (NO)
 [[ 9.9951368521e-01  8.8093139182e-03 -3.2220238153e-17  2.9127549834e-17 -2.3018998456e-16 -2.3691382737e-02 -6.5473656785e-04  1.8250445668e-02]
 [-8.8093139182e-03  9.9951368521e-01  2.8551747400e-03  2.3217494822e-03  2.9685796597e-02  1.8796434056e-16  3.0013259152e-18 -1.0152188405e-16]
 [-5.1893925375e-17 -2.8551747400e-03  9.9951368521e-01  7.8690785352e-17 -2.1679540253e-17  1.6365657029e-02  1.2792110597e-02  2.3081772645e-02]
 [ 1.8104760366e-17 -2.3217494822e-03  7.9169512578e-17  9.9951368521e-01 -5.0790076661e-17  7.6537236314e-03 -2.8419875649e-02  1.0036619786e-02]
 [-3.3483987629e-16 -2.9685796597e-02 -3.4988188574e-17 -5.1704278712e-17  9.9951368521e-01 -9.2031105255e-03  7.9810358092e-04  2.4108800247e-03]
 [ 2.3691382737e-02  7.8702227852e-17 -1.6365657029e-02 -7.6537236314e-03  9.2031105255e-03  9.9951368521e-01  9.4459690300e-17 -3.5215739105e-16]
 [ 6.5473656785e-04  6.9388939039e-18 -1.2792110597e-02  2.8419875649e-02 -7.9810358092e-04  1.1102230246e-16  9.9951368521e-01 -5.5511151231e-17]
 [-1.8250445668e-02 -1.1102230246e-16 -2.3081772645e-02 -1.0036619786e-02 -2.4108800247e-03 -4.1633363423e-16 -5.5511151231e-17  9.9951368521e-01]]
N(g) (NO)
 [[ 1.0004088401 -0.0088172035]
 [ 0.0088172035  1.0004088401]]
P(g) (NO)
 [[ 1.0000000000e+00 -2.1518249764e-18  2.9966267002e-18  2.3838118534e-17  2.6428093874e-17  8.8733502350e-35  2.4074124305e-35 -1.9259299444e-34]
 [ 4.3188253964e-18  1.0000000000e+00  9.5778472089e-36  8.2566957343e-35  1.2190771332e-34 -8.9004223157e-17 -1.2478019693e-17  8.0878301731e-17]
 [-2.5174656583e-05 -2.8563420499e-03 -7.5439048085e-23 -6.0011644769e-22 -6.6531818743e-22  2.5422650522e-19  3.5641492348e-20 -2.3101609416e-19]
 [-2.0471337557e-05 -2.3226987065e-03 -6.1344956711e-23 -4.8799817124e-22 -5.4101843068e-22  2.0672999400e-19  2.8982680200e-20 -1.8785592681e-19]
 [-2.6174570833e-04 -2.9697933341e-02 -7.8435417823e-22 -6.2395252210e-21 -6.9174401509e-21  2.6432414864e-18  3.7057139706e-19 -2.4019184135e-18]
 [ 2.3701068724e-02 -2.0889174173e-04  7.1023255361e-20  5.6498888564e-19  6.2637406916e-19  1.8592247197e-20  2.6065552670e-21 -1.6894809317e-20]
 [ 6.5500425041e-04 -5.7729455284e-06  1.9628032255e-21  1.5614068962e-20  1.7310513818e-20  5.1381653209e-22  7.2034927989e-23 -4.6690603032e-22]
 [-1.8257907182e-02  1.6091789261e-04 -5.4712132150e-20 -4.3523415559e-19 -4.8252168494e-19 -1.4322372023e-20 -2.0079366328e-21  1.3014765872e-20]]
time for NO, Ng: 0.022
Pg_ortho
 [[ 6.3361245974e-01  4.6896375003e-01 -7.0142369841e-02 -8.6172825060e-02  1.4179382930e-02 -1.0494769302e-02 -1.5696905992e-03  1.9284303297e-03]
 [ 4.6870591887e-01  3.4690934813e-01 -5.1886833036e-02 -6.3745137158e-02 -1.8759014792e-02  1.3884351212e-02  2.0766664751e-03 -2.5512713253e-03]
 [-7.0142369841e-02 -5.1915375543e-02  7.7649231344e-03  9.5395317321e-03 -1.5696905992e-03  1.1617953190e-03  1.7376839241e-04 -2.1348171318e-04]
 [-8.6125448181e-02 -6.3745137158e-02  9.5342870016e-03  1.1713268995e-02  3.4469984084e-03 -2.5512713253e-03 -3.8159072392e-04  4.6880011000e-04]
 [-1.4179382930e-02 -1.0494769302e-02  1.5696905992e-03  1.9284303297e-03  6.3361245974e-01 -4.6896375003e-01 -7.0142369841e-02  8.6172825060e-02]
 [-1.8759014792e-02 -1.3884351212e-02  2.0766664751e-03  2.5512713253e-03 -4.6870591887e-01  3.4690934813e-01  5.1886833036e-02 -6.3745137158e-02]
 [ 1.5696905992e-03  1.1617953190e-03 -1.7376839241e-04 -2.1348171318e-04 -7.0142369841e-02  5.1915375543e-02  7.7649231344e-03 -9.5395317321e-03]
 [ 3.4469984084e-03  2.5512713253e-03 -3.8159072392e-04 -4.6880011000e-04  8.6125448181e-02 -6.3745137158e-02 -9.5342870016e-03  1.1713268995e-02]]
G(g) (NO)
 [[ 2.7122543777e-01 -1.4540154567e-03  5.6965274895e-03  1.1760092505e-03 -4.9596627639e-02 -2.1670428237e-04  4.5196886591e-04  3.6169237102e-04]
 [ 1.4540154567e-03  2.7122543777e-01  3.8831852934e-04  3.5906021382e-04  3.1991007428e-04 -4.2449822300e-02 -1.0405727899e-02  2.4153515478e-02]
 [ 5.7096025455e-03  5.1805426739e-03  8.0748033849e-01 -7.2228707452e-02  1.5237491335e-01 -4.6876479154e-05 -3.3305474712e-03 -1.1574748614e-03]
 [ 1.1829376247e-03 -2.8151606993e-03 -7.2228015699e-02  8.2179640687e-01 -1.2564255634e-01 -1.8603099394e-04  3.0309047455e-03  1.1947262544e-03]
 [-4.9530556985e-02  1.8761507515e-02  1.5237973146e-01 -1.2564534317e-01  8.7932288917e-01  7.8556377301e-04 -5.1379802833e-03 -2.0602095602e-03]
 [-1.1872181545e-02 -4.2399481095e-02 -1.0017933399e-03 -1.3494097733e-03 -6.7329152555e-04  6.9384916181e-01  2.9101365022e-03 -6.2265832909e-02]
 [-2.5745297669e-03 -1.0408952816e-02 -1.2966139481e-03 -1.4162740859e-03 -4.3721877663e-04  2.9099489796e-03  7.7109720053e-01 -8.9517954839e-02]
 [ 1.5465458876e-02  2.4108352952e-02  4.6309383820e-03  4.9950419407e-03  8.8950347887e-04 -6.2260227407e-02 -8.9518003132e-02  1.0436532722e+00]]
time for Gg: 0.028
C(NO)
[[ 1.0000000000e+00  0.0000000000e+00  3.4569927286e-16  6.3485138692e-17  1.3164260238e-16  0.0000000000e+00  0.0000000000e+00  0.0000000000e+00]
 [ 0.0000000000e+00  1.0000000000e+00  0.0000000000e+00  0.0000000000e+00  0.0000000000e+00  3.5811920435e-16 -2.0816681712e-17 -6.9388939039e-17]
 [ 1.7854412012e-17  0.0000000000e+00  2.5460305274e-02 -6.2612077040e-01 -7.7931030644e-01  0.0000000000e+00  0.0000000000e+00  0.0000000000e+00]
 [ 3.9132461319e-17  0.0000000000e+00 -1.8631970133e-01 -7.6887537636e-01  6.1164991990e-01  0.0000000000e+00  0.0000000000e+00  0.0000000000e+00]
 [ 3.6409607263e-17  0.0000000000e+00 -9.8215922424e-01  1.2962806986e-01 -1.3623443674e-01  0.0000000000e+00  0.0000000000e+00  0.0000000000e+00]
 [ 0.0000000000e+00 -7.1094942584e-17  0.0000000000e+00  0.0000000000e+00  0.0000000000e+00  8.7829917804e-01 -1.0528505993e-01  4.6637496717e-01]
 [ 0.0000000000e+00 -2.1123273216e-17  0.0000000000e+00  0.0000000000e+00  0.0000000000e+00 -1.7869103097e-02 -9.8199949965e-01 -1.8803637370e-01]
 [ 0.0000000000e+00  1.3961310444e-16  0.0000000000e+00  0.0000000000e+00  0.0000000000e+00 -4.7777740529e-01 -1.5681849009e-01  8.6437070297e-01]]
detC 0.9999999999999994
detNg [ 1.0008955904  1.0238235524  1.1389212638  1.4910946134  2.4440377096  4.9558084798  9.7015378317 12.3912615067]
xg [0.9991052109 0.9767308025 0.8780238211 0.6706482547 0.4091589897 0.2017834232 0.1030764418 0.0807020334]
ciS 1.07980724433857
[[-0.7662420123  0.            0.0045195759 -0.0113607738  0.0540933408  0.            0.            0.          ]
 [ 0.           -0.7662420123  0.            0.            0.            0.0377420277  0.0151298769 -0.0377121921]
 [ 0.0045195759  0.            0.401725444  -0.0105323481 -0.1081741306  0.            0.            0.          ]
 [-0.0113607738  0.           -0.0105323481  0.3115071389 -0.0691457731  0.            0.            0.          ]
 [ 0.0540933408  0.           -0.1081741306 -0.0691457731 -0.7200209571  0.            0.            0.          ]
 [ 0.            0.0377420277  0.            0.            0.           -0.3098807499 -0.0033720535  0.5460867614]
 [ 0.            0.0151298769  0.            0.            0.           -0.0033720535  0.3337975795  0.0510082054]
 [ 0.           -0.0377121921  0.            0.            0.            0.5460867614  0.0510082054 -0.0307052038]]
ciH -1.3762059921027037
0.9999999999999998 -1.5585406229479126e-18 -0.02870630264430029j 9.93129189996722e-17
0.5399751287793518 0.00041202590575308094 -0.00041202590575308094 0.4600248712206477
1.0 -1.6263032587282567e-19 -0.14790863679661292j -7.112366251504909e-17
0.5418275620056395 0.010938482419516176 -0.01093848241951618 0.45817243799436047
1.0 -2.0383000842727483e-17 -0.3553788558710538j -1.8561541192951836e-16
0.5517606501108687 0.0631470656001096 -0.06314706560010962 0.44823934988913117
1.0 -9.237402509576498e-17 -0.6577646081167294j -7.546047120499111e-17
0.5887202429278543 0.21632713984547725 -0.2163271398454773 0.41127975707214537
1.0000000000000002 1.249000902703301e-16 -1.078135144344916j 4.2500725161431774e-17
0.7383571173754389 0.5811876947358166 -0.5811876947358168 0.26164288262456137
1.0 2.5066754227864863e-16 -1.546366376148842j 2.5543803183758484e-16
1.4800344643952419 1.1956244846418511 -1.1956244846418511 -0.4800344643952415
1.0000000000000002 4.501607420159814e-16 -1.4015513045175214j 2.0990154059319366e-16
4.255722386357185 0.9821730295973833 -0.9821730295973831 -3.255722386357185
0.9999999999999999 1.1037178115902435e-16 -0.35538901995102995j 6.522560269672795e-16
6.62693629295123 0.06315067775087681 -0.0631506777508768 -5.626936292951229
S2 = -0.000000
X(g)
[[ 2.0000000000e+00 -3.4694469520e-18 -2.5174656583e-05 -2.0471337557e-05 -2.6174570833e-04 -2.3701068724e-02 -6.5500425041e-04  1.8257907182e-02]
 [ 3.4694469520e-18  2.0000000000e+00  2.8563420499e-03  2.3226987065e-03  2.9697933341e-02 -2.0889174173e-04 -5.7729455285e-06  1.6091789261e-04]
 [-2.5174656583e-05 -2.8563420499e-03  0.0000000000e+00  0.0000000000e+00  0.0000000000e+00  0.0000000000e+00  0.0000000000e+00  0.0000000000e+00]
 [-2.0471337557e-05 -2.3226987065e-03  0.0000000000e+00  0.0000000000e+00  0.0000000000e+00  0.0000000000e+00  0.0000000000e+00  0.0000000000e+00]
 [-2.6174570833e-04 -2.9697933341e-02  0.0000000000e+00  0.0000000000e+00  0.0000000000e+00  0.0000000000e+00  0.0000000000e+00  0.0000000000e+00]
 [ 2.3701068724e-02 -2.0889174173e-04  0.0000000000e+00  0.0000000000e+00  0.0000000000e+00  0.0000000000e+00  0.0000000000e+00  0.0000000000e+00]
 [ 6.5500425041e-04 -5.7729455284e-06  0.0000000000e+00  0.0000000000e+00  0.0000000000e+00  0.0000000000e+00  0.0000000000e+00  0.0000000000e+00]
 [-1.8257907182e-02  1.6091789261e-04  0.0000000000e+00  0.0000000000e+00  0.0000000000e+00  0.0000000000e+00  0.0000000000e+00  0.0000000000e+00]]
X(g) int
[[ 2.0000000000e+00 -3.5276317385e-17 -2.3954476541e-02 -1.9479120744e-02 -2.4905926360e-01 -5.5260285558e-01 -1.5271767843e-02  4.2569268766e-01]
 [ 7.8475203266e-17  2.0000000000e+00  6.6597113896e-02  5.4154939289e-02  6.9242290126e-01 -1.9876705410e-01 -5.4931390137e-03  1.5311842967e-01]
 [-2.3954476541e-02 -6.6597113896e-02  0.0000000000e+00  0.0000000000e+00  0.0000000000e+00  0.0000000000e+00  0.0000000000e+00  0.0000000000e+00]
 [-1.9479120744e-02 -5.4154939289e-02  0.0000000000e+00  0.0000000000e+00  0.0000000000e+00  0.0000000000e+00  0.0000000000e+00  0.0000000000e+00]
 [-2.4905926360e-01 -6.9242290126e-01  0.0000000000e+00  0.0000000000e+00  0.0000000000e+00  0.0000000000e+00  0.0000000000e+00  0.0000000000e+00]
 [ 5.5260285558e-01 -1.9876705410e-01  0.0000000000e+00  0.0000000000e+00  0.0000000000e+00  0.0000000000e+00  0.0000000000e+00  0.0000000000e+00]
 [ 1.5271767843e-02 -5.4931390137e-03  0.0000000000e+00  0.0000000000e+00  0.0000000000e+00  0.0000000000e+00  0.0000000000e+00  0.0000000000e+00]
 [-4.2569268766e-01  1.5311842967e-01  0.0000000000e+00  0.0000000000e+00  0.0000000000e+00  0.0000000000e+00  0.0000000000e+00  0.0000000000e+00]]
Feff
 [[ 4.8561235619e-16  1.2563941905e-17 -3.3209340484e-03 -1.6052257760e-03  1.8452458715e-03 -1.0275699847e-02  1.9248872312e-02  2.0212435484e-02]
 [-1.0458944226e-17  3.4531755308e-16  1.9717925140e-02  1.4142713804e-02  1.7199962652e-02  2.4092400064e-03  3.2054635038e-03  9.6480639980e-04]
 [-3.3209340484e-03 -1.9717925140e-02  0.0000000000e+00  0.0000000000e+00  0.0000000000e+00  0.0000000000e+00  0.0000000000e+00  0.0000000000e+00]
 [-1.6052257760e-03 -1.4142713804e-02  0.0000000000e+00  0.0000000000e+00  0.0000000000e+00  0.0000000000e+00  0.0000000000e+00  0.0000000000e+00]
 [ 1.8452458715e-03 -1.7199962652e-02  0.0000000000e+00  0.0000000000e+00  0.0000000000e+00  0.0000000000e+00  0.0000000000e+00  0.0000000000e+00]
 [ 1.0275699847e-02  2.4092400064e-03  0.0000000000e+00  0.0000000000e+00  0.0000000000e+00  0.0000000000e+00  0.0000000000e+00  0.0000000000e+00]
 [-1.9248872312e-02  3.2054635038e-03  0.0000000000e+00  0.0000000000e+00  0.0000000000e+00  0.0000000000e+00  0.0000000000e+00  0.0000000000e+00]
 [-2.0212435484e-02  9.6480639980e-04  0.0000000000e+00  0.0000000000e+00  0.0000000000e+00  0.0000000000e+00  0.0000000000e+00  0.0000000000e+00]]
Feff (ortho)
 [[-1.6423782864e-03 -2.2713925168e-04 -1.3062061373e-03 -2.7175607100e-03 -2.2551405188e-17  7.3725747729e-17 -6.5919492087e-17  6.8521577301e-17]
 [-2.2713925168e-04  5.6348268232e-04 -1.0762034712e-03 -2.1458155214e-03  8.3266726847e-17 -1.9081958236e-17 -5.9847959921e-17  6.3317406873e-17]
 [-1.3062061373e-03 -1.0762034712e-03  3.0932745416e-04  5.0321475883e-04  1.2143064332e-17 -1.5178830415e-17  6.5052130349e-18 -6.2883726004e-18]
 [-2.7175607100e-03 -2.1458155214e-03  5.0321475883e-04  7.6956814991e-04  8.8470897275e-17 -7.5894152074e-17 -6.5052130349e-19  2.8189256485e-18]
 [-2.2551405188e-17  8.3266726847e-17  1.2143064332e-17  8.8470897275e-17 -1.6423782864e-03  2.2713925168e-04 -1.3062061373e-03  2.7175607100e-03]
 [ 7.3725747729e-17 -1.9081958236e-17 -1.5178830415e-17 -7.5894152074e-17  2.2713925168e-04  5.6348268232e-04  1.0762034712e-03 -2.1458155214e-03]
 [-6.5919492087e-17 -5.9847959921e-17  6.5052130349e-18 -6.5052130349e-19 -1.3062061373e-03  1.0762034712e-03  3.0932745416e-04 -5.0321475883e-04]
 [ 6.8521577301e-17  6.3317406873e-17 -6.2883726004e-18  2.8189256485e-18  2.7175607100e-03 -2.1458155214e-03 -5.0321475883e-04  7.6956814991e-04]]
Hsp + Hph =  -1.2744922756521153
Feff (mod,ortho)
[[-0.2317673778 -0.330767483   0.2234860663 -0.0367442925  0.            0.            0.            0.          ]
 [-0.330767483   0.0028145471 -0.0726401881  0.3319698847  0.            0.            0.            0.          ]
 [ 0.2234860663 -0.0726401881  1.1202617637 -0.0506542407  0.            0.            0.            0.          ]
 [-0.0367442925  0.3319698847 -0.0506542407  1.1154900681  0.            0.            0.            0.          ]
 [ 0.            0.            0.            0.           -0.2317673778  0.330767483   0.2234860663  0.0367442925]
 [ 0.            0.            0.            0.            0.330767483   0.0028145471  0.0726401881  0.3319698847]
 [ 0.            0.            0.            0.            0.2234860663  0.0726401881  1.1202617637  0.0506542407]
 [ 0.            0.            0.            0.            0.0367442925  0.3319698847  0.0506542407  1.1154900681]]
Alpha occ 1 vir 3; Beta occ 1 vir 3
Alpha energies:  [-0.4950424854] <- HOMO
         LUMO->  [0.1210952317 1.0986655487 1.2820807062]
Beta energies:   [-0.4950424854] <- HOMO
         LUMO->  [0.1210952317 1.0986655487 1.2820807062]
e_a, e_b
 [-0.4950424854  0.1210952317  1.0986655487  1.2820807062] 
 [-0.4950424854  0.1210952317  1.0986655487  1.2820807062]
v_a, v_b
 [[ 0.7974915584  0.5736705522 -0.0914127488  0.1629509779]
 [ 0.5875665017 -0.7561938732 -0.100614062  -0.2698392906]
 [-0.0872278145 -0.1698559336 -0.7911459207  0.5810580025]
 [-0.1056604407  0.2649941235 -0.596329315  -0.7503368136]] 
 [[ 0.7974915584 -0.5736705522  0.0914127488  0.1629509779]
 [-0.5875665017 -0.7561938732 -0.100614062   0.2698392906]
 [-0.0872278145  0.1698559336  0.7911459207  0.5810580025]
 [ 0.1056604407  0.2649941235 -0.596329315   0.7503368136]]
P_a, P_b
 [[ 0.6359927857  0.4685793251 -0.0695634458 -0.0842633095]
 [ 0.4685793251  0.3452343939 -0.0512521418 -0.0620825355]
 [-0.0695634458 -0.0512521418  0.0076086916  0.0092165293]
 [-0.0842633095 -0.0620825355  0.0092165293  0.0111641287]] 
 [[ 0.6359927857 -0.4685793251 -0.0695634458  0.0842633095]
 [-0.4685793251  0.3452343939  0.0512521418 -0.0620825355]
 [-0.0695634458  0.0512521418  0.0076086916 -0.0092165293]
 [ 0.0842633095 -0.0620825355 -0.0092165293  0.0111641287]]
time for xg, H, S2, Yg, Feff: 0.024
 E =     -1.00990367, delta E = -0.000413038, MaxD(dm) =  0.0025053, RMSD(dm) = 0.00123863
**** Start Cycle 3 ****
dm (ortho)
[[[ 0.6359927857  0.4685793251 -0.0695634458 -0.0842633095]
  [ 0.4685793251  0.3452343939 -0.0512521418 -0.0620825355]
  [-0.0695634458 -0.0512521418  0.0076086916  0.0092165293]
  [-0.0842633095 -0.0620825355  0.0092165293  0.0111641287]]

 [[ 0.6359927857 -0.4685793251 -0.0695634458  0.0842633095]
  [-0.4685793251  0.3452343939  0.0512521418 -0.0620825355]
  [-0.0695634458  0.0512521418  0.0076086916 -0.0092165293]
  [ 0.0842633095 -0.0620825355 -0.0092165293  0.0111641287]]]
Fock (ortho)
 (array([[-0.2364629329, -0.3286842211,  0.21724542  , -0.0271364021],
       [-0.3286842211,  0.0096475354, -0.078571497 ,  0.3387525615],
       [ 0.21724542  , -0.078571497 ,  1.1222633262, -0.0510834219],
       [-0.0271364021,  0.3387525615, -0.0510834219,  1.1132570917]]), array([[-0.2364629329,  0.3286842211,  0.21724542  ,  0.0271364021],
       [ 0.3286842211,  0.0096475354,  0.078571497 ,  0.3387525615],
       [ 0.21724542  ,  0.078571497 ,  1.1222633262,  0.0510834219],
       [ 0.0271364021,  0.3387525615,  0.0510834219,  1.1132570917]]))
E(UHF) =    -1.261249
NO eigenvalue
[-1.0000000000e+00 -1.6944135605e-16  1.1349599121e-18  2.9219292541e-18] 
 [-1.0000000000e+00 -1.1212401709e-16 -7.0333767854e-19  6.1249206630e-19]
NO vec
[[ 0.7974915584  0.           -0.5981900673 -0.057914694   0.0531201089  0.            0.            0.          ]
 [ 0.5875665017  0.            0.788750433   0.0884725803  0.1575149612  0.            0.            0.          ]
 [-0.0872278145  0.            0.0145655453 -0.7392117073  0.6676415244  0.            0.            0.          ]
 [-0.1056604407  0.           -0.140816344   0.665119946   0.7256873197  0.            0.            0.          ]
 [ 0.            0.7974915584  0.            0.            0.            0.6003627386 -0.035301578  -0.0482244235]
 [ 0.           -0.5875665017  0.            0.            0.            0.7872537886  0.1807676294 -0.0481678578]
 [ 0.           -0.0872278145  0.            0.            0.            0.0167320046 -0.5734115555 -0.8144387862]
 [ 0.            0.1056604407  0.            0.            0.           -0.1397000159  0.7982957164 -0.5762323542]]
dm(NO)
[[ 1.0000000000e+00  0.0000000000e+00  1.0338019935e-17 -9.5532883922e-18  1.6099073987e-17  0.0000000000e+00  0.0000000000e+00  0.0000000000e+00]
 [ 0.0000000000e+00  1.0000000000e+00  0.0000000000e+00  0.0000000000e+00  0.0000000000e+00 -8.7842971398e-19  4.7680060883e-18 -4.3814605475e-18]
 [ 5.0163108704e-17  0.0000000000e+00 -6.4893285952e-18 -3.2735121530e-18  5.0829253723e-19  0.0000000000e+00  0.0000000000e+00  0.0000000000e+00]
 [-1.0628291246e-17  0.0000000000e+00 -4.7924432417e-18  1.2170540732e-19 -2.0857190590e-19  0.0000000000e+00  0.0000000000e+00  0.0000000000e+00]
 [ 3.8473930398e-17  0.0000000000e+00  3.3528376297e-18  5.6397767300e-19  2.7530421297e-19  0.0000000000e+00  0.0000000000e+00  0.0000000000e+00]
 [ 0.0000000000e+00  7.1293147662e-17  0.0000000000e+00  0.0000000000e+00  0.0000000000e+00  2.0851462495e-17  2.5542792400e-18 -4.8575538165e-19]
 [ 0.0000000000e+00  1.3814841362e-18  0.0000000000e+00  0.0000000000e+00  0.0000000000e+00 -2.6615858762e-18 -9.3139245588e-19 -1.1443572373e-18]
 [ 0.0000000000e+00 -1.8333671240e-18  0.0000000000e+00  0.0000000000e+00  0.0000000000e+00  1.8698342897e-18  2.7950888329e-19  1.1029617120e-18]]
D(g) (NO)
 [[ 9.9951368521e-01  8.9559122983e-03  2.6139862405e-16  2.5154146412e-17  4.0086620917e-17  2.9769041434e-02  1.3636250523e-03  2.0320946030e-03]
 [-8.9559122983e-03  9.9951368521e-01  2.9831241341e-02 -1.1408905454e-03  9.9000933147e-04 -1.0349518549e-16  2.9140810506e-18  5.6516945659e-18]
 [ 2.5380904600e-16 -2.9831241341e-02  9.9951368521e-01 -2.8004490569e-17  4.7623437228e-17  8.7852946106e-03  1.3387723482e-03  1.8752071921e-03]
 [ 1.1165313815e-17  1.1408905454e-03 -3.2248462288e-17  9.9951368521e-01 -5.1449076905e-17 -2.1954610319e-03  3.0337291896e-02  6.7764382087e-03]
 [ 3.2548531423e-17 -9.9000933147e-04  4.6986053389e-17 -6.0271516192e-17  9.9951368521e-01  2.0483643027e-03  6.9562928699e-03 -3.0312161742e-02]
 [-2.9769041434e-02 -8.4255205692e-17 -8.7852946106e-03  2.1954610319e-03 -2.0483643027e-03  9.9951368521e-01  1.4827330253e-17  3.6212403960e-17]
 [-1.3636250523e-03  2.4286128664e-17 -1.3387723482e-03 -3.0337291896e-02 -6.9562928699e-03  0.0000000000e+00  9.9951368521e-01  2.7755575616e-16]
 [-2.0320946030e-03  6.9388939039e-18 -1.8752071921e-03 -6.7764382087e-03  3.0312161742e-02  2.0816681712e-17  3.3306690739e-16  9.9951368521e-01]]
N(g) (NO)
 [[ 1.0004062324 -0.0089639098]
 [ 0.0089639098  1.0004062324]]
P(g) (NO)
 [[ 1.0000000000e+00  6.4119744455e-19  1.0338019935e-17 -9.5532883922e-18  1.6099073987e-17 -1.6015074738e-37  0.0000000000e+00  0.0000000000e+00]
 [-3.8221980457e-19  1.0000000000e+00  1.2705097135e-35 -9.7314870922e-36  1.7782263367e-35 -8.7842971398e-19  4.7680060883e-18 -4.3814605475e-18]
 [-2.6740455545e-04 -2.9843359756e-02 -2.7644336250e-21  2.5545928356e-21 -4.3049657226e-21  2.6215293975e-20 -1.4229332101e-19  1.3075750338e-19]
 [ 1.0226839897e-05  1.1413540120e-03  1.0572527473e-22 -9.7699950874e-23  1.6464265215e-22 -1.0025992784e-21  5.4419828784e-21 -5.0007975744e-21]
 [-8.8743543103e-06 -9.9041150529e-04 -9.1743251772e-23  8.4779266021e-23 -1.4286888663e-22  8.7000689532e-22 -4.7222880872e-21  4.3394489362e-21]
 [-2.9781134582e-02  2.6684700110e-04 -3.0787796300e-19  2.8450776731e-19 -4.7944868904e-19 -2.3440633485e-22  1.2723281259e-21 -1.1691796075e-21]
 [-1.3641790009e-03  1.2223411917e-05 -1.4102909707e-20  1.3032395414e-20 -2.1962018667e-20 -1.0737408235e-23  5.8281302442e-23 -5.3556397072e-23]
 [-2.0329201056e-03  1.8215512648e-05 -2.1016368578e-20  1.9421072047e-20 -3.2728131188e-20 -1.6001047565e-23  8.6851675208e-23 -7.9810550019e-23]]
time for NO, Ng: 0.014
Pg_ortho
 [[ 6.3611950316e-01  4.6867268652e-01 -6.9577305819e-02 -8.4280098463e-02  1.4142148634e-02 -1.0419486843e-02 -1.5468360828e-03  1.8737071784e-03]
 [ 4.6841072861e-01  3.4511017739e-01 -5.1233701139e-02 -6.2060198016e-02 -1.8816007077e-02  1.3863037594e-02  2.0580520990e-03 -2.4929512792e-03]
 [-6.9577305819e-02 -5.1262353500e-02  7.6102076119e-03  9.2183656625e-03 -1.5468360828e-03  1.1396597950e-03  1.6918941590e-04 -2.0494183360e-04]
 [-8.4232991304e-02 -6.2060198016e-02  9.2132131885e-03  1.1160111843e-02  3.3836299292e-03 -2.4929512792e-03 -3.7009375313e-04  4.4830045640e-04]
 [-1.4142148634e-02 -1.0419486843e-02  1.5468360828e-03  1.8737071784e-03  6.3611950316e-01 -4.6867268652e-01 -6.9577305819e-02  8.4280098463e-02]
 [-1.8816007077e-02 -1.3863037594e-02  2.0580520990e-03  2.4929512792e-03 -4.6841072861e-01  3.4511017739e-01  5.1233701139e-02 -6.2060198016e-02]
 [ 1.5468360828e-03  1.1396597950e-03 -1.6918941590e-04 -2.0494183360e-04 -6.9577305819e-02  5.1262353500e-02  7.6102076119e-03 -9.2183656625e-03]
 [ 3.3836299292e-03  2.4929512792e-03 -3.7009375313e-04 -4.4830045640e-04  8.4232991304e-02 -6.2060198016e-02 -9.2132131885e-03  1.1160111843e-02]]
G(g) (NO)
 [[ 2.7182187537e-01 -1.4742329413e-03 -4.9539038434e-02  4.6420221218e-03  9.6762302787e-03  3.6957165308e-04  5.0248096871e-04  1.1492413118e-04]
 [ 1.4742329413e-03  2.7182187537e-01  3.8114062935e-04 -4.4404519523e-05  5.0501281757e-04  4.9601510028e-02 -9.3033744368e-03  4.7361965590e-03]
 [-4.9470792149e-02  1.9093800994e-02  9.0166727430e-01  1.9394126524e-01  2.2646372864e-02 -1.4777511468e-03 -5.3910248918e-03 -1.6404406848e-03]
 [ 4.6424344007e-03  4.7343760693e-03  1.9393584670e-01  8.7135542967e-01 -1.3165609346e-02 -6.8457885276e-04 -4.3566084923e-03 -1.0526931990e-03]
 [ 9.6849001032e-03  4.5298765265e-04  2.2644479826e-02 -1.3165330706e-02  7.3688612130e-01  2.3455412532e-04 -1.4440305502e-04  2.5332707824e-05]
 [ 1.9188129886e-02  4.9533464787e-02  1.6365194934e-03 -9.5236372548e-04  5.6183671569e-03  9.0992349807e-01  4.8975924018e-02 -1.8870747966e-01]
 [ 1.3549083719e-03 -9.3132167515e-03 -1.0742927616e-04 -4.0259068549e-05  7.7702702763e-04  4.8973399456e-02  7.3734217059e-01 -5.4014711248e-03]
 [-4.1439891156e-03  4.7337747022e-03 -7.6740049085e-04  4.7702974179e-04 -4.2410689543e-03 -1.8870233576e-01 -5.4010366965e-03  8.6264315661e-01]]
time for Gg: 0.022
C(NO)
[[ 1.0000000000e+00  0.0000000000e+00 -1.4462407601e-16 -1.3292758379e-16  1.4225559835e-16  0.0000000000e+00  0.0000000000e+00  0.0000000000e+00]
 [ 0.0000000000e+00  1.0000000000e+00  0.0000000000e+00  0.0000000000e+00  0.0000000000e+00  2.0135814717e-16 -3.4694469520e-17 -8.3266726847e-17]
 [ 8.4492137672e-17  0.0000000000e+00 -9.7940181908e-01  4.7772255510e-02 -1.9618840023e-01  0.0000000000e+00  0.0000000000e+00  0.0000000000e+00]
 [-4.9702892454e-18  0.0000000000e+00  2.0168599416e-01  1.8458636067e-01 -9.6189949330e-01  0.0000000000e+00  0.0000000000e+00  0.0000000000e+00]
 [ 3.6240943262e-17  0.0000000000e+00 -9.7384055646e-03 -9.8165456606e-01 -1.9041921226e-01  0.0000000000e+00  0.0000000000e+00  0.0000000000e+00]
 [ 0.0000000000e+00  6.5449069776e-17  0.0000000000e+00  0.0000000000e+00  0.0000000000e+00 -9.7390456837e-01  7.2216678685e-02  2.1516189957e-01]
 [ 0.0000000000e+00  2.4244212392e-17  0.0000000000e+00  0.0000000000e+00  0.0000000000e+00 -2.2975795019e-03 -9.5111413052e-01  3.0883107332e-01]
 [ 0.0000000000e+00 -2.2655876768e-18  0.0000000000e+00  0.0000000000e+00  0.0000000000e+00 -2.2694627742e-01 -3.0027764160e-01 -9.2646032032e-01]]
detC 1.0000000000000004
detNg [ 1.0008929814  1.0237525651  1.1384609372  1.4889663308  2.4338084505  4.89939833    9.4619009517 11.9936114546]
xg [0.9991078153 0.9767985293 0.8783788423 0.6716068586 0.4108786785 0.2041066949 0.1056870078 0.0833777219]
ciS 1.0824855371541204
[[-0.7665289026  0.            0.0538480423  0.0102948625 -0.0060529005  0.            0.            0.          ]
 [ 0.           -0.7665289026  0.            0.            0.           -0.054190902   0.0038243134  0.0095369925]
 [ 0.0538480423  0.           -0.7330242816  0.0344427075 -0.0251022002  0.            0.            0.          ]
 [ 0.0102948625  0.            0.0344427075  0.3580878335  0.0486617661  0.            0.            0.          ]
 [-0.0060529005  0.           -0.0251022002  0.0486617661  0.3684349642  0.            0.            0.          ]
 [ 0.           -0.054190902   0.            0.            0.           -0.7293208858 -0.0388674382 -0.0645870597]
 [ 0.            0.0038243134  0.            0.            0.           -0.0388674382  0.3789192548 -0.0476665168]
 [ 0.            0.0095369925  0.            0.            0.           -0.0645870597 -0.0476665168  0.343900147 ]]
ciH -1.3796559397301453
1.0 -1.0977546996415732e-18 -0.02862267610025366j -1.3660947373317356e-16
0.5413164595162999 0.000409628793570016 -0.00040962879357001606 0.45868354048370014
1.0000000000000002 2.2605615296322767e-17 -0.1474679116978418j -5.204170427930421e-17
0.5432252801945651 0.010873392490261232 -0.010873392490261232 0.4567747198054353
1.0 -5.746271514173174e-17 -0.3542012798190236j -2.2551405187698492e-17
0.5534544762542676 0.06272927331271712 -0.06272927331271713 0.4465455237457324
1.0 -1.3899471851264167e-16 -0.654914018979622j -5.204170427930421e-17
0.5914360730738379 0.2144561861280203 -0.21445618612802037 0.4085639269261623
1.0 -1.5482407023093003e-16 -1.0704978620388108j 4.2500725161431774e-17
0.7442983876439112 0.5729828363148322 -0.5729828363148323 0.25570161235608874
0.9999999999999999 -2.2811613709095013e-16 -1.5243150661737417j -2.706168622523819e-16
1.4899957060014288 1.1617682104821294 -1.1617682104821292 -0.489995706001429
0.9999999999999996 6.071532165918825e-18 -1.3629531408004796j -5.429684479807406e-16
4.1923648350814755 0.9288206320089464 -0.9288206320089462 -3.192364835081476
0.9999999999999996 -4.228388472693467e-17 -0.3429829785108717j -4.475586568020162e-16
6.432636807126516 0.058818661774094554 -0.05881866177409455 -5.432636807126517
S2 = -0.000000
X(g)
[[ 2.0000000000e+00 -3.4694469520e-18 -2.6740455545e-04  1.0226839897e-05 -8.8743543104e-06  2.9781134582e-02  1.3641790009e-03  2.0329201056e-03]
 [ 0.0000000000e+00  2.0000000000e+00  2.9843359756e-02 -1.1413540120e-03  9.9041150529e-04  2.6684700110e-04  1.2223411917e-05  1.8215512648e-05]
 [-2.6740455545e-04 -2.9843359756e-02  0.0000000000e+00  0.0000000000e+00  0.0000000000e+00  0.0000000000e+00  0.0000000000e+00  0.0000000000e+00]
 [ 1.0226839897e-05  1.1413540120e-03  0.0000000000e+00  0.0000000000e+00  0.0000000000e+00  0.0000000000e+00  0.0000000000e+00  0.0000000000e+00]
 [-8.8743543103e-06 -9.9041150529e-04  0.0000000000e+00  0.0000000000e+00  0.0000000000e+00  0.0000000000e+00  0.0000000000e+00  0.0000000000e+00]
 [-2.9781134582e-02  2.6684700110e-04  0.0000000000e+00  0.0000000000e+00  0.0000000000e+00  0.0000000000e+00  0.0000000000e+00  0.0000000000e+00]
 [-1.3641790009e-03  1.2223411917e-05  0.0000000000e+00  0.0000000000e+00  0.0000000000e+00  0.0000000000e+00  0.0000000000e+00  0.0000000000e+00]
 [-2.0329201056e-03  1.8215512648e-05  0.0000000000e+00  0.0000000000e+00  0.0000000000e+00  0.0000000000e+00  0.0000000000e+00  0.0000000000e+00]]
X(g) int
[[ 2.0000000000e+00 -5.7519920722e-17 -2.5381494941e-01  9.7071078186e-03 -8.4233560886e-03  6.9264659041e-01  3.1727936056e-02  4.7281448456e-02]
 [-1.4245310798e-17  2.0000000000e+00  6.9409381717e-01 -2.6545495193e-02  2.3034889768e-02  2.5328573019e-01  1.1602213254e-02  1.7289793038e-02]
 [-2.5381494941e-01 -6.9409381717e-01  0.0000000000e+00  0.0000000000e+00  0.0000000000e+00  0.0000000000e+00  0.0000000000e+00  0.0000000000e+00]
 [ 9.7071078186e-03  2.6545495193e-02  0.0000000000e+00  0.0000000000e+00  0.0000000000e+00  0.0000000000e+00  0.0000000000e+00  0.0000000000e+00]
 [-8.4233560886e-03 -2.3034889768e-02  0.0000000000e+00  0.0000000000e+00  0.0000000000e+00  0.0000000000e+00  0.0000000000e+00  0.0000000000e+00]
 [-6.9264659041e-01  2.5328573019e-01  0.0000000000e+00  0.0000000000e+00  0.0000000000e+00  0.0000000000e+00  0.0000000000e+00  0.0000000000e+00]
 [-3.1727936056e-02  1.1602213254e-02  0.0000000000e+00  0.0000000000e+00  0.0000000000e+00  0.0000000000e+00  0.0000000000e+00  0.0000000000e+00]
 [-4.7281448456e-02  1.7289793038e-02  0.0000000000e+00  0.0000000000e+00  0.0000000000e+00  0.0000000000e+00  0.0000000000e+00  0.0000000000e+00]]
Feff
 [[-3.7556747027e-16 -2.0627657689e-17 -2.3790907255e-04 -1.1464047851e-03 -1.4761120780e-03  1.9036812158e-02  2.4512279302e-02  3.1690722627e-04]
 [ 1.7211043129e-17 -3.3607068664e-16  1.9462276548e-02  3.1068758073e-03  2.3977481065e-02  2.3499118672e-04  1.6079334275e-03 -9.5345726704e-04]
 [-2.3790907255e-04 -1.9462276548e-02  0.0000000000e+00  0.0000000000e+00  0.0000000000e+00  0.0000000000e+00  0.0000000000e+00  0.0000000000e+00]
 [-1.1464047851e-03 -3.1068758073e-03  0.0000000000e+00  0.0000000000e+00  0.0000000000e+00  0.0000000000e+00  0.0000000000e+00  0.0000000000e+00]
 [-1.4761120781e-03 -2.3977481065e-02  0.0000000000e+00  0.0000000000e+00  0.0000000000e+00  0.0000000000e+00  0.0000000000e+00  0.0000000000e+00]
 [-1.9036812158e-02  2.3499118672e-04  0.0000000000e+00  0.0000000000e+00  0.0000000000e+00  0.0000000000e+00  0.0000000000e+00  0.0000000000e+00]
 [-2.4512279302e-02  1.6079334275e-03  0.0000000000e+00  0.0000000000e+00  0.0000000000e+00  0.0000000000e+00  0.0000000000e+00  0.0000000000e+00]
 [-3.1690722627e-04 -9.5345726704e-04  0.0000000000e+00  0.0000000000e+00  0.0000000000e+00  0.0000000000e+00  0.0000000000e+00  0.0000000000e+00]]
Feff (ortho)
 [[ 2.0782198115e-04 -3.3940211584e-04 -1.2424501918e-04 -1.4494044116e-03  4.1633363423e-17  6.5052130349e-17 -4.3368086899e-18 -2.6020852140e-18]
 [-3.3940211584e-04 -6.1293293453e-04 -3.7669208593e-05 -1.0026209326e-03  4.0766001685e-17  4.1633363423e-17 -3.4694469520e-18 -1.7347234760e-18]
 [-1.2424501918e-04 -3.7669208593e-05  2.4693000122e-05  1.7198224059e-04  1.1275702594e-17 -1.8648277367e-17 -1.0842021725e-18  2.8189256485e-18]
 [-1.4494044116e-03 -1.0026209326e-03  1.7198224059e-04  3.8041795326e-04  0.0000000000e+00 -1.2576745201e-17  0.0000000000e+00  1.3010426070e-18]
 [ 4.1633363423e-17  4.0766001685e-17  1.1275702594e-17  0.0000000000e+00  2.0782198115e-04  3.3940211584e-04 -1.2424501918e-04  1.4494044116e-03]
 [ 6.5052130349e-17  4.1633363423e-17 -1.8648277367e-17 -1.2576745201e-17  3.3940211584e-04 -6.1293293453e-04  3.7669208593e-05 -1.0026209326e-03]
 [-4.3368086899e-18 -3.4694469520e-18 -1.0842021725e-18  0.0000000000e+00 -1.2424501918e-04  3.7669208593e-05  2.4693000122e-05 -1.7198224059e-04]
 [-2.6020852140e-18 -1.7347234760e-18  2.8189256485e-18  1.3010426070e-18  1.4494044116e-03 -1.0026209326e-03 -1.7198224059e-04  3.8041795326e-04]]
Hsp + Hph =  -1.2745259796794077
Feff (mod,ortho)
[[-0.2310739402 -0.3313317711  0.223666772  -0.0384629739  0.            0.            0.            0.          ]
 [-0.3313317711  0.0028209801 -0.0731165878  0.3312843263  0.            0.            0.            0.          ]
 [ 0.223666772  -0.0731165878  1.1207941493 -0.0507734134  0.            0.            0.            0.          ]
 [-0.0384629739  0.3312843263 -0.0507734134  1.1161638314  0.            0.            0.            0.          ]
 [ 0.            0.            0.            0.           -0.2310739402  0.3313317711  0.223666772   0.0384629739]
 [ 0.            0.            0.            0.            0.3313317711  0.0028209801  0.0731165878  0.3312843263]
 [ 0.            0.            0.            0.            0.223666772   0.0731165878  1.1207941493  0.0507734134]
 [ 0.            0.            0.            0.            0.0384629739  0.3312843263  0.0507734134  1.1161638314]]
Alpha occ 1 vir 3; Beta occ 1 vir 3
Alpha energies:  [-0.4947223317] <- HOMO
         LUMO->  [0.1214844235 1.0988027767 1.283140152 ]
Beta energies:   [-0.4947223317] <- HOMO
         LUMO->  [0.1214844235 1.0988027767 1.283140152 ]
e_a, e_b
 [-0.4947223317  0.1214844235  1.0988027767  1.283140152 ] 
 [-0.4947223317  0.1214844235  1.0988027767  1.283140152 ]
v_a, v_b
 [[ 0.7974155857  0.5736013608 -0.0906731316  0.1639763574]
 [ 0.5878800685 -0.7560562714 -0.1003878331 -0.269626079 ]
 [-0.0870821898 -0.1702230952 -0.7905455423  0.5817890817]
 [-0.1046044975  0.2653007562 -0.5972758255 -0.7496232361]] 
 [[ 0.7974155857 -0.5736013608  0.0906731316  0.1639763574]
 [-0.5878800685 -0.7560562714 -0.1003878331  0.269626079 ]
 [-0.0870821898  0.1702230952  0.7905455423  0.5817890817]
 [ 0.1046044975  0.2653007562 -0.5972758255  0.7496232361]]
P_a, P_b
 [[ 0.6358716164  0.4687847292 -0.0694406954 -0.0834132566]
 [ 0.4687847292  0.345602975  -0.0511938837 -0.0614948992]
 [-0.0694406954 -0.0511938837  0.0075833078  0.0091091887]
 [-0.0834132566 -0.0614948992  0.0091091887  0.0109421009]] 
 [[ 0.6358716164 -0.4687847292 -0.0694406954  0.0834132566]
 [-0.4687847292  0.345602975   0.0511938837 -0.0614948992]
 [-0.0694406954  0.0511938837  0.0075833078 -0.0091091887]
 [ 0.0834132566 -0.0614948992 -0.0091091887  0.0109421009]]
time for xg, H, S2, Yg, Feff: 0.024
 E =     -1.00993737, delta E = -3.3704e-05, MaxD(dm) = 0.000850053, RMSD(dm) = 0.000393751
**** Start Cycle 4 ****
dm (ortho)
[[[ 0.6358716164  0.4687847292 -0.0694406954 -0.0834132566]
  [ 0.4687847292  0.345602975  -0.0511938837 -0.0614948992]
  [-0.0694406954 -0.0511938837  0.0075833078  0.0091091887]
  [-0.0834132566 -0.0614948992  0.0091091887  0.0109421009]]

 [[ 0.6358716164 -0.4687847292 -0.0694406954  0.0834132566]
  [-0.4687847292  0.345602975   0.0511938837 -0.0614948992]
  [-0.0694406954  0.0511938837  0.0075833078 -0.0091091887]
  [ 0.0834132566 -0.0614948992 -0.0091091887  0.0109421009]]]
Fock (ortho)
 (array([[-0.2362400512, -0.3289820046,  0.2172415354, -0.0275600898],
       [-0.3289820046,  0.0097338328, -0.0788642211,  0.3386483747],
       [ 0.2172415354, -0.0788642211,  1.1224638275, -0.0511749333],
       [-0.0275600898,  0.3386483747, -0.0511749333,  1.1134700019]]), array([[-0.2362400512,  0.3289820046,  0.2172415354,  0.0275600898],
       [ 0.3289820046,  0.0097338328,  0.0788642211,  0.3386483747],
       [ 0.2172415354,  0.0788642211,  1.1224638275,  0.0511749333],
       [ 0.0275600898,  0.3386483747,  0.0511749333,  1.1134700019]]))
E(UHF) =    -1.261193
NO eigenvalue
[-1.0000000000e+00 -6.6004848793e-17  8.7747692449e-20  1.7503597060e-17] 
 [-1.0000000000e+00 -1.1235049813e-16 -4.8046060169e-19  4.3872244444e-18]
NO vec
[[ 0.7974155857  0.           -0.5641982282  0.015829243  -0.213443618   0.            0.            0.          ]
 [ 0.5878800685  0.            0.6488330261  0.0200540957  0.4827116764  0.            0.            0.          ]
 [-0.0870821898  0.           -0.389144705  -0.6410697132  0.6557535464  0.            0.            0.          ]
 [-0.1046044975  0.           -0.3305487288  0.7670572932  0.5398319608  0.            0.            0.          ]
 [ 0.            0.7974155857  0.            0.            0.            0.5999831111  0.0117340499 -0.0633321574]
 [ 0.           -0.5878800685  0.            0.            0.            0.7490312991  0.0024982996 -0.3055206973]
 [ 0.           -0.0870821898  0.            0.            0.            0.1597248124  0.8042728206  0.5657295348]
 [ 0.            0.1046044975  0.            0.            0.           -0.2312149728  0.5941391256 -0.763279919 ]]
dm(NO)
[[ 1.0000000000e+00  0.0000000000e+00 -3.5820280530e-17 -2.8905609542e-18  4.2776168141e-17  0.0000000000e+00  0.0000000000e+00  0.0000000000e+00]
 [ 0.0000000000e+00  1.0000000000e+00  0.0000000000e+00  0.0000000000e+00  0.0000000000e+00  2.4410879073e-17  1.2648976081e-17  1.1197429146e-17]
 [-8.0421493833e-17  0.0000000000e+00  2.0187429351e-17 -3.3796841483e-18  5.3049332125e-18  0.0000000000e+00  0.0000000000e+00  0.0000000000e+00]
 [ 7.7151948669e-18  0.0000000000e+00 -7.3849581211e-18  5.5117056388e-19 -3.2785415426e-18  0.0000000000e+00  0.0000000000e+00  0.0000000000e+00]
 [ 2.5003421495e-18  0.0000000000e+00  1.1609208424e-19 -2.2864227832e-18 -3.6188622118e-18  0.0000000000e+00  0.0000000000e+00  0.0000000000e+00]
 [ 0.0000000000e+00  2.3673463414e-17  0.0000000000e+00  0.0000000000e+00  0.0000000000e+00 -1.7712116377e-17  1.5912841784e-20  8.6221470383e-18]
 [ 0.0000000000e+00  1.7727865253e-18  0.0000000000e+00  0.0000000000e+00  0.0000000000e+00  3.2603713629e-18  1.7740222062e-18 -1.6365067058e-18]
 [ 0.0000000000e+00 -5.6994410768e-19  0.0000000000e+00  0.0000000000e+00  0.0000000000e+00  8.0282251968e-18 -2.8997271015e-19 -5.0084799833e-18]]
D(g) (NO)
 [[ 9.9951368521e-01  8.9467722981e-03  9.9741684887e-17  4.4631784429e-18  6.9981019383e-17  2.8970874400e-02 -3.7844529509e-03 -6.2221131896e-03]
 [-8.9467722981e-03  9.9951368521e-01  2.5945240991e-02 -4.2688727280e-03  1.4176372447e-02 -1.9176573028e-16  1.1741083956e-17  5.1502384443e-17]
 [ 9.8058923019e-17 -2.5945240991e-02  9.9951368521e-01  1.8042405986e-17  1.3282989184e-17  5.0441532433e-03 -1.6039705307e-02 -4.0647160291e-03]
 [-2.5563778044e-18  4.2688727280e-03 -1.6478864556e-17  9.9951368521e-01  8.1641896854e-17 -7.9589378121e-03 -1.8591545076e-03 -2.9788733672e-02]
 [ 6.9830453860e-17 -1.4176372447e-02 -2.3632592971e-17 -8.9909605937e-18  9.9951368521e-01  6.6553240490e-03  2.6407241219e-02 -5.4578211776e-03]
 [-2.8970874400e-02 -1.6394225222e-16 -5.0441532433e-03  7.9589378121e-03 -6.6553240490e-03  9.9951368521e-01  1.0429416635e-17 -7.5348437244e-17]
 [ 3.7844529509e-03  6.9388939039e-18  1.6039705307e-02  1.8591545076e-03 -2.6407241219e-02  0.0000000000e+00  9.9951368521e-01 -1.1102230246e-16]
 [ 6.2221131896e-03  0.0000000000e+00  4.0647160291e-03  2.9788733672e-02  5.4578211776e-03 -3.4694469520e-17 -1.1102230246e-16  9.9951368521e-01]]
N(g) (NO)
 [[ 1.0004063962 -0.0089547631]
 [ 0.0089547631  1.0004063962]]
P(g) (NO)
 [[ 1.0000000000e+00 -1.0325576324e-18 -3.5820280530e-17 -2.8905609542e-18  4.2776168141e-17 -2.9054741010e-35 -2.4074124305e-35 -1.2037062152e-35]
 [-1.6299786620e-18  1.0000000000e+00  2.6601909235e-35  6.1313888763e-36 -8.3890874360e-35  2.4410879073e-17  1.2648976081e-17  1.1197429146e-17]
 [-2.3233348576e-04 -2.5955785038e-02  8.3222506366e-21  6.7157410231e-22 -9.9383362519e-21 -6.3360352982e-19 -3.2831410411e-19 -2.9063806389e-19]
 [ 3.8226743838e-05  4.2706075816e-03 -1.3692926880e-21 -1.1049673315e-22  1.6351936219e-21  1.0424928524e-19  5.4018813151e-20  4.7819825805e-20]
 [-1.2694605640e-04 -1.4182133671e-02  4.5472433524e-21  3.6694531392e-22 -5.4302658534e-21 -3.4619835004e-19 -1.7938946958e-19 -1.5880343692e-19]
 [-2.8982648053e-02  2.5942731607e-04  1.0381665838e-18  8.3776110814e-20 -1.2397666263e-18  6.3328488409e-21  3.2814899157e-21  2.9049189902e-21]
 [ 3.7859909382e-03 -3.3888879510e-05 -1.3561525749e-19 -1.0943637579e-20  1.6195018495e-19 -8.2725733964e-22 -4.2865962633e-22 -3.7946832714e-22]
 [ 6.2246418327e-03 -5.5717549383e-05 -2.2296841665e-19 -1.7992706636e-20  2.6626632566e-19 -1.3601143602e-21 -7.0476994942e-22 -6.2389331139e-22]]
time for NO, Ng: 0.014
Pg_ortho
 [[ 6.3599823245e-01  4.6887807458e-01 -6.9454522530e-02 -8.3429866069e-02  1.4145270817e-02 -1.0428342418e-02 -1.5447417626e-03  1.8555681282e-03]
 [ 4.6861626925e-01  3.4547878097e-01 -5.1175486928e-02 -6.1472800689e-02 -1.8819971816e-02  1.3874680304e-02  2.0552449517e-03 -2.4687925971e-03]
 [-6.9454522530e-02 -5.1204077517e-02  7.5848177774e-03  9.1110025421e-03 -1.5447417626e-03  1.1388326358e-03  1.6869433920e-04 -2.0263829645e-04]
 [-8.3383281713e-02 -6.1472800689e-02  9.1059152729e-03  1.0938168804e-02  3.3487335262e-03 -2.4687925971e-03 -3.6570021153e-04  4.3928485228e-04]
 [-1.4145270817e-02 -1.0428342418e-02  1.5447417626e-03  1.8555681282e-03  6.3599823245e-01 -4.6887807458e-01 -6.9454522530e-02  8.3429866069e-02]
 [-1.8819971816e-02 -1.3874680304e-02  2.0552449517e-03  2.4687925971e-03 -4.6861626925e-01  3.4547878097e-01  5.1175486928e-02 -6.1472800689e-02]
 [ 1.5447417626e-03  1.1388326358e-03 -1.6869433920e-04 -2.0263829645e-04 -6.9454522530e-02  5.1204077517e-02  7.5848177774e-03 -9.1110025421e-03]
 [ 3.3487335262e-03  2.4687925971e-03 -3.6570021153e-04 -4.3928485228e-04  8.3383281713e-02 -6.1472800689e-02 -9.1059152729e-03  1.0938168804e-02]]
G(g) (NO)
 [[ 2.7183994384e-01 -1.4699564463e-03 -4.7324556584e-02  1.1568145802e-02 -1.3545273170e-02  2.7483700684e-04 -1.3175482288e-04 -5.5238417090e-04]
 [ 1.4699564463e-03  2.7183994384e-01  1.1650894453e-04 -2.1137836499e-05  6.1967882298e-04  4.9903774769e-02 -8.0766707488e-03  1.1361038144e-03]
 [-4.7267524070e-02  1.7566176977e-02  9.1023287746e-01  1.8057575639e-01  7.6334015978e-02 -5.2002887532e-04  1.6645598539e-03  5.6102128593e-03]
 [ 1.1562216446e-02  2.6313955946e-03  1.8057085605e-01  8.2312483007e-01  5.6209856736e-02  1.8166313891e-04  8.3458314374e-04  3.7505198638e-03]
 [-1.3507313446e-02  8.5237262875e-03  7.6332914675e-02  5.6212729489e-02  7.7725543566e-01  7.1047777094e-06  6.2451990057e-04  2.2432295114e-03]
 [ 1.8951863438e-02  4.9838563399e-02 -1.0860472819e-03 -3.8876778121e-04  5.8851796227e-03  9.1287612680e-01  1.8277753017e-01 -7.5675175578e-02]
 [ 3.0183885019e-03 -8.0703271523e-03 -1.1444338623e-03  2.7835846352e-05  3.8222210811e-03  1.8277247006e-01  8.4034762523e-01 -3.1133670080e-02]
 [-4.4570090043e-03  1.1569854265e-03  6.0338528796e-04 -1.2733929133e-05 -1.5759663481e-03 -7.5672752825e-02 -3.1135085888e-02  7.5738939115e-01]]
time for Gg: 0.022
C(NO)
[[ 1.0000000000e+00  0.0000000000e+00 -3.6317609600e-16  2.9219523236e-17 -1.8180786649e-16  0.0000000000e+00  0.0000000000e+00  0.0000000000e+00]
 [ 0.0000000000e+00  1.0000000000e+00  0.0000000000e+00  0.0000000000e+00  0.0000000000e+00  2.7396078700e-16 -4.8572257327e-17 -8.3266726847e-17]
 [ 1.2257977748e-18  0.0000000000e+00 -8.3563256148e-01  4.9108805539e-01 -2.4607060784e-01  0.0000000000e+00  0.0000000000e+00  0.0000000000e+00]
 [ 7.7544973975e-18  0.0000000000e+00  3.0654340127e-01  4.5201551844e-02 -9.5078281582e-01  0.0000000000e+00  0.0000000000e+00  0.0000000000e+00]
 [ 2.2512265930e-17  0.0000000000e+00 -4.5579531078e-01 -8.6993640087e-01 -1.8831169137e-01  0.0000000000e+00  0.0000000000e+00  0.0000000000e+00]
 [ 0.0000000000e+00  2.1202126742e-17  0.0000000000e+00  0.0000000000e+00  0.0000000000e+00 -9.4461359533e-01  2.4357757078e-01  2.1994345303e-01]
 [ 0.0000000000e+00  7.0165249870e-18  0.0000000000e+00  0.0000000000e+00  0.0000000000e+00  2.8591184613e-01  2.8176252056e-01  9.1589535333e-01]
 [ 0.0000000000e+00 -1.3272995417e-17  0.0000000000e+00  0.0000000000e+00  0.0000000000e+00  1.6111974354e-01  9.2805164135e-01 -3.3579842052e-01]]
detC 1.0
detNg [ 1.0008931453  1.0237570249  1.1384898484  1.4890998711  2.4344486294  4.9029047234  9.4766081671 12.0178427422]
xg [0.9991076517 0.9767942741 0.8783565364 0.6715466299 0.4107706311 0.2039607246 0.105522987  0.0832096094]
ciS 1.0823172610257359
[[-0.7665098187  0.            0.0518151475  0.004242362   0.0185532538  0.            0.            0.          ]
 [ 0.           -0.7665098187  0.            0.            0.           -0.0544332216 -0.0068226002  0.0061242867]
 [ 0.0518151475  0.           -0.4823384445  0.1131579604 -0.4399030184  0.            0.            0.          ]
 [ 0.004242362   0.            0.1131579604  0.3507423701  0.1134262064  0.            0.            0.          ]
 [ 0.0185532538  0.           -0.4399030184  0.1134262064  0.1250755066  0.            0.            0.          ]
 [ 0.           -0.0544332216  0.            0.            0.           -0.6768360289  0.1185732838  0.2107185524]
 [ 0.           -0.0068226002  0.            0.            0.            0.1185732838  0.3334766207 -0.0706622969]
 [ 0.            0.0061242867  0.            0.            0.            0.2107185524 -0.0706622969  0.3368388405]]
ciH -1.3794479334848142
1.0000000000000002 -1.8295911660692887e-18 -0.028627930311668923j 5.4643789493269423e-17
0.541232184623298 0.00040977919696488617 -0.0004097791969648861 0.45876781537670214
1.0000000000000002 1.1221492485224971e-17 -0.14749560049040664j 0.0
0.5431374735120457 0.010877476082012822 -0.010877476082012822 0.45686252648795467
1.0 3.252606517456513e-17 -0.3542752384530144j -1.6393136847980827e-16
0.5533481349190392 0.06275547229047011 -0.06275547229047011 0.44665186508096083
0.9999999999999999 1.4983674023749671e-16 -0.6550928808243522j 1.0581813203458523e-16
0.5912659056940666 0.21457334125337443 -0.21457334125337443 0.40873409430593344
1.0000000000000002 3.7816971776294395e-16 -1.0709758269463219j 1.9081958235744878e-17
0.7439282754019577 0.5734946109516789 -0.5734946109516792 0.25607172459804256
1.0 -1.0148132334464322e-16 -1.5256857515792939j -2.688821387764051e-17
1.489390699390013 1.1638585062860376 -1.1638585062860374 -0.4893906993900132
1.0000000000000002 1.3183898417423734e-16 -1.3653220228741187j 1.3010426069826053e-16
4.196296184553201 0.9320521130725381 -0.9320521130725379 -3.196296184553201
1.0 6.158268339717665e-17 -0.3437389556750285j -3.469446951953614e-18
6.444481085265965 0.0590782348242796 -0.0590782348242796 -5.444481085265965
S2 = 0.000000
X(g)
[[ 2.0000000000e+00 -1.7347234760e-18 -2.3233348576e-04  3.8226743838e-05 -1.2694605640e-04  2.8982648053e-02 -3.7859909382e-03 -6.2246418327e-03]
 [-1.7347234760e-18  2.0000000000e+00  2.5955785038e-02 -4.2706075816e-03  1.4182133671e-02  2.5942731607e-04 -3.3888879510e-05 -5.5717549383e-05]
 [-2.3233348576e-04 -2.5955785038e-02  0.0000000000e+00  0.0000000000e+00  0.0000000000e+00  0.0000000000e+00  0.0000000000e+00  0.0000000000e+00]
 [ 3.8226743838e-05  4.2706075816e-03  0.0000000000e+00  0.0000000000e+00  0.0000000000e+00  0.0000000000e+00  0.0000000000e+00  0.0000000000e+00]
 [-1.2694605640e-04 -1.4182133671e-02  0.0000000000e+00  0.0000000000e+00  0.0000000000e+00  0.0000000000e+00  0.0000000000e+00  0.0000000000e+00]
 [-2.8982648053e-02  2.5942731607e-04  0.0000000000e+00  0.0000000000e+00  0.0000000000e+00  0.0000000000e+00  0.0000000000e+00  0.0000000000e+00]
 [ 3.7859909382e-03 -3.3888879510e-05  0.0000000000e+00  0.0000000000e+00  0.0000000000e+00  0.0000000000e+00  0.0000000000e+00  0.0000000000e+00]
 [ 6.2246418327e-03 -5.5717549383e-05  0.0000000000e+00  0.0000000000e+00  0.0000000000e+00  0.0000000000e+00  0.0000000000e+00  0.0000000000e+00]]
X(g) int
[[ 2.0000000000e+00 -7.6699286685e-18 -2.2056045622e-01  3.6289680900e-02 -1.2051332171e-01  6.7418016543e-01 -8.8067867101e-02 -1.4479456994e-01]
 [ 1.0006231265e-16  2.0000000000e+00  6.0377076030e-01 -9.9340782131e-02  3.2989784807e-01  2.4628136147e-01 -3.2171629074e-02 -5.2894175245e-02]
 [-2.2056045622e-01 -6.0377076030e-01  0.0000000000e+00  0.0000000000e+00  0.0000000000e+00  0.0000000000e+00  0.0000000000e+00  0.0000000000e+00]
 [ 3.6289680900e-02  9.9340782131e-02  0.0000000000e+00  0.0000000000e+00  0.0000000000e+00  0.0000000000e+00  0.0000000000e+00  0.0000000000e+00]
 [-1.2051332171e-01 -3.2989784807e-01  0.0000000000e+00  0.0000000000e+00  0.0000000000e+00  0.0000000000e+00  0.0000000000e+00  0.0000000000e+00]
 [-6.7418016543e-01  2.4628136147e-01  0.0000000000e+00  0.0000000000e+00  0.0000000000e+00  0.0000000000e+00  0.0000000000e+00  0.0000000000e+00]
 [ 8.8067867101e-02 -3.2171629074e-02  0.0000000000e+00  0.0000000000e+00  0.0000000000e+00  0.0000000000e+00  0.0000000000e+00  0.0000000000e+00]
 [ 1.4479456994e-01 -5.2894175245e-02  0.0000000000e+00  0.0000000000e+00  0.0000000000e+00  0.0000000000e+00  0.0000000000e+00  0.0000000000e+00]]
Feff
 [[-8.9924745393e-17  4.0467774778e-18  2.9241748326e-04 -4.7331593097e-04 -6.0431529909e-04  1.4702017163e-02 -4.2298816401e-04 -2.8311495685e-02]
 [ 2.4374795424e-17 -3.1503520553e-16  7.3546047153e-03  5.0214278911e-03  3.0635992998e-02 -1.5732451954e-04  3.0053045789e-04 -7.4810652662e-04]
 [ 2.9241748326e-04 -7.3546047153e-03  0.0000000000e+00  0.0000000000e+00  0.0000000000e+00  0.0000000000e+00  0.0000000000e+00  0.0000000000e+00]
 [-4.7331593097e-04 -5.0214278911e-03  0.0000000000e+00  0.0000000000e+00  0.0000000000e+00  0.0000000000e+00  0.0000000000e+00  0.0000000000e+00]
 [-6.0431529909e-04 -3.0635992998e-02  0.0000000000e+00  0.0000000000e+00  0.0000000000e+00  0.0000000000e+00  0.0000000000e+00  0.0000000000e+00]
 [-1.4702017163e-02 -1.5732451954e-04  0.0000000000e+00  0.0000000000e+00  0.0000000000e+00  0.0000000000e+00  0.0000000000e+00  0.0000000000e+00]
 [ 4.2298816401e-04  3.0053045789e-04  0.0000000000e+00  0.0000000000e+00  0.0000000000e+00  0.0000000000e+00  0.0000000000e+00  0.0000000000e+00]
[...]
 [ 1.7876860180e-17  0.0000000000e+00 -8.4901536727e-19  2.9417052477e-19  9.5593117590e-18  0.0000000000e+00  0.0000000000e+00  0.0000000000e+00]
 [-1.7100737188e-16  0.0000000000e+00 -3.0986614216e-18  1.9462820495e-18  1.8956537927e-17  0.0000000000e+00  0.0000000000e+00  0.0000000000e+00]
 [ 0.0000000000e+00 -9.2237035013e-18  0.0000000000e+00  0.0000000000e+00  0.0000000000e+00  1.7677020880e-18 -1.2501152326e-19 -7.5393211440e-18]
 [ 0.0000000000e+00 -2.2831845753e-18  0.0000000000e+00  0.0000000000e+00  0.0000000000e+00  1.3782584889e-19 -2.3051754716e-18  6.9879414772e-19]
 [ 0.0000000000e+00  9.8193171909e-18  0.0000000000e+00  0.0000000000e+00  0.0000000000e+00 -2.1825218603e-19  8.0438251468e-19  5.5119250376e-18]]
D(g) (NO)
 [[ 9.9951368521e-01  8.9589007532e-03  5.3299929503e-18  2.6662774287e-17 -2.1171970220e-16  1.5007065304e-03 -1.8142957309e-03  2.9775617256e-02]
 [-8.9589007532e-03  9.9951368521e-01 -5.2616128317e-03  6.8374524693e-04 -2.9393521308e-02  3.3886858580e-19  7.6971721989e-19  2.0169358704e-17]
 [ 8.7032535826e-18  5.2616128317e-03  9.9951368521e-01 -1.3813100500e-16 -1.6479430699e-17  4.7654299436e-03 -3.0143054285e-02 -3.6599810095e-03]
 [ 2.5506209226e-17 -6.8374524693e-04 -1.6169462984e-16  9.9951368521e-01  5.8897318816e-18  3.0774634330e-02  4.8732244202e-03 -1.0483953489e-03]
 [-2.4630859763e-16  2.9393521308e-02 -1.2209608510e-17  6.3527919124e-18  9.9951368521e-01 -5.9457041821e-04  6.0621256898e-03 -8.4445898655e-03]
 [-1.5007065304e-03 -6.5265904470e-18 -4.7654299436e-03 -3.0774634330e-02  5.9457041821e-04  9.9951368521e-01 -1.0326612531e-16 -3.1026032420e-17]
 [ 1.8142957309e-03 -6.9388939039e-18  3.0143054285e-02 -4.8732244202e-03 -6.0621256898e-03 -1.6653345369e-16  9.9951368521e-01 -1.3877787808e-16]
 [-2.9775617256e-02  5.5511151231e-17  3.6599810095e-03  1.0483953489e-03  8.4445898655e-03 -2.4286128664e-17 -1.4571677198e-16  9.9951368521e-01]]
N(g) (NO)
 [[ 1.0004061787 -0.0089669004]
 [ 0.0089669004  1.0004061787]]
P(g) (NO)
 [[ 1.0000000000e+00  6.1756486427e-18  7.0315273766e-18  2.5832939546e-18 -2.5074316133e-16 -1.0504958019e-34 -1.2037062152e-34  1.4444474583e-34]
 [ 1.3309716252e-18  1.0000000000e+00 -3.4254447831e-36  2.3188180827e-37 -8.5692074785e-35 -1.3098389410e-17 -1.9059429274e-17  1.9345447623e-17]
 [ 4.7180358229e-05  5.2637499870e-03  3.3174998052e-22  1.2188073419e-22 -1.1830152175e-20 -6.8946647085e-20 -1.0032407059e-19  1.0182959967e-19]
 [-6.1310755312e-06 -6.8402296971e-04 -4.3110825445e-23 -1.5838370355e-23  1.5373252610e-21  8.9595992224e-21  1.3037087413e-20 -1.3232730533e-20]
 [ 2.6356877811e-04  2.9405460332e-02  1.8532910789e-21  6.8087563109e-22 -6.6088068650e-20 -3.8516417019e-19 -5.6045129145e-19  5.6886179268e-19]
 [-1.5013160855e-03  1.3456685995e-05 -1.0556545156e-20 -3.8783407677e-21  3.7644474144e-19 -1.7626091332e-22 -2.5647675498e-22  2.6032561409e-22]
 [ 1.8150326592e-03 -1.6268609123e-05  1.2762451833e-20  4.6887628959e-21 -4.5510702689e-19  2.1309257745e-22  3.1007040496e-22 -3.1472352569e-22]
 [-2.9787711479e-02  2.6699499441e-04 -2.0945310875e-19 -7.6950414982e-20  7.4690649449e-18 -3.4972044073e-21 -5.0887722124e-21  5.1651376800e-21]]
time for NO, Ng: 0.014
Pg_ortho
 [[ 6.3623144058e-01  4.6896203824e-01 -6.9290290093e-02 -8.2711832561e-02  1.4142734155e-02 -1.0424516949e-02 -1.5402479189e-03  1.8385942360e-03]
 [ 4.6869983116e-01  3.4547558345e-01 -5.1044863859e-02 -6.0932263770e-02 -1.8829023813e-02  1.3878750439e-02  2.0506193799e-03 -2.4478247467e-03]
 [-6.9290290093e-02 -5.1073420142e-02  7.5462229543e-03  9.0079277866e-03 -1.5402479189e-03  1.1353066783e-03  1.6774434319e-04 -2.0023645461e-04]
 [-8.2665586540e-02 -6.0932263770e-02  9.0028912542e-03  1.0746753015e-02  3.3209149950e-03 -2.4478247467e-03 -3.6167210342e-04  4.3172805916e-04]
 [-1.4142734155e-02 -1.0424516949e-02  1.5402479189e-03  1.8385942360e-03  6.3623144058e-01 -4.6896203824e-01 -6.9290290093e-02  8.2711832561e-02]
 [-1.8829023813e-02 -1.3878750439e-02  2.0506193799e-03  2.4478247467e-03 -4.6869983116e-01  3.4547558345e-01  5.1044863859e-02 -6.0932263770e-02]
 [ 1.5402479189e-03  1.1353066783e-03 -1.6774434319e-04 -2.0023645461e-04 -6.9290290093e-02  5.1073420142e-02  7.5462229543e-03 -9.0079277866e-03]
 [ 3.3209149950e-03  2.4478247467e-03 -3.6167210342e-04 -4.3172805916e-04  8.2665586540e-02 -6.0932263770e-02 -9.0028912542e-03  1.0746753015e-02]]
G(g) (NO)
 [[ 2.7192295173e-01 -1.4700361256e-03  8.7138945266e-03 -1.2926668287e-02  4.8127766511e-02 -5.0125947644e-05 -5.0665703940e-04  3.7277218249e-04]
 [ 1.4700361256e-03  2.7192295173e-01 -2.3002627267e-04 -4.5181434975e-04 -3.7566577364e-04  7.9909845689e-03  7.4399425926e-03  4.9397409243e-02]
 [ 8.7029936606e-03  1.9102159879e-03  8.2201638443e-01 -5.7888382872e-03 -1.7087623728e-01  3.5427267447e-04  3.4880444735e-03 -5.4669215805e-04]
 [-1.2932154551e-02 -8.1792455127e-04 -5.7893068795e-03  7.3306256410e-01  6.6719822718e-02 -1.7233704496e-04 -1.0427775293e-03 -1.0701755450e-04]
 [ 4.8059978077e-02 -1.9607533610e-02 -1.7088105828e-01  6.6723057479e-02  9.5611651324e-01 -2.4723814294e-04 -6.2063668559e-03  1.5992369002e-03]
 [-4.3534542877e-03  7.9918669672e-03  1.6806942286e-03  3.9469526477e-03  6.6016590649e-04  8.5202839644e-01 -3.5608013376e-02 -1.9455891981e-01]
 [ 1.7874173552e-04  7.4498089850e-03 -3.5158968746e-04 -6.0808482124e-04 -3.4841969429e-04 -3.5607625932e-02  7.4752103357e-01  1.6386321981e-02]
 [ 1.9229893060e-02  4.9329247118e-02 -2.6526387076e-03 -5.0969785908e-03 -1.5451859009e-03 -1.9456469205e-01  1.6385646296e-02  9.1164603176e-01]]
time for Gg: 0.022
C(NO)
[[ 1.0000000000e+00  0.0000000000e+00 -1.8609380008e-16  5.8686696880e-17 -3.6662048066e-17  0.0000000000e+00  0.0000000000e+00  0.0000000000e+00]
 [ 0.0000000000e+00  1.0000000000e+00  0.0000000000e+00  0.0000000000e+00  0.0000000000e+00 -5.1147602222e-17  6.2450045135e-17  1.9428902931e-16]
 [ 1.3970421280e-17  0.0000000000e+00  3.2562500644e-01  4.3119846109e-01 -8.4144889466e-01  0.0000000000e+00  0.0000000000e+00  0.0000000000e+00]
 [ 2.5832939546e-18  0.0000000000e+00 -9.0164720949e-02  9.0005786755e-01  4.2634042521e-01  0.0000000000e+00  0.0000000000e+00  0.0000000000e+00]
 [-1.3972085887e-16  0.0000000000e+00  9.4119003303e-01 -6.2958098925e-02  3.3196023784e-01  0.0000000000e+00  0.0000000000e+00  0.0000000000e+00]
 [ 0.0000000000e+00  7.7939839821e-19  0.0000000000e+00  0.0000000000e+00  0.0000000000e+00 -2.1775361826e-01  2.8623017369e-02 -9.7558397107e-01]
 [ 0.0000000000e+00  8.6961463420e-18  0.0000000000e+00  0.0000000000e+00  0.0000000000e+00  7.0618018330e-02  9.9741205700e-01  1.3501260801e-02]
 [ 0.0000000000e+00 -1.3614298421e-17  0.0000000000e+00  0.0000000000e+00  0.0000000000e+00 -9.7344566218e-01  6.5953858361e-02  2.1921138507e-01]]
detC 0.9999999999999996
detNg [ 1.0008929278  1.0237511059  1.1384514782  1.4889226435  2.4335990661  4.8982521761  9.4570988642 11.9857045199]
xg [0.9991078688 0.9767999216 0.8783861404 0.6716265646 0.4109140301 0.2041544543 0.1057406732 0.0834327259]
ciS 1.0825405947341322
[[-0.766530541   0.            0.0049976077  0.0033626152 -0.0548871068  0.            0.            0.          ]
 [ 0.           -0.766530541   0.            0.            0.            0.0092715525 -0.0053436015 -0.0541697517]
 [ 0.0049976077  0.            0.3043060559 -0.031941083  -0.1802242233  0.            0.            0.          ]
 [ 0.0033626152  0.           -0.031941083   0.3914753514  0.0423833767  0.            0.            0.          ]
 [-0.0548871068  0.           -0.1802242233  0.0423833767 -0.7022812528  0.            0.            0.          ]
 [ 0.            0.0092715525  0.            0.            0.            0.3766742364  0.0481919674 -0.0521000135]
 [ 0.           -0.0053436015  0.            0.            0.            0.0481919674  0.3464716529  0.0513130254]
 [ 0.           -0.0541697517  0.            0.            0.           -0.0521000135  0.0513130254 -0.7296457349]]
ciH -1.3797342556400787
0.9999999999999998 7.548757625930325e-18 -0.028620956996627298j -1.431146867680866e-17
0.5413440330627798 0.0004095795897013946 -0.00040957958970139457 0.45865596693721983
1.0 3.1929753979698106e-17 -0.14745885236712858j 3.946495907847236e-17
0.5432540089722795 0.010872056570715312 -0.010872056570715312 0.45674599102772034
0.9999999999999999 1.0126448291014611e-16 -0.3541770824108058j 3.7730235602495554e-17
0.5534892672817611 0.06272070285251535 -0.06272070285251537 0.4465107327182389
0.9999999999999999 9.280770596475918e-17 -0.654855504867237j 1.1882855810441129e-16
0.5914917358733445 0.21441786612746194 -0.21441786612746194 0.40850826412665525
1.0000000000000002 2.905661822261152e-17 -1.0703415332244297j 9.974659986866641e-18
0.7444193913200167 0.5728154988726113 -0.5728154988726113 0.2555806086799836
0.9999999999999999 5.655198531684391e-16 -1.523867022775958j -1.2793585635328952e-16
1.4901930603702305 1.1610853515520314 -1.1610853515520312 -0.4901930603702302
0.9999999999999994 4.683753385137379e-16 -1.3621796715484062j -2.411265631607762e-16
4.1910799856718235 0.927766728789862 -0.927766728789862 -3.191079985671824
0.9999999999999993 8.782037597132586e-17 -0.3427362948787429j -2.7755575615628914e-16
6.428771765718361 0.058734083913604296 -0.058734083913604296 -5.428771765718361
S2 = 0.000000
X(g)
[[ 2.0000000000e+00  6.9388939039e-18  4.7180358229e-05 -6.1310755312e-06  2.6356877811e-04  1.5013160855e-03 -1.8150326592e-03  2.9787711479e-02]
 [-5.2041704279e-18  2.0000000000e+00 -5.2637499870e-03  6.8402296971e-04 -2.9405460332e-02  1.3456685995e-05 -1.6268609123e-05  2.6699499441e-04]
 [ 4.7180358229e-05  5.2637499870e-03  0.0000000000e+00  0.0000000000e+00  0.0000000000e+00  0.0000000000e+00  0.0000000000e+00  0.0000000000e+00]
 [-6.1310755312e-06 -6.8402296971e-04  0.0000000000e+00  0.0000000000e+00  0.0000000000e+00  0.0000000000e+00  0.0000000000e+00  0.0000000000e+00]
 [ 2.6356877811e-04  2.9405460332e-02  0.0000000000e+00  0.0000000000e+00  0.0000000000e+00  0.0000000000e+00  0.0000000000e+00  0.0000000000e+00]
 [-1.5013160855e-03  1.3456685995e-05  0.0000000000e+00  0.0000000000e+00  0.0000000000e+00  0.0000000000e+00  0.0000000000e+00  0.0000000000e+00]
 [ 1.8150326592e-03 -1.6268609123e-05  0.0000000000e+00  0.0000000000e+00  0.0000000000e+00  0.0000000000e+00  0.0000000000e+00  0.0000000000e+00]
 [-2.9787711479e-02  2.6699499441e-04  0.0000000000e+00  0.0000000000e+00  0.0000000000e+00  0.0000000000e+00  0.0000000000e+00  0.0000000000e+00]]
X(g) int
[[ 2.0000000000e+00  1.4900046135e-16  4.4780358399e-02 -5.8191961648e-03  2.5016139744e-01  3.4915682366e-02 -4.2211699737e-02  6.9276435682e-01]
 [-1.0054239384e-16  2.0000000000e+00 -1.2241754043e-01  1.5908128189e-02 -6.8387445032e-01  1.2772162916e-02 -1.5441047388e-02  2.5341332685e-01]
 [ 4.4780358399e-02  1.2241754043e-01  0.0000000000e+00  0.0000000000e+00  0.0000000000e+00  0.0000000000e+00  0.0000000000e+00  0.0000000000e+00]
 [-5.8191961648e-03 -1.5908128189e-02  0.0000000000e+00  0.0000000000e+00  0.0000000000e+00  0.0000000000e+00  0.0000000000e+00  0.0000000000e+00]
 [ 2.5016139744e-01  6.8387445032e-01  0.0000000000e+00  0.0000000000e+00  0.0000000000e+00  0.0000000000e+00  0.0000000000e+00  0.0000000000e+00]
 [-3.4915682366e-02  1.2772162916e-02  0.0000000000e+00  0.0000000000e+00  0.0000000000e+00  0.0000000000e+00  0.0000000000e+00  0.0000000000e+00]
 [ 4.2211699737e-02 -1.5441047388e-02  0.0000000000e+00  0.0000000000e+00  0.0000000000e+00  0.0000000000e+00  0.0000000000e+00  0.0000000000e+00]
 [-6.9276435682e-01  2.5341332685e-01  0.0000000000e+00  0.0000000000e+00  0.0000000000e+00  0.0000000000e+00  0.0000000000e+00  0.0000000000e+00]]
Feff
 [[ 2.6486588369e-16  1.0098031950e-17  1.5239917715e-10 -8.0326102046e-11 -3.0399121776e-10 -9.5277229560e-03 -2.4438384612e-02  1.9327007861e-02]
 [-2.2127573924e-17  2.3591398885e-16 -4.9824218273e-03 -2.5000796251e-02 -2.0289924583e-02  2.0668570989e-10  1.1038469959e-13 -2.8172665886e-10]
 [ 1.5239899409e-10  4.9824218273e-03  0.0000000000e+00  0.0000000000e+00  0.0000000000e+00  0.0000000000e+00  0.0000000000e+00  0.0000000000e+00]
 [-8.0325967075e-11  2.5000796251e-02  0.0000000000e+00  0.0000000000e+00  0.0000000000e+00  0.0000000000e+00  0.0000000000e+00  0.0000000000e+00]
 [-3.0399130391e-10  2.0289924583e-02  0.0000000000e+00  0.0000000000e+00  0.0000000000e+00  0.0000000000e+00  0.0000000000e+00  0.0000000000e+00]
 [ 9.5277229560e-03  2.0668570578e-10  0.0000000000e+00  0.0000000000e+00  0.0000000000e+00  0.0000000000e+00  0.0000000000e+00  0.0000000000e+00]
 [ 2.4438384612e-02  1.1047947285e-13  0.0000000000e+00  0.0000000000e+00  0.0000000000e+00  0.0000000000e+00  0.0000000000e+00  0.0000000000e+00]
 [-1.9327007861e-02 -2.8172635185e-10  0.0000000000e+00  0.0000000000e+00  0.0000000000e+00  0.0000000000e+00  0.0000000000e+00  0.0000000000e+00]]
Feff (ortho)
 [[-2.8064944351e-10  9.0435495229e-11 -8.3798243991e-11  1.2104460289e-10 -5.7245874707e-17 -1.0234868508e-16 -1.7347234760e-18  4.6837533851e-17]
 [ 9.0435495229e-11  2.8579757054e-10 -9.4145337880e-11  5.0571322797e-11 -7.2858385991e-17 -5.0306980803e-17  1.7347234760e-18  3.0357660830e-17]
 [-8.3798243991e-11 -9.4145337880e-11  2.1581222913e-11  1.6848595173e-12  3.8163916471e-17 -1.3444106939e-17 -3.2526065175e-18 -6.5052130349e-19]
 [ 1.2104460289e-10  5.0571322797e-11  1.6848595173e-12 -2.6729085079e-11  2.9490299092e-17 -3.4694469520e-18 -2.3852447795e-18 -3.0357660830e-18]
 [-5.7245874707e-17 -7.2858385991e-17  3.8163916471e-17  2.9490299092e-17 -2.8065010033e-10 -9.0435681730e-11 -8.3798151626e-11 -1.2104461326e-10]
 [-1.0234868508e-16 -5.0306980803e-17 -1.3444106939e-17 -3.4694469520e-18 -9.0435681730e-11  2.8579820234e-10  9.4145342836e-11  5.0571243254e-11]
 [-1.7347234760e-18  1.7347234760e-18 -3.2526065175e-18 -2.3852447795e-18 -8.3798151626e-11  9.4145342836e-11  2.1581210585e-11 -1.6848556798e-12]
 [ 4.6837533851e-17  3.0357660830e-17 -6.5052130349e-19 -3.0357660830e-18 -1.2104461326e-10  5.0571243254e-11 -1.6848556798e-12 -2.6729076674e-11]]
Hsp + Hph =  -1.2745335023477211
Feff (mod,ortho)
[[-0.2308163172 -0.3318709593  0.2236619129 -0.0397983682  0.            0.            0.            0.          ]
 [-0.3318709593  0.0030568182 -0.0736695092  0.3306629314  0.            0.            0.            0.          ]
 [ 0.2236619129 -0.0736695092  1.1211906459 -0.0508694262  0.            0.            0.            0.          ]
 [-0.0397983682  0.3306629314 -0.0508694262  1.1166619521  0.            0.            0.            0.          ]
 [ 0.            0.            0.            0.           -0.2308163172  0.3318709593  0.2236619129  0.0397983682]
 [ 0.            0.            0.            0.            0.3318709593  0.0030568182  0.0736695092  0.3306629314]
 [ 0.            0.            0.            0.            0.2236619129  0.0736695092  1.1211906459  0.0508694262]
 [ 0.            0.            0.            0.            0.0397983682  0.3306629314  0.0508694262  1.1166619521]]
F(mod,ortho) updated with CDIIS
[[[-0.2308163171 -0.3318709593  0.223661913  -0.0397983681]
  [-0.3318709593  0.0030568181 -0.0736695092  0.3306629315]
  [ 0.223661913  -0.0736695092  1.1211906459 -0.0508694262]
  [-0.0397983681  0.3306629315 -0.0508694262  1.1166619521]]

 [[-0.2308163171  0.3318709593  0.223661913   0.0397983681]
  [ 0.3318709593  0.0030568181  0.0736695092  0.3306629315]
  [ 0.223661913   0.0736695092  1.1211906459  0.0508694262]
  [ 0.0397983681  0.3306629315  0.0508694262  1.1166619521]]]
Alpha occ 1 vir 3; Beta occ 1 vir 3
Alpha energies:  [-0.4946207656] <- HOMO
         LUMO->  [0.1219281958 1.0988253817 1.283960287 ]
Beta energies:   [-0.4946207656] <- HOMO
         LUMO->  [0.1219281958 1.0988253817 1.283960287 ]
e_a, e_b
 [-0.4946207656  0.1219281958  1.0988253817  1.283960287 ] 
 [-0.4946207656  0.1219281958  1.0988253817  1.283960287 ]
v_a, v_b
 [[ 0.7975617066  0.5732885075 -0.0900046244  0.1647263759]
 [ 0.5878775229 -0.7561293528 -0.100110005  -0.2695299736]
 [-0.0868603443 -0.1705432304 -0.7900354027  0.5824211102]
 [-0.1036852097  0.2655629786 -0.5980979994 -0.749002313 ]] 
 [[ 0.7975617066 -0.5732885075  0.0900046244  0.1647263759]
 [-0.5878775229 -0.7561293528 -0.100110005   0.2695299736]
 [-0.0868603443  0.1705432304  0.7900354027  0.5824211102]
 [ 0.1036852097  0.2655629786 -0.5980979994  0.749002313 ]]
P_a, P_b
 [[ 0.6361046759  0.4688686005 -0.0692764845 -0.0826953528]
 [ 0.4688686005  0.345599982  -0.0510632441 -0.0609542043]
 [-0.0692764845 -0.0510632441  0.0075447194  0.009006133 ]
 [-0.0826953528 -0.0609542043  0.009006133   0.0107506227]] 
 [[ 0.6361046759 -0.4688686005 -0.0692764845  0.0826953528]
 [-0.4688686005  0.345599982   0.0510632441 -0.0609542043]
 [-0.0692764845  0.0510632441  0.0075447194 -0.009006133 ]
 [ 0.0826953528 -0.0609542043 -0.009006133   0.0107506227]]
time for xg, H, S2, Yg, Feff: 0.025

***************
SUHF converged at cycle 12
Final E(SUHF) =     -1.00994490, delta E = -2.85791e-11, MaxD(dm) = 3.05623e-10, RMSD(dm) = 1.15061e-10
dm_reg
 [[[2.8447917825e-05 2.9589961088e-04 1.9909043420e-03 3.7474730452e-03]
  [2.9589961088e-04 3.0777851742e-03 2.0708293089e-02 3.8979155617e-02]
  [1.9909043420e-03 2.0708293089e-02 1.3933181765e-01 2.6226384662e-01]
  [3.7474730452e-03 3.8979155617e-02 2.6226384662e-01 4.9365842207e-01]]

 [[1.3933181765e-01 2.6226384662e-01 1.9909043420e-03 2.0708293089e-02]
  [2.6226384662e-01 4.9365842207e-01 3.7474730452e-03 3.8979155617e-02]
  [1.9909043420e-03 3.7474730452e-03 2.8447917825e-05 2.9589961088e-04]
  [2.0708293089e-02 3.8979155617e-02 2.9589961088e-04 3.0777851742e-03]]]
mo_reg
 [[-0.005333659  -0.1698002773  0.1610010621 -1.3022267479]
 [-0.0554777899 -0.9047664758  0.0668003056  1.0393364815]
 [-0.3732717745  0.0827862706  1.2513972121  0.1959491265]
 [-0.7026082992  0.2059771904 -1.119703327  -0.3413827732]] 
 [[-0.3732717745 -0.0827862706 -1.2513972121  0.1959491265]
 [-0.7026082992 -0.2059771904  1.119703327  -0.3413827732]
 [-0.005333659   0.1698002773 -0.1610010621 -1.3022267479]
 [-0.0554777899  0.9047664758 -0.0668003056  1.0393364815]]
time for cyc: 0.744
******* suhf density *****
time for Ngg: 0.002
time for Pgg: 0.004
time for xgg: 0.000
Clebsch-Gordan coeff: < 0 0 0 0 | 0 0 > = 1
Clebsch-Gordan coeff: < 0 0 1 0 | 0 0 > = 0
xggint 0.9999999999999999
SUHF DM alpha
 [[0.0648955961 0.1245153575 0.0203317291 0.046136313 ]
 [0.1245153575 0.2397755512 0.046136313  0.1019222852]
 [0.0203317291 0.046136313  0.0648955961 0.1245153575]
 [0.046136313  0.1019222852 0.1245153575 0.2397755512]] 
SUHF DM beta
 [[0.0648955961 0.1245153575 0.0203317291 0.046136313 ]
 [0.1245153575 0.2397755512 0.046136313  0.1019222852]
 [0.0203317291 0.046136313  0.0648955961 0.1245153575]
 [0.046136313  0.1019222852 0.1245153575 0.2397755512]]
time for dm: 0.016
SUHF natural orbitals alpha
 [[-0.2359566186  0.3081811236 -0.7591716505  1.0117231346]
 [-0.4724586982  0.5420297568  0.5290489836 -1.05330739  ]
 [-0.2359566186 -0.3081811236 -0.9990293474 -0.7758000124]
 [-0.4724586982 -0.5420297568  0.7880095642  0.8765786967]]
SUHF natural orbitals beta
 [[-0.2359566186  0.3081811236 -0.7591716505  1.0117231346]
 [-0.4724586982  0.5420297568  0.5290489836 -1.05330739  ]
 [-0.2359566186 -0.3081811236 -0.9990293474 -0.7758000124]
 [-0.4724586982 -0.5420297568  0.7880095642  0.8765786967]]
SUHF natural orbitals, total
 [[-0.2359566186  0.3081811236 -0.7591716505  1.0117231346]
 [-0.4724586982  0.5420297568  0.5290489836 -1.05330739  ]
 [-0.2359566186 -0.3081811236 -0.9990293474 -0.7758000124]
 [-0.4724586982 -0.5420297568  0.7880095642  0.8765786967]]
SUHF NO occ alpha:  0.765393  0.234607  ...
SUHF NO occ beta:   0.765393  0.234607  ...
SUHF NO occ total:  1.530786  0.469214  ...
core 0, active 2, external 2
time for natorb: 0.002
time tot: 0.860
