#INFO: **** input file is /share/home/srwang/ExSCF/test/vhfopt/test.py ****
from pyphf import util, guess

xyz = 'H 0.0 0.0 0.0; H 0.0 0.0 2.0'''
bas = '3-21g'
mf = guess.mix(xyz, bas, conv='tight')

mf2 = util.SUHF(mf)
mf2.verbose = 8
mf2.kernel()

#INFO: ******************** input file end ********************


System: uname_result(system='Linux', node='xn01', release='3.10.0-1127.el7.x86_64', version='#1 SMP Tue Feb 18 16:39:12 EST 2020', machine='x86_64', processor='x86_64')  Threads 32
Python 3.7.4 (default, Aug 13 2019, 20:35:49) 
[GCC 7.3.0]
numpy 1.17.2  scipy 1.4.1
Date: Wed May  5 17:10:22 2021
PySCF version 1.7.6a1
PySCF path  /share/home/srwang/pyscf/pyscf
GIT HEAD      ref: refs/heads/master
GIT master branch  80f71dfe77ac5f9caae26788acf76446987635bd

[CONFIG] conf_file None
[INPUT] verbose = 4
[INPUT] num. atoms = 2
[INPUT] num. electrons = 2
[INPUT] charge = 0
[INPUT] spin (= nelec alpha-beta = 2S) = 0
[INPUT] symmetry False subgroup None
[INPUT] Mole.unit = angstrom
[INPUT]  1 H      0.000000000000   0.000000000000   0.000000000000 AA    0.000000000000   0.000000000000   0.000000000000 Bohr
[INPUT]  2 H      0.000000000000   0.000000000000   2.000000000000 AA    0.000000000000   0.000000000000   3.779452249130 Bohr

nuclear repulsion = 0.26458860546
number of shells = 4
number of NR pGTOs = 6
number of NR cGTOs = 4
basis = 3-21g
ecp = {}
CPU time:         1.08


******** <class 'pyscf.scf.hf.RHF'> ********
method = RHF
initial guess = minao
damping factor = 0
level_shift factor = 0
DIIS = <class 'pyscf.scf.diis.CDIIS'>
diis_start_cycle = 1
diis_space = 8
SCF conv_tol = 1e-05
SCF conv_tol_grad = None
SCF max_cycles = 50
direct_scf = True
direct_scf_tol = 1e-13
chkfile to save SCF result = /share/home/srwang/ExSCF/test/vhfopt/tmpfdwrjrcf
max_memory 4000 MB (current use 107 MB)
Set gradient conv threshold to 0.00316228
init E= -0.648815945420394
  HOMO = -0.244674774926751  LUMO = -0.0864459286574333
cycle= 1 E= -0.907663399996248  delta_E= -0.259  |g|= 0.019  |ddm|= 0.828
  HOMO = -0.369605169894072  LUMO = -0.0101025752244086
cycle= 2 E= -0.907801422494245  delta_E= -0.000138  |g|= 0.00293  |ddm|= 0.0218
  HOMO = -0.370705495656877  LUMO = -0.011268420043165
cycle= 3 E= -0.907804773936949  delta_E= -3.35e-06  |g|= 1.06e-06  |ddm|= 0.00397
  HOMO = -0.370702164933128  LUMO = -0.011267278240244
Extra cycle  E= -0.907804773937381  delta_E= -4.31e-13  |g|= 1.64e-07  |ddm|= 1.22e-06
converged SCF energy = -0.907804773937381


******** <class 'pyscf.scf.uhf.UHF'> ********
method = UHF
initial guess = minao
damping factor = 0
level_shift factor = 0
DIIS = <class 'pyscf.scf.diis.CDIIS'>
diis_start_cycle = 1
diis_space = 8
SCF conv_tol = 1e-09
SCF conv_tol_grad = None
SCF max_cycles = 100
direct_scf = True
direct_scf_tol = 1e-13
chkfile to save SCF result = /share/home/srwang/ExSCF/test/vhfopt/tmp2239a2pl
max_memory 4000 MB (current use 150 MB)
number electrons alpha = 1  beta = 1
Set gradient conv threshold to 3.16228e-05
init E= -1.69135654891561
  alpha nocc = 1  HOMO = -0.241362636475731  LUMO = 0.900983838942927
  beta  nocc = 1  HOMO = -0.24136263647573  LUMO = 0.900983838942929
cycle= 1 E= -0.98558925463628  delta_E= 0.706  |g|= 0.0835  |ddm|= 1.15
  alpha nocc = 1  HOMO = -0.500699367107887  LUMO = 0.115721881429081
  beta  nocc = 1  HOMO = -0.500699367107887  LUMO = 0.115721881429081
cycle= 2 E= -0.995568238270465  delta_E= -0.00998  |g|= 0.0263  |ddm|= 0.145
  alpha nocc = 1  HOMO = -0.497083605541942  LUMO = 0.125003394565143
  beta  nocc = 1  HOMO = -0.497083605541942  LUMO = 0.125003394565143
cycle= 3 E= -0.996982488678899  delta_E= -0.00141  |g|= 0.00453  |ddm|= 0.0714
  alpha nocc = 1  HOMO = -0.492766860752048  LUMO = 0.118670910813593
  beta  nocc = 1  HOMO = -0.492766860752049  LUMO = 0.118670910813592
cycle= 4 E= -0.997011162805863  delta_E= -2.87e-05  |g|= 0.000416  |ddm|= 0.00998
  alpha nocc = 1  HOMO = -0.49439549753304  LUMO = 0.120246563561695
  beta  nocc = 1  HOMO = -0.49439549753304  LUMO = 0.120246563561695
cycle= 5 E= -0.997011453176457  delta_E= -2.9e-07  |g|= 3.04e-05  |ddm|= 0.00094
  alpha nocc = 1  HOMO = -0.494331180495902  LUMO = 0.120178766572685
  beta  nocc = 1  HOMO = -0.494331180495902  LUMO = 0.120178766572686
cycle= 6 E= -0.997011455175521  delta_E= -2e-09  |g|= 5.7e-07  |ddm|= 7.89e-05
  alpha nocc = 1  HOMO = -0.494330560132442  LUMO = 0.120178160886579
  beta  nocc = 1  HOMO = -0.494330560132442  LUMO = 0.120178160886579
cycle= 7 E= -0.997011455176148  delta_E= -6.27e-13  |g|= 2.53e-07  |ddm|= 8.43e-07
  alpha nocc = 1  HOMO = -0.494330110948652  LUMO = 0.120177755068688
  beta  nocc = 1  HOMO = -0.494330110948652  LUMO = 0.120177755068688
Extra cycle  E= -0.997011455176267  delta_E= -1.19e-13  |g|= 1.16e-07  |ddm|= 3.54e-07
converged SCF energy = -0.997011455176267  <S^2> = 0.91048301  2S+1 = 2.1545143
checking UHF/UKS internal stability ...
tol 0.0001  toloose 0.01
max_cycle 50  max_space 12  max_memory 2000  incore True
davidson 0 1  |r|= 0.861  e= [1.13705881]  max|de|= 1.14  lindep= 0.529
davidson 1 2  |r|= 0.119  e= [0.67139996]  max|de|= -0.466  lindep= 0.998
Throwing out eigenvector 0 with norm=7.23e-16
davidson 2 3  |r|= 7.23e-16  e= [0.66357818]  max|de|= -0.00782  lindep=    1
Linear dependency in trial subspace. |r| for each state [7.230031107077985e-16]
UHF/UKS wavefunction is stable in the internal stability analysis
time for guess: 0.286

******** <class 'pyphf.util.SUHF'> ********
max_cycle = 70
verbose: 8, debug2
chkfile0: 31983_ges.pchk # the file store hf for guess
chkfile: 31983_su.pchk # the file store suhf info
conv_tol: 1e-07
DIIS: <class 'pyscf.scf.diis.CDIIS'>
diis_start_cyc = 10
S
[[1.         0.64589894 0.00227256 0.07465634]
 [0.64589894 1.         0.07465634 0.27025724]
 [0.00227256 0.07465634 1.         0.64589894]
 [0.07465634 0.27025724 0.64589894 1.        ]]
SVD: S^(-1/2)
[[-0.3306004   0.46012676 -0.85621932  0.83453679]
 [-0.39774539  0.36468663  0.71167752 -1.05293881]
 [-0.3306004  -0.46012676 -0.85621932 -0.83453679]
 [-0.39774539 -0.36468663  0.71167752  1.05293881]]
S^(1/2)
[[-0.61794925 -0.74345483 -0.61794925 -0.74345483]
 [ 0.66740563  0.52897143 -0.66740563 -0.52897143]
 [-0.34536213  0.28706017 -0.34536213  0.28706017]
 [ 0.23115675 -0.29165151 -0.23115675  0.29165151]]
C (ortho)
 [[-0.80171109 -0.57009486 -0.09238995 -0.15399766]
 [ 0.58103419 -0.75902561  0.10126721 -0.27572512]
 [ 0.08280271  0.16885271 -0.79177919 -0.58113526]
 [-0.11314731  0.26525597  0.59522665 -0.75002813]] 
 [[-0.80171109 -0.57009486 -0.09238995 -0.15399766]
 [-0.58103419  0.75902561 -0.10126721  0.27572512]
 [ 0.08280271  0.16885271 -0.79177919 -0.58113526]
 [ 0.11314731 -0.26525597 -0.59522665  0.75002813]]
density matrix (ortho)
[[[ 0.64274066 -0.46582155 -0.06638385  0.09071146]
  [-0.46582155  0.33760073  0.04811121 -0.06574246]
  [-0.06638385  0.04811121  0.00685629 -0.0093689 ]
  [ 0.09071146 -0.06574246 -0.0093689   0.01280231]]

 [[ 0.64274066  0.46582155 -0.06638385 -0.09071146]
  [ 0.46582155  0.33760073 -0.04811121 -0.06574246]
  [-0.06638385 -0.04811121  0.00685629  0.0093689 ]
  [-0.09071146 -0.06574246  0.0093689   0.01280231]]]
grids:  [0.06237655 0.31939555 0.74529195 1.28265786 1.85893479 2.39630071
 2.8221971  3.07921611] 
weights:  [0.15900941 0.34931531 0.49276925 0.56970235 0.56970235 0.49276925
 0.34931531 0.15900941]
S = 0.0, Sz = 0.0
Wigner small d:  1
value : [1. 1. 1. 1. 1. 1. 1. 1.]
hcore (ortho)
 [[-7.96723266e-01  9.17301167e-17  1.03744072e-01  1.33062106e-16]
 [ 8.50105048e-17 -6.58935537e-01  4.05701508e-16  1.96745347e-01]
 [ 1.03744072e-01  4.21576640e-16  3.06545630e-01 -2.77570797e-16]
 [ 9.15077779e-17  1.96745347e-01 -1.99832916e-16  3.76082787e-01]]
time for Preparation before cyc: 0.204
**** Start Cycle 1 ****
dm (ortho)
[[[ 0.6427406647 -0.4658215524 -0.0663838507  0.0907114563]
  [-0.4658215524  0.3376007317  0.0481112058 -0.0657424584]
  [-0.0663838507  0.0481112058  0.0068562888 -0.0093689043]
  [ 0.0907114563 -0.0657424584 -0.0093689043  0.0128023148]]

 [[ 0.6427406647  0.4658215524 -0.0663838507 -0.0907114563]
  [ 0.4658215524  0.3376007317 -0.0481112058 -0.0657424584]
  [-0.0663838507 -0.0481112058  0.0068562888  0.0093689043]
  [-0.0907114563 -0.0657424584  0.0093689043  0.0128023148]]]
Fock (ortho)
 (array([[-0.2388873235,  0.326413236 ,  0.2163657457,  0.0245837681],
       [ 0.326413236 ,  0.0110682141,  0.078060889 ,  0.339629591 ],
       [ 0.2163657457,  0.078060889 ,  1.1220172843,  0.0506526202],
       [ 0.0245837681,  0.339629591 ,  0.0506526202,  1.1126146476]]), array([[-0.2388873235, -0.326413236 ,  0.2163657457, -0.0245837681],
       [-0.326413236 ,  0.0110682141, -0.078060889 ,  0.339629591 ],
       [ 0.2163657457, -0.078060889 ,  1.1220172843, -0.0506526202],
       [-0.0245837681,  0.339629591 , -0.0506526202,  1.1126146476]]))
E1 = -1.5345399459403841  Ecoul = 0.2729398853041174
E(UHF) =    -1.261600
NO eigenvalue
[-1.0000000000e+00 -1.2651992742e-17 -1.4145812360e-19  1.2275713175e-17] 
 [-1.0000000000e+00 -2.9524351716e-17  9.0087106934e-19  2.6265628449e-17]
NO vec
[[ 0.8017110856  0.            0.4186538941  0.036460637   0.4250398501  0.            0.            0.          ]
 [-0.5810341915  0.            0.7123303625  0.0085239971  0.3935886996  0.            0.            0.          ]
 [-0.0828027103  0.           -0.2678436526  0.8964852534  0.343100101   0.            0.            0.          ]
 [ 0.1131473145  0.            0.4955543859  0.4414885659 -0.7393993387  0.            0.            0.          ]
 [ 0.            0.8017110856  0.            0.            0.            0.409653474   0.0289044297 -0.434290111 ]
 [ 0.            0.5810341915  0.            0.            0.           -0.7048655442 -0.0345694106  0.4054242083]
 [ 0.           -0.0828027103  0.            0.            0.           -0.3227483223 -0.7929715122 -0.5100719679]
 [ 0.           -0.1131473145  0.            0.            0.           -0.4808140142  0.6075900514 -0.6219725865]]
dm(NO)
[[ 1.0000000000e+00  0.0000000000e+00  4.6420739327e-17 -2.4014146142e-18  3.8389358936e-17  0.0000000000e+00  0.0000000000e+00  0.0000000000e+00]
 [ 0.0000000000e+00  1.0000000000e+00  0.0000000000e+00  0.0000000000e+00  0.0000000000e+00  2.4220657378e-16 -9.9536955342e-19 -2.2894814581e-16]
 [ 5.3253070925e-17  0.0000000000e+00 -1.6694159550e-18  2.6076265230e-18 -5.0063253171e-18  0.0000000000e+00  0.0000000000e+00  0.0000000000e+00]
 [ 1.1963529478e-18  0.0000000000e+00  8.6152477198e-19  1.5097964352e-19  1.6781490128e-18  0.0000000000e+00  0.0000000000e+00  0.0000000000e+00]
 [ 1.0022018215e-16  0.0000000000e+00  8.1805767874e-18  3.9629946467e-18  7.3608542824e-18  0.0000000000e+00  0.0000000000e+00  0.0000000000e+00]
 [ 0.0000000000e+00  2.9515440776e-16  0.0000000000e+00  0.0000000000e+00  0.0000000000e+00 -8.3967409769e-19  3.4168780546e-18 -5.0815178378e-18]
 [ 0.0000000000e+00 -1.4542196085e-18  0.0000000000e+00  0.0000000000e+00  0.0000000000e+00  4.9695333520e-18 -4.0755934251e-19 -3.9752704411e-18]
 [ 0.0000000000e+00 -2.5912923981e-16  0.0000000000e+00  0.0000000000e+00  0.0000000000e+00 -1.0788949709e-17 -6.4695721596e-18  4.5353003835e-18]]
D(g) (NO)
 [[ 9.9951368521e-01  9.3298287800e-03  5.3296250236e-17 -9.9714140235e-18  7.0600347106e-17  2.2149325321e-02  5.5402095631e-03 -1.9080378285e-02]
 [-9.3298287800e-03  9.9951368521e-01 -2.2315811346e-02  2.8065215262e-03 -1.9480127581e-02  1.7071437917e-16  3.1440475055e-18 -1.0846397713e-16]
 [ 1.0364466312e-16  2.2315811346e-02  9.9951368521e-01  6.5055532740e-17  2.7736367026e-16 -1.5043330321e-02  1.5621620034e-02 -2.0151523714e-03]
 [-4.4317775149e-18 -2.8065215262e-03  5.1996800271e-17  9.9951368521e-01 -9.3856611710e-17 -1.5363505125e-02 -1.3779365104e-02 -2.3207936558e-02]
 [ 7.9635698897e-17  1.9480127581e-02  2.1225085799e-16 -1.2189519256e-16  9.9951368521e-01  4.4115060545e-03 -2.2534268073e-02  8.1032759372e-03]
 [-2.2149325321e-02  2.1073452893e-16  1.5043330321e-02  1.5363505125e-02 -4.4115060545e-03  9.9951368521e-01  5.6027726327e-17 -1.9243453829e-16]
 [-5.5402095631e-03  0.0000000000e+00 -1.5621620034e-02  1.3779365104e-02  2.2534268073e-02  0.0000000000e+00  9.9951368521e-01  5.5511151231e-17]
 [ 1.9080378285e-02 -1.1102230246e-16  2.0151523714e-03  2.3207936558e-02 -8.1032759372e-03 -1.9428902931e-16  1.1102230246e-16  9.9951368521e-01]]
N(g) (NO)
 [[ 1.0003993862 -0.0093380962]
 [ 0.0093380962  1.0003993862]]
P(g) (NO)
 [[ 1.0000000000e+00 -2.4760400556e-18  4.6420739327e-17 -2.4014146142e-18  3.8389358936e-17 -8.4963628667e-34  4.5138983072e-36  7.7037197775e-34]
 [ 1.1531253301e-17  1.0000000000e+00  4.6668921671e-34 -2.5394447535e-35  3.9154258053e-34  2.4220657378e-16 -9.9536955342e-19 -2.2894814581e-16]
 [ 2.0838719400e-04  2.2324723973e-02  9.6734876119e-21 -5.0042405308e-22  7.9998507883e-21  5.4071949040e-18 -2.2221350531e-20 -5.1112041592e-18]
 [-2.6207568108e-05 -2.8076424121e-03 -1.2165746876e-21  6.2935237057e-23 -1.0060917390e-21 -6.8002944903e-19  2.7946417739e-21  6.4280452434e-19]
 [ 1.8190730610e-04  1.9487907675e-02  8.4442716381e-21 -4.3683486329e-22  6.9833048670e-21  4.7200993480e-18 -1.9397669959e-20 -4.4617203278e-18]
 [-2.2158171456e-02  2.0683253148e-04 -1.0285987011e-18  5.3210956757e-20 -8.5063799739e-19  5.0096198796e-20 -2.0587480449e-22 -4.7353924575e-20]
 [-5.5424222462e-03  5.1735010084e-05 -2.5728333833e-19  1.3309653780e-20 -2.1277003699e-19  1.2530559537e-20 -5.1495453884e-23 -1.1844634632e-20]
 [ 1.9087998724e-02 -1.7817440870e-04  8.8607901304e-19 -4.5838199091e-20  7.3277603439e-19 -4.3155013066e-20  1.7734938162e-22  4.0792700502e-20]]
time for NO, Ng: 0.033
Pg_ortho
 [[ 6.4287182818e-01 -4.6591661217e-01 -6.6397397638e-02  9.0729967719e-02  1.4051671612e-02  1.0183845280e-02 -1.4512915120e-03 -1.9831444712e-03]
 [-4.6564532526e-01  3.3747301236e-01  4.8093004646e-02 -6.5717587048e-02  1.8879387425e-02  1.3682696680e-02 -1.9499099806e-03 -2.6644910175e-03]
 [-6.6397397638e-02  4.8121023832e-02  6.8576879868e-03 -9.3708162036e-03 -1.4512915120e-03 -1.0518128107e-03  1.4989298859e-04  2.0482408197e-04]
 [ 9.0677138839e-02 -6.5717587048e-02 -9.3653599057e-03  1.2797471469e-02 -3.6764652018e-03 -2.6644910175e-03  3.7971444883e-04  5.1886792119e-04]
 [-1.4051671612e-02  1.0183845280e-02  1.4512915120e-03 -1.9831444712e-03  6.4287182818e-01  4.6591661217e-01 -6.6397397638e-02 -9.0729967719e-02]
 [ 1.8879387425e-02 -1.3682696680e-02 -1.9499099806e-03  2.6644910175e-03  4.6564532526e-01  3.3747301236e-01 -4.8093004646e-02 -6.5717587048e-02]
 [ 1.4512915120e-03 -1.0518128107e-03 -1.4989298859e-04  2.0482408197e-04 -6.6397397638e-02 -4.8121023832e-02  6.8576879868e-03  9.3708162036e-03]
 [-3.6764652018e-03  2.6644910175e-03  3.7971444883e-04 -5.1886792119e-04 -9.0677138839e-02 -6.5717587048e-02  9.3653599057e-03  1.2797471469e-02]]
G(g) (NO)
 [[ 2.7295464423e-01 -1.5811381521e-03  3.3459817876e-02  2.5449362702e-05  4.2801152040e-02  6.9199624496e-04  1.3433321732e-04  1.4912278107e-04]
 [ 1.5811381521e-03  2.7295464423e-01 -6.8000541375e-04  2.0030214761e-04  1.2889339424e-04  3.2772755513e-02  6.9278502249e-03 -4.2772071066e-02]
 [ 3.3402298004e-02 -1.5361825119e-02  9.1438180920e-01  1.4542961233e-01  7.7924554390e-02  4.1664389600e-03  1.3507563637e-03  3.0309827628e-03]
 [ 3.0799316072e-05 -3.4048390298e-03  1.4542610939e-01  8.5044933103e-01  1.0122246338e-01  3.0451779551e-03  8.5497548429e-04  2.4411105039e-03]
 [ 4.2759778424e-02 -1.1484556902e-02  7.7927840444e-02  1.0122484929e-01  7.4205504639e-01  2.5535485378e-03  8.9018586986e-04  1.3240033454e-03]
 [ 1.4976019344e-02  3.2715640568e-02 -3.8034602464e-03  2.0600723688e-03  2.6059568813e-03  8.9572715910e-01 -1.2836959987e-01 -1.0258955857e-01]
 [-1.7954117412e-03  6.9172068339e-03  2.5746587134e-03 -1.3190356428e-03 -2.1198991118e-03 -1.2836556812e-01  8.1908994771e-01  1.2313420042e-01]
 [-1.2327570251e-02 -4.2731162204e-02  3.1128297998e-03 -1.6130622764e-03 -1.6565499646e-03 -1.0259193625e-01  1.2313681823e-01  7.9206907981e-01]]
time for Gg: 0.044
C(NO)
[[-1.0000000000e+00  0.0000000000e+00 -2.3313021351e-16  9.6143303526e-17 -5.5862103234e-17  0.0000000000e+00  0.0000000000e+00  0.0000000000e+00]
 [ 0.0000000000e+00 -1.0000000000e+00  0.0000000000e+00  0.0000000000e+00  0.0000000000e+00 -2.8519042710e-16  2.1510571102e-16  1.9428902931e-16]
 [-3.9358454846e-17  0.0000000000e+00 -6.9312678728e-01  5.4049649688e-01 -4.7690543468e-01  0.0000000000e+00  0.0000000000e+00  0.0000000000e+00]
 [ 4.0254331486e-18  0.0000000000e+00  2.4122548947e-01 -4.4953800512e-01 -8.6007316269e-01  0.0000000000e+00  0.0000000000e+00  0.0000000000e+00]
 [-7.3378055913e-17  0.0000000000e+00 -6.7925364923e-01 -7.1118149499e-01  1.8120530123e-01  0.0000000000e+00  0.0000000000e+00  0.0000000000e+00]
 [ 0.0000000000e+00 -3.0439035987e-16  0.0000000000e+00  0.0000000000e+00  0.0000000000e+00 -6.9551047963e-01  5.7527061693e-01 -4.3049842046e-01]
 [ 0.0000000000e+00  9.4273753610e-18  0.0000000000e+00  0.0000000000e+00  0.0000000000e+00 -3.3777961421e-01  2.6703482185e-01  9.0255046183e-01]
 [ 0.0000000000e+00  2.7582769346e-16  0.0000000000e+00  0.0000000000e+00  0.0000000000e+00  6.3416883000e-01  7.7314689498e-01  8.5891700337e-03]]
detC 0.9999999999999996
detNg [ 1.0008861319  1.0235662454  1.1372541875  1.4834076483  2.407356124   4.7572359479  8.8856775582 11.0616604011]
xg [0.9991146526 0.9769763359 0.8793108973 0.6741235298 0.4153934642 0.2102060968 0.1125406581 0.0904023414]
ciS 1.0895169940278402
[[-7.6726997297e-01  0.0000000000e+00 -3.3466243246e-02 -2.3557253776e-05 -4.2799962963e-02  0.0000000000e+00  0.0000000000e+00  0.0000000000e+00]
 [ 0.0000000000e+00 -7.6726997297e-01  0.0000000000e+00  0.0000000000e+00  0.0000000000e+00 -3.2779293730e-02 -6.9291248615e-03  4.2770690347e-02]
 [-3.3466243246e-02  0.0000000000e+00 -2.4401299565e-01  9.3138871732e-02 -5.5464715256e-01  0.0000000000e+00  0.0000000000e+00  0.0000000000e+00]
 [-2.3557253776e-05  0.0000000000e+00  9.3138871732e-02  3.2682530300e-01  3.0739868426e-02  0.0000000000e+00  0.0000000000e+00  0.0000000000e+00]
 [-4.2799962963e-02  0.0000000000e+00 -5.5464715256e-01  3.0739868426e-02 -8.8572720900e-02  0.0000000000e+00  0.0000000000e+00  0.0000000000e+00]
 [ 0.0000000000e+00 -3.2779293730e-02  0.0000000000e+00  0.0000000000e+00  0.0000000000e+00 -2.3628542758e-01 -1.7256189353e-01  5.3374737417e-01]
 [ 0.0000000000e+00 -6.9291248615e-03  0.0000000000e+00  0.0000000000e+00  0.0000000000e+00 -1.7256189353e-01  3.1712022518e-01  8.7995025435e-02]
 [ 0.0000000000e+00  4.2770690347e-02  0.0000000000e+00  0.0000000000e+00  0.0000000000e+00  5.3374737417e-01  8.7995025435e-02 -8.6595211141e-02]]
ciH -1.3881309806315754
1.0000000000000002 -5.366800753803247e-18 -0.028403129201662707j -1.2923689896027213e-16
0.5448378560240048 0.0004033688742231724 -0.0004033688742231723 0.4551621439759958
1.0000000000000002 -1.6534083130403943e-17 -0.14631114471458115j -3.7643499428696714e-16
0.5468929338944644 0.010703475533845552 -0.010703475533845553 0.4531070661055362
1.0000000000000002 -2.7538735181131813e-17 -0.3511142553682195j -6.505213034913027e-17
0.557888271727839 0.06164061016138962 -0.06164061016138963 0.44211172827216116
1.0000000000000002 -1.979753166958531e-16 -0.6474688047371464j -2.714842239903703e-16
0.5984909943997307 0.20960792655387453 -0.2096079265538745 0.40150900560026953
1.0 9.324138683375338e-17 -1.0507482511349742j -2.732189474663471e-16
0.7593917602571946 0.5520359436316034 -0.5520359436316035 0.2406082397428055
1.0000000000000004 -6.119237061508187e-16 -1.4687423232721664j -1.5178830414797062e-16
1.512942698830995 1.0786020060854602 -1.0786020060854602 -0.5129426988309939
1.0000000000000007 5.0306980803327406e-17 -1.2701411960123594j -4.562322741819003e-16
4.033919022659212 0.8066293289038536 -0.8066293289038536 -3.0339190226592105
1.0000000000000009 -2.927345865710862e-18 -0.3139076060115196j -3.0878077872387166e-16
5.976664502003228 0.04926899255594173 -0.04926899255594172 -4.976664502003226
S2 = -0.000000
X(g)
[[ 2.0000000000e+00 -1.5612511284e-17  2.0838719400e-04 -2.6207568108e-05  1.8190730610e-04  2.2158171456e-02  5.5424222462e-03 -1.9087998724e-02]
 [ 1.2143064332e-17  2.0000000000e+00 -2.2324723973e-02  2.8076424121e-03 -1.9487907675e-02  2.0683253148e-04  5.1735010084e-05 -1.7817440870e-04]
 [ 2.0838719400e-04  2.2324723973e-02  0.0000000000e+00  0.0000000000e+00  0.0000000000e+00  0.0000000000e+00  0.0000000000e+00  0.0000000000e+00]
 [-2.6207568108e-05 -2.8076424121e-03  0.0000000000e+00  0.0000000000e+00  0.0000000000e+00  0.0000000000e+00  0.0000000000e+00  0.0000000000e+00]
 [ 1.8190730610e-04  1.9487907675e-02  0.0000000000e+00  0.0000000000e+00  0.0000000000e+00  0.0000000000e+00  0.0000000000e+00  0.0000000000e+00]
 [-2.2158171456e-02  2.0683253148e-04  0.0000000000e+00  0.0000000000e+00  0.0000000000e+00  0.0000000000e+00  0.0000000000e+00  0.0000000000e+00]
 [-5.5424222462e-03  5.1735010084e-05  0.0000000000e+00  0.0000000000e+00  0.0000000000e+00  0.0000000000e+00  0.0000000000e+00  0.0000000000e+00]
 [ 1.9087998724e-02 -1.7817440870e-04  0.0000000000e+00  0.0000000000e+00  0.0000000000e+00  0.0000000000e+00  0.0000000000e+00  0.0000000000e+00]]
X(g) int
[[ 2.0000000000e+00 -3.1203164180e-16  1.9652168952e-01 -2.4715317020e-02  1.7154955851e-01  5.1203004581e-01  1.2807404809e-01 -4.4108463013e-01]
 [ 3.2926164244e-16  2.0000000000e+00 -5.1587873400e-01  6.4878876659e-02 -4.5032570847e-01  1.9505554901e-01  4.8789234087e-02 -1.6802921117e-01]
 [ 1.9652168952e-01  5.1587873400e-01  0.0000000000e+00  0.0000000000e+00  0.0000000000e+00  0.0000000000e+00  0.0000000000e+00  0.0000000000e+00]
 [-2.4715317020e-02 -6.4878876659e-02  0.0000000000e+00  0.0000000000e+00  0.0000000000e+00  0.0000000000e+00  0.0000000000e+00  0.0000000000e+00]
 [ 1.7154955851e-01  4.5032570847e-01  0.0000000000e+00  0.0000000000e+00  0.0000000000e+00  0.0000000000e+00  0.0000000000e+00  0.0000000000e+00]
 [-5.1203004581e-01  1.9505554901e-01  0.0000000000e+00  0.0000000000e+00  0.0000000000e+00  0.0000000000e+00  0.0000000000e+00  0.0000000000e+00]
 [-1.2807404809e-01  4.8789234087e-02  0.0000000000e+00  0.0000000000e+00  0.0000000000e+00  0.0000000000e+00  0.0000000000e+00  0.0000000000e+00]
 [ 4.4108463013e-01 -1.6802921117e-01  0.0000000000e+00  0.0000000000e+00  0.0000000000e+00  0.0000000000e+00  0.0000000000e+00  0.0000000000e+00]]
Feff
 [[-7.2612066743e-17 -4.3277605751e-18  1.0577842517e-02  1.4734462692e-02  9.7641900589e-04  2.2380366671e-02  4.7024012025e-03 -2.0584637904e-03]
 [ 3.4350211626e-17 -5.1797908842e-16 -2.2151313043e-02  5.4381843788e-03 -2.6412390505e-03  9.7187622236e-03 -1.4758609064e-02 -4.2044805297e-03]
 [ 1.0577842517e-02  2.2151313043e-02  0.0000000000e+00  0.0000000000e+00  0.0000000000e+00  0.0000000000e+00  0.0000000000e+00  0.0000000000e+00]
 [ 1.4734462692e-02 -5.4381843788e-03  0.0000000000e+00  0.0000000000e+00  0.0000000000e+00  0.0000000000e+00  0.0000000000e+00  0.0000000000e+00]
 [ 9.7641900589e-04  2.6412390505e-03  0.0000000000e+00  0.0000000000e+00  0.0000000000e+00  0.0000000000e+00  0.0000000000e+00  0.0000000000e+00]
 [-2.2380366671e-02  9.7187622236e-03  0.0000000000e+00  0.0000000000e+00  0.0000000000e+00  0.0000000000e+00  0.0000000000e+00  0.0000000000e+00]
 [-4.7024012025e-03 -1.4758609064e-02  0.0000000000e+00  0.0000000000e+00  0.0000000000e+00  0.0000000000e+00  0.0000000000e+00  0.0000000000e+00]
 [ 2.0584637904e-03 -4.2044805297e-03  0.0000000000e+00  0.0000000000e+00  0.0000000000e+00  0.0000000000e+00  0.0000000000e+00  0.0000000000e+00]]
Feff (ortho)
 [[ 8.6275334272e-03  3.3232527141e-03  8.1416149612e-03  9.4477000965e-03  9.1940344227e-17 -1.9081958236e-17 -2.6020852140e-17 -3.9031278209e-17]
 [ 3.3232527141e-03 -9.3486337559e-03 -6.8896077566e-03 -5.4956690450e-03 -3.4694469520e-18  5.7245874707e-17  1.2143064332e-17  1.9732479539e-17]
 [ 8.1416149612e-03 -6.8896077566e-03 -1.7738046285e-03  2.9902195764e-04  5.8113236445e-17  4.9873299934e-17 -4.2283884727e-18 -5.3125906452e-18]
 [ 9.4477000965e-03 -5.4956690450e-03  2.9902195764e-04  2.4949049572e-03 -1.2490009027e-16 -1.0169816378e-16  1.0625181290e-17  1.3769367591e-17]
 [ 9.1940344227e-17 -3.4694469520e-18  5.8113236445e-17 -1.2490009027e-16  8.6275334272e-03 -3.3232527141e-03  8.1416149612e-03 -9.4477000965e-03]
 [-1.9081958236e-17  5.7245874707e-17  4.9873299934e-17 -1.0169816378e-16 -3.3232527141e-03 -9.3486337559e-03  6.8896077566e-03 -5.4956690450e-03]
 [-2.6020852140e-17  1.2143064332e-17 -4.2283884727e-18  1.0625181290e-17  8.1416149612e-03  6.8896077566e-03 -1.7738046285e-03 -2.9902195764e-04]
 [-3.9031278209e-17  1.9732479539e-17 -5.3125906452e-18  1.3769367591e-17 -9.4477000965e-03 -5.4956690450e-03 -2.9902195764e-04  2.4949049572e-03]]
Hsp + Hph =  -1.2740792371670935
Feff (mod,ortho)
[[-0.2302597295  0.3297365156  0.2245073286  0.0340314871  0.            0.            0.            0.          ]
 [ 0.3297365156  0.0017195096  0.0711712972  0.3341339181  0.            0.            0.            0.          ]
 [ 0.2245073286  0.0711712972  1.1202434857  0.0509516366  0.            0.            0.            0.          ]
 [ 0.0340314871  0.3341339181  0.0509516366  1.1151095567  0.            0.            0.            0.          ]
 [ 0.            0.            0.            0.           -0.2302597295 -0.3297365156  0.2245073286 -0.0340314871]
 [ 0.            0.            0.            0.           -0.3297365156  0.0017195096 -0.0711712972  0.3341339181]
 [ 0.            0.            0.            0.            0.2245073286 -0.0711712972  1.1202434857 -0.0509516366]
 [ 0.            0.            0.            0.           -0.0340314871  0.3341339181 -0.0509516366  1.1151095567]]
Alpha occ 1 vir 3; Beta occ 1 vir 3
Alpha energies:  [-0.4945369813] <- HOMO
         LUMO->  [0.1202097884 1.099203477  1.2819365384]
Beta energies:   [-0.4945369813] <- HOMO
         LUMO->  [0.1202097884 1.099203477  1.2819365384]
e_a, e_b
 [-0.4945369813  0.1202097884  1.099203477   1.2819365384] 
 [-0.4945369813  0.1202097884  1.099203477   1.2819365384]
v_a, v_b
 [[ 0.7959192725 -0.5758526377  0.0931821925  0.1619361922]
 [-0.5890939817 -0.7547802912 -0.1018733654  0.2699940928]
 [-0.0881101107  0.1695190739  0.7916389213  0.5803513679]
 [ 0.1082469437  0.2645065883 -0.5951862857  0.7510473682]] 
 [[ 0.7959192725  0.5758526377 -0.0931821925  0.1619361922]
 [ 0.5890939817 -0.7547802912 -0.1018733654 -0.2699940928]
 [-0.0881101107 -0.1695190739 -0.7916389213  0.5803513679]
 [-0.1082469437  0.2645065883 -0.5951862857 -0.7510473682]]
P_a, P_b
 [[ 0.6334874883 -0.4688712533 -0.0701285352  0.0861558286]
 [-0.4688712533  0.3470317192  0.0519051359 -0.063767623 ]
 [-0.0701285352  0.0519051359  0.0077633916 -0.0095376502]
 [ 0.0861558286 -0.063767623  -0.0095376502  0.0117174008]] 
 [[ 0.6334874883  0.4688712533 -0.0701285352 -0.0861558286]
 [ 0.4688712533  0.3470317192 -0.0519051359 -0.063767623 ]
 [-0.0701285352 -0.0519051359  0.0077633916  0.0095376502]
 [-0.0861558286 -0.063767623   0.0095376502  0.0117174008]]
time for xg, H, S2, Yg, Feff: 0.055
 E(SUHF) =     -1.00949063
**** Start Cycle 2 ****
dm (ortho)
[[[ 0.6334874883 -0.4688712533 -0.0701285352  0.0861558286]
  [-0.4688712533  0.3470317192  0.0519051359 -0.063767623 ]
  [-0.0701285352  0.0519051359  0.0077633916 -0.0095376502]
  [ 0.0861558286 -0.063767623  -0.0095376502  0.0117174008]]

 [[ 0.6334874883  0.4688712533 -0.0701285352 -0.0861558286]
  [ 0.4688712533  0.3470317192 -0.0519051359 -0.063767623 ]
  [-0.0701285352 -0.0519051359  0.0077633916  0.0095376502]
  [-0.0861558286 -0.063767623   0.0095376502  0.0117174008]]]
Fock (ortho)
 (array([[-0.2363081016,  0.3284564986,  0.2173277084,  0.0261901497],
       [ 0.3284564986,  0.0087229249,  0.0778261308,  0.3390100841],
       [ 0.2173277084,  0.0778261308,  1.1216808993,  0.0509166931],
       [ 0.0261901497,  0.3390100841,  0.0509166931,  1.1127032785]]), array([[-0.2363081016, -0.3284564986,  0.2173277084, -0.0261901497],
       [-0.3284564986,  0.0087229249, -0.0778261308,  0.3390100841],
       [ 0.2173277084, -0.0778261308,  1.1216808993, -0.0509166931],
       [-0.0261901497,  0.3390100841, -0.0509166931,  1.1127032785]]))
E1 = -1.532484024586898  Ecoul = 0.27121262265986223
E(UHF) =    -1.261271
NO eigenvalue
[-1.0000000000e+00 -5.5844302241e-19  2.2472498539e-18  2.7899265572e-16] 
 [-1.0000000000e+00 -1.4469116715e-17  3.9076237556e-19  6.2542202407e-17]
NO vec
[[ 0.7959192725  0.            0.0208061946  0.0382844091  0.6038326904  0.            0.            0.          ]
 [-0.5890939817  0.           -0.0194717144 -0.1763580536  0.7883444488  0.            0.            0.          ]
 [-0.0881101107  0.            0.8862125458  0.4512379533  0.0569933471  0.            0.            0.          ]
 [ 0.1082469437  0.            0.4624016418 -0.8739659321 -0.1032030543  0.            0.            0.          ]
 [ 0.            0.7959192725  0.            0.            0.            0.1793785984 -0.0399108499  0.5768387592]
 [ 0.            0.5890939817  0.            0.            0.           -0.4230188612 -0.0627681098 -0.6856263473]
 [ 0.           -0.0881101107  0.            0.            0.           -0.1281223926 -0.9834136715  0.0933745767]
 [ 0.           -0.1082469437  0.            0.            0.           -0.8788987507  0.1654232122  0.4341137479]]
dm(NO)
[[ 1.0000000000e+00  0.0000000000e+00 -2.1875300226e-17 -5.4843058464e-17  1.5635285331e-16  0.0000000000e+00  0.0000000000e+00  0.0000000000e+00]
 [ 0.0000000000e+00  1.0000000000e+00  0.0000000000e+00  0.0000000000e+00  0.0000000000e+00  9.2657595527e-17 -2.1693520462e-18 -1.1650713267e-16]
 [-1.3704742536e-17  0.0000000000e+00 -6.6886225334e-19  6.6278218198e-19 -4.7428521067e-18  0.0000000000e+00  0.0000000000e+00  0.0000000000e+00]
 [-3.8950016350e-17  0.0000000000e+00  2.4747511524e-19 -2.4244273354e-18  6.6822581935e-18  0.0000000000e+00  0.0000000000e+00  0.0000000000e+00]
 [ 6.4717038546e-17  0.0000000000e+00 -8.1919661176e-18  2.6151808493e-18 -4.0154223227e-18  0.0000000000e+00  0.0000000000e+00  0.0000000000e+00]
 [ 0.0000000000e+00  5.9741081069e-17  0.0000000000e+00  0.0000000000e+00  0.0000000000e+00  1.5077831672e-17  7.4328507443e-19  2.9155552917e-17]
 [ 0.0000000000e+00 -5.8421334589e-18  0.0000000000e+00  0.0000000000e+00  0.0000000000e+00  5.6605372257e-19 -9.3070566883e-19  4.0399425822e-18]
 [ 0.0000000000e+00 -1.1230342331e-16  0.0000000000e+00  0.0000000000e+00  0.0000000000e+00 -2.7136639613e-18 -3.7073856975e-18 -1.1624313458e-19]]
D(g) (NO)
 [[ 9.9951368521e-01  8.8093139182e-03 -2.4437042545e-17 -2.1048232152e-17 -4.5796661632e-17  9.6081582214e-03  3.4228491584e-03  2.8120392285e-02]
 [-8.8093139182e-03  9.9951368521e-01  3.8370471962e-03  5.7921748010e-04 -2.9660253522e-02  4.2559424294e-17  5.8042991590e-19 -9.0316015223e-17]
 [-1.7419753550e-17 -3.8370471962e-03  9.9951368521e-01 -2.4592047298e-16 -4.8554454260e-19 -1.5840413843e-02 -2.4779112867e-02  9.6305243056e-03]
 [-4.9736863786e-17 -5.7921748010e-04 -2.4927328816e-16  9.9951368521e-01 -6.6814951787e-18  2.4690375021e-02 -1.8048413843e-02 -6.0578643881e-03]
 [-1.4278349247e-18  2.9660253522e-02  3.3927119969e-18 -1.6450251286e-18  9.9951368521e-01 -4.4207511770e-03 -4.5746586409e-03 -7.2243956933e-03]
 [-9.6081582214e-03  5.5128648666e-17  1.5840413843e-02 -2.4690375021e-02  4.4207511770e-03  9.9951368521e-01 -1.1432994881e-16 -6.9014816283e-18]
 [-3.4228491584e-03  0.0000000000e+00  2.4779112867e-02  1.8048413843e-02  4.5746586409e-03 -9.7144514655e-17  9.9951368521e-01  2.7755575616e-17]
 [-2.8120392285e-02 -1.1102230246e-16 -9.6305243056e-03  6.0578643881e-03  7.2243956933e-03  1.3877787808e-17  1.3877787808e-17  9.9951368521e-01]]
N(g) (NO)
 [[ 1.0004088401 -0.0088172035]
 [ 0.0088172035  1.0004088401]]
P(g) (NO)
 [[ 1.0000000000e+00 -6.6153876983e-18 -2.1875300226e-17 -5.4843058464e-17  1.5635285331e-16 -5.4857654200e-34  1.5046327691e-35  5.7777898332e-34]
 [-1.6516284702e-18  1.0000000000e+00  5.0446732673e-35  2.1467481164e-34 -2.3334376894e-34  9.2657595527e-17 -2.1693520462e-18 -1.1650713267e-16]
 [-3.3832025797e-05 -3.8386159349e-03  7.4008572154e-22  1.8554517687e-21 -5.2897337667e-21 -3.5567692268e-19  8.3273093328e-21  4.4722613601e-19]
 [-5.1070783670e-06 -5.7945428743e-04  1.1171887255e-22  2.8008779746e-22 -7.9850627478e-22 -5.3690840991e-20  1.2570403441e-21  6.7510557544e-20]
 [ 2.6152048984e-04  2.9672379823e-02 -5.7208392304e-21 -1.4342583514e-20  4.0889474786e-20  2.7493713679e-18 -6.4369837882e-20 -3.4570438927e-18]
 [-9.6120864218e-03  8.4717085870e-05  2.1026727627e-19  5.2715621759e-19 -1.5028771383e-18  7.8496814768e-21 -1.8378118358e-22 -9.8701447632e-21]
 [-3.4242485564e-03  3.0179957427e-05  7.4906465218e-20  1.8779626377e-19 -5.3539103225e-19  2.7964022883e-21 -6.5470952397e-23 -3.5161803040e-21]
 [-2.8131889029e-02  2.4794322002e-04  6.1539351842e-19  1.5428388347e-18 -4.3985011188e-18  2.2973822595e-20 -5.3787613169e-22 -2.8887153631e-20]]
time for NO, Ng: 0.033
Pg_ortho
 [[ 6.3361245974e-01 -4.6896375003e-01 -7.0142369841e-02  8.6172825060e-02  1.4179382930e-02  1.0494769302e-02 -1.5696905992e-03 -1.9284303297e-03]
 [-4.6870591887e-01  3.4690934813e-01  5.1886833036e-02 -6.3745137158e-02  1.8759014792e-02  1.3884351212e-02 -2.0766664751e-03 -2.5512713253e-03]
 [-7.0142369841e-02  5.1915375543e-02  7.7649231344e-03 -9.5395317321e-03 -1.5696905992e-03 -1.1617953190e-03  1.7376839241e-04  2.1348171318e-04]
 [ 8.6125448181e-02 -6.3745137158e-02 -9.5342870016e-03  1.1713268994e-02 -3.4469984084e-03 -2.5512713253e-03  3.8159072392e-04  4.6880011000e-04]
 [-1.4179382930e-02  1.0494769302e-02  1.5696905992e-03 -1.9284303297e-03  6.3361245974e-01  4.6896375003e-01 -7.0142369841e-02 -8.6172825060e-02]
 [ 1.8759014792e-02 -1.3884351212e-02 -2.0766664751e-03  2.5512713253e-03  4.6870591887e-01  3.4690934813e-01 -5.1886833036e-02 -6.3745137158e-02]
 [ 1.5696905992e-03 -1.1617953190e-03 -1.7376839241e-04  2.1348171318e-04 -7.0142369841e-02 -5.1915375543e-02  7.7649231344e-03  9.5395317321e-03]
 [-3.4469984084e-03  2.5512713253e-03  3.8159072392e-04 -4.6880011000e-04 -8.6125448181e-02 -6.3745137158e-02  9.5342870016e-03  1.1713268994e-02]]
G(g) (NO)
 [[ 2.7122543777e-01 -1.4540154567e-03 -6.0870821136e-03  1.0595641187e-02  4.8418371674e-02  4.8187955319e-04  3.3025510937e-04  2.0194462597e-04]
 [ 1.4540154567e-03  2.7122543777e-01  1.9890755502e-04  4.6844229206e-04 -3.5079278295e-04  5.4215297988e-03  1.8214811288e-03  4.9607944097e-02]
 [-6.0796824594e-03 -2.8393380985e-03  8.3908657184e-01 -1.6357592661e-02  1.7561806100e-01  2.9392887231e-03  2.4553053912e-03 -4.4555767061e-04]
 [ 1.0603736594e-02  1.6336801084e-03 -1.6358139560e-02  7.3925240171e-01 -7.3691977857e-02 -9.5388682314e-04 -7.8336670372e-04  3.9481510046e-04]
 [ 4.8351558499e-02 -1.9391404407e-02  1.7562265479e-01 -7.3695149162e-02  9.3026066098e-01  4.5680712038e-03  4.1139055859e-03 -7.6606734021e-05]
 [ 8.9453325745e-03  5.3934590159e-03  1.6778037751e-03  3.9665464839e-03 -6.0934710613e-04  8.5866322160e-01 -9.1707488557e-02  1.4895977365e-01]
 [-2.4517688665e-03  1.8128352201e-03 -1.2639422108e-03 -3.0510764368e-03  5.6713280129e-04 -9.1705871063e-02  8.2361963319e-01 -1.2119279369e-01]
 [ 1.7341486988e-02  4.9546939423e-02  2.1173516223e-03  4.2436687379e-03 -1.3051013369e-03  1.4896422625e-01 -1.2119579657e-01  8.2631677974e-01]]
time for Gg: 0.033
C(NO)
[[ 1.0000000000e+00  0.0000000000e+00 -3.4512966442e-16 -4.1270447918e-17  1.0101418976e-16  0.0000000000e+00  0.0000000000e+00  0.0000000000e+00]
 [ 0.0000000000e+00  1.0000000000e+00  0.0000000000e+00  0.0000000000e+00  0.0000000000e+00  6.4785034702e-17  3.4694469520e-17  5.5511151231e-17]
 [-9.0410764931e-18  0.0000000000e+00  2.7525377490e-01  4.3026764408e-01  8.5971222735e-01  0.0000000000e+00  0.0000000000e+00  0.0000000000e+00]
 [-3.7467122555e-17  0.0000000000e+00 -4.3610902000e-02  8.9892367714e-01 -4.3592925103e-01  0.0000000000e+00  0.0000000000e+00  0.0000000000e+00]
 [ 8.9303624526e-17  0.0000000000e+00 -9.6038192852e-01  8.2498346241e-02  2.6619649554e-01  0.0000000000e+00  0.0000000000e+00  0.0000000000e+00]
 [ 0.0000000000e+00  7.5418572837e-17  0.0000000000e+00  0.0000000000e+00  0.0000000000e+00  2.1182661764e-01  6.5091461952e-01  7.2899906869e-01]
 [ 0.0000000000e+00 -6.7607685202e-18  0.0000000000e+00  0.0000000000e+00  0.0000000000e+00  2.3485626828e-01  6.9016429000e-01 -6.8448212983e-01]
 [ 0.0000000000e+00 -1.1467842182e-16  0.0000000000e+00  0.0000000000e+00  0.0000000000e+00  9.4866854976e-01 -3.1620153525e-01  6.6762113441e-03]]
detC 0.9999999999999993
detNg [ 1.0008955904  1.0238235524  1.1389212638  1.4910946134  2.4440377096  4.9558084798  9.7015378317 12.3912615067]
xg [0.9991052109 0.9767308025 0.8780238211 0.6706482547 0.4091589897 0.2017834232 0.1030764418 0.0807020334]
ciS 1.0798072443385736
[[-0.7662420123  0.           -0.0068859851 -0.0060541206 -0.0546947355  0.            0.            0.          ]
 [ 0.           -0.7662420123  0.            0.            0.           -0.0153788044  0.0091730561 -0.0524874336]
 [-0.0068859851  0.            0.3208529947 -0.0404981075  0.1253955354  0.            0.            0.          ]
 [-0.0060541206  0.           -0.0404981075  0.3922471678  0.0115188117  0.            0.            0.          ]
 [-0.0546947355  0.            0.1253955354  0.0115188117 -0.7198885368  0.            0.            0.          ]
 [ 0.           -0.0153788044  0.            0.            0.            0.293520615  -0.0485312755 -0.3442122994]
 [ 0.            0.0091730561  0.            0.            0.           -0.0485312755  0.3069452388 -0.0980699198]
 [ 0.           -0.0524874336  0.            0.            0.           -0.3442122994 -0.0980699198 -0.607254228 ]]
ciH -1.376205992102708
1.0 3.672734859294646e-18 -0.02870630264430017j 1.3660947373317356e-16
0.5399751287793538 0.00041202590575307747 -0.00041202590575307736 0.460024871220646
1.0 1.7293024651143796e-17 -0.14790863679661223j 5.377642775528102e-17
0.5418275620056415 0.01093848241951608 -0.01093848241951608 0.45817243799435864
0.9999999999999999 -3.686287386450715e-18 -0.355378855871052j 1.3617579286417936e-16
0.5517606501108709 0.06314706560010899 -0.06314706560010898 0.4482393498891289
1.0 2.1120258320017626e-16 -0.6577646081167253j 5.117434254131581e-17
0.588720242927858 0.2163271398454746 -0.21632713984547464 0.41127975707214204
1.0 1.8518173106052416e-16 -1.0781351443449052j 1.5785983631388945e-16
0.7383571173754466 0.5811876947358048 -0.5811876947358048 0.2616428826245535
1.0 2.6281060661048627e-16 -1.546366376148812j 3.0791341698588326e-17
1.4800344643952543 1.1956244846418052 -1.1956244846418047 -0.4800344643952545
1.0000000000000002 3.712308238590367e-16 -1.4015513045174695j 4.3021142204224816e-16
4.255722386357097 0.98217302959731 -0.9821730295973102 -3.255722386357098
0.9999999999999999 9.410874857174178e-17 -0.3553890199510128j 2.3765711620882257e-16
6.62693629295096 0.06315067775087069 -0.06315067775087069 -5.626936292950959
S2 = 0.000000
X(g)
[[ 2.0000000000e+00 -3.4694469520e-18 -3.3832025797e-05 -5.1070783670e-06  2.6152048984e-04  9.6120864218e-03  3.4242485564e-03  2.8131889029e-02]
 [-1.7347234760e-18  2.0000000000e+00  3.8386159349e-03  5.7945428743e-04 -2.9672379823e-02  8.4717085870e-05  3.0179957427e-05  2.4794322002e-04]
 [-3.3832025797e-05 -3.8386159349e-03  0.0000000000e+00  0.0000000000e+00  0.0000000000e+00  0.0000000000e+00  0.0000000000e+00  0.0000000000e+00]
 [-5.1070783670e-06 -5.7945428743e-04  0.0000000000e+00  0.0000000000e+00  0.0000000000e+00  0.0000000000e+00  0.0000000000e+00  0.0000000000e+00]
 [ 2.6152048984e-04  2.9672379823e-02  0.0000000000e+00  0.0000000000e+00  0.0000000000e+00  0.0000000000e+00  0.0000000000e+00  0.0000000000e+00]
 [-9.6120864218e-03  8.4717085870e-05  0.0000000000e+00  0.0000000000e+00  0.0000000000e+00  0.0000000000e+00  0.0000000000e+00  0.0000000000e+00]
 [-3.4242485564e-03  3.0179957427e-05  0.0000000000e+00  0.0000000000e+00  0.0000000000e+00  0.0000000000e+00  0.0000000000e+00  0.0000000000e+00]
 [-2.8131889029e-02  2.4794322002e-04  0.0000000000e+00  0.0000000000e+00  0.0000000000e+00  0.0000000000e+00  0.0000000000e+00  0.0000000000e+00]]
X(g) int
[[ 2.0000000000e+00 -3.8117519700e-17 -3.2192235298e-02 -4.8595454929e-03  2.4884496113e-01  2.2411083933e-01  7.9838152131e-02  6.5590975627e-01]
 [ 1.2025476840e-17  2.0000000000e+00  8.9499345020e-02  1.3510280808e-02 -6.9182710757e-01  8.0610968392e-02  2.8717177523e-02  2.3592576240e-01]
 [-3.2192235298e-02 -8.9499345020e-02  0.0000000000e+00  0.0000000000e+00  0.0000000000e+00  0.0000000000e+00  0.0000000000e+00  0.0000000000e+00]
 [-4.8595454929e-03 -1.3510280808e-02  0.0000000000e+00  0.0000000000e+00  0.0000000000e+00  0.0000000000e+00  0.0000000000e+00  0.0000000000e+00]
 [ 2.4884496113e-01  6.9182710757e-01  0.0000000000e+00  0.0000000000e+00  0.0000000000e+00  0.0000000000e+00  0.0000000000e+00  0.0000000000e+00]
 [-2.2411083933e-01  8.0610968392e-02  0.0000000000e+00  0.0000000000e+00  0.0000000000e+00  0.0000000000e+00  0.0000000000e+00  0.0000000000e+00]
 [-7.9838152131e-02  2.8717177523e-02  0.0000000000e+00  0.0000000000e+00  0.0000000000e+00  0.0000000000e+00  0.0000000000e+00  0.0000000000e+00]
 [-6.5590975627e-01  2.3592576240e-01  0.0000000000e+00  0.0000000000e+00  0.0000000000e+00  0.0000000000e+00  0.0000000000e+00  0.0000000000e+00]]
Feff
 [[-1.2349044875e-15  2.7112517637e-17  7.5929603352e-05 -3.8539091682e-03 -1.4669369075e-03  2.4297227275e-02  1.2754213940e-02  1.1472855544e-02]
 [ 1.9946255623e-17 -5.0908974515e-16  6.4800950534e-03  2.1988009391e-02 -1.8952241343e-02  2.9617220269e-03  1.1493617477e-03 -2.6301055645e-03]
 [ 7.5929603352e-05 -6.4800950534e-03  0.0000000000e+00  0.0000000000e+00  0.0000000000e+00  0.0000000000e+00  0.0000000000e+00  0.0000000000e+00]
 [-3.8539091682e-03 -2.1988009391e-02  0.0000000000e+00  0.0000000000e+00  0.0000000000e+00  0.0000000000e+00  0.0000000000e+00  0.0000000000e+00]
 [-1.4669369075e-03  1.8952241343e-02  0.0000000000e+00  0.0000000000e+00  0.0000000000e+00  0.0000000000e+00  0.0000000000e+00  0.0000000000e+00]
 [-2.4297227275e-02  2.9617220269e-03  0.0000000000e+00  0.0000000000e+00  0.0000000000e+00  0.0000000000e+00  0.0000000000e+00  0.0000000000e+00]
 [-1.2754213940e-02  1.1493617477e-03  0.0000000000e+00  0.0000000000e+00  0.0000000000e+00  0.0000000000e+00  0.0000000000e+00  0.0000000000e+00]
 [-1.1472855544e-02 -2.6301055645e-03  0.0000000000e+00  0.0000000000e+00  0.0000000000e+00  0.0000000000e+00  0.0000000000e+00  0.0000000000e+00]]
Feff (ortho)
 [[-1.6423782864e-03  2.2713925168e-04 -1.3062061373e-03  2.7175607099e-03  3.8163916471e-17  4.3368086899e-18 -4.5970172113e-17 -5.3776427755e-17]
 [ 2.2713925168e-04  5.6348268232e-04  1.0762034712e-03 -2.1458155214e-03  8.6736173799e-19  2.2551405188e-17  2.9923979961e-17  3.6429192996e-17]
 [-1.3062061373e-03  1.0762034712e-03  3.0932745415e-04 -5.0321475883e-04  1.5612511284e-17  1.4311468677e-17  2.8189256485e-18  3.4694469520e-18]
 [ 2.7175607099e-03 -2.1458155214e-03 -5.0321475883e-04  7.6956814991e-04 -5.1174342541e-17 -4.1633363423e-17  0.0000000000e+00  2.1684043450e-19]
 [ 3.8163916471e-17  8.6736173799e-19  1.5612511284e-17 -5.1174342541e-17 -1.6423782864e-03 -2.2713925168e-04 -1.3062061373e-03 -2.7175607099e-03]
 [ 4.3368086899e-18  2.2551405188e-17  1.4311468677e-17 -4.1633363423e-17 -2.2713925168e-04  5.6348268232e-04 -1.0762034712e-03 -2.1458155214e-03]
 [-4.5970172113e-17  2.9923979961e-17  2.8189256485e-18  0.0000000000e+00 -1.3062061373e-03 -1.0762034712e-03  3.0932745415e-04  5.0321475883e-04]
 [-5.3776427755e-17  3.6429192996e-17  3.4694469520e-18  2.1684043450e-19 -2.7175607099e-03 -2.1458155214e-03  5.0321475883e-04  7.6956814991e-04]]
Hsp + Hph =  -1.2744922756521149
Feff (mod,ortho)
[[-0.2317673778  0.330767483   0.2234860663  0.0367442925  0.            0.            0.            0.          ]
 [ 0.330767483   0.0028145471  0.0726401881  0.3319698847  0.            0.            0.            0.          ]
 [ 0.2234860663  0.0726401881  1.1202617637  0.0506542407  0.            0.            0.            0.          ]
 [ 0.0367442925  0.3319698847  0.0506542407  1.1154900681  0.            0.            0.            0.          ]
 [ 0.            0.            0.            0.           -0.2317673778 -0.330767483   0.2234860663 -0.0367442925]
 [ 0.            0.            0.            0.           -0.330767483   0.0028145471 -0.0726401881  0.3319698847]
 [ 0.            0.            0.            0.            0.2234860663 -0.0726401881  1.1202617637 -0.0506542407]
 [ 0.            0.            0.            0.           -0.0367442925  0.3319698847 -0.0506542407  1.1154900681]]
Alpha occ 1 vir 3; Beta occ 1 vir 3
Alpha energies:  [-0.4950424854] <- HOMO
         LUMO->  [0.1210952317 1.0986655487 1.2820807062]
Beta energies:   [-0.4950424854] <- HOMO
         LUMO->  [0.1210952317 1.0986655487 1.2820807062]
e_a, e_b
 [-0.4950424854  0.1210952317  1.0986655487  1.2820807062] 
 [-0.4950424854  0.1210952317  1.0986655487  1.2820807062]
v_a, v_b
 [[ 0.7974915584 -0.5736705522  0.0914127488  0.1629509779]
 [-0.5875665017 -0.7561938732 -0.100614062   0.2698392906]
 [-0.0872278145  0.1698559336  0.7911459207  0.5810580025]
 [ 0.1056604407  0.2649941235 -0.596329315   0.7503368136]] 
 [[ 0.7974915584  0.5736705522 -0.0914127488  0.1629509779]
 [ 0.5875665017 -0.7561938732 -0.100614062  -0.2698392906]
 [-0.0872278145 -0.1698559336 -0.7911459207  0.5810580025]
 [-0.1056604407  0.2649941235 -0.596329315  -0.7503368136]]
P_a, P_b
 [[ 0.6359927857 -0.4685793251 -0.0695634458  0.0842633095]
 [-0.4685793251  0.3452343939  0.0512521418 -0.0620825355]
 [-0.0695634458  0.0512521418  0.0076086916 -0.0092165293]
 [ 0.0842633095 -0.0620825355 -0.0092165293  0.0111641287]] 
 [[ 0.6359927857  0.4685793251 -0.0695634458 -0.0842633095]
 [ 0.4685793251  0.3452343939 -0.0512521418 -0.0620825355]
 [-0.0695634458 -0.0512521418  0.0076086916  0.0092165293]
 [-0.0842633095 -0.0620825355  0.0092165293  0.0111641287]]
time for xg, H, S2, Yg, Feff: 0.054
 E =     -1.00990367, delta E = -0.000413038, MaxD(dm) =  0.0025053, RMSD(dm) = 0.00123863
**** Start Cycle 3 ****
dm (ortho)
[[[ 0.6359927857 -0.4685793251 -0.0695634458  0.0842633095]
  [-0.4685793251  0.3452343939  0.0512521418 -0.0620825355]
  [-0.0695634458  0.0512521418  0.0076086916 -0.0092165293]
  [ 0.0842633095 -0.0620825355 -0.0092165293  0.0111641287]]

 [[ 0.6359927857  0.4685793251 -0.0695634458 -0.0842633095]
  [ 0.4685793251  0.3452343939 -0.0512521418 -0.0620825355]
  [-0.0695634458 -0.0512521418  0.0076086916  0.0092165293]
  [-0.0842633095 -0.0620825355  0.0092165293  0.0111641287]]]
Fock (ortho)
 (array([[-0.2364629329,  0.3286842211,  0.21724542  ,  0.0271364021],
       [ 0.3286842211,  0.0096475354,  0.078571497 ,  0.3387525615],
       [ 0.21724542  ,  0.078571497 ,  1.1222633262,  0.0510834219],
       [ 0.0271364021,  0.3387525615,  0.0510834219,  1.1132570917]]), array([[-0.2364629329, -0.3286842211,  0.21724542  , -0.0271364021],
       [-0.3286842211,  0.0096475354, -0.078571497 ,  0.3387525615],
       [ 0.21724542  , -0.078571497 ,  1.1222633262, -0.0510834219],
       [-0.0271364021,  0.3387525615, -0.0510834219,  1.1132570917]]))
E1 = -1.5330578051195312  Ecoul = 0.271808665842615
E(UHF) =    -1.261249
NO eigenvalue
[-1.0000000000e+00 -1.0867748025e-17  5.7974668680e-19  1.4184267753e-17] 
 [-1.0000000000e+00 -1.3877787808e-16 -3.4317799118e-19  2.4727171841e-18]
NO vec
[[ 7.9749155838e-01  0.0000000000e+00 -4.5252231896e-01  4.9335251857e-02 -3.9597575440e-01  0.0000000000e+00  0.0000000000e+00  0.0000000000e+00]
 [-5.8756650172e-01  0.0000000000e+00 -4.3975188004e-01  1.3533408187e-02 -6.7911761641e-01  0.0000000000e+00  0.0000000000e+00  0.0000000000e+00]
 [-8.7227814538e-02  0.0000000000e+00 -3.1784868132e-01  8.9547962942e-01  2.9913167242e-01  0.0000000000e+00  0.0000000000e+00  0.0000000000e+00]
 [ 1.0566044073e-01  0.0000000000e+00  7.0768216780e-01  4.4215281643e-01 -5.4085368406e-01  0.0000000000e+00  0.0000000000e+00  0.0000000000e+00]
 [ 0.0000000000e+00 -7.9749155838e-01  0.0000000000e+00  0.0000000000e+00  0.0000000000e+00 -6.0333010393e-01  0.0000000000e+00  0.0000000000e+00]
 [ 0.0000000000e+00 -5.8756650172e-01  0.0000000000e+00  0.0000000000e+00  0.0000000000e+00  7.7665497222e-01  7.8622703532e-04  2.2709478643e-01]
 [ 0.0000000000e+00  8.7227814538e-02  0.0000000000e+00  0.0000000000e+00  0.0000000000e+00 -1.1529914602e-01 -7.6901449336e-01  6.2266694492e-01]
 [ 0.0000000000e+00  1.0566044073e-01  0.0000000000e+00  0.0000000000e+00  0.0000000000e+00 -1.3966369155e-01  6.3923085881e-01  7.4880827565e-01]]
dm(NO)
[[ 1.0000000000e+00  0.0000000000e+00  3.4685055823e-17  2.1700743115e-17  8.5388541275e-17  0.0000000000e+00  0.0000000000e+00  0.0000000000e+00]
 [ 0.0000000000e+00  1.0000000000e+00  0.0000000000e+00  0.0000000000e+00  0.0000000000e+00  1.2943808904e-17 -1.6747029305e-17  7.0542272415e-18]
 [ 9.3916234643e-17  0.0000000000e+00  1.5119385495e-17 -4.9436891965e-18  1.2849197198e-17  0.0000000000e+00  0.0000000000e+00  0.0000000000e+00]
 [ 1.2745022234e-17  0.0000000000e+00 -2.6254048797e-18 -3.6956791074e-20 -2.3652160891e-18  0.0000000000e+00  0.0000000000e+00  0.0000000000e+00]
 [ 1.1197440979e-16  0.0000000000e+00  2.6967894141e-17 -4.3080937411e-18  2.1843856679e-17  0.0000000000e+00  0.0000000000e+00  0.0000000000e+00]
 [ 0.0000000000e+00 -3.3181284706e-17  0.0000000000e+00  0.0000000000e+00  0.0000000000e+00 -2.3387770699e-17  5.3364042579e-18 -4.2356202605e-18]
 [ 0.0000000000e+00 -3.9520103717e-18  0.0000000000e+00  0.0000000000e+00  0.0000000000e+00 -1.2059497617e-18  1.1349400820e-19 -9.2248826658e-19]
 [ 0.0000000000e+00 -1.5158728573e-17  0.0000000000e+00  0.0000000000e+00  0.0000000000e+00  1.3986787614e-18  8.2840374429e-21  2.3927715906e-18]]
D(g) (NO)
 [[ 9.9951368521e-01 -8.9559122983e-03  3.7504219956e-18  2.0769066667e-17  4.1770579602e-17 -2.9380414500e-02  4.1835064284e-03 -3.3873629032e-03]
 [ 8.9559122983e-03  9.9951368521e-01 -2.0777844767e-02 -2.4177149669e-03 -2.1321832258e-02 -1.9448142292e-16 -1.2975150212e-17 -1.5163235829e-17]
 [ 1.8202986612e-17  2.0777844767e-02  9.9951368521e-01  1.4461809972e-16 -3.7447695412e-17 -4.0758015186e-03  2.1717763414e-02  7.2388421643e-03]
 [ 1.8290771870e-17  2.4177149669e-03  1.8112512599e-16  9.9951368521e-01 -1.1888905386e-16 -5.7456758081e-03 -1.2660026233e-02  2.7807529095e-02]
 [ 4.2604191275e-17  2.1321832258e-02 -8.4433401695e-17 -1.2808654646e-16  9.9951368521e-01 -7.7174717401e-03 -1.7970916414e-02 -1.1630104775e-02]
 [ 2.9380414500e-02 -2.0833240371e-16  4.0758015186e-03  5.7456758081e-03  7.7174717401e-03  9.9951368521e-01  1.5201691693e-17  6.6484926462e-17]
 [-4.1835064284e-03 -1.3877787808e-17 -2.1717763414e-02  1.2660026233e-02  1.7970916414e-02  2.7755575616e-17  9.9951368521e-01 -5.5511151231e-17]
 [ 3.3873629032e-03 -1.3877787808e-17 -7.2388421643e-03 -2.7807529095e-02  1.1630104775e-02  4.1633363423e-17 -5.5511151231e-17  9.9951368521e-01]]
N(g) (NO)
 [[ 1.0004062324  0.0089639098]
 [-0.0089639098  1.0004062324]]
P(g) (NO)
 [[ 1.0000000000e+00 -1.5792344843e-18  3.4685055823e-17  2.1700743115e-17  8.5388541275e-17 -1.5697787107e-35  4.8148248610e-35 -1.2037062152e-35]
 [-4.1336491530e-19  1.0000000000e+00 -1.7165718526e-35 -3.1715568444e-35 -1.0710802512e-34  1.2943808904e-17 -1.6747029305e-17  7.0542272415e-18]
 [-1.8625072553e-04  2.0786285399e-02 -6.4601168119e-21 -4.0417791497e-21 -1.5903677764e-20  2.6905370604e-19 -3.4810853072e-19  1.4663118071e-19]
 [-2.1672178793e-05  2.4186971210e-03 -7.5170073123e-22 -4.7030238473e-22 -1.8505557334e-21  3.1307153332e-20 -4.0505991564e-20  1.7062039120e-20]
 [-1.9112698031e-04  2.1330493876e-02 -6.6292499813e-21 -4.1475975022e-21 -1.6320054047e-20  2.7609783657e-19 -3.5722240603e-19  1.5047015098e-19]
 [ 2.9392349775e-02  2.6336338433e-04  1.0194752927e-18  6.3783583202e-19  2.5097698719e-18  3.4089253192e-21 -4.4105543152e-21  1.8578251602e-21]
 [-4.1852059041e-03 -3.7500574111e-05 -1.4516410041e-19 -9.0822078209e-20 -3.5736862708e-19 -4.8540026510e-22  6.2802321357e-22 -2.6453757147e-22]
 [ 3.3887389596e-03  3.0364015394e-05  1.1753859998e-19  7.3538153648e-20  2.8935947652e-19  3.9302601283e-22 -5.0850705561e-22  2.1419466455e-22]]
time for NO, Ng: 0.026
Pg_ortho
 [[ 6.3611950316e-01 -4.6867268652e-01 -6.9577305819e-02  8.4280098463e-02  1.4142148634e-02  1.0419486843e-02 -1.5468360828e-03 -1.8737071784e-03]
 [-4.6841072861e-01  3.4511017739e-01  5.1233701139e-02 -6.2060198016e-02  1.8816007077e-02  1.3863037594e-02 -2.0580520990e-03 -2.4929512792e-03]
 [-6.9577305819e-02  5.1262353500e-02  7.6102076119e-03 -9.2183656625e-03 -1.5468360828e-03 -1.1396597950e-03  1.6918941590e-04  2.0494183360e-04]
 [ 8.4232991304e-02 -6.2060198016e-02 -9.2132131885e-03  1.1160111843e-02 -3.3836299292e-03 -2.4929512792e-03  3.7009375313e-04  4.4830045640e-04]
 [-1.4142148634e-02  1.0419486843e-02  1.5468360828e-03 -1.8737071784e-03  6.3611950316e-01  4.6867268652e-01 -6.9577305819e-02 -8.4280098463e-02]
 [ 1.8816007077e-02 -1.3863037594e-02 -2.0580520990e-03  2.4929512792e-03  4.6841072861e-01  3.4511017739e-01 -5.1233701139e-02 -6.2060198016e-02]
 [ 1.5468360828e-03 -1.1396597950e-03 -1.6918941590e-04  2.0494183360e-04 -6.9577305819e-02 -5.1262353500e-02  7.6102076119e-03  9.2183656625e-03]
 [-3.3836299292e-03  2.4929512792e-03  3.7009375313e-04 -4.4830045640e-04 -8.4232991304e-02 -6.2060198016e-02  9.2132131885e-03  1.1160111843e-02]]
G(g) (NO)
 [[ 2.7182187537e-01  1.4742329413e-03 -4.2677203398e-02 -3.5115240771e-03 -2.7122308890e-02 -3.2916727907e-04  1.0742358459e-04 -5.3140094323e-04]
 [-1.4742329413e-03  2.7182187537e-01  6.4512439390e-05 -1.9615040489e-04 -5.9970080075e-04  4.9523339965e-02 -9.1179565244e-03 -5.7961882607e-03]
 [-4.2634543445e-02 -1.2489651247e-02  7.5229123151e-01 -1.1173414919e-01  8.8288006076e-02  8.3445115004e-04 -8.7588352418e-04  3.1224741245e-03]
 [-3.5071174148e-03  3.7491640610e-03 -1.1173108945e-01  8.5541696855e-01 -1.4081433964e-01 -3.5909109684e-04  7.3117639035e-04 -4.0418486952e-03]
 [-2.7068516688e-02 -1.4735845125e-02  8.8284694821e-02 -1.4081790271e-01  9.0220062521e-01  6.3068170400e-04 -1.0999874940e-03  4.9749510956e-03]
 [-1.9345710106e-02  4.9456398858e-02  2.6280579778e-03 -2.6365534015e-03 -4.9608799970e-03  9.3329527268e-01  1.8590157279e-01  4.7914653555e-02]
 [-2.7614157849e-03 -9.1110724952e-03  2.0984398169e-03 -1.4784882683e-03 -2.9614775430e-03  1.8589631452e-01  8.3407928706e-01  5.8396123239e-03]
 [-2.3045247554e-03 -5.8104847511e-03  6.0897439454e-04 -3.0329460131e-04 -5.2943840599e-04  4.7912532687e-02  5.8405473806e-03  7.4253426554e-01]]
time for Gg: 0.034
C(NO)
[[ 1.0000000000e+00  0.0000000000e+00  4.2587130114e-17 -2.9464545517e-17  9.7608656207e-17  0.0000000000e+00  0.0000000000e+00  0.0000000000e+00]
 [ 0.0000000000e+00 -1.0000000000e+00  0.0000000000e+00  0.0000000000e+00  0.0000000000e+00 -9.1292028618e-17 -1.1102230246e-16  6.9388939039e-17]
 [ 9.0196207054e-17  0.0000000000e+00  7.2567953730e-01 -6.7059739616e-01  1.5391017320e-01  0.0000000000e+00  0.0000000000e+00  0.0000000000e+00]
 [ 1.4761849211e-17  0.0000000000e+00  2.3073436501e-01  4.4793458958e-01  8.6378021294e-01  0.0000000000e+00  0.0000000000e+00  0.0000000000e+00]
 [ 1.4089969251e-16  0.0000000000e+00  6.4819045191e-01  5.9131525917e-01 -4.7978683009e-01  0.0000000000e+00  0.0000000000e+00  0.0000000000e+00]
 [ 0.0000000000e+00  7.5730587970e-17  0.0000000000e+00  0.0000000000e+00  0.0000000000e+00 -9.5084025890e-01  1.5151365423e-01 -2.7008593935e-01]
 [ 0.0000000000e+00  7.8759190858e-18  0.0000000000e+00  0.0000000000e+00  0.0000000000e+00  2.9941955583e-01  2.2713147374e-01 -9.2669262608e-01]
 [ 0.0000000000e+00  1.0309546016e-17  0.0000000000e+00  0.0000000000e+00  0.0000000000e+00 -7.9061568687e-02 -9.6200566850e-01 -2.6133190035e-01]]
detC -0.9999999999999998
detNg [ 1.0008929814  1.0237525651  1.1384609372  1.4889663308  2.4338084505  4.89939833    9.4619009517 11.9936114546]
xg [0.9991078153 0.9767985293 0.8783788423 0.6716068586 0.4108786785 0.2041066949 0.1056870078 0.0833777219]
ciS 1.0824855371541153
[[-0.7665289026  0.            0.0407333093 -0.00967246    0.0359092535  0.            0.            0.          ]
 [ 0.           -0.7665289026  0.            0.            0.           -0.0549104352 -0.0051122835  0.0009706283]
 [ 0.0407333093  0.           -0.1638714053 -0.0279016966 -0.5613897805  0.            0.            0.          ]
 [-0.00967246    0.           -0.0279016966  0.3287990736 -0.0819755745  0.            0.            0.          ]
 [ 0.0359092535  0.           -0.5613897805 -0.0819755745 -0.1714291522  0.            0.            0.          ]
 [ 0.           -0.0549104352  0.            0.            0.           -0.704315791   0.1389914037 -0.1083520811]
 [ 0.           -0.0051122835  0.            0.            0.            0.1389914037  0.3351567949  0.0617889298]
 [ 0.            0.0009706283  0.            0.            0.           -0.1083520811  0.0617889298  0.3626575121]]
ciH -1.3796559397301387
0.9999999999999999 -8.605854744103691e-18 -0.028622676100253756j -2.3158558404290375e-16
0.5413164595162979 0.00040962879357001877 -0.00040962879357001877 0.4586835404837017
0.9999999999999999 -4.662069341687669e-17 -0.14746791169784237j -8.630249292984615e-17
0.543225280194563 0.010873392490261315 -0.010873392490261318 0.45677471980543694
1.0 -7.589415207398531e-17 -0.3542012798190251j -3.2959746043559335e-17
0.5534544762542655 0.06272927331271763 -0.06272927331271766 0.4465455237457345
1.0 -2.1076890233118206e-16 -0.6549140189796256j -3.131175874138137e-16
0.5914360730738345 0.2144561861280228 -0.21445618612802275 0.40856392692616567
1.0 -4.85722573273506e-17 -1.0704978620388204j -2.2768245622195593e-16
0.7442983876439037 0.5729828363148426 -0.5729828363148426 0.2557016123560964
1.0000000000000002 -7.979727989493313e-16 -1.5243150661737692j 1.6046192152785466e-16
1.4899957060014164 1.1617682104821712 -1.161768210482171 -0.4899957060014162
1.0 -6.392456008974534e-16 -1.3629531408005282j 1.3704315460216776e-16
4.192364835081556 0.9288206320090121 -0.9288206320090123 -3.1923648350815563
0.9999999999999994 -6.223320470066795e-17 -0.3429829785108871j 2.1337098754514727e-16
6.432636807126756 0.05881866177409983 -0.05881866177409982 -5.432636807126757
S2 = 0.000000
X(g)
[[ 2.0000000000e+00 -3.4694469520e-18 -1.8625072553e-04 -2.1672178793e-05 -1.9112698031e-04 -2.9392349775e-02  4.1852059041e-03 -3.3887389596e-03]
 [ 3.4694469520e-18  2.0000000000e+00 -2.0786285399e-02 -2.4186971210e-03 -2.1330493876e-02  2.6336338433e-04 -3.7500574111e-05  3.0364015394e-05]
 [-1.8625072553e-04  2.0786285399e-02  0.0000000000e+00  0.0000000000e+00  0.0000000000e+00  0.0000000000e+00  0.0000000000e+00  0.0000000000e+00]
 [-2.1672178793e-05  2.4186971210e-03  0.0000000000e+00  0.0000000000e+00  0.0000000000e+00  0.0000000000e+00  0.0000000000e+00  0.0000000000e+00]
 [-1.9112698031e-04  2.1330493876e-02  0.0000000000e+00  0.0000000000e+00  0.0000000000e+00  0.0000000000e+00  0.0000000000e+00  0.0000000000e+00]
 [ 2.9392349775e-02  2.6336338433e-04  0.0000000000e+00  0.0000000000e+00  0.0000000000e+00  0.0000000000e+00  0.0000000000e+00  0.0000000000e+00]
 [-4.1852059041e-03 -3.7500574111e-05  0.0000000000e+00  0.0000000000e+00  0.0000000000e+00  0.0000000000e+00  0.0000000000e+00  0.0000000000e+00]
 [ 3.3887389596e-03  3.0364015394e-05  0.0000000000e+00  0.0000000000e+00  0.0000000000e+00  0.0000000000e+00  0.0000000000e+00  0.0000000000e+00]]
X(g) int
[[ 2.0000000000e+00 -8.2793250199e-17 -1.7678538945e-01 -2.0570790032e-02 -1.8141383102e-01 -6.8360427302e-01  9.7339092023e-02 -7.8814945070e-02]
 [ 1.1588287346e-16  2.0000000000e+00 -4.8344530561e-01 -5.6253810932e-02 -4.9610245085e-01  2.4997915221e-01 -3.5594779994e-02  2.8820904034e-02]
 [-1.7678538945e-01  4.8344530561e-01  0.0000000000e+00  0.0000000000e+00  0.0000000000e+00  0.0000000000e+00  0.0000000000e+00  0.0000000000e+00]
 [-2.0570790032e-02  5.6253810932e-02  0.0000000000e+00  0.0000000000e+00  0.0000000000e+00  0.0000000000e+00  0.0000000000e+00  0.0000000000e+00]
 [-1.8141383102e-01  4.9610245085e-01  0.0000000000e+00  0.0000000000e+00  0.0000000000e+00  0.0000000000e+00  0.0000000000e+00  0.0000000000e+00]
 [ 6.8360427302e-01  2.4997915221e-01  0.0000000000e+00  0.0000000000e+00  0.0000000000e+00  0.0000000000e+00  0.0000000000e+00  0.0000000000e+00]
 [-9.7339092023e-02 -3.5594779994e-02  0.0000000000e+00  0.0000000000e+00  0.0000000000e+00  0.0000000000e+00  0.0000000000e+00  0.0000000000e+00]
 [ 7.8814945070e-02  2.8820904034e-02  0.0000000000e+00  0.0000000000e+00  0.0000000000e+00  0.0000000000e+00  0.0000000000e+00  0.0000000000e+00]]
Feff
 [[-1.0357455309e-16  1.0963096983e-17  1.0306215276e-03  6.8269760406e-04 -1.4217928025e-03 -1.7483609396e-02  5.5487640886e-05 -2.5645132239e-02]
 [ 2.9359117089e-17  3.6347301855e-16  2.9793478716e-03 -4.3539831946e-03 -3.0586251822e-02  2.1596351865e-04  1.0422989995e-03  1.5545816412e-03]
 [ 1.0306215276e-03 -2.9793478716e-03  0.0000000000e+00  0.0000000000e+00  0.0000000000e+00  0.0000000000e+00  0.0000000000e+00  0.0000000000e+00]
 [ 6.8269760406e-04  4.3539831946e-03  0.0000000000e+00  0.0000000000e+00  0.0000000000e+00  0.0000000000e+00  0.0000000000e+00  0.0000000000e+00]
 [-1.4217928025e-03  3.0586251822e-02  0.0000000000e+00  0.0000000000e+00  0.0000000000e+00  0.0000000000e+00  0.0000000000e+00  0.0000000000e+00]
 [ 1.7483609396e-02  2.1596351865e-04  0.0000000000e+00  0.0000000000e+00  0.0000000000e+00  0.0000000000e+00  0.0000000000e+00  0.0000000000e+00]
 [-5.5487640886e-05  1.0422989995e-03  0.0000000000e+00  0.0000000000e+00  0.0000000000e+00  0.0000000000e+00  0.0000000000e+00  0.0000000000e+00]
 [ 2.5645132239e-02  1.5545816412e-03  0.0000000000e+00  0.0000000000e+00  0.0000000000e+00  0.0000000000e+00  0.0000000000e+00  0.0000000000e+00]]
Feff (ortho)
 [[ 2.0782198114e-04  3.3940211584e-04 -1.2424501918e-04  1.4494044116e-03  8.6736173799e-17 -4.9439619065e-17  2.7755575616e-17 -2.2551405188e-17]
 [ 3.3940211584e-04 -6.1293293453e-04  3.7669208592e-05 -1.0026209326e-03  2.2551405188e-17  1.0061396161e-16 -3.0357660830e-17  4.7704895589e-18]
 [-1.2424501918e-04  3.7669208592e-05  2.4693000122e-05 -1.7198224059e-04 -1.3010426070e-17  2.6020852140e-18 -2.6020852140e-18  2.8189256485e-18]
 [ 1.4494044116e-03 -1.0026209326e-03 -1.7198224059e-04  3.8041795326e-04 -3.2092384306e-17 -3.8163916471e-17  8.2399365109e-18  2.8189256485e-18]
 [ 8.6736173799e-17  2.2551405188e-17 -1.3010426070e-17 -3.2092384306e-17  2.0782198114e-04 -3.3940211584e-04 -1.2424501918e-04 -1.4494044116e-03]
 [-4.9439619065e-17  1.0061396161e-16  2.6020852140e-18 -3.8163916471e-17 -3.3940211584e-04 -6.1293293453e-04 -3.7669208592e-05 -1.0026209326e-03]
 [ 2.7755575616e-17 -3.0357660830e-17 -2.6020852140e-18  8.2399365109e-18 -1.2424501918e-04 -3.7669208592e-05  2.4693000122e-05  1.7198224059e-04]
 [-2.2551405188e-17  4.7704895589e-18  2.8189256485e-18  2.8189256485e-18 -1.4494044116e-03 -1.0026209326e-03  1.7198224059e-04  3.8041795326e-04]]
Hsp + Hph =  -1.2745259796794077
Feff (mod,ortho)
[[-0.2310739402  0.3313317711  0.223666772   0.0384629739  0.            0.            0.            0.          ]
 [ 0.3313317711  0.0028209801  0.0731165878  0.3312843263  0.            0.            0.            0.          ]
 [ 0.223666772   0.0731165878  1.1207941493  0.0507734134  0.            0.            0.            0.          ]
 [ 0.0384629739  0.3312843263  0.0507734134  1.1161638314  0.            0.            0.            0.          ]
 [ 0.            0.            0.            0.           -0.2310739402 -0.3313317711  0.223666772  -0.0384629739]
 [ 0.            0.            0.            0.           -0.3313317711  0.0028209801 -0.0731165878  0.3312843263]
 [ 0.            0.            0.            0.            0.223666772  -0.0731165878  1.1207941493 -0.0507734134]
 [ 0.            0.            0.            0.           -0.0384629739  0.3312843263 -0.0507734134  1.1161638314]]
Alpha occ 1 vir 3; Beta occ 1 vir 3
Alpha energies:  [-0.4947223317] <- HOMO
         LUMO->  [0.1214844235 1.0988027767 1.283140152 ]
Beta energies:   [-0.4947223317] <- HOMO
         LUMO->  [0.1214844235 1.0988027767 1.283140152 ]
e_a, e_b
 [-0.4947223317  0.1214844235  1.0988027767  1.283140152 ] 
 [-0.4947223317  0.1214844235  1.0988027767  1.283140152 ]
v_a, v_b
 [[ 0.7974155857 -0.5736013608  0.0906731316  0.1639763574]
 [-0.5878800685 -0.7560562714 -0.1003878331  0.269626079 ]
 [-0.0870821898  0.1702230952  0.7905455423  0.5817890817]
 [ 0.1046044975  0.2653007562 -0.5972758255  0.7496232361]] 
 [[ 0.7974155857  0.5736013608 -0.0906731316  0.1639763574]
 [ 0.5878800685 -0.7560562714 -0.1003878331 -0.269626079 ]
 [-0.0870821898 -0.1702230952 -0.7905455423  0.5817890817]
 [-0.1046044975  0.2653007562 -0.5972758255 -0.7496232361]]
P_a, P_b
 [[ 0.6358716164 -0.4687847292 -0.0694406954  0.0834132566]
 [-0.4687847292  0.345602975   0.0511938837 -0.0614948992]
 [-0.0694406954  0.0511938837  0.0075833078 -0.0091091887]
 [ 0.0834132566 -0.0614948992 -0.0091091887  0.0109421009]] 
 [[ 0.6358716164  0.4687847292 -0.0694406954 -0.0834132566]
 [ 0.4687847292  0.345602975  -0.0511938837 -0.0614948992]
 [-0.0694406954 -0.0511938837  0.0075833078  0.0091091887]
 [-0.0834132566 -0.0614948992  0.0091091887  0.0109421009]]
time for xg, H, S2, Yg, Feff: 0.054
 E =     -1.00993737, delta E = -3.3704e-05, MaxD(dm) = 0.000850053, RMSD(dm) = 0.000393751
**** Start Cycle 4 ****
dm (ortho)
[[[ 0.6358716164 -0.4687847292 -0.0694406954  0.0834132566]
  [-0.4687847292  0.345602975   0.0511938837 -0.0614948992]
  [-0.0694406954  0.0511938837  0.0075833078 -0.0091091887]
  [ 0.0834132566 -0.0614948992 -0.0091091887  0.0109421009]]

 [[ 0.6358716164  0.4687847292 -0.0694406954 -0.0834132566]
  [ 0.4687847292  0.345602975  -0.0511938837 -0.0614948992]
  [-0.0694406954 -0.0511938837  0.0075833078  0.0091091887]
  [-0.0834132566 -0.0614948992  0.0091091887  0.0109421009]]]
Fock (ortho)
 (array([[-0.2362400512,  0.3289820046,  0.2172415354,  0.0275600898],
       [ 0.3289820046,  0.0097338328,  0.0788642211,  0.3386483747],
       [ 0.2172415354,  0.0788642211,  1.1224638275,  0.0511749333],
       [ 0.0275600898,  0.3386483747,  0.0511749333,  1.1134700019]]), array([[-0.2362400512, -0.3289820046,  0.2172415354, -0.0275600898],
       [-0.3289820046,  0.0097338328, -0.0788642211,  0.3386483747],
       [ 0.2172415354, -0.0788642211,  1.1224638275, -0.0511749333],
       [-0.0275600898,  0.3386483747, -0.0511749333,  1.1134700019]]))
E1 = -1.5330196374628735  Ecoul = 0.27182678607236177
E(UHF) =    -1.261193
NO eigenvalue
[-1.0000000000e+00  2.5448347385e-19  1.1467003012e-18  2.2342926812e-16] 
 [-1.0000000000e+00 -1.6690001358e-16 -4.8942332276e-19  5.8949626300e-19]
NO vec
[[ 7.9741558572e-01  0.0000000000e+00  2.3101920065e-02  4.1622366526e-02 -6.0154988450e-01  0.0000000000e+00  0.0000000000e+00  0.0000000000e+00]
 [-5.8788006853e-01  0.0000000000e+00 -5.0337678691e-04 -1.6931874419e-01 -7.9102966727e-01  0.0000000000e+00  0.0000000000e+00  0.0000000000e+00]
 [-8.7082189759e-02  0.0000000000e+00 -6.7304439355e-01  7.2881628180e-01 -9.0855731387e-02  0.0000000000e+00  0.0000000000e+00  0.0000000000e+00]
 [ 1.0460449750e-01  0.0000000000e+00 -7.3924102444e-01 -6.6213712240e-01  6.4459584469e-02  0.0000000000e+00  0.0000000000e+00  0.0000000000e+00]
 [ 0.0000000000e+00  7.9741558572e-01  0.0000000000e+00  0.0000000000e+00  0.0000000000e+00 -6.0276952345e-01  7.5840080913e-03  2.7198677763e-02]
 [ 0.0000000000e+00  5.8788006853e-01  0.0000000000e+00  0.0000000000e+00  0.0000000000e+00  7.8652739738e-01  6.9927558902e-02  1.7573222441e-01]
 [ 0.0000000000e+00 -8.7082189759e-02  0.0000000000e+00  0.0000000000e+00  0.0000000000e+00 -8.2686634601e-02 -4.9724080934e-01  8.5926200324e-01]
 [ 0.0000000000e+00 -1.0460449750e-01  0.0000000000e+00  0.0000000000e+00  0.0000000000e+00 -1.0586064059e-01  8.6475672698e-01  4.7963238738e-01]]
dm(NO)
[[ 1.0000000000e+00  0.0000000000e+00 -6.2238799079e-18 -8.0724308779e-18 -1.5251448947e-16  0.0000000000e+00  0.0000000000e+00  0.0000000000e+00]
 [ 0.0000000000e+00  1.0000000000e+00  0.0000000000e+00  0.0000000000e+00  0.0000000000e+00 -6.0642427066e-17 -1.4950269658e-17 -1.6714871756e-17]
 [ 1.5371578227e-17  0.0000000000e+00 -7.5807444651e-19 -8.2958174260e-19 -8.6353144381e-19  0.0000000000e+00  0.0000000000e+00  0.0000000000e+00]
 [-5.9703416751e-18  0.0000000000e+00 -3.6066741567e-19 -2.4145061270e-18  7.3972240910e-18  0.0000000000e+00  0.0000000000e+00  0.0000000000e+00]
 [-1.9750215689e-16  0.0000000000e+00  1.2205921192e-18  2.9044984122e-18  1.0067839061e-17  0.0000000000e+00  0.0000000000e+00  0.0000000000e+00]
 [ 0.0000000000e+00 -2.5676280716e-17  0.0000000000e+00  0.0000000000e+00  0.0000000000e+00  3.2307532059e-17 -5.6444460058e-18 -2.7595710536e-18]
 [ 0.0000000000e+00 -1.7055478224e-18  0.0000000000e+00  0.0000000000e+00  0.0000000000e+00  1.2402977672e-19  7.7055001030e-19 -1.7338620745e-18]
 [ 0.0000000000e+00 -6.3620652728e-18  0.0000000000e+00  0.0000000000e+00  0.0000000000e+00  4.2646825008e-18  6.7033991619e-19  1.5353876960e-19]]
D(g) (NO)
 [[ 9.9951368521e-01  8.9467722981e-03  1.6690695709e-17  4.3254194142e-17 -7.4260220331e-17 -2.9527842961e-02  3.0776853591e-03 -3.3140131438e-03]
 [-8.9467722981e-03  9.9951368521e-01 -4.8042119413e-03  1.8882432502e-03  2.9422821504e-02 -1.8008284070e-16  3.7462010509e-18  2.7808431683e-18]
 [ 1.8186869122e-17  4.8042119413e-03  9.9951368521e-01  2.1516175266e-16  3.3257752017e-17  3.7291153067e-03 -9.4939958694e-03 -2.9073533735e-02]
 [ 7.7535342650e-18 -1.8882432502e-03  2.7936698419e-16  9.9951368521e-01 -1.2996142577e-17 -4.6285758796e-03 -2.9515199785e-02  8.7325184899e-03]
 [-1.0634888811e-16 -2.9422821504e-02  3.3118752311e-17 -1.3737299445e-17  9.9951368521e-01 -8.0727658951e-03  1.2798248650e-03 -6.3153106512e-03]
 [ 2.9527842961e-02 -1.3723182666e-16 -3.7291153067e-03  4.6285758796e-03  8.0727658951e-03  9.9951368521e-01 -8.5414002053e-18 -4.4927859675e-17]
 [-3.0776853591e-03  6.9388939039e-18  9.4939958694e-03  2.9515199785e-02 -1.2798248650e-03  0.0000000000e+00  9.9951368521e-01  1.6653345369e-16]
 [ 3.3140131438e-03 -6.9388939039e-18  2.9073533735e-02 -8.7325184899e-03  6.3153106512e-03 -2.7755575616e-17  1.6653345369e-16  9.9951368521e-01]]
N(g) (NO)
 [[ 1.0004063962 -0.0089547631]
 [ 0.0089547631  1.0004063962]]
P(g) (NO)
 [[ 1.0000000000e+00 -3.9750219898e-18 -6.2238799079e-18 -8.0724308779e-18 -1.5251448947e-16  3.1975886364e-34  7.2222372915e-35  7.2222372915e-35]
 [ 3.0596555008e-19  1.0000000000e+00  3.6563560554e-36 -1.3406995850e-35 -3.0315654683e-35 -6.0642427066e-17 -1.4950269658e-17 -1.6714871756e-17]
 [ 4.3020579654e-05  4.8061643548e-03 -2.6775492133e-22 -3.4728065558e-22 -6.5612617427e-21 -2.9145747135e-19 -7.1853453125e-20 -8.0334420826e-20]
 [-1.6908770917e-05 -1.8890106251e-03  1.0523815958e-22  1.3649488446e-22  2.5788325640e-21  1.1455418906e-19  2.8241218232e-20  3.1574570344e-20]
 [-2.6347439530e-04 -2.9434778827e-02  1.6398329952e-21  2.1268788442e-21  4.0183662888e-20  1.7849964282e-18  4.4005788078e-19  4.9199855324e-19]
 [ 2.9539842964e-02 -2.6441483756e-04 -1.8385243510e-19 -2.3845834047e-19 -4.5052540687e-18  1.6034757502e-20  3.9530731232e-21  4.4196601001e-21]
 [-3.0789361187e-03  2.7559943183e-05  1.9162928647e-20  2.4854498996e-20  4.6958237027e-19 -1.6713018444e-21 -4.1202858234e-22 -4.6066091589e-22]
 [ 3.3153599461e-03 -2.9676202500e-05 -2.0634402156e-20 -2.6763014000e-20 -5.0564042960e-19  1.7996369457e-21  4.4366722981e-22  4.9603391898e-22]]
time for NO, Ng: 0.026
Pg_ortho
 [[ 6.3599823245e-01 -4.6887807458e-01 -6.9454522530e-02  8.3429866069e-02  1.4145270817e-02  1.0428342418e-02 -1.5447417626e-03 -1.8555681282e-03]
 [-4.6861626925e-01  3.4547878097e-01  5.1175486928e-02 -6.1472800689e-02  1.8819971816e-02  1.3874680304e-02 -2.0552449517e-03 -2.4687925971e-03]
 [-6.9454522530e-02  5.1204077517e-02  7.5848177774e-03 -9.1110025421e-03 -1.5447417626e-03 -1.1388326358e-03  1.6869433920e-04  2.0263829645e-04]
 [ 8.3383281713e-02 -6.1472800689e-02 -9.1059152729e-03  1.0938168804e-02 -3.3487335262e-03 -2.4687925971e-03  3.6570021153e-04  4.3928485228e-04]
 [-1.4145270817e-02  1.0428342418e-02  1.5447417626e-03 -1.8555681282e-03  6.3599823245e-01  4.6887807458e-01 -6.9454522530e-02 -8.3429866069e-02]
 [ 1.8819971816e-02 -1.3874680304e-02 -2.0552449517e-03  2.4687925971e-03  4.6861626925e-01  3.4547878097e-01 -5.1175486928e-02 -6.1472800689e-02]
 [ 1.5447417626e-03 -1.1388326358e-03 -1.6869433920e-04  2.0263829645e-04 -6.9454522530e-02 -5.1204077517e-02  7.5848177774e-03  9.1110025421e-03]
 [-3.3487335262e-03  2.4687925971e-03  3.6570021153e-04 -4.3928485228e-04 -8.3383281713e-02 -6.1472800689e-02  9.1059152729e-03  1.0938168804e-02]]
G(g) (NO)
 [[ 2.7183994384e-01 -1.4699564463e-03  1.1962028104e-02  7.9075111740e-03 -4.8490114757e-02 -3.5335413216e-04 -8.0374737995e-05 -5.1643367892e-04]
 [ 1.4699564463e-03  2.7183994384e-01 -4.9657651369e-05  5.1337574592e-04  3.6332141019e-04 -4.9054767553e-02  1.1462166764e-02  4.3770528743e-03]
 [ 1.1954598822e-02  2.3132513520e-03  8.1946518288e-01 -2.0529010550e-02  1.8550663048e-01  3.6669222833e-04  7.3654884336e-04  3.6701991869e-03]
 [ 7.9179898954e-03  5.4966115015e-04 -2.0528419530e-02  7.4052183406e-01  7.5718033069e-03 -2.4670822332e-04  4.5605841834e-05 -1.2205194366e-04]
 [-4.8422558796e-02  1.9557491327e-02  1.8551222716e-01  7.5731474974e-03  9.5062612624e-01  1.3582997399e-03  7.6824163312e-04  6.1703660743e-03]
 [-1.9444035483e-02 -4.8987237416e-02  6.7400167227e-04 -6.0167674742e-03 -1.4602904523e-03  9.3658629447e-01  1.8822564924e-01 -2.9933177289e-02]
 [-3.1616189298e-03  1.1459974446e-02  1.2068783136e-04 -3.8608332008e-03 -4.3896699244e-04  1.8821990234e-01  8.2154157286e-01 -3.4385551813e-02]
 [-2.8701231459e-04  4.3898466238e-03 -9.4783050236e-05  8.4923752905e-04  3.1947734779e-04 -2.9933266071e-02 -3.4384885244e-02  7.5248527586e-01]]
time for Gg: 0.033
C(NO)
[[ 1.0000000000e+00  0.0000000000e+00  1.0407218699e-16  4.0878911557e-18 -2.1536987607e-17  0.0000000000e+00  0.0000000000e+00  0.0000000000e+00]
 [ 0.0000000000e+00  1.0000000000e+00  0.0000000000e+00  0.0000000000e+00  0.0000000000e+00  2.6757691837e-16 -2.2204460493e-16  4.3021142204e-16]
 [ 2.4553210320e-17  0.0000000000e+00 -3.2355961429e-01 -8.8396195652e-02 -9.4206968351e-01  0.0000000000e+00  0.0000000000e+00  0.0000000000e+00]
 [ 5.6167767674e-18  0.0000000000e+00  5.2535736310e-02  9.9241253125e-01 -1.1116368214e-01  0.0000000000e+00  0.0000000000e+00  0.0000000000e+00]
 [-1.8729054308e-16  0.0000000000e+00  9.4474820583e-01 -8.5460402597e-02 -3.1646065660e-01  0.0000000000e+00  0.0000000000e+00  0.0000000000e+00]
 [ 0.0000000000e+00 -2.6213569515e-17  0.0000000000e+00  0.0000000000e+00  0.0000000000e+00 -9.5441812344e-01  1.0429277112e-01 -2.7965883419e-01]
 [ 0.0000000000e+00  8.0439559516e-19  0.0000000000e+00  0.0000000000e+00  0.0000000000e+00  2.6554351115e-01 -1.3111432455e-01 -9.5514170550e-01]
 [ 0.0000000000e+00 -2.3371108253e-17  0.0000000000e+00  0.0000000000e+00  0.0000000000e+00 -1.3628165443e-01 -9.8586614294e-01  9.7443618958e-02]]
detC 1.0000000000000002
detNg [ 1.0008931453  1.0237570249  1.1384898484  1.4890998711  2.4344486294  4.9029047234  9.4766081671 12.0178427422]
xg [0.9991076517 0.9767942741 0.8783565364 0.6715466299 0.4107706311 0.2039607246 0.105522987  0.0832096094]
ciS 1.082317261025736
[[-0.7665098187  0.            0.0036173748 -0.0045205615  0.0548954415  0.            0.            0.          ]
 [ 0.           -0.7665098187  0.            0.            0.            0.05481594    0.0047248319 -0.0044630779]
 [ 0.0036173748  0.            0.3408773197  0.0564259898  0.1684619361  0.            0.            0.          ]
 [-0.0045205615  0.            0.0564259898  0.357851231  -0.0496309022  0.            0.            0.          ]
 [ 0.0548954415  0.            0.1684619361 -0.0496309022 -0.7052491186  0.            0.            0.          ]
 [ 0.            0.05481594    0.            0.            0.           -0.7132196499  0.1089665612 -0.1022954704]
 [ 0.            0.0047248319  0.            0.            0.            0.1089665612  0.3767733364  0.0525199582]
 [ 0.           -0.0044630779  0.            0.            0.           -0.1022954704  0.0525199582  0.3299257458]]
ciH -1.3794479334848142
1.0 -2.439454888092385e-18 -0.028627930311668888j 3.3436794999452957e-16
0.5412321846232987 0.00040977919696488514 -0.00040977919696488514 0.45876781537670114
0.9999999999999999 -3.2255014631443757e-17 -0.14749560049040647j 1.973247953923618e-16
0.5431374735120461 0.010877476082012795 -0.010877476082012798 0.4568625264879537
0.9999999999999998 2.42861286636753e-17 -0.354275238453014j 1.1015494072452725e-16
0.5533481349190398 0.06275547229046997 -0.06275547229046997 0.44665186508095983
1.0000000000000002 -1.474514954580286e-17 -0.6550928808243511j 2.498001805406602e-16
0.5912659056940681 0.21457334125337374 -0.21457334125337377 0.4087340943059321
1.0 -2.714842239903703e-16 -1.0709758269463188j 1.8995222061946038e-16
0.7439282754019604 0.5734946109516756 -0.5734946109516756 0.25607172459803956
1.0 -4.0505793164058446e-16 -1.525685751579284j 2.502338614096544e-16
1.489390699390018 1.1638585062860227 -1.1638585062860227 -0.4893906993900176
1.0000000000000002 -3.0357660829594124e-16 -1.3653220228741025j 1.700029006457271e-16
4.196296184553175 0.9320521130725153 -0.9320521130725155 -3.196296184553174
1.0000000000000007 -1.951563910473908e-17 -0.3437389556750232j 4.631711680858075e-16
6.444481085265881 0.05907823482427777 -0.059078234824277785 -5.444481085265881
S2 = -0.000000
X(g)
[[ 2.0000000000e+00 -1.7347234760e-18  4.3020579654e-05 -1.6908770917e-05 -2.6347439530e-04 -2.9539842964e-02  3.0789361187e-03 -3.3153599461e-03]
 [ 3.4694469520e-18  2.0000000000e+00 -4.8061643548e-03  1.8890106251e-03  2.9434778827e-02 -2.6441483756e-04  2.7559943183e-05 -2.9676202500e-05]
 [ 4.3020579654e-05  4.8061643548e-03  0.0000000000e+00  0.0000000000e+00  0.0000000000e+00  0.0000000000e+00  0.0000000000e+00  0.0000000000e+00]
 [-1.6908770917e-05 -1.8890106251e-03  0.0000000000e+00  0.0000000000e+00  0.0000000000e+00  0.0000000000e+00  0.0000000000e+00  0.0000000000e+00]
 [-2.6347439530e-04 -2.9434778827e-02  0.0000000000e+00  0.0000000000e+00  0.0000000000e+00  0.0000000000e+00  0.0000000000e+00  0.0000000000e+00]
 [ 2.9539842964e-02 -2.6441483756e-04  0.0000000000e+00  0.0000000000e+00  0.0000000000e+00  0.0000000000e+00  0.0000000000e+00  0.0000000000e+00]
 [-3.0789361187e-03  2.7559943183e-05  0.0000000000e+00  0.0000000000e+00  0.0000000000e+00  0.0000000000e+00  0.0000000000e+00  0.0000000000e+00]
 [ 3.3153599461e-03 -2.9676202500e-05  0.0000000000e+00  0.0000000000e+00  0.0000000000e+00  0.0000000000e+00  0.0000000000e+00  0.0000000000e+00]]
X(g) int
[[ 2.0000000000e+00 -1.2473298660e-16  4.0840598780e-02 -1.6051953145e-02 -2.5012336314e-01 -6.8714136056e-01  7.1620704155e-02 -7.7120279444e-02]
 [ 1.6356990724e-16  2.0000000000e+00 -1.1179864151e-01  4.3941240061e-02  6.8469741005e-01 -2.5101615040e-01  2.6163398796e-02 -2.8172420953e-02]
 [ 4.0840598780e-02  1.1179864151e-01  0.0000000000e+00  0.0000000000e+00  0.0000000000e+00  0.0000000000e+00  0.0000000000e+00  0.0000000000e+00]
 [-1.6051953145e-02 -4.3941240061e-02  0.0000000000e+00  0.0000000000e+00  0.0000000000e+00  0.0000000000e+00  0.0000000000e+00  0.0000000000e+00]
 [-2.5012336314e-01 -6.8469741005e-01  0.0000000000e+00  0.0000000000e+00  0.0000000000e+00  0.0000000000e+00  0.0000000000e+00  0.0000000000e+00]
[...]
 [ 2.7150502218e-17  0.0000000000e+00  9.1454987551e-19  3.8238486929e-19  1.5810399821e-18  0.0000000000e+00  0.0000000000e+00  0.0000000000e+00]
 [-6.8877734943e-18  0.0000000000e+00  2.4556443433e-19  3.8265136545e-19  8.7875312433e-18  0.0000000000e+00  0.0000000000e+00  0.0000000000e+00]
 [ 1.2425087387e-16  0.0000000000e+00  6.2191193631e-18  6.4075776704e-18  2.4660948638e-17  0.0000000000e+00  0.0000000000e+00  0.0000000000e+00]
 [ 0.0000000000e+00  1.0574485505e-17  0.0000000000e+00  0.0000000000e+00  0.0000000000e+00  1.8131331995e-18  1.2689571125e-18 -6.6194770942e-18]
 [ 0.0000000000e+00  5.7730450089e-18  0.0000000000e+00  0.0000000000e+00  0.0000000000e+00  1.7209122847e-18  5.7431898716e-20 -7.8237616250e-18]
 [ 0.0000000000e+00 -6.0730987369e-17  0.0000000000e+00  0.0000000000e+00  0.0000000000e+00  4.8098932135e-18 -1.7099692748e-17  4.6567531276e-17]]
D(g) (NO)
 [[ 9.9951368521e-01 -8.9589007532e-03  2.3429147243e-17  8.1631862879e-18  1.3848386934e-16 -1.2279975862e-03  5.2181723107e-03 -2.9383564653e-02]
 [ 8.9589007532e-03  9.9951368521e-01 -7.8488329233e-03 -1.7858568745e-05 -2.8818859708e-02  6.6661215105e-18 -7.8782719080e-18  5.0999941482e-17]
 [ 2.4124912731e-17  7.8488329233e-03  9.9951368521e-01 -2.8032219097e-16  9.7590515255e-17 -1.7222896703e-02 -2.4058436903e-02 -5.9457833303e-03]
 [ 3.3211313381e-17  1.7858568745e-05 -3.0409019045e-16  9.9951368521e-01  8.5398370241e-17 -2.5603772361e-02  1.7312082766e-02  4.1390079753e-03]
 [ 1.3025462615e-16  2.8818859708e-02  9.4209867370e-17  9.3671215893e-17  9.9951368521e-01  4.3247851640e-03  8.1637709771e-03 -7.5176776075e-03]
 [ 1.2279975862e-03 -6.3042455081e-18  1.7222896703e-02  2.5603772361e-02 -4.3247851640e-03  9.9951368521e-01 -4.7232219742e-18 -1.8728154449e-17]
 [-5.2181723107e-03 -1.3877787808e-17  2.4058436903e-02 -1.7312082766e-02 -8.1637709771e-03  2.7755575616e-17  9.9951368521e-01  1.3877787808e-17]
 [ 2.9383564653e-02  0.0000000000e+00  5.9457833303e-03 -4.1390079753e-03  7.5176776075e-03 -1.7347234760e-17 -1.3877787808e-17  9.9951368521e-01]]
N(g) (NO)
 [[ 1.0004061787  0.0089669004]
 [-0.0089669004  1.0004061787]]
P(g) (NO)
 [[ 1.0000000000e+00 -1.9559329322e-18  1.2424636318e-17 -8.2190947614e-18  8.3294932213e-17 -1.8062614903e-35 -2.4074124305e-35  1.9259299444e-34]
 [ 1.1241288816e-18  1.0000000000e+00  2.1754044745e-36 -1.7963902970e-35  8.9717014418e-35  1.1371896425e-17  1.0039449329e-17 -1.1906796285e-16]
 [-7.0379703115e-05  7.8520209525e-03 -8.7444221540e-22  5.7845744918e-22 -5.8622726001e-21  8.9292368995e-20  7.8829966479e-20 -9.3492413910e-19]
 [-1.6013600728e-07  1.7865822516e-05 -1.9896316519e-24  1.3161730185e-24 -1.3338517871e-23  2.0316828319e-22  1.7936301986e-22 -2.1272470917e-21]
 [-2.5841584477e-04  2.8830565316e-02 -3.2107228902e-21  2.1239443160e-21 -2.1524730273e-20  3.2785820264e-19  2.8944299961e-19 -3.4327966801e-18]
 [ 1.2284963727e-03  1.1011332052e-05  1.5263620649e-20 -1.0097128101e-20  1.0232752209e-19  1.2521972759e-22  1.1054771018e-22 -1.3110968757e-21]
 [-5.2202918214e-03 -4.6790831404e-05 -6.4860227357e-20  4.2906073162e-20 -4.3482385339e-19 -5.3210048834e-22 -4.6975418092e-22  5.5712889755e-21]
 [ 2.9395499632e-02  2.6347949777e-04  3.6522839233e-19 -2.4160439704e-19  2.4484961492e-18  2.9962615587e-21  2.6451890670e-21 -3.1371967053e-20]]
time for NO, Ng: 0.015
Pg_ortho
 [[ 6.3623144058e-01 -4.6896203824e-01 -6.9290290093e-02  8.2711832561e-02  1.4142734155e-02  1.0424516949e-02 -1.5402479189e-03 -1.8385942360e-03]
 [-4.6869983116e-01  3.4547558345e-01  5.1044863859e-02 -6.0932263770e-02  1.8829023813e-02  1.3878750439e-02 -2.0506193799e-03 -2.4478247467e-03]
 [-6.9290290093e-02  5.1073420142e-02  7.5462229543e-03 -9.0079277866e-03 -1.5402479189e-03 -1.1353066783e-03  1.6774434319e-04  2.0023645461e-04]
 [ 8.2665586540e-02 -6.0932263770e-02 -9.0028912542e-03  1.0746753015e-02 -3.3209149950e-03 -2.4478247467e-03  3.6167210342e-04  4.3172805916e-04]
 [-1.4142734155e-02  1.0424516949e-02  1.5402479189e-03 -1.8385942360e-03  6.3623144058e-01  4.6896203824e-01 -6.9290290093e-02 -8.2711832561e-02]
 [ 1.8829023813e-02 -1.3878750439e-02 -2.0506193799e-03  2.4478247467e-03  4.6869983116e-01  3.4547558345e-01 -5.1044863859e-02 -6.0932263770e-02]
 [ 1.5402479189e-03 -1.1353066783e-03 -1.6774434319e-04  2.0023645461e-04 -6.9290290093e-02 -5.1073420142e-02  7.5462229543e-03  9.0079277866e-03]
 [-3.3209149950e-03  2.4478247467e-03  3.6167210342e-04 -4.3172805916e-04 -8.2665586540e-02 -6.0932263770e-02  9.0028912542e-03  1.0746753015e-02]]
G(g) (NO)
 [[ 2.7192295173e-01  1.4700361256e-03 -1.7080117320e-02 -1.1019942581e-02 -4.6326483549e-02  2.3441438160e-04  4.8383534062e-04 -3.3034274187e-04]
 [-1.4700361256e-03  2.7192295173e-01 -9.0678753767e-05  4.8766707848e-04 -3.9004006258e-04  1.1134566639e-02 -1.1498440592e-03  4.9335706182e-02]
 [-1.7065640551e-02  2.6261510038e-04  7.8239637176e-01 -3.2165922275e-02 -1.6614931222e-01  1.5052113677e-03  2.6911562685e-03 -8.3466641712e-05]
 [-1.1026058921e-02 -7.4743069772e-04 -3.2165574669e-02  7.4071106626e-01  1.0553992796e-02 -1.7416546012e-04 -5.3157382525e-04  3.1365447428e-04]
 [-4.6259422283e-02 -1.9701413163e-02 -1.6615498309e-01  1.0552709926e-02  9.8808802375e-01 -2.7321175135e-03 -6.0259238601e-03  1.0745187056e-03]
 [ 3.5993448216e-03  1.1137938242e-02  1.5408034157e-04 -3.5631940058e-03  5.8727125259e-04  8.0499646963e-01 -4.3089048433e-02 -1.7653088437e-01]
 [ 9.9916732658e-05 -1.1342938272e-03 -1.4511587066e-04  1.6810931411e-03 -4.7779596892e-04 -4.3088132807e-02  7.7144736774e-01  7.6378291764e-02]
 [-1.9385768838e-02  4.9268691092e-02 -8.5064111903e-04  5.8997826528e-03 -1.7848308546e-03 -1.7653640825e-01  7.6379896047e-02  9.3475162439e-01]]
time for Gg: 0.022
C(NO)
[[ 1.0000000000e+00  0.0000000000e+00 -3.6288814058e-17  6.2321286201e-17 -1.6237573491e-17  0.0000000000e+00  0.0000000000e+00  0.0000000000e+00]
 [ 0.0000000000e+00 -1.0000000000e+00  0.0000000000e+00  0.0000000000e+00  0.0000000000e+00 -2.6440839403e-16 -6.9388939039e-17  1.2490009027e-16]
 [ 2.6302424126e-17  0.0000000000e+00  4.2171511740e-01  8.0777092895e-02  9.0312314831e-01  0.0000000000e+00  0.0000000000e+00  0.0000000000e+00]
 [-8.2190947614e-18  0.0000000000e+00  8.5057245423e-03 -9.9633250781e-01  8.5142154819e-02  0.0000000000e+00  0.0000000000e+00  0.0000000000e+00]
 [ 1.3707135997e-16  0.0000000000e+00  9.0668848697e-01 -2.8224017088e-02 -4.2085554821e-01  0.0000000000e+00  0.0000000000e+00  0.0000000000e+00]
 [ 0.0000000000e+00  3.0007373897e-18  0.0000000000e+00  0.0000000000e+00  0.0000000000e+00 -1.9147398978e-01  4.1135526272e-01  8.9113666689e-01]
 [ 0.0000000000e+00 -1.2832307172e-17  0.0000000000e+00  0.0000000000e+00  0.0000000000e+00  2.4528898587e-01  8.9918041127e-01 -3.6236432137e-01]
 [ 0.0000000000e+00  8.4205767434e-17  0.0000000000e+00  0.0000000000e+00  0.0000000000e+00 -9.5035310525e-01  1.4920266693e-01 -2.7307057610e-01]]
detC -1.0
detNg [ 1.0008929278  1.0237511059  1.1384514782  1.4889226435  2.4335990661  4.8982521761  9.4570988642 11.9857045199]
xg [0.9991078688 0.9767999216 0.8783861404 0.6716265646 0.4109140301 0.2041544543 0.1057406732 0.0834327259]
ciS 1.0825405947341349
[[-0.766530541   0.            0.0015710525  0.0072462566  0.0547165543  0.            0.            0.          ]
 [ 0.           -0.766530541   0.            0.            0.            0.0055159297 -0.0030264107 -0.0548570243]
 [ 0.0015710525  0.            0.2936913985  0.0428960903 -0.277742343   0.            0.            0.          ]
 [ 0.0072462566  0.            0.0428960903  0.3593905584 -0.0247250877  0.            0.            0.          ]
 [ 0.0547165543  0.           -0.277742343  -0.0247250877 -0.6595818025  0.            0.            0.          ]
 [ 0.            0.0055159297  0.            0.            0.            0.4050297392  0.0291910484 -0.0462780374]
 [ 0.           -0.0030264107  0.            0.            0.            0.0291910484  0.2929149942  0.1696626004]
 [ 0.           -0.0548570243  0.            0.            0.           -0.0462780374  0.1696626004 -0.704444579 ]]
ciH -1.3797342556400825
1.0 -1.2739375526704677e-18 -0.0286209569966273j -2.2724877535296173e-16
0.5413440330627806 0.0004095795897013949 -0.00040957958970139473 0.4586559669372199
0.9999999999999999 -2.314771638256552e-17 -0.14745885236712855j 2.8189256484623115e-17
0.5432540089722797 0.010872056570715303 -0.010872056570715308 0.4567459910277202
1.0000000000000002 -1.5612511283791264e-17 -0.3541770824108057j -1.1015494072452725e-16
0.5534892672817616 0.06272070285251531 -0.06272070285251531 0.44651073271823877
1.0 -3.187554387107383e-17 -0.6548555048672368j 8.760353553682876e-17
0.5914917358733451 0.21441786612746183 -0.2144178661274618 0.408508264126655
1.0000000000000002 -1.8821749714348357e-16 -1.0703415332244282j -1.6132928326584306e-16
0.7444193913200177 0.57281549887261 -0.57281549887261 0.25558060867998234
1.0000000000000004 -2.732189474663471e-16 -1.5238670227759552j -1.739060284666749e-16
1.4901930603702338 1.161085351552027 -1.161085351552027 -0.490193060370233
1.0 -6.25367813089639e-16 -1.3621796715483994j -4.0245584642661925e-16
4.1910799856718155 0.9277667287898527 -0.9277667287898527 -3.1910799856718164
0.9999999999999998 -8.521829075736065e-17 -0.3427362948787405j -4.458239333260394e-16
6.428771765718329 0.05873408391360349 -0.0587340839136035 -5.428771765718329
S2 = 0.000000
X(g)
[[ 2.0000000000e+00 -1.7347234760e-18 -7.0379703115e-05 -1.6013600730e-07 -2.5841584477e-04 -1.2284963727e-03  5.2202918214e-03 -2.9395499632e-02]
 [ 5.2041704279e-18  2.0000000000e+00 -7.8520209525e-03 -1.7865822516e-05 -2.8830565316e-02  1.1011332052e-05 -4.6790831404e-05  2.6347949777e-04]
 [-7.0379703115e-05  7.8520209525e-03  0.0000000000e+00  0.0000000000e+00  0.0000000000e+00  0.0000000000e+00  0.0000000000e+00  0.0000000000e+00]
 [-1.6013600728e-07  1.7865822516e-05  0.0000000000e+00  0.0000000000e+00  0.0000000000e+00  0.0000000000e+00  0.0000000000e+00  0.0000000000e+00]
 [-2.5841584477e-04  2.8830565316e-02  0.0000000000e+00  0.0000000000e+00  0.0000000000e+00  0.0000000000e+00  0.0000000000e+00  0.0000000000e+00]
 [ 1.2284963727e-03  1.1011332052e-05  0.0000000000e+00  0.0000000000e+00  0.0000000000e+00  0.0000000000e+00  0.0000000000e+00  0.0000000000e+00]
 [-5.2202918214e-03 -4.6790831404e-05  0.0000000000e+00  0.0000000000e+00  0.0000000000e+00  0.0000000000e+00  0.0000000000e+00  0.0000000000e+00]
 [ 2.9395499632e-02  2.6347949777e-04  0.0000000000e+00  0.0000000000e+00  0.0000000000e+00  0.0000000000e+00  0.0000000000e+00  0.0000000000e+00]]
X(g) int
[[ 2.0000000000e+00 -1.0997308049e-16 -6.6799584569e-02 -1.5199010921e-04 -2.4527058673e-01 -2.8570791687e-02  1.2140684620e-01 -6.8364279716e-01]
 [ 1.7429914689e-16  2.0000000000e+00 -1.8261222413e-01 -4.1550036676e-04 -6.7050428001e-01  1.0451200759e-02 -4.4410646267e-02  2.5007665867e-01]
 [-6.6799584569e-02  1.8261222413e-01  0.0000000000e+00  0.0000000000e+00  0.0000000000e+00  0.0000000000e+00  0.0000000000e+00  0.0000000000e+00]
 [-1.5199010921e-04  4.1550036676e-04  0.0000000000e+00  0.0000000000e+00  0.0000000000e+00  0.0000000000e+00  0.0000000000e+00  0.0000000000e+00]
 [-2.4527058673e-01  6.7050428001e-01  0.0000000000e+00  0.0000000000e+00  0.0000000000e+00  0.0000000000e+00  0.0000000000e+00  0.0000000000e+00]
 [ 2.8570791687e-02  1.0451200759e-02  0.0000000000e+00  0.0000000000e+00  0.0000000000e+00  0.0000000000e+00  0.0000000000e+00  0.0000000000e+00]
 [-1.2140684620e-01 -4.4410646267e-02  0.0000000000e+00  0.0000000000e+00  0.0000000000e+00  0.0000000000e+00  0.0000000000e+00  0.0000000000e+00]
 [ 6.8364279716e-01  2.5007665867e-01  0.0000000000e+00  0.0000000000e+00  0.0000000000e+00  0.0000000000e+00  0.0000000000e+00  0.0000000000e+00]]
Feff
 [[-3.6862251365e-16  4.6918060741e-18 -1.4221610317e-10 -7.9675181395e-12  3.1906066909e-10  1.7843775441e-02  2.0762044036e-02 -1.7665859319e-02]
 [-9.3150614416e-20 -2.9405924165e-16  2.2479541756e-03  2.4254416313e-02 -2.1638284853e-02  1.8566213653e-10 -5.0502485570e-11 -2.9166342971e-10]
 [-1.4221614460e-10 -2.2479541756e-03  0.0000000000e+00  0.0000000000e+00  0.0000000000e+00  0.0000000000e+00  0.0000000000e+00  0.0000000000e+00]
 [-7.9675447591e-12 -2.4254416313e-02  0.0000000000e+00  0.0000000000e+00  0.0000000000e+00  0.0000000000e+00  0.0000000000e+00  0.0000000000e+00]
 [ 3.1906080377e-10  2.1638284853e-02  0.0000000000e+00  0.0000000000e+00  0.0000000000e+00  0.0000000000e+00  0.0000000000e+00  0.0000000000e+00]
 [-1.7843775441e-02  1.8566189631e-10  0.0000000000e+00  0.0000000000e+00  0.0000000000e+00  0.0000000000e+00  0.0000000000e+00  0.0000000000e+00]
 [-2.0762044036e-02 -5.0502539144e-11  0.0000000000e+00  0.0000000000e+00  0.0000000000e+00  0.0000000000e+00  0.0000000000e+00  0.0000000000e+00]
 [ 1.7665859319e-02 -2.9166331723e-10  0.0000000000e+00  0.0000000000e+00  0.0000000000e+00  0.0000000000e+00  0.0000000000e+00  0.0000000000e+00]]
Feff (ortho)
 [[-2.8065007987e-10 -9.0435313311e-11 -8.3798133601e-11 -1.2104486806e-10  6.9388939039e-18  3.1225022568e-17 -2.3418766926e-17  8.6736173799e-18]
 [-9.0435313311e-11  2.8579764810e-10  9.4145287784e-11  5.0571480920e-11  2.9490299092e-17  3.4694469520e-18  1.3877787808e-17 -9.5409791179e-18]
 [-8.3798133601e-11  9.4145287784e-11  2.1581206416e-11 -1.6848252976e-12 -3.2092384306e-17 -2.6454533009e-17  5.8546917314e-18  3.2526065175e-18]
 [-1.2104486806e-10  5.0571480920e-11 -1.6848252976e-12 -2.6729143268e-11 -9.1940344227e-17 -6.4184768611e-17  6.9388939039e-18  1.3010426070e-17]
 [ 6.9388939039e-18  2.9490299092e-17 -3.2092384306e-17 -9.1940344227e-17 -2.8064978344e-10  9.0435244824e-11 -8.3798105399e-11  1.2104465722e-10]
 [ 3.1225022568e-17  3.4694469520e-18 -2.6454533009e-17 -6.4184768611e-17  9.0435244824e-11  2.8579738609e-10 -9.4145235742e-11  5.0571362819e-11]
 [-2.3418766926e-17  1.3877787808e-17  5.8546917314e-18  6.9388939039e-18 -8.3798105399e-11 -9.4145235742e-11  2.1581196758e-11  1.6848403964e-12]
 [ 8.6736173799e-18 -9.5409791179e-18  3.2526065175e-18  1.3010426070e-17  1.2104465722e-10  5.0571362819e-11  1.6848403964e-12 -2.6729093459e-11]]
Hsp + Hph =  -1.2745335023477213
Feff (mod,ortho)
[[-0.2308163172  0.3318709593  0.2236619129  0.0397983682  0.            0.            0.            0.          ]
 [ 0.3318709593  0.0030568182  0.0736695092  0.3306629314  0.            0.            0.            0.          ]
 [ 0.2236619129  0.0736695092  1.1211906459  0.0508694262  0.            0.            0.            0.          ]
 [ 0.0397983682  0.3306629314  0.0508694262  1.1166619521  0.            0.            0.            0.          ]
 [ 0.            0.            0.            0.           -0.2308163172 -0.3318709593  0.2236619129 -0.0397983682]
 [ 0.            0.            0.            0.           -0.3318709593  0.0030568182 -0.0736695092  0.3306629314]
 [ 0.            0.            0.            0.            0.2236619129 -0.0736695092  1.1211906459 -0.0508694262]
 [ 0.            0.            0.            0.           -0.0397983682  0.3306629314 -0.0508694262  1.1166619521]]
F(mod,ortho) updated with CDIIS
[[[-0.2308163171  0.3318709593  0.223661913   0.0397983681]
  [ 0.3318709593  0.0030568181  0.0736695092  0.3306629315]
  [ 0.223661913   0.0736695092  1.1211906459  0.0508694262]
  [ 0.0397983681  0.3306629315  0.0508694262  1.1166619521]]

 [[-0.2308163171 -0.3318709593  0.223661913  -0.0397983681]
  [-0.3318709593  0.0030568181 -0.0736695092  0.3306629315]
  [ 0.223661913  -0.0736695092  1.1211906459 -0.0508694262]
  [-0.0397983681  0.3306629315 -0.0508694262  1.1166619521]]]
Alpha occ 1 vir 3; Beta occ 1 vir 3
Alpha energies:  [-0.4946207656] <- HOMO
         LUMO->  [0.1219281958 1.0988253817 1.283960287 ]
Beta energies:   [-0.4946207656] <- HOMO
         LUMO->  [0.1219281958 1.0988253817 1.283960287 ]
e_a, e_b
 [-0.4946207656  0.1219281958  1.0988253817  1.283960287 ] 
 [-0.4946207656  0.1219281958  1.0988253817  1.283960287 ]
v_a, v_b
 [[ 0.7975617066 -0.5732885075  0.0900046244  0.1647263759]
 [-0.5878775229 -0.7561293528 -0.100110005   0.2695299736]
 [-0.0868603443  0.1705432304  0.7900354027  0.5824211102]
 [ 0.1036852097  0.2655629786 -0.5980979994  0.749002313 ]] 
 [[ 0.7975617066  0.5732885075 -0.0900046244  0.1647263759]
 [ 0.5878775229 -0.7561293528 -0.100110005  -0.2695299736]
 [-0.0868603443 -0.1705432304 -0.7900354027  0.5824211102]
 [-0.1036852097  0.2655629786 -0.5980979994 -0.749002313 ]]
P_a, P_b
 [[ 0.6361046759 -0.4688686005 -0.0692764845  0.0826953528]
 [-0.4688686005  0.345599982   0.0510632441 -0.0609542043]
 [-0.0692764845  0.0510632441  0.0075447194 -0.009006133 ]
 [ 0.0826953528 -0.0609542043 -0.009006133   0.0107506227]] 
 [[ 0.6361046759  0.4688686005 -0.0692764845 -0.0826953528]
 [ 0.4688686005  0.345599982  -0.0510632441 -0.0609542043]
 [-0.0692764845 -0.0510632441  0.0075447194  0.009006133 ]
 [-0.0826953528 -0.0609542043  0.009006133   0.0107506227]]
time for xg, H, S2, Yg, Feff: 0.028

***************
SUHF converged at cycle 12
Final E(SUHF) =     -1.00994490, delta E = -2.85796e-11, MaxD(dm) = 3.05759e-10, RMSD(dm) = 1.15254e-10
dm_reg
 [[[1.3933181765e-01 2.6226384662e-01 1.9909043427e-03 2.0708293087e-02]
  [2.6226384662e-01 4.9365842208e-01 3.7474730468e-03 3.8979155615e-02]
  [1.9909043427e-03 3.7474730468e-03 2.8447917848e-05 2.9589961098e-04]
  [2.0708293087e-02 3.8979155615e-02 2.9589961098e-04 3.0777851739e-03]]

 [[2.8447917848e-05 2.9589961098e-04 1.9909043427e-03 3.7474730468e-03]
  [2.9589961098e-04 3.0777851739e-03 2.0708293087e-02 3.8979155615e-02]
  [1.9909043427e-03 2.0708293087e-02 1.3933181765e-01 2.6226384662e-01]
  [3.7474730468e-03 3.8979155615e-02 2.6226384662e-01 4.9365842208e-01]]]
mo_reg
 [[-0.3732717745 -0.0827862706 -1.2513972121  0.1959491265]
 [-0.7026082992 -0.2059771904  1.119703327  -0.3413827732]
 [-0.005333659   0.1698002773 -0.1610010621 -1.3022267479]
 [-0.0554777899  0.9047664758 -0.0668003056  1.0393364815]] 
 [[-0.005333659  -0.1698002773  0.1610010621 -1.3022267479]
 [-0.0554777899 -0.9047664758  0.0668003056  1.0393364815]
 [-0.3732717745  0.0827862706  1.2513972121  0.1959491265]
 [-0.7026082992  0.2059771904 -1.119703327  -0.3413827732]]
time for cyc: 1.314
******* suhf density *****
time for Ngg: 0.002
time for Pgg: 0.004
time for xgg: 0.000
Clebsch-Gordan coeff: < 0 0 0 0 | 0 0 > = 1
Clebsch-Gordan coeff: < 0 0 1 0 | 0 0 > = 0
xggint 1.0
SUHF DM alpha
 [[0.0648955961 0.1245153575 0.0203317291 0.046136313 ]
 [0.1245153575 0.2397755512 0.046136313  0.1019222852]
 [0.0203317291 0.046136313  0.0648955961 0.1245153575]
 [0.046136313  0.1019222852 0.1245153575 0.2397755512]] 
SUHF DM beta
 [[0.0648955961 0.1245153575 0.0203317291 0.046136313 ]
 [0.1245153575 0.2397755512 0.046136313  0.1019222852]
 [0.0203317291 0.046136313  0.0648955961 0.1245153575]
 [0.046136313  0.1019222852 0.1245153575 0.2397755512]]
time for 1pdm: 0.019
SUHF natural orbitals alpha
 [[-0.2359566186  0.3081811236  1.1755826775  0.466830445 ]
 [-0.4724586982  0.5420297568 -1.1552734643 -0.233864293 ]
 [-0.2359566186 -0.3081811236 -0.4862087496  1.1677013094]
 [-0.4724586982 -0.5420297568  0.638867305  -0.9905543152]]
SUHF natural orbitals beta
 [[-0.2359566186  0.3081811236  1.1755826775  0.466830445 ]
 [-0.4724586982  0.5420297568 -1.1552734643 -0.233864293 ]
 [-0.2359566186 -0.3081811236 -0.4862087496  1.1677013094]
 [-0.4724586982 -0.5420297568  0.638867305  -0.9905543152]]
SUHF natural orbitals, total
 [[-0.2359566186  0.3081811236  1.1755826775  0.466830445 ]
 [-0.4724586982  0.5420297568 -1.1552734643 -0.233864293 ]
 [-0.2359566186 -0.3081811236 -0.4862087496  1.1677013094]
 [-0.4724586982 -0.5420297568  0.638867305  -0.9905543152]]
SUHF NO occ alpha:  0.765393  0.234607  ...
SUHF NO occ beta:   0.765393  0.234607  ...
SUHF NO occ total:  1.530786  0.469214  ...
core 0, active 2, external 2
time for natorb: 0.002
time tot: 1.538
