#INFO: **** input file is /share/home/srwang/ExSCF/test/vhfopt/test.py ****
from pyphf import util, guess

xyz = 'H 0.0 0.0 0.0; H 0.0 0.0 2.0'''
bas = '3-21g'
mf = guess.mix(xyz, bas, conv='tight')

mf2 = util.SUHF(mf)
mf2.verbose = 8
mf2.kernel()

#INFO: ******************** input file end ********************


System: uname_result(system='Linux', node='xn01', release='3.10.0-1127.el7.x86_64', version='#1 SMP Tue Feb 18 16:39:12 EST 2020', machine='x86_64', processor='x86_64')  Threads 32
Python 3.7.4 (default, Aug 13 2019, 20:35:49) 
[GCC 7.3.0]
numpy 1.17.2  scipy 1.4.1
Date: Wed May  5 17:35:56 2021
PySCF version 1.7.6a1
PySCF path  /share/home/srwang/pyscf/pyscf
GIT HEAD      ref: refs/heads/master
GIT master branch  80f71dfe77ac5f9caae26788acf76446987635bd

[CONFIG] conf_file None
[INPUT] verbose = 4
[INPUT] num. atoms = 2
[INPUT] num. electrons = 2
[INPUT] charge = 0
[INPUT] spin (= nelec alpha-beta = 2S) = 0
[INPUT] symmetry False subgroup None
[INPUT] Mole.unit = angstrom
[INPUT]  1 H      0.000000000000   0.000000000000   0.000000000000 AA    0.000000000000   0.000000000000   0.000000000000 Bohr
[INPUT]  2 H      0.000000000000   0.000000000000   2.000000000000 AA    0.000000000000   0.000000000000   3.779452249130 Bohr

nuclear repulsion = 0.26458860546
number of shells = 4
number of NR pGTOs = 6
number of NR cGTOs = 4
basis = 3-21g
ecp = {}
CPU time:         1.04


******** <class 'pyscf.scf.hf.RHF'> ********
method = RHF
initial guess = minao
damping factor = 0
level_shift factor = 0
DIIS = <class 'pyscf.scf.diis.CDIIS'>
diis_start_cycle = 1
diis_space = 8
SCF conv_tol = 1e-05
SCF conv_tol_grad = None
SCF max_cycles = 50
direct_scf = True
direct_scf_tol = 1e-13
chkfile to save SCF result = /share/home/srwang/ExSCF/test/vhfopt/tmpn2yitrky
max_memory 4000 MB (current use 107 MB)
Set gradient conv threshold to 0.00316228
init E= -0.648815945420394
  HOMO = -0.244674774926751  LUMO = -0.0864459286574333
cycle= 1 E= -0.907663399996247  delta_E= -0.259  |g|= 0.019  |ddm|= 0.828
  HOMO = -0.369605169894073  LUMO = -0.0101025752244096
cycle= 2 E= -0.907801422494246  delta_E= -0.000138  |g|= 0.00293  |ddm|= 0.0218
  HOMO = -0.370705495656876  LUMO = -0.0112684200431641
cycle= 3 E= -0.907804773936949  delta_E= -3.35e-06  |g|= 1.06e-06  |ddm|= 0.00397
  HOMO = -0.370702164933128  LUMO = -0.011267278240244
Extra cycle  E= -0.907804773937382  delta_E= -4.33e-13  |g|= 1.64e-07  |ddm|= 1.22e-06
converged SCF energy = -0.907804773937382
**** generating mix guess ****
rotating angle: 0.25 pi


******** <class 'pyscf.scf.uhf.UHF'> ********
method = UHF
initial guess = minao
damping factor = 0
level_shift factor = 0
DIIS = <class 'pyscf.scf.diis.CDIIS'>
diis_start_cycle = 1
diis_space = 8
SCF conv_tol = 1e-09
SCF conv_tol_grad = None
SCF max_cycles = 100
direct_scf = True
direct_scf_tol = 1e-13
chkfile to save SCF result = /share/home/srwang/ExSCF/test/vhfopt/tmpm0fzi1lv
max_memory 4000 MB (current use 155 MB)
number electrons alpha = 1  beta = 1
Set gradient conv threshold to 3.16228e-05
init E= -1.69135654891561
  alpha nocc = 1  HOMO = -0.24136263647573  LUMO = 0.900983838942928
  beta  nocc = 1  HOMO = -0.24136263647573  LUMO = 0.900983838942928
cycle= 1 E= -0.985589254636279  delta_E= 0.706  |g|= 0.0835  |ddm|= 1.15
  alpha nocc = 1  HOMO = -0.500699367107886  LUMO = 0.115721881429081
  beta  nocc = 1  HOMO = -0.500699367107887  LUMO = 0.115721881429081
cycle= 2 E= -0.995568238270465  delta_E= -0.00998  |g|= 0.0263  |ddm|= 0.145
  alpha nocc = 1  HOMO = -0.497083605541942  LUMO = 0.125003394565144
  beta  nocc = 1  HOMO = -0.497083605541942  LUMO = 0.125003394565144
cycle= 3 E= -0.996982488678898  delta_E= -0.00141  |g|= 0.00453  |ddm|= 0.0714
  alpha nocc = 1  HOMO = -0.492766860752049  LUMO = 0.118670910813591
  beta  nocc = 1  HOMO = -0.492766860752048  LUMO = 0.118670910813591
cycle= 4 E= -0.997011162805864  delta_E= -2.87e-05  |g|= 0.000416  |ddm|= 0.00998
  alpha nocc = 1  HOMO = -0.494395497533041  LUMO = 0.120246563561694
  beta  nocc = 1  HOMO = -0.49439549753304  LUMO = 0.120246563561694
cycle= 5 E= -0.997011453176457  delta_E= -2.9e-07  |g|= 3.04e-05  |ddm|= 0.00094
  alpha nocc = 1  HOMO = -0.494331180495959  LUMO = 0.120178766572745
  beta  nocc = 1  HOMO = -0.494331180495959  LUMO = 0.120178766572745
cycle= 6 E= -0.997011455175521  delta_E= -2e-09  |g|= 5.7e-07  |ddm|= 7.89e-05
  alpha nocc = 1  HOMO = -0.494330560129535  LUMO = 0.12017816088352
  beta  nocc = 1  HOMO = -0.494330560129534  LUMO = 0.12017816088352
cycle= 7 E= -0.997011455176148  delta_E= -6.27e-13  |g|= 2.53e-07  |ddm|= 8.43e-07
  alpha nocc = 1  HOMO = -0.494330110948441  LUMO = 0.12017775506829
  beta  nocc = 1  HOMO = -0.494330110948441  LUMO = 0.12017775506829
Extra cycle  E= -0.997011455176267  delta_E= -1.19e-13  |g|= 1.16e-07  |ddm|= 3.54e-07
converged SCF energy = -0.997011455176267  <S^2> = 0.91048301  2S+1 = 2.1545143
**** checking UHF/UKS internal stability ...
tol 0.0001  toloose 0.01
max_cycle 50  max_space 12  max_memory 2000  incore True
davidson 0 1  |r|= 0.861  e= [1.13705881]  max|de|= 1.14  lindep= 0.529
davidson 1 2  |r|= 0.119  e= [0.67139996]  max|de|= -0.466  lindep= 0.998
Throwing out eigenvector 0 with norm=8.95e-16
davidson 2 3  |r|= 8.95e-16  e= [0.66357818]  max|de|= -0.00782  lindep=    1
Linear dependency in trial subspace. |r| for each state [8.950652031455689e-16]
UHF/UKS wavefunction is stable in the internal stability analysis
time for guess: 0.141

******** <class 'pyphf.util.SUHF'> ********
Date: Wed May  5 17:35:56 2021
pyphf version 0.3.1
pyphf path  /share/home/srwang/ExSCF
GIT ORIG_HEAD 9806bd9e8eedafca81b7527dd0e160c6e45c1631
GIT HEAD (branch main) 56763978d1f4222613d1c927673e97ce701a42a7
max_cycle = 70
verbose: 8, debug2
chkfile0: 18126_ges.pchk # the file store hf for guess
chkfile: 18126_su.pchk # the file store suhf info
conv_tol: 1e-07
DIIS: <class 'pyscf.scf.diis.CDIIS'>
diis_start_cyc = 10
S
[[1.         0.64589894 0.00227256 0.07465634]
 [0.64589894 1.         0.07465634 0.27025724]
 [0.00227256 0.07465634 1.         0.64589894]
 [0.07465634 0.27025724 0.64589894 1.        ]]
SVD: S^(-1/2)
[[-0.3306004   0.46012676 -0.85621932  0.83453679]
 [-0.39774539  0.36468663  0.71167752 -1.05293881]
 [-0.3306004  -0.46012676 -0.85621932 -0.83453679]
 [-0.39774539 -0.36468663  0.71167752  1.05293881]]
S^(1/2)
[[-0.61794925 -0.74345483 -0.61794925 -0.74345483]
 [ 0.66740563  0.52897143 -0.66740563 -0.52897143]
 [-0.34536213  0.28706017 -0.34536213  0.28706017]
 [ 0.23115675 -0.29165151 -0.23115675  0.29165151]]
C (ortho)
 [[-0.80171109 -0.57009486 -0.09238995 -0.15399766]
 [-0.58103419  0.75902561 -0.10126721  0.27572512]
 [ 0.08280271  0.16885271 -0.79177919 -0.58113526]
 [ 0.11314731 -0.26525597 -0.59522665  0.75002813]] 
 [[-0.80171109 -0.57009486 -0.09238995 -0.15399766]
 [ 0.58103419 -0.75902561  0.10126721 -0.27572512]
 [ 0.08280271  0.16885271 -0.79177919 -0.58113526]
 [-0.11314731  0.26525597  0.59522665 -0.75002813]]
density matrix (ortho)
[[[ 0.64274066  0.46582155 -0.06638385 -0.09071146]
  [ 0.46582155  0.33760073 -0.04811121 -0.06574246]
  [-0.06638385 -0.04811121  0.00685629  0.0093689 ]
  [-0.09071146 -0.06574246  0.0093689   0.01280231]]

 [[ 0.64274066 -0.46582155 -0.06638385  0.09071146]
  [-0.46582155  0.33760073  0.04811121 -0.06574246]
  [-0.06638385  0.04811121  0.00685629 -0.0093689 ]
  [ 0.09071146 -0.06574246 -0.0093689   0.01280231]]]
grids:  [0.06237655 0.31939555 0.74529195 1.28265786 1.85893479 2.39630071
 2.8221971  3.07921611] 
weights:  [0.15900941 0.34931531 0.49276925 0.56970235 0.56970235 0.49276925
 0.34931531 0.15900941]
S = 0.0, Sz = 0.0
Wigner small d:  1
value : [1. 1. 1. 1. 1. 1. 1. 1.]
hcore (ortho)
 [[-7.96723266e-01  9.17301167e-17  1.03744072e-01  1.33062106e-16]
 [ 8.50105048e-17 -6.58935537e-01  4.05701508e-16  1.96745347e-01]
 [ 1.03744072e-01  4.21576640e-16  3.06545630e-01 -2.77570797e-16]
 [ 9.15077779e-17  1.96745347e-01 -1.99832916e-16  3.76082787e-01]]
time for Preparation before cyc: 0.112
**** Start Cycle 1 ****
dm (ortho)
[[[ 0.6427406647  0.4658215524 -0.0663838507 -0.0907114563]
  [ 0.4658215524  0.3376007317 -0.0481112058 -0.0657424584]
  [-0.0663838507 -0.0481112058  0.0068562888  0.0093689043]
  [-0.0907114563 -0.0657424584  0.0093689043  0.0128023148]]

 [[ 0.6427406647 -0.4658215524 -0.0663838507  0.0907114563]
  [-0.4658215524  0.3376007317  0.0481112058 -0.0657424584]
  [-0.0663838507  0.0481112058  0.0068562888 -0.0093689043]
  [ 0.0907114563 -0.0657424584 -0.0093689043  0.0128023148]]]
Fock (ortho)
 (array([[-0.2388873235, -0.326413236 ,  0.2163657457, -0.0245837681],
       [-0.326413236 ,  0.0110682141, -0.078060889 ,  0.339629591 ],
       [ 0.2163657457, -0.078060889 ,  1.1220172843, -0.0506526202],
       [-0.0245837681,  0.339629591 , -0.0506526202,  1.1126146476]]), array([[-0.2388873235,  0.326413236 ,  0.2163657457,  0.0245837681],
       [ 0.326413236 ,  0.0110682141,  0.078060889 ,  0.339629591 ],
       [ 0.2163657457,  0.078060889 ,  1.1220172843,  0.0506526202],
       [ 0.0245837681,  0.339629591 ,  0.0506526202,  1.1126146476]]))
E1 = -1.5345399459405922  Ecoul = 0.2729398853043247
E(UHF) =    -1.261600
NO eigenvalue
[-1.0000000000e+00 -5.8257040087e-17 -5.8727660631e-19  1.9815554288e-18] 
 [-1.0000000000e+00 -6.3791584335e-19  2.0622259559e-18  1.1582605948e-16]
NO vec
[[ 0.8017110856  0.            0.5836538764  0.0869414306  0.0951245266  0.            0.            0.          ]
 [ 0.5810341915  0.           -0.8110501628  0.064709782   0.0202372411  0.            0.            0.          ]
 [-0.0828027103  0.            0.0112922464  0.9639860032 -0.252482043   0.            0.            0.          ]
 [-0.1131473145  0.           -0.0376599428  0.2428679013  0.9627017173  0.            0.            0.          ]
 [ 0.            0.8017110856  0.            0.            0.            0.0551631093  0.1094090107 -0.5850179784]
 [ 0.           -0.5810341915  0.            0.            0.            0.0529473568 -0.0868373976 -0.8074992954]
 [ 0.           -0.0828027103  0.            0.            0.           -0.7441918626  0.660074406  -0.0601993466]
 [ 0.            0.1131473145  0.            0.            0.           -0.6635752259 -0.7380993926 -0.0455509775]]
dm(NO)
[[ 1.0000000000e+00  0.0000000000e+00 -1.4440913582e-16 -7.2327294003e-17 -6.5318939821e-17  0.0000000000e+00  0.0000000000e+00  0.0000000000e+00]
 [ 0.0000000000e+00  1.0000000000e+00  0.0000000000e+00  0.0000000000e+00  0.0000000000e+00 -1.1047894445e-18 -9.4079523373e-18  2.0421253247e-16]
 [-8.1565292715e-17  0.0000000000e+00 -1.1817560769e-17 -2.2162609812e-19  2.7383092186e-18  0.0000000000e+00  0.0000000000e+00  0.0000000000e+00]
 [-5.3574953341e-17  0.0000000000e+00 -4.4792305431e-19 -1.5833683122e-19 -4.4535630548e-22  0.0000000000e+00  0.0000000000e+00  0.0000000000e+00]
 [-6.6410336141e-17  0.0000000000e+00  1.0838405216e-17  7.3580928993e-19 -8.0989812547e-19  0.0000000000e+00  0.0000000000e+00  0.0000000000e+00]
 [ 0.0000000000e+00 -1.8272962590e-18  0.0000000000e+00  0.0000000000e+00  0.0000000000e+00 -1.7849228489e-18 -1.5164040518e-18  7.9517580476e-18]
 [ 0.0000000000e+00 -9.1998831379e-18  0.0000000000e+00  0.0000000000e+00  0.0000000000e+00 -6.0160920576e-19 -1.2580518115e-18  6.2970804986e-18]
 [ 0.0000000000e+00  9.9380574057e-17  0.0000000000e+00  0.0000000000e+00  0.0000000000e+00  3.1590289694e-18  4.0115620579e-18 -1.6496544307e-17]]
D(g) (NO)
 [[ 9.9951368521e-01  9.3298287801e-03  1.3293116415e-16 -3.1187167003e-17 -4.0963946925e-17  6.6012364678e-03  2.0617387532e-03 -2.8939942641e-02]
 [-9.3298287801e-03  9.9951368521e-01 -2.9124299367e-02  6.3107006231e-04 -6.0600583026e-03 -6.8962873526e-18 -2.6911015977e-17  2.1915520241e-17]
 [ 6.9989623431e-17  2.9124299367e-02  9.9951368521e-01  4.0410931394e-17 -3.7547700406e-17  1.8210398378e-04  5.2867086546e-03  9.8074365081e-03]
 [-2.9915282748e-17 -6.3107006231e-04  4.5110499573e-17  9.9951368521e-01 -4.7508194689e-16 -2.7139674082e-02  1.4373429806e-02 -5.3700495049e-03]
 [-5.9942438353e-17  6.0600583026e-03 -3.6047401523e-17 -4.5331172325e-16  9.9951368521e-01 -1.3864403367e-02 -2.7085005728e-02 -3.1383996097e-03]
 [-6.6012364678e-03 -4.6156515457e-19 -1.8210398378e-04  2.7139674082e-02  1.3864403367e-02  9.9951368521e-01  1.2822839766e-16 -3.5022419143e-17]
 [-2.0617387532e-03 -2.0816681712e-17 -5.2867086546e-03 -1.4373429806e-02  2.7085005728e-02  1.6653345369e-16  9.9951368521e-01  2.7755575616e-17]
 [ 2.8939942641e-02  5.5511151231e-17 -9.8074365081e-03  5.3700495049e-03  3.1383996097e-03 -3.8163916471e-17  2.7755575616e-17  9.9951368521e-01]]
N(g) (NO)
 [[ 1.0003993862 -0.0093380962]
 [ 0.0093380962  1.0003993862]]
P(g) (NO)
 [[ 1.0000000000e+00  3.1040521043e-18 -1.4440913582e-16 -7.2327294003e-17 -6.5318939821e-17 -3.5399620849e-36 -1.2037062152e-35  7.7037197775e-34]
 [-5.6150720791e-18  1.0000000000e+00  1.1003133225e-33  4.6002454526e-34  4.1972429710e-34 -1.1047894445e-18 -9.4079523373e-18  2.0421253247e-16]
 [ 2.7196551038e-04  2.9135931210e-02 -3.9274304329e-20 -1.9670529428e-20 -1.7764498806e-20 -3.2189069257e-20 -2.7410945212e-19  5.9499222982e-18]
 [-5.8929929755e-06 -6.3132210297e-04  8.5100202301e-22  4.2622423550e-22  3.8492405354e-22  6.9747799546e-22  5.9394482542e-21 -1.2892388545e-19]
 [ 5.6589407643e-05  6.0624786061e-03 -8.1720274546e-21 -4.0929587241e-21 -3.6963601124e-21 -6.6977623717e-21 -5.7035509772e-20  1.2380341092e-18]
 [-6.6038729104e-03  6.1642981433e-05  9.5365958008e-19  4.7764025755e-19  4.3135797722e-19 -6.8102515217e-23 -5.7993423125e-22  1.2588269348e-20]
 [-2.0625621831e-03  1.9252714897e-05  2.9785282245e-19  1.4917954142e-19  1.3472437512e-19 -2.1270196197e-23 -1.8112862411e-22  3.9316456660e-21]
 [ 2.8951500854e-02 -2.7024396954e-04 -4.1808612192e-18 -2.0939837141e-18 -1.8910813421e-18  2.9856268499e-22  2.5424423848e-21 -5.5187205404e-20]]
time for NO, Ng: 0.014
Pg_ortho
 [[ 6.4287182818e-01  4.6591661217e-01 -6.6397397639e-02 -9.0729967719e-02  1.4051671612e-02 -1.0183845280e-02 -1.4512915120e-03  1.9831444712e-03]
 [ 4.6564532526e-01  3.3747301236e-01 -4.8093004646e-02 -6.5717587048e-02 -1.8879387425e-02  1.3682696680e-02  1.9499099806e-03 -2.6644910175e-03]
 [-6.6397397639e-02 -4.8121023832e-02  6.8576879868e-03  9.3708162036e-03 -1.4512915120e-03  1.0518128107e-03  1.4989298860e-04 -2.0482408197e-04]
 [-9.0677138839e-02 -6.5717587048e-02  9.3653599058e-03  1.2797471469e-02  3.6764652018e-03 -2.6644910175e-03 -3.7971444884e-04  5.1886792119e-04]
 [-1.4051671612e-02 -1.0183845280e-02  1.4512915120e-03  1.9831444712e-03  6.4287182818e-01 -4.6591661217e-01 -6.6397397639e-02  9.0729967719e-02]
 [-1.8879387425e-02 -1.3682696680e-02  1.9499099806e-03  2.6644910175e-03 -4.6564532526e-01  3.3747301236e-01  4.8093004646e-02 -6.5717587048e-02]
 [ 1.4512915120e-03  1.0518128107e-03 -1.4989298860e-04 -2.0482408197e-04 -6.6397397639e-02  4.8121023832e-02  6.8576879868e-03 -9.3708162036e-03]
 [ 3.6764652018e-03  2.6644910175e-03 -3.7971444884e-04 -5.1886792119e-04  9.0677138839e-02 -6.5717587048e-02 -9.3653599058e-03  1.2797471469e-02]]
G(g) (NO)
 [[ 2.7295464423e-01 -1.5811381521e-03  5.1286379114e-02  9.3624562470e-03  1.5282356048e-02  1.0906515289e-04 -5.3489385375e-04 -4.7025012260e-04]
 [ 1.5811381521e-03  2.7295464423e-01 -4.8861960527e-04  4.8341636318e-04  2.1610488497e-04  9.6441647473e-03  1.4895113754e-02 -5.1348070544e-02]
 [ 5.1216008043e-02 -1.9295868814e-02  9.5368554007e-01  1.0021710935e-01 -1.4663664393e-01  1.2946359137e-03 -5.8136970741e-03 -2.0615443283e-03]
 [ 9.3672630819e-03 -2.6147901624e-03  1.0021601893e-01  7.9346401079e-01 -5.2673597779e-02  4.4165545841e-04 -2.3347772745e-03 -8.2837392277e-04]
 [ 1.5273768820e-02  5.5314206908e-04 -1.4663139369e-01 -5.2673682829e-02  7.5973663576e-01 -3.0257799943e-04  2.6586225227e-03  4.2703076530e-04]
 [-1.1049328503e-03  9.6314248723e-03  8.3375321037e-04 -2.9218584166e-03 -1.4605969038e-03  8.0421167984e-01 -3.1020550594e-02  1.7224896921e-01]
 [ 1.3451431636e-03  1.4896225677e-02 -4.0972380506e-04  3.2589878021e-04  4.1105028645e-05 -3.1020247883e-02  7.3439568658e-01  2.9004479821e-03]
 [-1.9402148342e-02 -5.1278174957e-02  2.3182182334e-03 -5.5914346313e-03 -2.2627320894e-03  1.7225393463e-01  2.9024515520e-03  9.6827882019e-01]]
time for Gg: 0.021
C(NO)
[[-1.0000000000e+00  0.0000000000e+00 -4.7958808528e-16  6.0432586407e-16  1.9359189339e-16  0.0000000000e+00  0.0000000000e+00  0.0000000000e+00]
 [ 0.0000000000e+00 -1.0000000000e+00  0.0000000000e+00  0.0000000000e+00  0.0000000000e+00 -1.5326189662e-16 -1.8041124150e-16  1.3877787808e-17]
 [ 6.7036029492e-17  0.0000000000e+00 -9.3644967051e-01  4.1684263567e-02 -3.4831657551e-01  0.0000000000e+00  0.0000000000e+00  0.0000000000e+00]
 [ 5.1312656786e-17  0.0000000000e+00  9.7901004805e-02 -9.2241099813e-01 -3.7359516028e-01  0.0000000000e+00  0.0000000000e+00  0.0000000000e+00]
 [ 6.4283704515e-17  0.0000000000e+00 -3.3686407921e-01 -3.8395360748e-01  8.5971054399e-01  0.0000000000e+00  0.0000000000e+00  0.0000000000e+00]
 [ 0.0000000000e+00  1.1047894445e-18  0.0000000000e+00  0.0000000000e+00  0.0000000000e+00 -3.7331271049e-01  1.9452328766e-01  9.0708230649e-01]
 [ 0.0000000000e+00  9.4079523373e-18  0.0000000000e+00  0.0000000000e+00  0.0000000000e+00 -8.0791628725e-02 -9.8087168034e-01  1.7709731628e-01]
 [ 0.0000000000e+00 -9.3190230009e-17  0.0000000000e+00  0.0000000000e+00  0.0000000000e+00  9.2418089837e-01 -7.1719777666e-03  3.8188771887e-01]]
detC 0.9999999999999998
detNg [ 1.0008861319  1.0235662454  1.1372541875  1.4834076483  2.407356124   4.7572359479  8.8856775581 11.0616604009]
xg [0.9991146526 0.9769763359 0.8793108973 0.6741235298 0.4153934642 0.2102060968 0.1125406581 0.0904023414]
ciS 1.089516994029022
[[-0.767269973   0.           -0.0512910118 -0.0093579039 -0.0152803327  0.            0.            0.          ]
 [ 0.           -0.767269973   0.            0.            0.           -0.0096452028 -0.0148900823  0.05135253  ]
 [-0.0512910118  0.           -0.690895806   0.0132891033 -0.2168726115  0.            0.            0.          ]
 [-0.0093579039  0.            0.0132891033  0.3218387705  0.0263291564  0.            0.            0.          ]
 [-0.0152803327  0.           -0.2168726115  0.0263291564  0.3632966219  0.            0.            0.          ]
 [ 0.           -0.0096452028  0.            0.            0.            0.3087582959  0.0308174387  0.2287559339]
 [ 0.           -0.0148900823  0.            0.            0.            0.0308174387  0.3641469339  0.0825501041]
 [ 0.            0.05135253    0.            0.            0.            0.2287559339  0.0825501041 -0.6786656433]]
ciH -1.3881309806330582
0.9999999999999999 -7.71138795180315e-18 -0.02840312920162578j -7.546047120499111e-17
0.5448378560245963 0.0004033688742221235 -0.00040336887422212354 0.45516214397540344
0.9999999999999997 -3.621235256101585e-17 -0.14631114471438658j -2.463307335887066e-16
0.5468929338950802 0.010703475533817085 -0.010703475533817088 0.45310706610491946
0.9999999999999998 -9.063930161978817e-17 -0.3511142553677008j 6.245004513516506e-17
0.5578882717285827 0.06164061016120751 -0.06164061016120751 0.4421117282714171
0.9999999999999997 -1.7802599672211983e-16 -0.647468804735899j -1.0625181290357943e-16
0.5984909944009076 0.20960792655306676 -0.20960792655306676 0.401509005599092
0.9999999999999998 -5.655198531684391e-16 -1.050748251131689j -1.2576745200831851e-17
0.7593917602596723 0.5520359436281514 -0.5520359436281516 0.24060823974032752
1.0000000000000002 -4.753142324176451e-16 -1.4687423232630925j 2.3592239273284576e-16
1.5129426988344885 1.0786020060721333 -1.0786020060721333 -0.5129426988344882
0.9999999999999999 -4.644722106927901e-16 -1.2701411959977016j -9.71445146547012e-17
4.033919022633506 0.806629328885236 -0.806629328885236 -3.0339190226335053
0.9999999999999998 -7.43762690325056e-17 -0.31390760600701034j -1.1102230246251565e-16
5.976664501932443 0.049268992554526214 -0.049268992554526214 -4.976664501932444
S2 = 0.000000
X(g)
[[ 2.0000000000e+00  6.9388939039e-18  2.7196551038e-04 -5.8929929756e-06  5.6589407643e-05  6.6038729104e-03  2.0625621831e-03 -2.8951500854e-02]
 [-1.0408340856e-17  2.0000000000e+00 -2.9135931210e-02  6.3132210297e-04 -6.0624786061e-03  6.1642981433e-05  1.9252714897e-05 -2.7024396954e-04]
 [ 2.7196551038e-04  2.9135931210e-02  0.0000000000e+00  0.0000000000e+00  0.0000000000e+00  0.0000000000e+00  0.0000000000e+00  0.0000000000e+00]
 [-5.8929929755e-06 -6.3132210297e-04  0.0000000000e+00  0.0000000000e+00  0.0000000000e+00  0.0000000000e+00  0.0000000000e+00  0.0000000000e+00]
 [ 5.6589407643e-05  6.0624786061e-03  0.0000000000e+00  0.0000000000e+00  0.0000000000e+00  0.0000000000e+00  0.0000000000e+00  0.0000000000e+00]
 [-6.6038729104e-03  6.1642981433e-05  0.0000000000e+00  0.0000000000e+00  0.0000000000e+00  0.0000000000e+00  0.0000000000e+00  0.0000000000e+00]
 [-2.0625621831e-03  1.9252714897e-05  0.0000000000e+00  0.0000000000e+00  0.0000000000e+00  0.0000000000e+00  0.0000000000e+00  0.0000000000e+00]
 [ 2.8951500854e-02 -2.7024396954e-04  0.0000000000e+00  0.0000000000e+00  0.0000000000e+00  0.0000000000e+00  0.0000000000e+00  0.0000000000e+00]]
X(g) int
[[ 2.0000000000e+00  1.6992744416e-16  2.5647987558e-01 -5.5574477184e-03  5.3367223702e-02  1.5260200308e-01  4.7661595688e-02 -6.6901000104e-01]
 [-1.8701268521e-16  2.0000000000e+00 -6.7327180953e-01  1.4588563228e-02 -1.4009148745e-01  5.8133048511e-02  1.8156471070e-02 -2.5485635876e-01]
 [ 2.5647987558e-01  6.7327180953e-01  0.0000000000e+00  0.0000000000e+00  0.0000000000e+00  0.0000000000e+00  0.0000000000e+00  0.0000000000e+00]
 [-5.5574477184e-03 -1.4588563228e-02  0.0000000000e+00  0.0000000000e+00  0.0000000000e+00  0.0000000000e+00  0.0000000000e+00  0.0000000000e+00]
 [ 5.3367223702e-02  1.4009148745e-01  0.0000000000e+00  0.0000000000e+00  0.0000000000e+00  0.0000000000e+00  0.0000000000e+00  0.0000000000e+00]
 [-1.5260200308e-01  5.8133048511e-02  0.0000000000e+00  0.0000000000e+00  0.0000000000e+00  0.0000000000e+00  0.0000000000e+00  0.0000000000e+00]
 [-4.7661595688e-02  1.8156471070e-02  0.0000000000e+00  0.0000000000e+00  0.0000000000e+00  0.0000000000e+00  0.0000000000e+00  0.0000000000e+00]
 [ 6.6901000104e-01 -2.5485635876e-01  0.0000000000e+00  0.0000000000e+00  0.0000000000e+00  0.0000000000e+00  0.0000000000e+00  0.0000000000e+00]]
Feff
 [[-4.3256702347e-16 -1.6047927203e-18  1.0201374408e-02  7.5948842680e-03 -1.2969126044e-02  4.4245970437e-03 -1.1765533704e-02 -1.9215249679e-02]
 [ 9.6480769519e-18  5.4675752229e-17 -1.9692913932e-02  1.1352809107e-02  3.2455398322e-03 -1.4564229586e-02 -1.1773851954e-03 -1.0790992442e-02]
 [ 1.0201374408e-02  1.9692913932e-02  0.0000000000e+00  0.0000000000e+00  0.0000000000e+00  0.0000000000e+00  0.0000000000e+00  0.0000000000e+00]
 [ 7.5948842680e-03 -1.1352809107e-02  0.0000000000e+00  0.0000000000e+00  0.0000000000e+00  0.0000000000e+00  0.0000000000e+00  0.0000000000e+00]
 [-1.2969126044e-02 -3.2455398322e-03  0.0000000000e+00  0.0000000000e+00  0.0000000000e+00  0.0000000000e+00  0.0000000000e+00  0.0000000000e+00]
 [-4.4245970437e-03 -1.4564229586e-02  0.0000000000e+00  0.0000000000e+00  0.0000000000e+00  0.0000000000e+00  0.0000000000e+00  0.0000000000e+00]
 [ 1.1765533704e-02 -1.1773851954e-03  0.0000000000e+00  0.0000000000e+00  0.0000000000e+00  0.0000000000e+00  0.0000000000e+00  0.0000000000e+00]
 [ 1.9215249679e-02 -1.0790992442e-02  0.0000000000e+00  0.0000000000e+00  0.0000000000e+00  0.0000000000e+00  0.0000000000e+00  0.0000000000e+00]]
Feff (ortho)
 [[ 8.6275334278e-03 -3.3232527143e-03  8.1416149610e-03 -9.4477000966e-03  5.3776427755e-17  1.5178830415e-17 -3.6429192996e-17  5.3342746886e-17]
 [-3.3232527143e-03 -9.3486337566e-03  6.8896077565e-03 -5.4956690449e-03 -1.9949319974e-17  5.3776427755e-17 -1.9949319974e-17  3.0574501264e-17]
 [ 8.1416149610e-03  6.8896077565e-03 -1.7738046284e-03 -2.9902195760e-04 -2.7755575616e-17  1.5612511284e-17  6.1799523832e-18 -8.8904578144e-18]
 [-9.4477000966e-03 -5.4956690449e-03 -2.9902195760e-04  2.4949049572e-03  6.5919492087e-17 -5.5294310797e-17 -2.7105054312e-18  2.8189256485e-18]
 [ 5.3776427755e-17 -1.9949319974e-17 -2.7755575616e-17  6.5919492087e-17  8.6275334278e-03  3.3232527143e-03  8.1416149610e-03  9.4477000966e-03]
 [ 1.5178830415e-17  5.3776427755e-17  1.5612511284e-17 -5.5294310797e-17  3.3232527143e-03 -9.3486337566e-03 -6.8896077565e-03 -5.4956690449e-03]
 [-3.6429192996e-17 -1.9949319974e-17  6.1799523832e-18 -2.7105054312e-18  8.1416149610e-03 -6.8896077565e-03 -1.7738046284e-03  2.9902195760e-04]
 [ 5.3342746886e-17  3.0574501264e-17 -8.8904578144e-18  2.8189256485e-18  9.4477000966e-03 -5.4956690449e-03  2.9902195760e-04  2.4949049572e-03]]
Hsp + Hph =  -1.2740792371670724
Feff (mod,ortho)
[[-0.2302597295 -0.3297365156  0.2245073286 -0.0340314871  0.            0.            0.            0.          ]
 [-0.3297365156  0.0017195096 -0.0711712972  0.3341339181  0.            0.            0.            0.          ]
 [ 0.2245073286 -0.0711712972  1.1202434857 -0.0509516366  0.            0.            0.            0.          ]
 [-0.0340314871  0.3341339181 -0.0509516366  1.1151095567  0.            0.            0.            0.          ]
 [ 0.            0.            0.            0.           -0.2302597295  0.3297365156  0.2245073286  0.0340314871]
 [ 0.            0.            0.            0.            0.3297365156  0.0017195096  0.0711712972  0.3341339181]
 [ 0.            0.            0.            0.            0.2245073286  0.0711712972  1.1202434857  0.0509516366]
 [ 0.            0.            0.            0.            0.0340314871  0.3341339181  0.0509516366  1.1151095567]]
Alpha occ 1 vir 3; Beta occ 1 vir 3
Alpha energies:  [-0.4945369813] <- HOMO
         LUMO->  [0.1202097884 1.099203477  1.2819365384]
Beta energies:   [-0.4945369813] <- HOMO
         LUMO->  [0.1202097884 1.099203477  1.2819365384]
e_a, e_b
 [-0.4945369813  0.1202097884  1.099203477   1.2819365384] 
 [-0.4945369813  0.1202097884  1.099203477   1.2819365384]
v_a, v_b
 [[ 0.7959192725  0.5758526377 -0.0931821925  0.1619361922]
 [ 0.5890939817 -0.7547802912 -0.1018733654 -0.2699940928]
 [-0.0881101107 -0.1695190739 -0.7916389213  0.5803513679]
 [-0.1082469437  0.2645065883 -0.5951862857 -0.7510473682]] 
 [[ 0.7959192725 -0.5758526377  0.0931821925  0.1619361922]
 [-0.5890939817 -0.7547802912 -0.1018733654  0.2699940928]
 [-0.0881101107  0.1695190739  0.7916389213  0.5803513679]
 [ 0.1082469437  0.2645065883 -0.5951862857  0.7510473682]]
P_a, P_b
 [[ 0.6334874883  0.4688712533 -0.0701285352 -0.0861558286]
 [ 0.4688712533  0.3470317192 -0.0519051359 -0.063767623 ]
 [-0.0701285352 -0.0519051359  0.0077633916  0.0095376502]
 [-0.0861558286 -0.063767623   0.0095376502  0.0117174008]] 
 [[ 0.6334874883 -0.4688712533 -0.0701285352  0.0861558286]
 [-0.4688712533  0.3470317192  0.0519051359 -0.063767623 ]
 [-0.0701285352  0.0519051359  0.0077633916 -0.0095376502]
 [ 0.0861558286 -0.063767623  -0.0095376502  0.0117174008]]
time for xg, H, S2, Yg, Feff: 0.024
 E(SUHF) =     -1.00949063
**** Start Cycle 2 ****
dm (ortho)
[[[ 0.6334874883  0.4688712533 -0.0701285352 -0.0861558286]
  [ 0.4688712533  0.3470317192 -0.0519051359 -0.063767623 ]
  [-0.0701285352 -0.0519051359  0.0077633916  0.0095376502]
  [-0.0861558286 -0.063767623   0.0095376502  0.0117174008]]

 [[ 0.6334874883 -0.4688712533 -0.0701285352  0.0861558286]
  [-0.4688712533  0.3470317192  0.0519051359 -0.063767623 ]
  [-0.0701285352  0.0519051359  0.0077633916 -0.0095376502]
  [ 0.0861558286 -0.063767623  -0.0095376502  0.0117174008]]]
Fock (ortho)
 (array([[-0.2363081016, -0.3284564986,  0.2173277084, -0.0261901497],
       [-0.3284564986,  0.0087229249, -0.0778261308,  0.3390100841],
       [ 0.2173277084, -0.0778261308,  1.1216808993, -0.0509166931],
       [-0.0261901497,  0.3390100841, -0.0509166931,  1.1127032785]]), array([[-0.2363081016,  0.3284564986,  0.2173277084,  0.0261901497],
       [ 0.3284564986,  0.0087229249,  0.0778261308,  0.3390100841],
       [ 0.2173277084,  0.0778261308,  1.1216808993,  0.0509166931],
       [ 0.0261901497,  0.3390100841,  0.0509166931,  1.1127032785]]))
E1 = -1.532484024586891  Ecoul = 0.2712126226598561
E(UHF) =    -1.261271
NO eigenvalue
[-1.0000000000e+00 -5.6649505648e-19 -7.9140731367e-20  1.1129588709e-16] 
 [-1.0000000000e+00 -3.3785078147e-18  1.4687588639e-18  1.1213530477e-16]
NO vec
[[ 0.7959192725  0.            0.0266531664 -0.0136678973 -0.6046613176  0.            0.            0.          ]
 [ 0.5890939817  0.           -0.0822537921  0.2428305617  0.7663131949  0.            0.            0.          ]
 [-0.0881101107  0.           -0.8808884823  0.4349317991 -0.1646402751  0.            0.            0.          ]
 [-0.1082469437  0.            0.4653594354  0.8669952924 -0.1415710355  0.            0.            0.          ]
 [ 0.            0.7959192725  0.            0.            0.            0.006860575  -0.0603074027  0.6023524395]
 [ 0.           -0.5890939817  0.            0.            0.            0.169248785   0.0877286881  0.7852558862]
 [ 0.           -0.0881101107  0.            0.            0.            0.1305193618 -0.9873918806  0.0160803825]
 [ 0.            0.1082469437  0.            0.            0.            0.9768687105  0.117149343  -0.1424294673]]
dm(NO)
[[ 1.0000000000e+00  0.0000000000e+00 -1.7201665275e-17  1.3176922678e-17 -7.6877429125e-17  0.0000000000e+00  0.0000000000e+00  0.0000000000e+00]
 [ 0.0000000000e+00  1.0000000000e+00  0.0000000000e+00  0.0000000000e+00  0.0000000000e+00 -8.0799317706e-18  1.5069423093e-17 -1.9989703203e-16]
 [-5.7065653137e-18  0.0000000000e+00  1.4489838151e-18 -6.9895054026e-19 -9.8088710870e-18  0.0000000000e+00  0.0000000000e+00  0.0000000000e+00]
 [ 2.5336517599e-17  0.0000000000e+00 -1.0229879740e-19 -1.2708170608e-18 -3.3503414096e-18  0.0000000000e+00  0.0000000000e+00  0.0000000000e+00]
 [-5.9926985952e-17  0.0000000000e+00 -5.9291091170e-18  1.2903166066e-18  2.3385689144e-17  0.0000000000e+00  0.0000000000e+00  0.0000000000e+00]
 [ 0.0000000000e+00  1.1317538889e-17  0.0000000000e+00  0.0000000000e+00  0.0000000000e+00 -6.9615777075e-19 -1.0034782965e-18  6.0462087870e-18]
 [ 0.0000000000e+00 -2.3453258303e-18  0.0000000000e+00  0.0000000000e+00  0.0000000000e+00 -3.6709690181e-19 -1.5882447572e-18  4.8318707746e-19]
 [ 0.0000000000e+00 -3.4106549381e-16  0.0000000000e+00  0.0000000000e+00  0.0000000000e+00  7.6964319026e-18 -3.9257956615e-18 -1.4780807590e-17]]
D(g) (NO)
 [[ 9.9951368521e-01  8.8093139182e-03 -1.8299484434e-18  9.1958987824e-18  5.1410615120e-17 -3.7666904747e-04  2.4322525655e-03  2.9811597255e-02]
 [-8.8093139182e-03  9.9951368521e-01 -6.1636093839e-03  3.0684555701e-03  2.9109853363e-02 -5.7220952678e-18 -4.0928182603e-18 -2.3109187522e-16]
 [ 5.9704169726e-18  6.1636093839e-03  9.9951368521e-01 -4.1510326517e-17  3.8118955628e-18  1.0162098375e-02  2.8547465293e-02 -4.0220611693e-03]
 [ 1.6223575413e-17 -3.0684555701e-03 -6.4822798886e-17  9.9951368521e-01  1.7007060054e-17  2.9459178862e-02 -9.5343535529e-03  2.0568272329e-03]
 [-3.0011469645e-18 -2.9109853363e-02  5.4165543651e-18  1.2904555451e-17  9.9951368521e-01 -1.0675825832e-03  7.7855988757e-03  7.9532527627e-03]
 [ 3.7666904747e-04 -7.0096810669e-18 -1.0162098375e-02 -2.9459178862e-02  1.0675825832e-03  9.9951368521e-01  4.2351031406e-17  2.7251000166e-17]
 [-2.4322525655e-03  6.9388939039e-18 -2.8547465293e-02  9.5343535529e-03 -7.7855988757e-03  2.7755575616e-17  9.9951368521e-01  6.9388939039e-18]
 [-2.9811597255e-02 -1.6653345369e-16  4.0220611693e-03 -2.0568272329e-03 -7.9532527627e-03  2.9490299092e-17  6.9388939039e-18  9.9951368521e-01]]
N(g) (NO)
 [[ 1.0004088401 -0.0088172035]
 [ 0.0088172035  1.0004088401]]
P(g) (NO)
 [[ 1.0000000000e+00 -2.3099820444e-18 -1.7201665275e-17  1.3176922678e-17 -7.6877429125e-17  2.1958790266e-35 -2.4074124305e-35  7.7037197775e-34]
 [-5.6782988429e-18  1.0000000000e+00  9.1138444332e-35 -5.6550912916e-35  3.8248432617e-34 -8.0799317706e-18  1.5069423093e-17 -1.9989703203e-16]
 [ 5.4345797958e-05  6.1661293146e-03 -9.3483822556e-22  7.1611037755e-22 -4.1779652308e-21 -4.9821904151e-20  9.2920011487e-20 -1.2325909491e-18]
 [-2.7055197056e-05 -3.0697100778e-03  4.6539444370e-22 -3.5650423963e-22  2.0799339941e-21  2.4803047984e-20 -4.6258759935e-20  6.1362593374e-19]
 [-2.5666749966e-04 -2.9121754638e-02  4.4151084160e-21 -3.3820877969e-21  1.9731937514e-20  2.3530179052e-19 -4.3884804185e-19  5.8213523196e-18]
 [ 3.7682304489e-04 -3.3211676269e-06 -6.4819838860e-21  4.9653681256e-21 -2.8969186926e-20  2.6834807825e-23 -5.0048080132e-23  6.6389155149e-22]
 [-2.4332469679e-03  2.1445665725e-05  4.1855899873e-20 -3.2062707152e-20  1.8706177132e-19 -1.7327951583e-22  3.2317381032e-22 -4.2869249283e-21]
 [-2.9823785432e-02  2.6285491833e-04  5.1301877423e-19 -3.9298571459e-19  2.2927759508e-18 -2.1238498057e-21  3.9610719764e-21 -5.2543918028e-20]]
time for NO, Ng: 0.014
Pg_ortho
 [[ 6.3361245974e-01  4.6896375003e-01 -7.0142369841e-02 -8.6172825060e-02  1.4179382930e-02 -1.0494769302e-02 -1.5696905992e-03  1.9284303297e-03]
 [ 4.6870591887e-01  3.4690934813e-01 -5.1886833036e-02 -6.3745137158e-02 -1.8759014792e-02  1.3884351212e-02  2.0766664751e-03 -2.5512713253e-03]
 [-7.0142369841e-02 -5.1915375543e-02  7.7649231344e-03  9.5395317321e-03 -1.5696905992e-03  1.1617953190e-03  1.7376839241e-04 -2.1348171318e-04]
 [-8.6125448181e-02 -6.3745137158e-02  9.5342870016e-03  1.1713268995e-02  3.4469984084e-03 -2.5512713253e-03 -3.8159072392e-04  4.6880011000e-04]
 [-1.4179382930e-02 -1.0494769302e-02  1.5696905992e-03  1.9284303297e-03  6.3361245974e-01 -4.6896375003e-01 -7.0142369841e-02  8.6172825060e-02]
 [-1.8759014792e-02 -1.3884351212e-02  2.0766664751e-03  2.5512713253e-03 -4.6870591887e-01  3.4690934813e-01  5.1886833036e-02 -6.3745137158e-02]
 [ 1.5696905992e-03  1.1617953190e-03 -1.7376839241e-04 -2.1348171318e-04 -7.0142369841e-02  5.1915375543e-02  7.7649231344e-03 -9.5395317321e-03]
 [ 3.4469984084e-03  2.5512713253e-03 -3.8159072392e-04 -4.6880011000e-04  8.6125448181e-02 -6.3745137158e-02 -9.5342870016e-03  1.1713268995e-02]]
G(g) (NO)
 [[ 2.7122543777e-01 -1.4540154567e-03  9.8363341979e-03  6.4872939959e-03 -4.8526492172e-02  2.8947717733e-04  4.1637537207e-04  3.5340131062e-04]
 [ 1.4540154567e-03  2.7122543777e-01 -2.2791551819e-04  4.9447633459e-04  2.9258442219e-04 -1.0030234103e-02 -2.7040334435e-03  4.8844052896e-02]
 [ 9.8236608358e-03  1.2962508515e-03  8.1198310564e-01  2.5049447382e-02  1.6441466240e-01 -1.8818581957e-03 -2.7422570080e-03 -4.5889803889e-04]
 [ 6.5009851665e-03  3.3153435621e-03  2.5050633440e-02  7.5389114510e-01  9.3021349950e-02 -1.0499022181e-03 -1.5108250601e-03 -8.3718767592e-05]
 [-4.8461405856e-02  1.9341291249e-02  1.6441915747e-01  9.3024487906e-02  9.4272538379e-01 -3.1301242694e-03 -5.2473129992e-03 -1.5321391647e-03]
 [ 3.8058280603e-03 -1.0035685846e-02 -1.3062802697e-03  3.2450861661e-03 -4.5410310234e-05  8.0075306956e-01 -6.2840269852e-02  1.6359054362e-01]
 [-2.1056660551e-03 -2.7123293071e-03  1.0826524266e-03 -2.4385617143e-03 -2.5005941257e-04 -6.2839821327e-02  7.9934203955e-01 -1.0504689475e-01]
 [ 1.9179133443e-02  4.8777077170e-02 -2.6185861405e-03  5.2426687134e-03  7.6186403821e-04  1.6359577449e-01 -1.0504886857e-01  9.0850452542e-01]]
time for Gg: 0.021
C(NO)
[[ 1.0000000000e+00  0.0000000000e+00 -1.9447566098e-17 -8.1208659739e-18  9.8802259748e-17  0.0000000000e+00  0.0000000000e+00  0.0000000000e+00]
 [ 0.0000000000e+00  1.0000000000e+00  0.0000000000e+00  0.0000000000e+00  0.0000000000e+00 -7.9910390683e-17  1.2490009027e-16  1.3877787808e-16]
 [-1.0743505776e-17  0.0000000000e+00  3.4984987364e-01  4.2626592426e-01 -8.3420766463e-01  0.0000000000e+00  0.0000000000e+00  0.0000000000e+00]
 [ 2.5208899376e-17  0.0000000000e+00 -3.5557685705e-02 -8.8379700998e-01 -4.6651741247e-01  0.0000000000e+00  0.0000000000e+00  0.0000000000e+00]
 [-2.3330970684e-17  0.0000000000e+00 -9.3613071571e-01  1.9287355176e-01 -2.9403924250e-01  0.0000000000e+00  0.0000000000e+00  0.0000000000e+00]
 [ 0.0000000000e+00  5.7978560372e-18  0.0000000000e+00  0.0000000000e+00  0.0000000000e+00  1.4881740371e-01 -4.9469731251e-01  8.5622891177e-01]
 [ 0.0000000000e+00  1.1916352849e-18  0.0000000000e+00  0.0000000000e+00  0.0000000000e+00 -1.6788269200e-01 -8.6594031834e-01 -4.7112924638e-01]
 [ 0.0000000000e+00 -3.6469576224e-16  0.0000000000e+00  0.0000000000e+00  0.0000000000e+00 -9.7450950846e-01  7.3633783417e-02  2.1191810650e-01]]
detC 1.0000000000000002
detNg [ 1.0008955904  1.0238235524  1.1389212638  1.4910946134  2.4440377096  4.9558084798  9.7015378317 12.3912615067]
xg [0.9991052109 0.9767308025 0.8780238211 0.6706482547 0.4091589897 0.2017834232 0.1030764418 0.0807020334]
ciS 1.079807244338565
[[-0.7662420123  0.            0.0025826058 -0.0012836211  0.055382901   0.            0.            0.          ]
 [ 0.           -0.7662420123  0.            0.            0.           -0.0013110173  0.0110460258 -0.0543309287]
 [ 0.0025826058  0.            0.2943552852  0.0583959309  0.2013111292  0.            0.            0.          ]
 [-0.0012836211  0.            0.0583959309  0.3832873777 -0.1004117195  0.            0.            0.          ]
 [ 0.055382901   0.            0.2013111292 -0.1004117195 -0.6844310372  0.            0.            0.          ]
 [ 0.           -0.0013110173  0.            0.            0.            0.4104378638  0.0133213671  0.0117964686]
 [ 0.            0.0110460258  0.            0.            0.            0.0133213671  0.3124560805 -0.073756597 ]
 [ 0.           -0.0543309287  0.            0.            0.            0.0117964686 -0.073756597  -0.7296823185]]
ciH -1.3762059921026952
0.9999999999999999 1.587000929975657e-17 -0.028706302644300512j 7.979727989493313e-17
0.5399751287793484 0.00041202590575308733 -0.0004120259057530873 0.4600248712206514
1.0 8.250778532614689e-17 -0.147908636796614j -1.1188966420050406e-16
0.5418275620056358 0.010938482419516341 -0.010938482419516341 0.4581724379943642
1.0 1.6111244283134596e-16 -0.3553788558710568j 5.551115123125783e-17
0.5517606501108643 0.06314706560011067 -0.06314706560011067 0.4482393498891357
0.9999999999999999 2.710505431213761e-16 -0.6577646081167368j 2.0816681711721685e-17
0.5887202429278471 0.21632713984548213 -0.21632713984548213 0.41127975707215286
1.0 2.1597307275911248e-16 -1.0781351443449356j 1.1145598333150986e-16
0.7383571173754225 0.5811876947358375 -0.5811876947358375 0.2616428826245774
1.0000000000000002 7.441963711940502e-16 -1.5463663761489004j 1.6002824065886045e-16
1.4800344643952148 1.1956244846419408 -1.1956244846419413 -0.4800344643952145
0.9999999999999997 7.103692634125025e-16 -1.4015513045176262j 1.5439038936193583e-16
4.255722386357351 0.98217302959753 -0.98217302959753 -3.2557223863573523
0.9999999999999996 1.6132928326584306e-16 -0.355389019951064j 4.0766001685454967e-16
6.6269362929517595 0.06315067775088888 -0.06315067775088888 -5.626936292951761
S2 = 0.000000
X(g)
[[ 2.0000000000e+00  6.9388939039e-18  5.4345797958e-05 -2.7055197056e-05 -2.5666749966e-04 -3.7682304489e-04  2.4332469679e-03  2.9823785432e-02]
 [-1.7347234760e-18  2.0000000000e+00 -6.1661293146e-03  3.0697100778e-03  2.9121754638e-02 -3.3211676270e-06  2.1445665725e-05  2.6285491833e-04]
 [ 5.4345797958e-05  6.1661293146e-03  0.0000000000e+00  0.0000000000e+00  0.0000000000e+00  0.0000000000e+00  0.0000000000e+00  0.0000000000e+00]
 [-2.7055197056e-05 -3.0697100778e-03  0.0000000000e+00  0.0000000000e+00  0.0000000000e+00  0.0000000000e+00  0.0000000000e+00  0.0000000000e+00]
 [-2.5666749966e-04 -2.9121754638e-02  0.0000000000e+00  0.0000000000e+00  0.0000000000e+00  0.0000000000e+00  0.0000000000e+00  0.0000000000e+00]
 [ 3.7682304489e-04 -3.3211676269e-06  0.0000000000e+00  0.0000000000e+00  0.0000000000e+00  0.0000000000e+00  0.0000000000e+00  0.0000000000e+00]
 [-2.4332469679e-03  2.1445665725e-05  0.0000000000e+00  0.0000000000e+00  0.0000000000e+00  0.0000000000e+00  0.0000000000e+00  0.0000000000e+00]
 [-2.9823785432e-02  2.6285491833e-04  0.0000000000e+00  0.0000000000e+00  0.0000000000e+00  0.0000000000e+00  0.0000000000e+00  0.0000000000e+00]]
X(g) int
[[ 2.0000000000e+00  2.0588895172e-16  5.1711733902e-02 -2.5743869874e-02 -2.4422718853e-01 -8.7858270475e-03  5.6732430020e-02  6.9535720881e-01]
 [-1.5955397050e-16  2.0000000000e+00 -1.4376654094e-01  7.1571901442e-02  6.7898899243e-01 -3.1601953237e-03  2.0406224602e-02  2.5011471176e-01]
 [ 5.1711733902e-02  1.4376654094e-01  0.0000000000e+00  0.0000000000e+00  0.0000000000e+00  0.0000000000e+00  0.0000000000e+00  0.0000000000e+00]
 [-2.5743869874e-02 -7.1571901442e-02  0.0000000000e+00  0.0000000000e+00  0.0000000000e+00  0.0000000000e+00  0.0000000000e+00  0.0000000000e+00]
 [-2.4422718853e-01 -6.7898899243e-01  0.0000000000e+00  0.0000000000e+00  0.0000000000e+00  0.0000000000e+00  0.0000000000e+00  0.0000000000e+00]
 [ 8.7858270475e-03 -3.1601953237e-03  0.0000000000e+00  0.0000000000e+00  0.0000000000e+00  0.0000000000e+00  0.0000000000e+00  0.0000000000e+00]
 [-5.6732430020e-02  2.0406224602e-02  0.0000000000e+00  0.0000000000e+00  0.0000000000e+00  0.0000000000e+00  0.0000000000e+00  0.0000000000e+00]
 [-6.9535720881e-01  2.5011471176e-01  0.0000000000e+00  0.0000000000e+00  0.0000000000e+00  0.0000000000e+00  0.0000000000e+00  0.0000000000e+00]]
Feff
 [[ 2.3958314388e-16  1.2834471186e-17 -1.7478166108e-04 -3.7151147410e-03  1.7825989186e-03  1.5309134586e-02  1.7102347743e-02  1.8915383705e-02]
 [-7.6333377763e-18  8.3807586305e-19 -8.0464257376e-03  2.3453875599e-02  1.6426271428e-02  3.1553328394e-03  2.1699084859e-03 -1.5315537563e-03]
 [-1.7478166108e-04  8.0464257376e-03  0.0000000000e+00  0.0000000000e+00  0.0000000000e+00  0.0000000000e+00  0.0000000000e+00  0.0000000000e+00]
 [-3.7151147410e-03 -2.3453875599e-02  0.0000000000e+00  0.0000000000e+00  0.0000000000e+00  0.0000000000e+00  0.0000000000e+00  0.0000000000e+00]
 [ 1.7825989186e-03 -1.6426271428e-02  0.0000000000e+00  0.0000000000e+00  0.0000000000e+00  0.0000000000e+00  0.0000000000e+00  0.0000000000e+00]
 [-1.5309134586e-02  3.1553328394e-03  0.0000000000e+00  0.0000000000e+00  0.0000000000e+00  0.0000000000e+00  0.0000000000e+00  0.0000000000e+00]
 [-1.7102347743e-02  2.1699084859e-03  0.0000000000e+00  0.0000000000e+00  0.0000000000e+00  0.0000000000e+00  0.0000000000e+00  0.0000000000e+00]
 [-1.8915383705e-02 -1.5315537563e-03  0.0000000000e+00  0.0000000000e+00  0.0000000000e+00  0.0000000000e+00  0.0000000000e+00  0.0000000000e+00]]
Feff (ortho)
 [[-1.6423782864e-03 -2.2713925169e-04 -1.3062061374e-03 -2.7175607100e-03 -4.1633363423e-17 -2.3418766926e-17  9.5409791179e-18  5.1174342541e-17]
 [-2.2713925169e-04  5.6348268233e-04 -1.0762034713e-03 -2.1458155214e-03  1.0408340856e-17 -4.8572257327e-17  3.0357660830e-18  4.3368086899e-17]
 [-1.3062061374e-03 -1.0762034713e-03  3.0932745418e-04  5.0321475885e-04  2.6020852140e-17 -1.3877787808e-17 -3.4694469520e-18 -2.8189256485e-18]
 [-2.7175607100e-03 -2.1458155214e-03  5.0321475885e-04  7.6956814992e-04  5.8113236445e-17 -3.6862873865e-17 -7.3725747729e-18  2.1684043450e-19]
 [-4.1633363423e-17  1.0408340856e-17  2.6020852140e-17  5.8113236445e-17 -1.6423782864e-03  2.2713925169e-04 -1.3062061374e-03  2.7175607100e-03]
 [-2.3418766926e-17 -4.8572257327e-17 -1.3877787808e-17 -3.6862873865e-17  2.2713925169e-04  5.6348268233e-04  1.0762034713e-03 -2.1458155214e-03]
 [ 9.5409791179e-18  3.0357660830e-18 -3.4694469520e-18 -7.3725747729e-18 -1.3062061374e-03  1.0762034713e-03  3.0932745418e-04 -5.0321475885e-04]
 [ 5.1174342541e-17  4.3368086899e-17 -2.8189256485e-18  2.1684043450e-19  2.7175607100e-03 -2.1458155214e-03 -5.0321475885e-04  7.6956814992e-04]]
Hsp + Hph =  -1.2744922756521135
Feff (mod,ortho)
[[-0.2317673778 -0.330767483   0.2234860663 -0.0367442925  0.            0.            0.            0.          ]
 [-0.330767483   0.0028145471 -0.0726401881  0.3319698847  0.            0.            0.            0.          ]
 [ 0.2234860663 -0.0726401881  1.1202617637 -0.0506542407  0.            0.            0.            0.          ]
 [-0.0367442925  0.3319698847 -0.0506542407  1.1154900681  0.            0.            0.            0.          ]
 [ 0.            0.            0.            0.           -0.2317673778  0.330767483   0.2234860663  0.0367442925]
 [ 0.            0.            0.            0.            0.330767483   0.0028145471  0.0726401881  0.3319698847]
 [ 0.            0.            0.            0.            0.2234860663  0.0726401881  1.1202617637  0.0506542407]
 [ 0.            0.            0.            0.            0.0367442925  0.3319698847  0.0506542407  1.1154900681]]
Alpha occ 1 vir 3; Beta occ 1 vir 3
Alpha energies:  [-0.4950424854] <- HOMO
         LUMO->  [0.1210952317 1.0986655487 1.2820807062]
Beta energies:   [-0.4950424854] <- HOMO
         LUMO->  [0.1210952317 1.0986655487 1.2820807062]
e_a, e_b
 [-0.4950424854  0.1210952317  1.0986655487  1.2820807062] 
 [-0.4950424854  0.1210952317  1.0986655487  1.2820807062]
v_a, v_b
 [[ 0.7974915584  0.5736705522 -0.0914127488  0.1629509779]
 [ 0.5875665017 -0.7561938732 -0.100614062  -0.2698392906]
 [-0.0872278145 -0.1698559336 -0.7911459207  0.5810580025]
 [-0.1056604407  0.2649941235 -0.596329315  -0.7503368136]] 
 [[ 0.7974915584 -0.5736705522  0.0914127488  0.1629509779]
 [-0.5875665017 -0.7561938732 -0.100614062   0.2698392906]
 [-0.0872278145  0.1698559336  0.7911459207  0.5810580025]
 [ 0.1056604407  0.2649941235 -0.596329315   0.7503368136]]
P_a, P_b
 [[ 0.6359927857  0.4685793251 -0.0695634458 -0.0842633095]
 [ 0.4685793251  0.3452343939 -0.0512521418 -0.0620825355]
 [-0.0695634458 -0.0512521418  0.0076086916  0.0092165293]
 [-0.0842633095 -0.0620825355  0.0092165293  0.0111641287]] 
 [[ 0.6359927857 -0.4685793251 -0.0695634458  0.0842633095]
 [-0.4685793251  0.3452343939  0.0512521418 -0.0620825355]
 [-0.0695634458  0.0512521418  0.0076086916 -0.0092165293]
 [ 0.0842633095 -0.0620825355 -0.0092165293  0.0111641287]]
time for xg, H, S2, Yg, Feff: 0.023
 E =     -1.00990367, delta E = -0.000413038, MaxD(dm) =  0.0025053, RMSD(dm) = 0.00123863
**** Start Cycle 3 ****
dm (ortho)
[[[ 0.6359927857  0.4685793251 -0.0695634458 -0.0842633095]
  [ 0.4685793251  0.3452343939 -0.0512521418 -0.0620825355]
  [-0.0695634458 -0.0512521418  0.0076086916  0.0092165293]
  [-0.0842633095 -0.0620825355  0.0092165293  0.0111641287]]

 [[ 0.6359927857 -0.4685793251 -0.0695634458  0.0842633095]
  [-0.4685793251  0.3452343939  0.0512521418 -0.0620825355]
  [-0.0695634458  0.0512521418  0.0076086916 -0.0092165293]
  [ 0.0842633095 -0.0620825355 -0.0092165293  0.0111641287]]]
Fock (ortho)
 (array([[-0.2364629329, -0.3286842211,  0.21724542  , -0.0271364021],
       [-0.3286842211,  0.0096475354, -0.078571497 ,  0.3387525615],
       [ 0.21724542  , -0.078571497 ,  1.1222633262, -0.0510834219],
       [-0.0271364021,  0.3387525615, -0.0510834219,  1.1132570917]]), array([[-0.2364629329,  0.3286842211,  0.21724542  ,  0.0271364021],
       [ 0.3286842211,  0.0096475354,  0.078571497 ,  0.3387525615],
       [ 0.21724542  ,  0.078571497 ,  1.1222633262,  0.0510834219],
       [ 0.0271364021,  0.3387525615,  0.0510834219,  1.1132570917]]))
E1 = -1.5330578051195327  Ecoul = 0.2718086658426152
E(UHF) =    -1.261249
NO eigenvalue
[-1.0000000000e+00 -2.2218176951e-16 -4.9809864219e-19  1.5744080269e-18] 
 [-1.0000000000e+00 -1.6671830982e-16 -1.2271638536e-18  2.5048182373e-18]
NO vec
[[ 0.7974915584  0.           -0.6031448439 -0.0063360416 -0.0135412766  0.            0.            0.          ]
 [ 0.5875665017  0.            0.7799835809  0.106255769  -0.1873524249  0.            0.            0.          ]
 [-0.0872278145  0.           -0.0907455301 -0.4288435163 -0.8945668201  0.            0.            0.          ]
 [-0.1056604407  0.           -0.1400255675  0.8970857287 -0.4055439643  0.            0.            0.          ]
 [ 0.            0.7974915584  0.            0.            0.            0.6029937357 -0.0192053865 -0.0060763555]
 [ 0.           -0.5875665017  0.            0.            0.            0.781011085   0.0588505784  0.2032828092]
 [ 0.           -0.0872278145  0.            0.            0.            0.0821988058 -0.948462543  -0.2933487161]
 [ 0.            0.1056604407  0.            0.            0.           -0.1402269447 -0.3107837948  0.934122962 ]]
dm(NO)
[[ 1.0000000000e+00  0.0000000000e+00  2.2898052371e-16 -7.9003469115e-18  2.0097701770e-17  0.0000000000e+00  0.0000000000e+00  0.0000000000e+00]
 [ 0.0000000000e+00  1.0000000000e+00  0.0000000000e+00  0.0000000000e+00  0.0000000000e+00 -2.1505531148e-17  2.2195792320e-17 -2.4994823281e-17]
 [ 2.4259567894e-16  0.0000000000e+00 -4.4264619175e-18 -6.8632695988e-18  6.3409954229e-18  0.0000000000e+00  0.0000000000e+00  0.0000000000e+00]
 [ 1.1210577421e-17  0.0000000000e+00 -8.3539362415e-18  1.0443168067e-18  2.8908535276e-19  0.0000000000e+00  0.0000000000e+00  0.0000000000e+00]
 [-2.9563831393e-18  0.0000000000e+00 -1.4482511869e-18  5.0084911946e-19 -2.5908200375e-19  0.0000000000e+00  0.0000000000e+00  0.0000000000e+00]
 [ 0.0000000000e+00 -9.3722172004e-18  0.0000000000e+00  0.0000000000e+00  0.0000000000e+00  1.2755764659e-17  3.0327067432e-18 -3.4443038215e-18]
 [ 0.0000000000e+00  8.9665922107e-18  0.0000000000e+00  0.0000000000e+00  0.0000000000e+00 -4.5117574633e-18  7.7007722782e-19 -5.0677995026e-19]
 [ 0.0000000000e+00 -1.1549820991e-17  0.0000000000e+00  0.0000000000e+00  0.0000000000e+00  1.0055524939e-18  8.9381668332e-19  8.2621535325e-19]]
D(g) (NO)
 [[ 9.9951368521e-01  8.9559122983e-03  2.2876654606e-16 -5.6319243104e-18 -1.4412020411e-17  2.9543753414e-02  4.2045069290e-03  1.2936248911e-03]
 [-8.9559122983e-03  9.9951368521e-01  2.9504774104e-02 -2.0178125771e-03 -4.1930236256e-03 -3.7584384551e-17  1.5049848621e-17  1.0712426815e-17]
 [ 2.6738228419e-16 -2.9504774104e-02  9.9951368521e-01  1.6154578288e-17 -4.0675032910e-17  8.0346505560e-03  5.8335233987e-03  1.8099102236e-03]
 [ 4.6809837743e-18  2.0178125771e-03  3.3657756947e-17  9.9951368521e-01  1.0922133694e-16 -2.5532717664e-03  4.1884426487e-03  3.0728801776e-02]
 [-2.2596670722e-17  4.1930236256e-03 -1.6304558597e-17  8.0215331355e-17  9.9951368521e-01 -5.3371249471e-03  3.0052323524e-02 -4.8150364230e-03]
 [-2.9543753414e-02 -5.9857969499e-17 -8.0346505560e-03  2.5532717664e-03  5.3371249471e-03  9.9951368521e-01  1.4430873690e-18  3.0097649910e-17]
 [-4.2045069290e-03  1.3877787808e-17 -5.8335233987e-03 -4.1884426487e-03 -3.0052323524e-02 -1.3877787808e-17  9.9951368521e-01  5.5511151231e-17]
 [-1.2936248911e-03  2.0816681712e-17 -1.8099102236e-03 -3.0728801776e-02  4.8150364230e-03  1.3877787808e-17  5.5511151231e-17  9.9951368521e-01]]
N(g) (NO)
 [[ 1.0004062324 -0.0089639098]
 [ 0.0089639098  1.0004062324]]
P(g) (NO)
 [[ 1.0000000000e+00  5.5936114003e-18  2.2898052371e-16 -7.9003469115e-18  2.0097701770e-17 -1.5219566306e-34  1.4444474583e-34 -1.4444474583e-34]
 [-1.1842218217e-18  1.0000000000e+00 -4.8024021404e-34  2.9532923419e-35 -5.7485144949e-35 -2.1505531148e-17  2.2195792320e-17 -2.4994823281e-17]
 [-2.6447813260e-04 -2.9516759898e-02 -6.0560341314e-20  2.0894689981e-21 -5.3154026338e-21  6.3477359937e-19 -6.5514787267e-19  7.3776619747e-19]
 [ 1.8087489857e-05  2.0186322778e-03  4.1416829001e-21 -1.4289744463e-22  3.6351697692e-22 -4.3411759327e-20  4.4805142810e-20 -5.0455357054e-20]
 [ 3.7585885408e-05  4.1947269675e-03  8.6064357249e-21 -2.9694153370e-22  7.5538991571e-22 -9.0209831456e-20  9.3105288611e-20 -1.0484645926e-19]
 [-2.9555755042e-02  2.6482753962e-04 -6.7676922683e-18  2.3350071807e-19 -5.9400275044e-19 -5.6952569021e-21  5.8780570701e-21 -6.6193175527e-21]
 [-4.2062149358e-03  3.7688820704e-05 -9.6314129884e-19  3.3230557177e-20 -8.4535253361e-20 -8.1051810757e-22  8.3653323714e-22 -9.4202541315e-22]
 [-1.2941504034e-03  1.1595936789e-05 -2.9633523713e-19  1.0224237142e-20 -2.6009448853e-20 -2.4937677981e-22  2.5738100473e-22 -2.8983839082e-22]]
time for NO, Ng: 0.014
Pg_ortho
 [[ 6.3611950316e-01  4.6867268652e-01 -6.9577305819e-02 -8.4280098463e-02  1.4142148634e-02 -1.0419486843e-02 -1.5468360828e-03  1.8737071784e-03]
 [ 4.6841072861e-01  3.4511017739e-01 -5.1233701139e-02 -6.2060198016e-02 -1.8816007077e-02  1.3863037594e-02  2.0580520990e-03 -2.4929512792e-03]
 [-6.9577305819e-02 -5.1262353500e-02  7.6102076119e-03  9.2183656625e-03 -1.5468360828e-03  1.1396597950e-03  1.6918941590e-04 -2.0494183360e-04]
 [-8.4232991304e-02 -6.2060198016e-02  9.2132131885e-03  1.1160111843e-02  3.3836299292e-03 -2.4929512792e-03 -3.7009375313e-04  4.4830045640e-04]
 [-1.4142148634e-02 -1.0419486843e-02  1.5468360828e-03  1.8737071784e-03  6.3611950316e-01 -4.6867268652e-01 -6.9577305819e-02  8.4280098463e-02]
 [-1.8816007077e-02 -1.3863037594e-02  2.0580520990e-03  2.4929512792e-03 -4.6841072861e-01  3.4511017739e-01  5.1233701139e-02 -6.2060198016e-02]
 [ 1.5468360828e-03  1.1396597950e-03 -1.6918941590e-04 -2.0494183360e-04 -6.9577305819e-02  5.1262353500e-02  7.6102076119e-03 -9.2183656625e-03]
 [ 3.3836299292e-03  2.4929512792e-03 -3.7009375313e-04 -4.4830045640e-04  8.4232991304e-02 -6.2060198016e-02 -9.2132131885e-03  1.1160111843e-02]]
G(g) (NO)
 [[ 2.7182187537e-01 -1.4742329413e-03 -4.9590957476e-02  1.0201993899e-02 -2.4393416875e-03  3.4301049360e-04  2.8647918856e-04  4.5005706571e-04]
 [ 1.4742329413e-03  2.7182187537e-01  3.3950129115e-04  1.3431006153e-04 -5.1863047276e-04  4.9608324242e-02  4.7333202832e-03 -9.2684397715e-03]
 [-4.9523679857e-02  1.9323347710e-02  9.2761596392e-01  1.8884635208e-01  3.9986754069e-02 -1.2226446428e-03 -3.4719046909e-03 -4.9129559363e-03]
 [ 1.0202609482e-02  3.6858859441e-03  1.8884067272e-01  8.2573740757e-01  3.6404626153e-02 -2.7804971672e-04 -2.0514708502e-03 -3.3827741341e-03]
 [-2.4537025485e-03 -4.6392788636e-04  3.9986424697e-02  3.6403814857e-02  7.5655545378e-01 -2.7886826770e-04 -5.7313971925e-04 -8.6598031884e-04]
 [ 1.9312454019e-02  4.9540940000e-02  1.1784958847e-03  1.2354495139e-03 -5.8725185021e-03  9.2557430077e-01 -1.5856945363e-01  1.1065956401e-01]
 [-2.3229125290e-03  4.7237556165e-03 -3.8087688060e-04 -9.2866763541e-04  3.3759451276e-03 -1.5856535126e-01  8.2739118273e-01 -3.7797145848e-02]
 [ 2.9708497355e-03 -9.2784783152e-03 -2.4124002000e-06  6.2821144363e-04 -2.0905713354e-03  1.1065561409e-01 -3.7797914282e-02  7.5694334177e-01]]
time for Gg: 0.021
C(NO)
[[ 1.0000000000e+00  0.0000000000e+00  3.8534514243e-17  1.2013871034e-16 -1.1281042863e-16  0.0000000000e+00  0.0000000000e+00  0.0000000000e+00]
 [ 0.0000000000e+00  1.0000000000e+00  0.0000000000e+00  0.0000000000e+00  0.0000000000e+00 -1.2568685857e-16  9.7144514655e-17  3.7470027081e-16]
 [ 2.9705178255e-16  0.0000000000e+00 -9.5751752652e-01  1.3195211845e-01 -2.5641533659e-01  0.0000000000e+00  0.0000000000e+00  0.0000000000e+00]
 [-5.0439020733e-18  0.0000000000e+00  2.2657930022e-01 -2.0579234917e-01 -9.5200384964e-01  0.0000000000e+00  0.0000000000e+00  0.0000000000e+00]
 [-1.0279555485e-17  0.0000000000e+00  1.7838723921e-01  9.6965877888e-01 -1.6715216249e-01  0.0000000000e+00  0.0000000000e+00  0.0000000000e+00]
 [ 0.0000000000e+00 -5.8357356759e-17  0.0000000000e+00  0.0000000000e+00  0.0000000000e+00 -9.5971290817e-01  1.2519330494e-01  2.5155073105e-01]
 [ 0.0000000000e+00  1.3569809204e-17  0.0000000000e+00  0.0000000000e+00  0.0000000000e+00 -2.7694275221e-01 -5.7271959731e-01 -7.7155361114e-01]
 [ 0.0000000000e+00  9.3229722508e-19  0.0000000000e+00  0.0000000000e+00  0.0000000000e+00  4.7474686878e-02 -8.1013511173e-01  5.8431776873e-01]]
detC 0.9999999999999997
detNg [ 1.0008929814  1.0237525651  1.1384609372  1.4889663308  2.4338084505  4.89939833    9.4619009517 11.9936114546]
xg [0.9991078153 0.9767985293 0.8783788423 0.6716068586 0.4108786785 0.2041066949 0.1056870078 0.0833777219]
ciS 1.0824855371541267
[[-7.6652890256e-01  0.0000000000e+00  5.4780564117e-02  4.7784086993e-03  4.3000069765e-03  0.0000000000e+00  0.0000000000e+00  0.0000000000e+00]
 [ 0.0000000000e+00 -7.6652890256e-01  0.0000000000e+00  0.0000000000e+00  0.0000000000e+00 -5.4727311126e-02  6.8524331850e-03 -4.4612888860e-04]
 [ 5.4780564117e-02  0.0000000000e+00 -7.1243594091e-01  6.8663358854e-02  1.3505586970e-01  0.0000000000e+00  0.0000000000e+00  0.0000000000e+00]
 [ 4.7784086993e-03  0.0000000000e+00  6.8663358854e-02  3.8963321883e-01 -4.6527491517e-02  0.0000000000e+00  0.0000000000e+00  0.0000000000e+00]
 [ 4.3000069765e-03  0.0000000000e+00  1.3505586970e-01 -4.6527491517e-02  3.1630123813e-01  0.0000000000e+00  0.0000000000e+00  0.0000000000e+00]
 [ 0.0000000000e+00 -5.4727311126e-02  0.0000000000e+00  0.0000000000e+00  0.0000000000e+00 -7.1497016234e-01 -1.3744479338e-01 -3.8825538507e-02]
 [ 0.0000000000e+00  6.8524331850e-03  0.0000000000e+00  0.0000000000e+00  0.0000000000e+00 -1.3744479338e-01  3.0609385978e-01 -3.2298040581e-02]
 [ 0.0000000000e+00 -4.4612888860e-04  0.0000000000e+00  0.0000000000e+00  0.0000000000e+00 -3.8825538507e-02 -3.2298040581e-02  4.0237481861e-01]]
ciH -1.3796559397301533
0.9999999999999998 9.486769009248164e-18 -0.028622676100253343j 1.8821749714348357e-16
0.5413164595163046 0.0004096287935700071 -0.00040962879357000706 0.45868354048369514
0.9999999999999999 7.074419175467916e-17 -0.1474679116978402j 1.5959455978986625e-16
0.5432252801945697 0.010873392490260998 -0.010873392490260998 0.45677471980543
0.9999999999999998 1.222980050563649e-16 -0.3542012798190193j 2.697495005143935e-16
0.5534544762542736 0.0627292733127156 -0.06272927331271562 0.4465455237457261
0.9999999999999999 2.7863995832877464e-16 -0.6549140189796117j -1.1275702593849246e-17
0.5914360730738477 0.21445618612801357 -0.21445618612801357 0.4085639269261522
0.9999999999999999 5.247538514829841e-16 -1.070497862038783j -5.117434254131581e-17
0.7442983876439323 0.5729828363148025 -0.5729828363148026 0.2557016123560672
0.9999999999999996 8.673617379884035e-17 -1.5243150661736624j 6.245004513516506e-17
1.489995706001463 1.1617682104820086 -1.1617682104820084 -0.48999570600146375
0.9999999999999999 4.978656376053436e-16 -1.362953140800343j -7.806255641895632e-17
4.192364835081248 0.9288206320087598 -0.92882063200876 -3.1923648350812477
0.9999999999999998 1.5265566588595902e-16 -0.34298297851082804j -5.048045315092509e-16
6.432636807125831 0.05881866177407956 -0.05881866177407955 -5.43263680712583
S2 = -0.000000
X(g)
[[ 2.0000000000e+00  8.6736173799e-18 -2.6447813260e-04  1.8087489857e-05  3.7585885408e-05  2.9555755042e-02  4.2062149358e-03  1.2941504034e-03]
 [-1.2143064332e-17  2.0000000000e+00  2.9516759898e-02 -2.0186322778e-03 -4.1947269675e-03  2.6482753962e-04  3.7688820704e-05  1.1595936789e-05]
 [-2.6447813260e-04 -2.9516759898e-02  0.0000000000e+00  0.0000000000e+00  0.0000000000e+00  0.0000000000e+00  0.0000000000e+00  0.0000000000e+00]
 [ 1.8087489857e-05  2.0186322778e-03  0.0000000000e+00  0.0000000000e+00  0.0000000000e+00  0.0000000000e+00  0.0000000000e+00  0.0000000000e+00]
 [ 3.7585885408e-05  4.1947269675e-03  0.0000000000e+00  0.0000000000e+00  0.0000000000e+00  0.0000000000e+00  0.0000000000e+00  0.0000000000e+00]
 [-2.9555755042e-02  2.6482753962e-04  0.0000000000e+00  0.0000000000e+00  0.0000000000e+00  0.0000000000e+00  0.0000000000e+00  0.0000000000e+00]
 [-4.2062149358e-03  3.7688820704e-05  0.0000000000e+00  0.0000000000e+00  0.0000000000e+00  0.0000000000e+00  0.0000000000e+00  0.0000000000e+00]
 [-1.2941504034e-03  1.1595936789e-05  0.0000000000e+00  0.0000000000e+00  0.0000000000e+00  0.0000000000e+00  0.0000000000e+00  0.0000000000e+00]]
X(g) int
[[ 2.0000000000e+00  1.4568526333e-16 -2.5103724853e-01  1.7168276416e-02  3.5675755737e-02  6.8740473607e-01  9.7827717940e-02  3.0099218078e-02]
 [-1.7030624319e-16  2.0000000000e+00  6.8649779098e-01 -4.6949143617e-02 -9.7560531945e-02  2.5136889854e-01  3.5773459819e-02  1.1006626661e-02]
 [-2.5103724853e-01 -6.8649779098e-01  0.0000000000e+00  0.0000000000e+00  0.0000000000e+00  0.0000000000e+00  0.0000000000e+00  0.0000000000e+00]
 [ 1.7168276416e-02  4.6949143617e-02  0.0000000000e+00  0.0000000000e+00  0.0000000000e+00  0.0000000000e+00  0.0000000000e+00  0.0000000000e+00]
 [ 3.5675755737e-02  9.7560531945e-02  0.0000000000e+00  0.0000000000e+00  0.0000000000e+00  0.0000000000e+00  0.0000000000e+00  0.0000000000e+00]
 [-6.8740473607e-01  2.5136889854e-01  0.0000000000e+00  0.0000000000e+00  0.0000000000e+00  0.0000000000e+00  0.0000000000e+00  0.0000000000e+00]
 [-9.7827717940e-02  3.5773459819e-02  0.0000000000e+00  0.0000000000e+00  0.0000000000e+00  0.0000000000e+00  0.0000000000e+00  0.0000000000e+00]
 [-3.0099218078e-02  1.1006626661e-02  0.0000000000e+00  0.0000000000e+00  0.0000000000e+00  0.0000000000e+00  0.0000000000e+00  0.0000000000e+00]]
Feff
 [[ 7.8312144734e-17  1.2630304292e-17 -2.2049948590e-04 -1.6104729009e-03  9.5263242509e-04  1.8018405983e-02  9.0150234820e-03  2.3609720061e-02]
 [ 6.8656879016e-18  1.2361696026e-16  1.7883818819e-02  1.1131366999e-02 -2.2795047206e-02  2.2186294156e-04 -3.9702858756e-04  1.8283590077e-03]
 [-2.2049948590e-04 -1.7883818819e-02  0.0000000000e+00  0.0000000000e+00  0.0000000000e+00  0.0000000000e+00  0.0000000000e+00  0.0000000000e+00]
 [-1.6104729009e-03 -1.1131366999e-02  0.0000000000e+00  0.0000000000e+00  0.0000000000e+00  0.0000000000e+00  0.0000000000e+00  0.0000000000e+00]
 [ 9.5263242509e-04  2.2795047206e-02  0.0000000000e+00  0.0000000000e+00  0.0000000000e+00  0.0000000000e+00  0.0000000000e+00  0.0000000000e+00]
 [-1.8018405983e-02  2.2186294156e-04  0.0000000000e+00  0.0000000000e+00  0.0000000000e+00  0.0000000000e+00  0.0000000000e+00  0.0000000000e+00]
 [-9.0150234820e-03 -3.9702858756e-04  0.0000000000e+00  0.0000000000e+00  0.0000000000e+00  0.0000000000e+00  0.0000000000e+00  0.0000000000e+00]
 [-2.3609720061e-02  1.8283590077e-03  0.0000000000e+00  0.0000000000e+00  0.0000000000e+00  0.0000000000e+00  0.0000000000e+00  0.0000000000e+00]]
Feff (ortho)
 [[ 2.0782198115e-04 -3.3940211585e-04 -1.2424501919e-04 -1.4494044116e-03 -1.5785983631e-16 -1.3010426070e-17  0.0000000000e+00  2.6888213878e-17]
 [-3.3940211585e-04 -6.1293293454e-04 -3.7669208596e-05 -1.0026209326e-03  9.6277152917e-17 -1.6653345369e-16 -2.3418766926e-17  4.9005938196e-17]
 [-1.2424501919e-04 -3.7669208596e-05  2.4693000123e-05  1.7198224060e-04  6.5052130349e-17 -3.3393426913e-17 -5.4210108624e-18  3.2526065175e-18]
 [-1.4494044116e-03 -1.0026209326e-03  1.7198224060e-04  3.8041795327e-04 -3.4694469520e-18  1.9949319974e-17  2.6020852140e-18 -6.9388939039e-18]
 [-1.5785983631e-16  9.6277152917e-17  6.5052130349e-17 -3.4694469520e-18  2.0782198116e-04  3.3940211585e-04 -1.2424501919e-04  1.4494044116e-03]
 [-1.3010426070e-17 -1.6653345369e-16 -3.3393426913e-17  1.9949319974e-17  3.3940211585e-04 -6.1293293454e-04  3.7669208596e-05 -1.0026209326e-03]
 [ 0.0000000000e+00 -2.3418766926e-17 -5.4210108624e-18  2.6020852140e-18 -1.2424501919e-04  3.7669208596e-05  2.4693000123e-05 -1.7198224060e-04]
 [ 2.6888213878e-17  4.9005938196e-17  3.2526065175e-18 -6.9388939039e-18  1.4494044116e-03 -1.0026209326e-03 -1.7198224060e-04  3.8041795327e-04]]
Hsp + Hph =  -1.274525979679408
Feff (mod,ortho)
[[-0.2310739402 -0.3313317711  0.223666772  -0.0384629739  0.            0.            0.            0.          ]
 [-0.3313317711  0.0028209801 -0.0731165878  0.3312843263  0.            0.            0.            0.          ]
 [ 0.223666772  -0.0731165878  1.1207941493 -0.0507734134  0.            0.            0.            0.          ]
 [-0.0384629739  0.3312843263 -0.0507734134  1.1161638314  0.            0.            0.            0.          ]
 [ 0.            0.            0.            0.           -0.2310739402  0.3313317711  0.223666772   0.0384629739]
 [ 0.            0.            0.            0.            0.3313317711  0.0028209801  0.0731165878  0.3312843263]
 [ 0.            0.            0.            0.            0.223666772   0.0731165878  1.1207941493  0.0507734134]
 [ 0.            0.            0.            0.            0.0384629739  0.3312843263  0.0507734134  1.1161638314]]
Alpha occ 1 vir 3; Beta occ 1 vir 3
Alpha energies:  [-0.4947223317] <- HOMO
         LUMO->  [0.1214844235 1.0988027767 1.283140152 ]
Beta energies:   [-0.4947223317] <- HOMO
         LUMO->  [0.1214844235 1.0988027767 1.283140152 ]
e_a, e_b
 [-0.4947223317  0.1214844235  1.0988027767  1.283140152 ] 
 [-0.4947223317  0.1214844235  1.0988027767  1.283140152 ]
v_a, v_b
 [[ 0.7974155857  0.5736013608 -0.0906731316  0.1639763574]
 [ 0.5878800685 -0.7560562714 -0.1003878331 -0.269626079 ]
 [-0.0870821898 -0.1702230952 -0.7905455423  0.5817890817]
 [-0.1046044975  0.2653007562 -0.5972758255 -0.7496232361]] 
 [[ 0.7974155857 -0.5736013608  0.0906731316  0.1639763574]
 [-0.5878800685 -0.7560562714 -0.1003878331  0.269626079 ]
 [-0.0870821898  0.1702230952  0.7905455423  0.5817890817]
 [ 0.1046044975  0.2653007562 -0.5972758255  0.7496232361]]
P_a, P_b
 [[ 0.6358716164  0.4687847292 -0.0694406954 -0.0834132566]
 [ 0.4687847292  0.345602975  -0.0511938837 -0.0614948992]
 [-0.0694406954 -0.0511938837  0.0075833078  0.0091091887]
 [-0.0834132566 -0.0614948992  0.0091091887  0.0109421009]] 
 [[ 0.6358716164 -0.4687847292 -0.0694406954  0.0834132566]
 [-0.4687847292  0.345602975   0.0511938837 -0.0614948992]
 [-0.0694406954  0.0511938837  0.0075833078 -0.0091091887]
 [ 0.0834132566 -0.0614948992 -0.0091091887  0.0109421009]]
time for xg, H, S2, Yg, Feff: 0.023
 E =     -1.00993737, delta E = -3.3704e-05, MaxD(dm) = 0.000850053, RMSD(dm) = 0.000393751
**** Start Cycle 4 ****
dm (ortho)
[[[ 0.6358716164  0.4687847292 -0.0694406954 -0.0834132566]
  [ 0.4687847292  0.345602975  -0.0511938837 -0.0614948992]
  [-0.0694406954 -0.0511938837  0.0075833078  0.0091091887]
  [-0.0834132566 -0.0614948992  0.0091091887  0.0109421009]]

 [[ 0.6358716164 -0.4687847292 -0.0694406954  0.0834132566]
  [-0.4687847292  0.345602975   0.0511938837 -0.0614948992]
  [-0.0694406954  0.0511938837  0.0075833078 -0.0091091887]
  [ 0.0834132566 -0.0614948992 -0.0091091887  0.0109421009]]]
Fock (ortho)
 (array([[-0.2362400512, -0.3289820046,  0.2172415354, -0.0275600898],
       [-0.3289820046,  0.0097338328, -0.0788642211,  0.3386483747],
       [ 0.2172415354, -0.0788642211,  1.1224638275, -0.0511749333],
       [-0.0275600898,  0.3386483747, -0.0511749333,  1.1134700019]]), array([[-0.2362400512,  0.3289820046,  0.2172415354,  0.0275600898],
       [ 0.3289820046,  0.0097338328,  0.0788642211,  0.3386483747],
       [ 0.2172415354,  0.0788642211,  1.1224638275,  0.0511749333],
       [ 0.0275600898,  0.3386483747,  0.0511749333,  1.1134700019]]))
E1 = -1.533019637462872  Ecoul = 0.27182678607236005
E(UHF) =    -1.261193
NO eigenvalue
[-1.0000000000e+00 -5.6593529190e-17 -1.6836870738e-18  1.2069649524e-18] 
 [-1.0000000000e+00 -3.0773369117e-18 -2.3080658289e-19  5.6557628249e-17]
NO vec
[[ 0.7974155857  0.            0.597738676  -0.0190523239 -0.080460349   0.            0.            0.          ]
 [ 0.5878800685  0.           -0.7663757063  0.248131957   0.0741338908  0.            0.            0.          ]
 [-0.0870821898  0.            0.0179742401  0.5163139449 -0.8517708196  0.            0.            0.          ]
 [-0.1046044975  0.            0.2346352034  0.8194433788  0.5123639032  0.            0.            0.          ]
 [ 0.            0.7974155857  0.            0.            0.            0.0788647248  0.0133649666  0.5981054393]
 [ 0.           -0.5878800685  0.            0.            0.           -0.1215394339  0.0020377578  0.799763114 ]
 [ 0.           -0.0870821898  0.            0.            0.            0.578011054   0.8110772635  0.0217620359]
 [ 0.            0.1046044975  0.            0.            0.           -0.8030639717  0.5847827783 -0.0466396692]]
dm(NO)
[[ 1.0000000000e+00  0.0000000000e+00  1.1229045541e-16  1.5792882020e-17  4.1721813461e-17  0.0000000000e+00  0.0000000000e+00  0.0000000000e+00]
 [ 0.0000000000e+00  1.0000000000e+00  0.0000000000e+00  0.0000000000e+00  0.0000000000e+00 -3.9010977393e-17 -1.0501963540e-17  1.7941059904e-16]
 [ 1.9514008298e-16  0.0000000000e+00 -5.0812133500e-17  3.9731970733e-18  9.2480240277e-18  0.0000000000e+00  0.0000000000e+00  0.0000000000e+00]
 [-9.2366377083e-19  0.0000000000e+00  5.4798324291e-18  1.1171381759e-18  4.7505505057e-19  0.0000000000e+00  0.0000000000e+00  0.0000000000e+00]
 [ 2.0987247863e-17  0.0000000000e+00  9.6137445393e-18 -3.2236639204e-19 -1.7696022061e-18  0.0000000000e+00  0.0000000000e+00  0.0000000000e+00]
 [ 0.0000000000e+00 -2.8492594766e-17  0.0000000000e+00  0.0000000000e+00  0.0000000000e+00  2.7141960003e-18  1.4191764418e-18  1.4134007880e-19]
 [ 0.0000000000e+00 -2.0880159959e-17  0.0000000000e+00  0.0000000000e+00  0.0000000000e+00  1.4370220145e-18 -9.9700365260e-20  1.5644332410e-18]
 [ 0.0000000000e+00  1.9260273885e-16  0.0000000000e+00  0.0000000000e+00  0.0000000000e+00  6.7126037598e-18 -1.2874072564e-18  2.6977266867e-18]]
D(g) (NO)
 [[ 9.9951368521e-01  8.9467722981e-03  2.8396884114e-16 -1.4689803115e-18 -8.5542742338e-19  7.8291658019e-04 -3.7402992210e-03  2.9626770724e-02]
 [-8.9467722981e-03  9.9951368521e-01 -2.9629102408e-02  3.7516135840e-03 -6.2452076230e-04 -6.8095446806e-17 -1.6812870843e-17  2.3748840502e-16]
 [ 3.3588564250e-16  2.9629102408e-02  9.9951368521e-01  4.4077244656e-17  3.2672160348e-17 -1.1772414093e-03  4.9336900113e-03 -8.2935017186e-03]
 [-2.9657265781e-18 -3.7516135840e-03  4.6456095481e-17  9.9951368521e-01  8.5669132866e-17 -1.2201701911e-02  2.8009323709e-02  4.9914653285e-03]
 [ 8.4894614341e-18  6.2452076230e-04  2.6663557688e-17  5.9489996607e-17  9.9951368521e-01 -2.8662042661e-02 -1.2228643618e-02 -9.7500477194e-04]
 [-7.8291658019e-04 -6.5668579310e-17  1.1772414093e-03  1.2201701911e-02  2.8662042661e-02  9.9951368521e-01 -1.9401774209e-16  7.0600961027e-17]
 [ 3.7402992210e-03 -2.7755575616e-17 -4.9336900113e-03 -2.8009323709e-02  1.2228643618e-02 -2.2204460493e-16  9.9951368521e-01  7.2858385991e-17]
 [-2.9626770724e-02  1.6653345369e-16  8.2935017186e-03 -4.9914653285e-03  9.7500477194e-04  6.9388939039e-17  6.9388939039e-17  9.9951368521e-01]]
N(g) (NO)
 [[ 1.0004063962 -0.0089547631]
 [ 0.0089547631  1.0004063962]]
P(g) (NO)
 [[ 1.0000000000e+00 -4.0546852978e-18  1.1229045541e-16  1.5792882020e-17  4.1721813461e-17  1.1213759222e-34  2.4074124305e-35 -5.7777898332e-34]
 [ 4.8623893005e-18  1.0000000000e+00  3.5131349915e-34  1.0009627357e-34  1.4537360847e-34 -3.9010977393e-17 -1.0501963540e-17  1.7941059904e-16]
 [ 2.6532159193e-04  2.9641143563e-02  2.9793082387e-20  4.1901925987e-21  1.1069697966e-20 -1.1563299814e-18 -3.1129020899e-19  5.3179353228e-18]
 [-3.3594810760e-05 -3.7531382255e-03 -3.7723765996e-21 -5.3055888282e-22 -1.4016364278e-21  1.4641359047e-19  3.9415320805e-20 -6.7335277731e-19]
 [ 5.5924354563e-06  6.2477456517e-04  6.2797712422e-22  8.8320673365e-23  2.3332654890e-22 -2.4373066438e-20 -6.5613597041e-21  1.1209117900e-19]
 [-7.8323475451e-04  7.0108324760e-06 -8.7949787275e-20 -1.2369534072e-20 -3.2677974324e-20 -2.7349942723e-22 -7.3627507049e-23  1.2578176543e-21]
 [ 3.7418192643e-03 -3.3493493320e-05  4.2017058924e-19  5.9094110182e-20  1.5611548535e-19  1.3066139107e-21  3.5174744567e-22 -6.0090877004e-21]
 [-2.9638810931e-02  2.6530071225e-04 -3.3281555772e-18 -4.6808224425e-19 -1.2365849409e-18 -1.0349640088e-20 -2.7861784072e-21  4.7597759710e-20]]
time for NO, Ng: 0.014
Pg_ortho
 [[ 6.3599823245e-01  4.6887807458e-01 -6.9454522530e-02 -8.3429866069e-02  1.4145270817e-02 -1.0428342418e-02 -1.5447417626e-03  1.8555681282e-03]
 [ 4.6861626925e-01  3.4547878097e-01 -5.1175486928e-02 -6.1472800689e-02 -1.8819971816e-02  1.3874680304e-02  2.0552449517e-03 -2.4687925971e-03]
 [-6.9454522530e-02 -5.1204077517e-02  7.5848177774e-03  9.1110025421e-03 -1.5447417626e-03  1.1388326358e-03  1.6869433920e-04 -2.0263829645e-04]
 [-8.3383281713e-02 -6.1472800689e-02  9.1059152729e-03  1.0938168804e-02  3.3487335262e-03 -2.4687925971e-03 -3.6570021153e-04  4.3928485228e-04]
 [-1.4145270817e-02 -1.0428342418e-02  1.5447417626e-03  1.8555681282e-03  6.3599823245e-01 -4.6887807458e-01 -6.9454522530e-02  8.3429866069e-02]
 [-1.8819971816e-02 -1.3874680304e-02  2.0552449517e-03  2.4687925971e-03 -4.6861626925e-01  3.4547878097e-01  5.1175486928e-02 -6.1472800689e-02]
 [ 1.5447417626e-03  1.1388326358e-03 -1.6869433920e-04 -2.0263829645e-04 -6.9454522530e-02  5.1204077517e-02  7.5848177774e-03 -9.1110025421e-03]
 [ 3.3487335262e-03  2.4687925971e-03 -3.6570021153e-04 -4.3928485228e-04  8.3383281713e-02 -6.1472800689e-02 -9.1059152729e-03  1.0938168804e-02]]
G(g) (NO)
 [[ 2.7183994384e-01 -1.4699564463e-03  5.0237552453e-02  5.4402112954e-03  1.8714975509e-03 -4.7104957138e-04 -1.3677033898e-04  3.9677343865e-04]
 [ 1.4699564463e-03  2.7183994384e-01 -3.3302215931e-04  5.1932629709e-04 -1.3198266740e-04  1.2889993078e-02 -7.8697765458e-03  4.8257898566e-02]
 [ 5.0170542879e-02 -1.8777022728e-02  8.8065348191e-01 -7.3127793032e-02 -1.8460164188e-01 -5.0654408895e-03 -1.6753451525e-03  1.7467955679e-03]
 [ 5.4556522584e-03  3.2368279889e-03 -7.3124902153e-02  7.4996492523e-01  3.2661770857e-02  1.4858305019e-03  3.3500469343e-04 -1.3582383190e-04]
 [ 1.8718127592e-03  5.0094997984e-03 -1.8459667907e-01  3.2661069256e-02  8.7999473604e-01  4.3150852866e-03  1.1154053286e-03 -1.0072416302e-03]
 [ 7.2353737483e-05  1.2894940314e-02 -2.6335446739e-04 -3.1383756412e-04  3.6068640483e-05  7.3117400287e-01  1.1245718287e-02 -3.4110718714e-02]
 [ 3.0426323741e-03 -7.8634563554e-03 -3.2059183625e-04  3.8135211112e-03 -1.1437691188e-03  1.1245906143e-02  8.4106506880e-01  1.8471187543e-01]
 [ 1.9464991122e-02  4.8189602258e-02 -1.1472625887e-03  5.7519946541e-03 -2.0515913782e-03 -3.4113202604e-02  1.8471709788e-01  9.3837407152e-01]]
time for Gg: 0.022
C(NO)
[[ 1.0000000000e+00  0.0000000000e+00 -1.2133863223e-16  2.2475833816e-17 -1.1879737440e-17  0.0000000000e+00  0.0000000000e+00  0.0000000000e+00]
 [ 0.0000000000e+00  1.0000000000e+00  0.0000000000e+00  0.0000000000e+00  0.0000000000e+00 -1.6003925560e-16 -8.3266726847e-17  1.1102230246e-16]
 [ 2.2005654030e-16  0.0000000000e+00  9.8147614307e-01 -1.3161543132e-01  1.3921910366e-01  0.0000000000e+00  0.0000000000e+00  0.0000000000e+00]
 [-2.3334754928e-17  0.0000000000e+00 -6.9019770812e-02 -9.2078530375e-01 -3.8391495885e-01  0.0000000000e+00  0.0000000000e+00  0.0000000000e+00]
 [ 6.8557603168e-18  0.0000000000e+00  1.7872003755e-01  3.6719450245e-01 -9.1281287543e-01  0.0000000000e+00  0.0000000000e+00  0.0000000000e+00]
 [ 0.0000000000e+00 -5.0155728788e-17  0.0000000000e+00  0.0000000000e+00  0.0000000000e+00 -6.8008910569e-02  9.5594675075e-01 -2.8555314359e-01]
 [ 0.0000000000e+00 -2.3203153941e-17  0.0000000000e+00  0.0000000000e+00  0.0000000000e+00  2.8400057293e-01  2.9292417581e-01  9.1298362625e-01]
 [ 0.0000000000e+00  2.0044738706e-16  0.0000000000e+00  0.0000000000e+00  0.0000000000e+00 -9.5640915024e-01  1.9006234592e-02  2.9141087898e-01]]
detC 0.9999999999999997
detNg [ 1.0008931453  1.0237570249  1.1384898484  1.4890998711  2.4344486294  4.9029047234  9.4766081671 12.0178427422]
xg [0.9991076517 0.9767942741 0.8783565364 0.6715466299 0.4107706311 0.2039607246 0.105522987  0.0832096094]
ciS 1.0823172610257314
[[-0.7665098187  0.           -0.0535928589  0.0025221306  0.0129797806  0.            0.            0.          ]
 [ 0.           -0.7665098187  0.            0.            0.           -0.0067200539 -0.0069659965 -0.0543446975]
 [-0.0535928589  0.           -0.7194001987  0.1294127104 -0.0105285017  0.            0.            0.          ]
 [ 0.0025221306  0.            0.1294127104  0.3713617606  0.0440828677  0.            0.            0.          ]
 [ 0.0129797806  0.           -0.0105285017  0.0440828677  0.3415178704  0.            0.            0.          ]
 [ 0.           -0.0067200539  0.            0.            0.            0.3781316141 -0.0404476658 -0.044791649 ]
 [ 0.           -0.0069659965  0.            0.            0.           -0.0404476658  0.3328423134  0.1300649268]
 [ 0.           -0.0543446975  0.            0.            0.           -0.044791649   0.1300649268 -0.7174944953]]
ciH -1.3794479334848084
0.9999999999999999 -5.177065373618284e-18 -0.028627930311668964j -1.2663481374630692e-16
0.5412321846232967 0.00040977919696488725 -0.00040977919696488736 0.45876781537670286
0.9999999999999998 -1.3064636178450328e-17 -0.14749560049040686j -2.1120258320017626e-16
0.5431374735120441 0.010877476082012852 -0.010877476082012854 0.4568625264879555
0.9999999999999998 -8.630249292984615e-17 -0.35427523845301506j -2.931682674400804e-16
0.5533481349190376 0.06275547229047035 -0.06275547229047035 0.44665186508096216
1.0 -1.730386667286865e-16 -0.655092880824354j -4.0766001685454967e-17
0.5912659056940645 0.21457334125337565 -0.21457334125337565 0.40873409430593577
1.0 -4.935288289154016e-16 -1.0709758269463274j -2.6020852139652106e-18
0.743928275401952 0.5734946109516853 -0.5734946109516852 0.25607172459804783
1.0000000000000002 1.3877787807814457e-16 -1.5256857515793105j -2.45029690981724e-16
1.4893906993900032 1.1638585062860631 -1.163858506286063 -0.48939069939000285
1.0000000000000007 -2.949029909160572e-16 -1.3653220228741507j 5.204170427930421e-17
4.196296184553251 0.9320521130725816 -0.9320521130725816 -3.196296184553249
1.0000000000000009 -5.963111948670274e-17 -0.3437389556750389j -6.245004513516506e-17
6.444481085266122 0.059078234824283184 -0.0590782348242832 -5.44448108526612
S2 = 0.000000
X(g)
[[ 2.0000000000e+00 -8.6736173799e-18  2.6532159193e-04 -3.3594810760e-05  5.5924354563e-06  7.8323475451e-04 -3.7418192643e-03  2.9638810931e-02]
 [ 1.0408340856e-17  2.0000000000e+00 -2.9641143563e-02  3.7531382255e-03 -6.2477456517e-04  7.0108324760e-06 -3.3493493320e-05  2.6530071225e-04]
 [ 2.6532159193e-04  2.9641143563e-02  0.0000000000e+00  0.0000000000e+00  0.0000000000e+00  0.0000000000e+00  0.0000000000e+00  0.0000000000e+00]
 [-3.3594810760e-05 -3.7531382255e-03  0.0000000000e+00  0.0000000000e+00  0.0000000000e+00  0.0000000000e+00  0.0000000000e+00  0.0000000000e+00]
 [ 5.5924354563e-06  6.2477456517e-04  0.0000000000e+00  0.0000000000e+00  0.0000000000e+00  0.0000000000e+00  0.0000000000e+00  0.0000000000e+00]
 [-7.8323475451e-04  7.0108324760e-06  0.0000000000e+00  0.0000000000e+00  0.0000000000e+00  0.0000000000e+00  0.0000000000e+00  0.0000000000e+00]
 [ 3.7418192643e-03 -3.3493493320e-05  0.0000000000e+00  0.0000000000e+00  0.0000000000e+00  0.0000000000e+00  0.0000000000e+00  0.0000000000e+00]
 [-2.9638810931e-02  2.6530071225e-04  0.0000000000e+00  0.0000000000e+00  0.0000000000e+00  0.0000000000e+00  0.0000000000e+00  0.0000000000e+00]]
X(g) int
[[ 2.0000000000e+00 -1.8818185060e-16  2.5187695682e-01 -3.1892461664e-02  5.3090500991e-03  1.8219223288e-02 -8.7040367256e-02  6.8944350495e-01]
 [ 2.5488269342e-16  2.0000000000e+00 -6.8949776549e-01  8.7303663388e-02 -1.4533199966e-02  6.6555727184e-03 -3.1796278280e-02  2.5185713517e-01]
 [ 2.5187695682e-01  6.8949776549e-01  0.0000000000e+00  0.0000000000e+00  0.0000000000e+00  0.0000000000e+00  0.0000000000e+00  0.0000000000e+00]
 [-3.1892461664e-02 -8.7303663388e-02  0.0000000000e+00  0.0000000000e+00  0.0000000000e+00  0.0000000000e+00  0.0000000000e+00  0.0000000000e+00]
 [ 5.3090500991e-03  1.4533199966e-02  0.0000000000e+00  0.0000000000e+00  0.0000000000e+00  0.0000000000e+00  0.0000000000e+00  0.0000000000e+00]
 [-1.8219223288e-02  6.6555727184e-03  0.0000000000e+00  0.0000000000e+00  0.0000000000e+00  0.0000000000e+00  0.0000000000e+00  0.0000000000e+00]
[...]
 [-3.7768974531e-17  0.0000000000e+00  2.1095514984e-19  3.2955060549e-20  2.3510144922e-18  0.0000000000e+00  0.0000000000e+00  0.0000000000e+00]
 [-1.9935345487e-16  0.0000000000e+00 -7.6349248220e-18  7.6878205472e-18 -7.1572582642e-18  0.0000000000e+00  0.0000000000e+00  0.0000000000e+00]
 [ 0.0000000000e+00 -3.0598693103e-17  0.0000000000e+00  0.0000000000e+00  0.0000000000e+00  7.0016262261e-18  4.6069833340e-18 -8.3384788660e-18]
 [ 0.0000000000e+00  3.2169097130e-18  0.0000000000e+00  0.0000000000e+00  0.0000000000e+00  2.3954854391e-18  5.5323178650e-19  2.1381966002e-19]
 [ 0.0000000000e+00  4.4783486195e-18  0.0000000000e+00  0.0000000000e+00  0.0000000000e+00 -7.7735685986e-18 -1.5604809237e-19 -3.3158806504e-18]]
D(g) (NO)
 [[ 9.9951368521e-01 -8.9589007532e-03 -1.0663474577e-18 -2.6943852098e-17 -1.0183693853e-16  2.9383564653e-02  4.0908188416e-03  3.4644626627e-03]
 [ 8.9589007532e-03  9.9951368521e-01  2.2371150879e-03  3.1749937375e-03 -2.9614960795e-02 -7.9261195180e-17 -3.6538800870e-18 -2.8334647402e-17]
 [-2.3690740576e-19 -2.2371150879e-03  9.9951368521e-01 -8.8148408902e-17  2.3173372180e-17 -3.8264333195e-03 -3.3965366575e-03  3.0679151514e-02]
 [-2.3454585231e-17 -3.1749937375e-03 -1.2009132479e-16  9.9951368521e-01 -1.1906402841e-17 -5.4939937469e-03  3.0432122665e-02  2.4524339611e-03]
 [-8.4202991009e-17  2.9614960795e-02  1.9809728156e-17  1.2740798765e-17  9.9951368521e-01  8.0108453862e-03  4.2435509656e-03  3.6284712009e-03]
 [-2.9383564653e-02 -2.4037578603e-17  3.8264333195e-03  5.4939937469e-03 -8.0108453862e-03  9.9951368521e-01 -9.5552162864e-18 -4.5127979178e-18]
 [-4.0908188416e-03  1.3877787808e-17  3.3965366575e-03 -3.0432122665e-02 -4.2435509656e-03  0.0000000000e+00  9.9951368521e-01 -5.5511151231e-17]
 [-3.4644626627e-03 -4.1633363423e-17 -3.0679151514e-02 -2.4524339611e-03 -3.6284712009e-03  0.0000000000e+00 -5.5511151231e-17  9.9951368521e-01]]
N(g) (NO)
 [[ 1.0004061787  0.0089669004]
 [-0.0089669004  1.0004061787]]
P(g) (NO)
 [[ 1.0000000000e+00  9.1724460294e-18 -1.4606590228e-17 -2.3266298452e-17 -2.9809066474e-16  5.6667284396e-34 -3.7615819226e-36  6.0185310762e-35]
 [ 1.4136193482e-18  1.0000000000e+00 -1.6900390747e-35 -4.7359171295e-35 -4.4153208292e-34  6.3037138166e-17 -4.1795884128e-19  7.5929881812e-18]
 [ 2.0059988187e-05 -2.2380237565e-03 -2.9300802742e-22 -4.6672167210e-22 -5.9796952132e-21 -1.4107861276e-19  9.3540181603e-22 -1.6993287932e-20]
 [ 2.8469852629e-05 -3.1762833525e-03 -4.1584747120e-22 -6.6238808816e-22 -8.4865972953e-21 -2.0022381255e-19  1.3275557096e-21 -2.4117481956e-20]
 [-2.6555440393e-04  2.9626989763e-02  3.8788443614e-21  6.1784680172e-21  7.9159288793e-20  1.8676006471e-18 -1.2382862312e-20  2.2495738311e-19]
 [-2.9395499632e-02 -2.6347949777e-04  4.2936801767e-19  6.8392446760e-19  8.7625240258e-18 -1.6608993505e-20  1.1012358559e-22 -2.0005967126e-21]
 [-4.0924804453e-03 -3.6681965125e-05  5.9777184879e-20  9.5216871450e-20  1.2199302164e-18 -2.3123261038e-21  1.5331551640e-23 -2.7852572766e-22]
 [-3.4658698538e-03 -3.1065491651e-05  5.0624540737e-20  8.0637962415e-20  1.0331434486e-18 -1.9582796894e-21  1.2984096894e-23 -2.3587991095e-22]]
time for NO, Ng: 0.013
Pg_ortho
 [[ 6.3623144058e-01  4.6896203824e-01 -6.9290290093e-02 -8.2711832561e-02  1.4142734155e-02 -1.0424516949e-02 -1.5402479189e-03  1.8385942360e-03]
 [ 4.6869983116e-01  3.4547558345e-01 -5.1044863859e-02 -6.0932263770e-02 -1.8829023813e-02  1.3878750439e-02  2.0506193799e-03 -2.4478247467e-03]
 [-6.9290290093e-02 -5.1073420142e-02  7.5462229543e-03  9.0079277866e-03 -1.5402479189e-03  1.1353066783e-03  1.6774434319e-04 -2.0023645461e-04]
 [-8.2665586540e-02 -6.0932263770e-02  9.0028912542e-03  1.0746753015e-02  3.3209149950e-03 -2.4478247467e-03 -3.6167210342e-04  4.3172805916e-04]
 [-1.4142734155e-02 -1.0424516949e-02  1.5402479189e-03  1.8385942360e-03  6.3623144058e-01 -4.6896203824e-01 -6.9290290093e-02  8.2711832561e-02]
 [-1.8829023813e-02 -1.3878750439e-02  2.0506193799e-03  2.4478247467e-03 -4.6869983116e-01  3.4547558345e-01  5.1044863859e-02 -6.0932263770e-02]
 [ 1.5402479189e-03  1.1353066783e-03 -1.6774434319e-04 -2.0023645461e-04 -6.9290290093e-02  5.1073420142e-02  7.5462229543e-03 -9.0079277866e-03]
 [ 3.3209149950e-03  2.4478247467e-03 -3.6167210342e-04 -4.3172805916e-04  8.2665586540e-02 -6.0932263770e-02 -9.0028912542e-03  1.0746753015e-02]]
G(g) (NO)
 [[ 2.7192295173e-01  1.4700361256e-03  9.4014574196e-03 -5.0761012687e-03 -4.9448543097e-02  3.3034274187e-04  9.9329679369e-05  5.2837520185e-04]
 [-1.4700361256e-03  2.7192295173e-01 -4.9742609969e-05  5.2195042452e-04 -3.5109328295e-04 -4.9335706182e-02 -9.6348855374e-03  5.6982186931e-03]
 [ 9.4007565871e-03 -3.8504313147e-03  8.4068082356e-01  2.8291974618e-02  1.9385549428e-01 -2.4100299147e-04 -6.1693739830e-04 -4.1191859676e-03]
 [-5.0890018820e-03  6.1028142046e-04  2.8291313171e-02  7.4733340411e-01  1.3076417570e-02 -2.4615845440e-04 -1.3404946064e-04 -5.2219992553e-04]
 [-4.9380887478e-02 -1.9328089280e-02  1.9386125403e-01  1.3075858055e-02  9.2318123410e-01 -1.0682976325e-03 -1.3079995764e-03 -5.8521177736e-03]
 [ 1.9385768838e-02 -4.9268691092e-02  2.9143921620e-04 -6.0715117849e-03  1.3298325733e-03  9.3475162439e-01 -1.8734506360e-01  4.3598384194e-02]
 [-2.8340555882e-03 -9.6283470421e-03 -4.5118444770e-04  3.8962498545e-03 -4.0569504012e-04 -1.8733966881e-01  8.3433255062e-01 -3.4378301300e-03]
 [ 2.2211248100e-03  5.7127247436e-03  1.1994060355e-04 -7.5130100878e-04 -1.1244463984e-04  4.3596388395e-02 -3.4387457560e-03  7.4211128676e-01]]
time for Gg: 0.021
C(NO)
[[ 1.0000000000e+00  0.0000000000e+00 -1.2629554560e-16  1.1800086704e-16 -1.1042962425e-16  0.0000000000e+00  0.0000000000e+00  0.0000000000e+00]
 [ 0.0000000000e+00 -1.0000000000e+00  0.0000000000e+00  0.0000000000e+00  0.0000000000e+00 -1.5596244761e-16 -9.0205620751e-17  0.0000000000e+00]
 [-7.2880241998e-19  0.0000000000e+00  2.4153678446e-01 -4.8597717159e-02 -9.6917400070e-01  0.0000000000e+00  0.0000000000e+00  0.0000000000e+00]
 [-2.3266298452e-17  0.0000000000e+00  1.1798386259e-01  9.9280638062e-01 -2.0378880241e-02  0.0000000000e+00  0.0000000000e+00  0.0000000000e+00]
 [-2.0788504399e-16  0.0000000000e+00 -9.6319249889e-01  1.0942464292e-01 -2.4553300715e-01  0.0000000000e+00  0.0000000000e+00  0.0000000000e+00]
 [ 0.0000000000e+00 -9.4284363115e-18  0.0000000000e+00  0.0000000000e+00  0.0000000000e+00 -9.5035310525e-01  1.4920266693e-01  2.7307057610e-01]
 [ 0.0000000000e+00 -8.6793539561e-18  0.0000000000e+00  0.0000000000e+00  0.0000000000e+00 -2.9981627200e-01 -2.0412548866e-01 -9.3190288546e-01]
 [ 0.0000000000e+00  2.6120148103e-18  0.0000000000e+00  0.0000000000e+00  0.0000000000e+00 -8.3301731042e-02 -9.6750780310e-01  2.3872467937e-01]]
detC -0.9999999999999998
detNg [ 1.0008929278  1.0237511059  1.1384514782  1.4889226435  2.4335990661  4.8982521761  9.4570988642 11.9857045199]
xg [0.9991078688 0.9767999216 0.8783861404 0.6716265646 0.4109140301 0.2041544543 0.1057406732 0.0834327259]
ciS 1.0825405947341329
[[-0.766530541   0.            0.0077673447  0.0030640348  0.0545816618  0.            0.            0.          ]
 [ 0.           -0.766530541   0.            0.            0.            0.0548570243 -0.0062342457  0.0008478339]
 [ 0.0077673447  0.            0.3750432095 -0.0524746795  0.0774639173  0.            0.            0.          ]
 [ 0.0030640348  0.           -0.0524746795  0.3379757774  0.0988633052  0.            0.            0.          ]
 [ 0.0545816618  0.            0.0774639173  0.0988633052 -0.7195188324  0.            0.            0.          ]
 [ 0.            0.0548570243  0.            0.            0.           -0.704444579  -0.1381137123 -0.1088653169]
 [ 0.           -0.0062342457  0.            0.            0.           -0.1381137123  0.3374537092 -0.0621439205]
 [ 0.            0.0008478339  0.            0.            0.           -0.1088653169 -0.0621439205  0.3604910242]]
ciH -1.3797342556400793
0.9999999999999999 5.963111948670274e-19 -0.028620956996627287j 6.5052130349130266e-18
0.5413440330627801 0.00040957958970139403 -0.00040957958970139414 0.4586559669372195
0.9999999999999998 1.0245710529988017e-17 -0.14745885236712847j 3.382710778154774e-17
0.5432540089722798 0.010872056570715294 -0.010872056570715292 0.45674599102771973
0.9999999999999999 -1.431146867680866e-17 -0.3541770824108055j 9.324138683375338e-17
0.5534892672817613 0.06272070285251526 -0.06272070285251526 0.4465107327182384
0.9999999999999998 3.7947076036992655e-17 -0.6548555048672363j -1.0321604682062002e-16
0.5914917358733454 0.21441786612746153 -0.2144178661274615 0.40850826412665453
0.9999999999999999 -1.8995222061946038e-16 -1.0703415332244275j 2.5457067009959644e-16
0.7444193913200179 0.5728154988726091 -0.5728154988726091 0.25558060867998195
0.9999999999999999 -5.065392549852277e-16 -1.5238670227759528j 1.6306400674181987e-16
1.4901930603702325 1.161085351552023 -1.161085351552023 -0.490193060370233
1.0 -3.2873009869760494e-16 -1.362179671548396j 2.5673907444456745e-16
4.191079985671809 0.9277667287898481 -0.9277667287898479 -3.1910799856718084
1.0000000000000002 -6.938893903907228e-17 -0.34273629487873974j -8.673617379884035e-17
6.428771765718314 0.05873408391360322 -0.05873408391360322 -5.428771765718314
S2 = 0.000000
X(g)
[[ 2.0000000000e+00  1.2143064332e-17  2.0059988187e-05  2.8469852629e-05 -2.6555440393e-04  2.9395499632e-02  4.0924804453e-03  3.4658698538e-03]
 [-1.7347234760e-18  2.0000000000e+00  2.2380237565e-03  3.1762833525e-03 -2.9626989763e-02 -2.6347949777e-04 -3.6681965125e-05 -3.1065491651e-05]
 [ 2.0059988187e-05 -2.2380237565e-03  0.0000000000e+00  0.0000000000e+00  0.0000000000e+00  0.0000000000e+00  0.0000000000e+00  0.0000000000e+00]
 [ 2.8469852629e-05 -3.1762833525e-03  0.0000000000e+00  0.0000000000e+00  0.0000000000e+00  0.0000000000e+00  0.0000000000e+00  0.0000000000e+00]
 [-2.6555440393e-04  2.9626989763e-02  0.0000000000e+00  0.0000000000e+00  0.0000000000e+00  0.0000000000e+00  0.0000000000e+00  0.0000000000e+00]
 [-2.9395499632e-02 -2.6347949777e-04  0.0000000000e+00  0.0000000000e+00  0.0000000000e+00  0.0000000000e+00  0.0000000000e+00  0.0000000000e+00]
 [-4.0924804453e-03 -3.6681965125e-05  0.0000000000e+00  0.0000000000e+00  0.0000000000e+00  0.0000000000e+00  0.0000000000e+00  0.0000000000e+00]
 [-3.4658698538e-03 -3.1065491651e-05  0.0000000000e+00  0.0000000000e+00  0.0000000000e+00  0.0000000000e+00  0.0000000000e+00  0.0000000000e+00]]
X(g) int
[[ 2.0000000000e+00  2.4261865595e-16  1.9039564221e-02  2.7021630445e-02 -2.5204601722e-01  6.8364279716e-01  9.5177656917e-02  8.0604752124e-02]
 [-1.1671526442e-16  2.0000000000e+00  5.2049083708e-02  7.3869921003e-02 -6.8902649746e-01 -2.5007665867e-01 -3.4816004091e-02 -2.9485232885e-02]
 [ 1.9039564221e-02 -5.2049083708e-02  0.0000000000e+00  0.0000000000e+00  0.0000000000e+00  0.0000000000e+00  0.0000000000e+00  0.0000000000e+00]
 [ 2.7021630445e-02 -7.3869921003e-02  0.0000000000e+00  0.0000000000e+00  0.0000000000e+00  0.0000000000e+00  0.0000000000e+00  0.0000000000e+00]
 [-2.5204601722e-01  6.8902649746e-01  0.0000000000e+00  0.0000000000e+00  0.0000000000e+00  0.0000000000e+00  0.0000000000e+00  0.0000000000e+00]
 [-6.8364279716e-01 -2.5007665867e-01  0.0000000000e+00  0.0000000000e+00  0.0000000000e+00  0.0000000000e+00  0.0000000000e+00  0.0000000000e+00]
 [-9.5177656917e-02 -3.4816004091e-02  0.0000000000e+00  0.0000000000e+00  0.0000000000e+00  0.0000000000e+00  0.0000000000e+00  0.0000000000e+00]
 [-8.0604752124e-02 -2.9485232885e-02  0.0000000000e+00  0.0000000000e+00  0.0000000000e+00  0.0000000000e+00  0.0000000000e+00  0.0000000000e+00]]
Feff
 [[ 2.3898404940e-17  1.1461273091e-17  1.9929413333e-10 -9.2153307846e-12  2.8685379162e-10  1.7665859319e-02 -1.9957061990e-03  2.7303478740e-02]
 [-4.7705757105e-18  7.8047667567e-16 -9.4708179381e-03  2.5114543051e-02 -1.8469128700e-02  2.9166344641e-10 -1.7928945429e-10  6.9829021620e-11]
 [ 1.9929405395e-10  9.4708179381e-03  0.0000000000e+00  0.0000000000e+00  0.0000000000e+00  0.0000000000e+00  0.0000000000e+00  0.0000000000e+00]
 [-9.2153812897e-12 -2.5114543051e-02  0.0000000000e+00  0.0000000000e+00  0.0000000000e+00  0.0000000000e+00  0.0000000000e+00  0.0000000000e+00]
 [ 2.8685363870e-10  1.8469128700e-02  0.0000000000e+00  0.0000000000e+00  0.0000000000e+00  0.0000000000e+00  0.0000000000e+00  0.0000000000e+00]
 [-1.7665859319e-02  2.9166313606e-10  0.0000000000e+00  0.0000000000e+00  0.0000000000e+00  0.0000000000e+00  0.0000000000e+00  0.0000000000e+00]
 [ 1.9957061990e-03 -1.7928934726e-10  0.0000000000e+00  0.0000000000e+00  0.0000000000e+00  0.0000000000e+00  0.0000000000e+00  0.0000000000e+00]
 [-2.7303478740e-02  6.9828976576e-11  0.0000000000e+00  0.0000000000e+00  0.0000000000e+00  0.0000000000e+00  0.0000000000e+00  0.0000000000e+00]]
Feff (ortho)
 [[-2.8064921209e-10  9.0435310508e-11 -8.3797906038e-11  1.2104458011e-10  1.3877787808e-17  1.1275702594e-17 -2.5153490402e-17  2.2551405188e-17]
 [ 9.0435310508e-11  2.8579717250e-10 -9.4145050083e-11  5.0571352191e-11 -4.3368086899e-18  1.9081958236e-17 -1.5612511284e-17  1.3877787808e-17]
 [-8.3797906038e-11 -9.4145050083e-11  2.1581146557e-11  1.6848147877e-12  2.6020852140e-18 -4.3368086899e-18  2.3852447795e-18 -1.9515639105e-18]
 [ 1.2104458011e-10  5.0571352191e-11  1.6848147877e-12 -2.6729083065e-11  2.0816681712e-17 -1.7347234760e-17  8.6736173799e-19 -4.3368086899e-19]
 [ 1.3877787808e-17 -4.3368086899e-18  2.6020852140e-18  2.0816681712e-17 -2.8064902080e-10 -9.0435780914e-11 -8.3797761291e-11 -1.2104453095e-10]
 [ 1.1275702594e-17  1.9081958236e-17 -4.3368086899e-18 -1.7347234760e-17 -9.0435780914e-11  2.8579776203e-10  9.4144979265e-11  5.0571273134e-11]
 [-2.5153490402e-17 -1.5612511284e-17  2.3852447795e-18  8.6736173799e-19 -8.3797761291e-11  9.4144979265e-11  2.1581112760e-11 -1.6847986152e-12]
 [ 2.2551405188e-17  1.3877787808e-17 -1.9515639105e-18 -4.3368086899e-19 -1.2104453095e-10  5.0571273134e-11 -1.6847986152e-12 -2.6729073517e-11]]
Hsp + Hph =  -1.2745335023477213
Feff (mod,ortho)
[[-0.2308163172 -0.3318709593  0.2236619129 -0.0397983682  0.            0.            0.            0.          ]
 [-0.3318709593  0.0030568182 -0.0736695092  0.3306629314  0.            0.            0.            0.          ]
 [ 0.2236619129 -0.0736695092  1.1211906459 -0.0508694262  0.            0.            0.            0.          ]
 [-0.0397983682  0.3306629314 -0.0508694262  1.1166619521  0.            0.            0.            0.          ]
 [ 0.            0.            0.            0.           -0.2308163172  0.3318709593  0.2236619129  0.0397983682]
 [ 0.            0.            0.            0.            0.3318709593  0.0030568182  0.0736695092  0.3306629314]
 [ 0.            0.            0.            0.            0.2236619129  0.0736695092  1.1211906459  0.0508694262]
 [ 0.            0.            0.            0.            0.0397983682  0.3306629314  0.0508694262  1.1166619521]]
F(mod,ortho) updated with CDIIS
[[[-0.2308163171 -0.3318709593  0.223661913  -0.0397983681]
  [-0.3318709593  0.0030568181 -0.0736695092  0.3306629315]
  [ 0.223661913  -0.0736695092  1.1211906459 -0.0508694262]
  [-0.0397983681  0.3306629315 -0.0508694262  1.1166619521]]

 [[-0.2308163171  0.3318709593  0.223661913   0.0397983681]
  [ 0.3318709593  0.0030568181  0.0736695092  0.3306629315]
  [ 0.223661913   0.0736695092  1.1211906459  0.0508694262]
  [ 0.0397983681  0.3306629315  0.0508694262  1.1166619521]]]
Alpha occ 1 vir 3; Beta occ 1 vir 3
Alpha energies:  [-0.4946207656] <- HOMO
         LUMO->  [0.1219281958 1.0988253817 1.283960287 ]
Beta energies:   [-0.4946207656] <- HOMO
         LUMO->  [0.1219281958 1.0988253817 1.283960287 ]
e_a, e_b
 [-0.4946207656  0.1219281958  1.0988253817  1.283960287 ] 
 [-0.4946207656  0.1219281958  1.0988253817  1.283960287 ]
v_a, v_b
 [[ 0.7975617066  0.5732885075 -0.0900046244  0.1647263759]
 [ 0.5878775229 -0.7561293528 -0.100110005  -0.2695299736]
 [-0.0868603443 -0.1705432304 -0.7900354028  0.5824211102]
 [-0.1036852098  0.2655629786 -0.5980979994 -0.749002313 ]] 
 [[ 0.7975617066 -0.5732885075  0.0900046244  0.1647263759]
 [-0.5878775229 -0.7561293528 -0.100110005   0.2695299736]
 [-0.0868603443  0.1705432304  0.7900354028  0.5824211102]
 [ 0.1036852098  0.2655629786 -0.5980979994  0.749002313 ]]
P_a, P_b
 [[ 0.6361046759  0.4688686005 -0.0692764845 -0.0826953528]
 [ 0.4688686005  0.345599982  -0.0510632441 -0.0609542043]
 [-0.0692764845 -0.0510632441  0.0075447194  0.009006133 ]
 [-0.0826953528 -0.0609542043  0.009006133   0.0107506227]] 
 [[ 0.6361046759 -0.4688686005 -0.0692764845  0.0826953528]
 [-0.4688686005  0.345599982   0.0510632441 -0.0609542043]
 [-0.0692764845  0.0510632441  0.0075447194 -0.009006133 ]
 [ 0.0826953528 -0.0609542043 -0.009006133   0.0107506227]]
time for xg, H, S2, Yg, Feff: 0.024

***************
SUHF converged at cycle 12
Final E(SUHF) =     -1.00994490, delta E = -2.85791e-11, MaxD(dm) = 3.05895e-10, RMSD(dm) = 1.15461e-10
dm_reg
 [[[2.8447917871e-05 2.9589961109e-04 1.9909043435e-03 3.7474730483e-03]
  [2.9589961109e-04 3.0777851735e-03 2.0708293086e-02 3.8979155612e-02]
  [1.9909043435e-03 2.0708293086e-02 1.3933181764e-01 2.6226384662e-01]
  [3.7474730483e-03 3.8979155612e-02 2.6226384662e-01 4.9365842208e-01]]

 [[1.3933181764e-01 2.6226384662e-01 1.9909043435e-03 2.0708293086e-02]
  [2.6226384662e-01 4.9365842208e-01 3.7474730483e-03 3.8979155612e-02]
  [1.9909043435e-03 3.7474730483e-03 2.8447917871e-05 2.9589961109e-04]
  [2.0708293086e-02 3.8979155612e-02 2.9589961109e-04 3.0777851735e-03]]]
mo_reg
 [[-0.005333659  -0.1698002773  0.1610010621 -1.3022267479]
 [-0.0554777899 -0.9047664758  0.0668003056  1.0393364815]
 [-0.3732717745  0.0827862706  1.2513972121  0.1959491265]
 [-0.7026082992  0.2059771904 -1.119703327  -0.3413827732]] 
 [[-0.3732717745 -0.0827862706 -1.2513972121  0.1959491265]
 [-0.7026082992 -0.2059771904  1.119703327  -0.3413827732]
 [-0.005333659   0.1698002773 -0.1610010621 -1.3022267479]
 [-0.0554777899  0.9047664758 -0.0668003056  1.0393364815]]
time for cyc: 0.708
******* suhf density *****
time for Ngg: 0.002
time for Pgg: 0.004
time for xgg: 0.000
Clebsch-Gordan coeff: < 0 0 0 0 | 0 0 > = 1
Clebsch-Gordan coeff: < 0 0 1 0 | 0 0 > = 0
xggint 1.0000000000000002
SUHF DM alpha
 [[0.0648955961 0.1245153575 0.0203317291 0.046136313 ]
 [0.1245153575 0.2397755512 0.046136313  0.1019222852]
 [0.0203317291 0.046136313  0.0648955961 0.1245153575]
 [0.046136313  0.1019222852 0.1245153575 0.2397755512]] 
SUHF DM beta
 [[0.0648955961 0.1245153575 0.0203317291 0.046136313 ]
 [0.1245153575 0.2397755512 0.046136313  0.1019222852]
 [0.0203317291 0.046136313  0.0648955961 0.1245153575]
 [0.046136313  0.1019222852 0.1245153575 0.2397755512]]
time for 1pdm: 0.016
SUHF natural orbitals alpha
 [[-0.2359566186  0.3081811236 -0.5967224596  1.1152791589]
 [-0.4724586982  0.5420297568  0.3629537449 -1.1214338428]
 [-0.2359566186 -0.3081811236 -1.1052578438 -0.6150856809]
 [-0.4724586982 -0.5420297568  0.9119901947  0.7467417021]]
SUHF natural orbitals beta
 [[-0.2359566186  0.3081811236 -0.5967224596  1.1152791589]
 [-0.4724586982  0.5420297568  0.3629537449 -1.1214338428]
 [-0.2359566186 -0.3081811236 -1.1052578438 -0.6150856809]
 [-0.4724586982 -0.5420297568  0.9119901947  0.7467417021]]
SUHF natural orbitals, total
 [[-0.2359566186  0.3081811236 -0.5967224596  1.1152791589]
 [-0.4724586982  0.5420297568  0.3629537449 -1.1214338428]
 [-0.2359566186 -0.3081811236 -1.1052578438 -0.6150856809]
 [-0.4724586982 -0.5420297568  0.9119901947  0.7467417021]]
SUHF NO occ alpha:  0.765393  0.234607  ...
SUHF NO occ beta:   0.765393  0.234607  ...
SUHF NO occ total:  1.530786  0.469214  ...
core 0, active 2, external 2
time for natorb: 0.002
time tot: 0.837
