#INFO: **** input file is /share/home/srwang/ExSCF/test/pytest/scan_h2/scan_suhf.py ****
#import phf
from pyscf import lib
#import scipy
import numpy as np
import sys, os, contextlib

from pyphf import util, sudft

#xyz = 'h2.xyz' #sys.argv[1]
fch = 'test_uhf.fchk' #sys.argv[2]
#bas = '../h2.bas'
bas = 'cc-pvtz'

lib.num_threads(8)

for r in np.arange(0.5, 2.55, 0.1):
    output = 'suhf/suhf_%.1f_diis.out' % r
    os.system("echo '\n' > %s" % output)
    with open(output, 'w', encoding='utf-8') as f:
        with contextlib.redirect_stdout(f):
            xyz = '''H 0.0 0.0 0.0; H 0.0 0.0 %f'''%r
            mf = util.guess_from_fchk(xyz, bas, fch)
            #mf = util.guess(xyz, bas)
            #f.flush()
            mf2 = util.SUHF(mf)
            #mf2.cut_no = False
            mf2.debug = False
            #mf2.max_cycle = 50
            mf2.diis_on = True
            #mf2.output = 'sudft_%.1f.out'%r
            mf2.kernel()
            
            #mf3 = sudft.SUDFT(mf2)
            #mf3.suxc = 'TPSS'
            #mf3.kernel()
                    
#INFO: ******************** input file end ********************


System: uname_result(system='Linux', node='xcluster', release='3.10.0-693.el7.x86_64', version='#1 SMP Thu Jul 6 19:56:57 EDT 2017', machine='x86_64', processor='x86_64')  Threads 8
Python 3.7.4 (default, Aug 13 2019, 20:35:49) 
[GCC 7.3.0]
numpy 1.17.2  scipy 1.4.1
Date: Mon Nov 23 19:27:52 2020
PySCF version 1.7.5
PySCF path  /share/home/srwang/pyscf-1.7.5/pyscf

[CONFIG] conf_file None
[INPUT] verbose = 4
[INPUT] num. atoms = 2
[INPUT] num. electrons = 2
[INPUT] charge = 0
[INPUT] spin (= nelec alpha-beta = 2S) = 0
[INPUT] symmetry False subgroup None
[INPUT] Mole.unit = angstrom
[INPUT]  1 H      0.000000000000   0.000000000000   0.000000000000 AA    0.000000000000   0.000000000000   0.000000000000 Bohr
[INPUT]  2 H      0.000000000000   0.000000000000   1.400000000000 AA    0.000000000000   0.000000000000   2.645616574391 Bohr

nuclear repulsion = 0.377983722085714
number of shells = 12
number of NR pGTOs = 32
number of NR cGTOs = 28
basis = cc-pvtz
ecp = {}
CPU time:       627.42


******** <class 'pyscf.scf.uhf.UHF'> ********
method = UHF
initial guess = minao
damping factor = 0
level_shift factor = 0
DIIS = <class 'pyscf.scf.diis.CDIIS'>
diis_start_cycle = 1
diis_space = 8
SCF conv_tol = 1e-09
SCF conv_tol_grad = None
SCF max_cycles = 1
direct_scf = True
direct_scf_tol = 1e-13
chkfile to save SCF result = /share/home/srwang/ExSCF/test/pytest/scan_h2/tmp4qqe0f_b
max_memory 4000 MB (current use 124 MB)
number electrons alpha = 1  beta = 1
Set gradient conv threshold to 3.16228e-05
init E= -0.688729809904902
  alpha nocc = 1  HOMO = -0.339469358961428  LUMO = -0.0103331027226332
  beta  nocc = 1  HOMO = -0.33730775009623  LUMO = -0.00962911758123686
cycle= 1 E= -1.02201752742189  delta_E= -0.333  |g|= 0.0346  |ddm|= 0.356
SCF not converged.
SCF energy = -1.02201752742189 after 1 cycles  <S^2> = 3.1186678e-07  2S+1 = 1.0000006


******** <class 'pyscf.scf.uhf.UHF'> ********
method = UHF
initial guess = minao
damping factor = 0
level_shift factor = 0
DIIS = <class 'pyscf.scf.diis.CDIIS'>
diis_start_cycle = 1
diis_space = 8
SCF conv_tol = 1e-09
SCF conv_tol_grad = None
SCF max_cycles = 1
direct_scf = True
direct_scf_tol = 1e-13
chkfile to save SCF result = /share/home/srwang/ExSCF/test/pytest/scan_h2/tmp4qqe0f_b
max_memory 4000 MB (current use 125 MB)
number electrons alpha = 1  beta = 1
Set gradient conv threshold to 3.16228e-05
init E= -1.03195644532977
  alpha nocc = 1  HOMO = -0.490961940972593  LUMO = 0.0798103532854504
  beta  nocc = 1  HOMO = -0.490961940972596  LUMO = 0.0798103532854495
cycle= 1 E= -1.03195644714102  delta_E= -1.81e-09  |g|= 2.71e-05  |ddm|= 4.26e-05
SCF not converged.
SCF energy = -1.03195644714102 after 1 cycles  <S^2> = 0.42973767  2S+1 = 1.6489241

******** <class 'pyphf.util.SUHF'> ********
max_cycle = 70
verbose: normal
DIIS: <class 'pyscf.scf.diis.CDIIS'>
diis_start_cyc = 40
SVD: S^(-1/2)
[[-0.14266614  0.07564016 -0.          0.          0.29570577 -0.          0.         -0.05008837  0.24735178  0.         -0.         -0.          0.
  -0.          0.          0.          0.         -0.66804081 -0.2601153   0.63910242  0.          0.         -0.24847929 -0.         -0.          0.82552889
  -0.31894762  0.88436591]
 [-0.221526    0.09727418 -0.         -0.          0.29058089  0.         -0.         -0.01719709  0.11888201  0.          0.          0.         -0.
   0.         -0.          0.          0.         -0.07296041  0.02117945 -0.276827   -0.         -0.          0.03007292  0.          0.         -1.62548499
   0.63116999 -2.36532636]
 [-0.22854246  0.15825468  0.          0.          0.14631477 -0.          0.          0.04442484  0.00872194 -0.         -0.         -0.         -0.
  -0.         -0.         -0.         -0.          0.48218813  0.03181428 -0.518416   -0.         -0.         -0.03111038  0.         -0.          0.94534619
  -2.11068663  0.38497534]
 [ 0.          0.         -0.19129924  0.25920935 -0.         -0.39376537  0.2043888   0.          0.         -0.08671511 -0.09406556 -0.         -0.
  -0.         -0.          0.18651642 -0.08455326 -0.          0.          0.          0.34174673 -0.74657089  0.          0.54147866  0.55837845 -0.
   0.          0.        ]
 [ 0.          0.         -0.25920935 -0.19129924 -0.          0.2043888   0.39376537  0.         -0.          0.09406556 -0.08671511 -0.          0.
   0.          0.          0.08455326  0.18651642  0.         -0.          0.         -0.74657089 -0.34174673  0.          0.55837845 -0.54147866  0.
   0.         -0.        ]
 [-0.07015688 -0.30412018  0.          0.         -0.15436734 -0.          0.          0.09097769  0.44222526  0.         -0.          0.          0.
   0.          0.          0.         -0.          0.10910254 -0.43548726 -0.44418216 -0.         -0.         -0.89462271 -0.          0.         -0.11304909
   0.38406133  0.39632789]
 [ 0.          0.         -0.23325696  0.31606181 -0.         -0.3239377   0.16814388  0.          0.         -0.04433485 -0.04809291  0.          0.
  -0.         -0.         -0.0003712   0.00016828  0.         -0.         -0.         -0.29030413  0.63419075  0.         -0.70747345 -0.72955402 -0.
  -0.         -0.        ]
 [-0.          0.         -0.31606181 -0.23325696 -0.          0.16814388  0.3239377   0.         -0.          0.04809291 -0.04433485  0.          0.
  -0.          0.         -0.00016828 -0.0003712  -0.          0.         -0.          0.63419075  0.29030413  0.         -0.72955402  0.70747345 -0.
  -0.          0.        ]
 [-0.13024467 -0.33056553  0.          0.         -0.22806257  0.         -0.          0.13371333  0.18352917  0.          0.         -0.         -0.
  -0.         -0.          0.          0.         -0.07426757  0.01530707  0.44377027  0.          0.          0.74459561  0.         -0.          0.2398591
  -1.22027154 -1.8788655 ]
 [ 0.          0.         -0.          0.          0.         -0.          0.          0.          0.          0.          0.          0.69851712  0.
   0.71602132  0.         -0.         -0.          0.          0.          0.         -0.         -0.          0.         -0.          0.         -0.
  -0.          0.        ]
 [-0.          0.         -0.08306806 -0.06130511 -0.         -0.05580442 -0.10751003  0.          0.         -0.47651294  0.43927737  0.         -0.
   0.         -0.          0.30917707  0.68201506  0.          0.          0.         -0.08336925 -0.03816271  0.         -0.15310155  0.1484678   0.
  -0.         -0.        ]
 [-0.03669929 -0.11219404 -0.         -0.         -0.00330606 -0.         -0.         -0.6265953  -0.34994357 -0.          0.          0.         -0.
   0.         -0.         -0.         -0.          0.08958294 -0.71816957  0.01619688  0.         -0.          0.04583234  0.         -0.          0.08041633
  -0.21826543 -0.65338522]
 [ 0.          0.         -0.06130511  0.08306806 -0.          0.10751003 -0.05580442 -0.         -0.          0.43927737  0.47651294 -0.         -0.
   0.          0.          0.68201506 -0.30917707  0.         -0.          0.          0.03816271 -0.08336925  0.         -0.1484678  -0.15310155 -0.
  -0.         -0.        ]
 [ 0.          0.          0.         -0.          0.          0.          0.          0.          0.          0.         -0.          0.         -0.69851712
   0.         -0.71602132  0.         -0.          0.          0.          0.          0.          0.          0.          0.          0.          0.
   0.          0.        ]
 [-0.14266614  0.07564016 -0.          0.         -0.29570577 -0.         -0.         -0.05008837 -0.24735178  0.          0.          0.          0.
   0.          0.          0.          0.         -0.66804081  0.2601153  -0.63910242 -0.         -0.         -0.24847929 -0.         -0.          0.82552889
   0.31894762 -0.88436591]
 [-0.221526    0.09727418  0.         -0.         -0.29058089  0.          0.         -0.01719709 -0.11888201  0.         -0.         -0.          0.
  -0.          0.         -0.         -0.         -0.07296041 -0.02117945  0.276827   -0.          0.          0.03007292  0.         -0.         -1.62548499
  -0.63116999  2.36532636]
 [-0.22854246  0.15825468  0.         -0.         -0.14631477 -0.          0.          0.04442484 -0.00872194 -0.          0.          0.          0.
   0.          0.          0.         -0.          0.48218813 -0.03181428  0.518416    0.          0.         -0.03111038 -0.          0.          0.94534619
   2.11068663 -0.38497534]
 [ 0.          0.         -0.19129924  0.25920935 -0.          0.39376537 -0.2043888   0.         -0.         -0.08671511 -0.09406556  0.         -0.
   0.         -0.         -0.18651642  0.08455326 -0.          0.          0.          0.34174673 -0.74657089  0.         -0.54147866 -0.55837845 -0.
  -0.         -0.        ]
 [-0.          0.         -0.25920935 -0.19129924 -0.         -0.2043888  -0.39376537  0.         -0.          0.09406556 -0.08671511  0.         -0.
  -0.          0.         -0.08455326 -0.18651642  0.         -0.          0.         -0.74657089 -0.34174673  0.         -0.55837845  0.54147866 -0.
  -0.          0.        ]
 [ 0.07015688  0.30412018 -0.         -0.         -0.15436734  0.         -0.         -0.09097769  0.44222526  0.          0.         -0.          0.
  -0.          0.         -0.          0.         -0.10910254 -0.43548726 -0.44418216  0.         -0.          0.89462271  0.         -0.          0.11304909
   0.38406133  0.39632789]
 [ 0.          0.         -0.23325696  0.31606181 -0.          0.3239377  -0.16814388  0.         -0.         -0.04433485 -0.04809291  0.         -0.
  -0.         -0.          0.0003712  -0.00016828 -0.         -0.         -0.         -0.29030413  0.63419075 -0.          0.70747345  0.72955402  0.
  -0.          0.        ]
 [-0.          0.         -0.31606181 -0.23325696 -0.         -0.16814388 -0.3239377   0.         -0.          0.04809291 -0.04433485 -0.          0.
   0.          0.          0.00016828  0.0003712   0.          0.         -0.          0.63419075  0.29030413 -0.          0.72955402 -0.70747345 -0.
  -0.          0.        ]
 [ 0.13024467  0.33056553 -0.         -0.         -0.22806257  0.          0.         -0.13371333  0.18352917 -0.         -0.          0.         -0.
   0.         -0.          0.         -0.          0.07426757  0.01530707  0.44377027 -0.          0.         -0.74459561 -0.          0.         -0.2398591
  -1.22027154 -1.8788655 ]
 [-0.         -0.          0.         -0.         -0.          0.         -0.         -0.         -0.         -0.         -0.          0.69851712  0.
  -0.71602132 -0.          0.         -0.         -0.         -0.         -0.         -0.          0.         -0.         -0.         -0.          0.
   0.         -0.        ]
 [ 0.         -0.          0.08306806  0.06130511  0.         -0.05580442 -0.10751003 -0.         -0.          0.47651294 -0.43927737 -0.          0.
   0.          0.          0.30917707  0.68201506  0.          0.         -0.          0.08336925  0.03816271  0.         -0.15310155  0.1484678   0.
  -0.         -0.        ]
 [-0.03669929 -0.11219404 -0.         -0.          0.00330606  0.          0.         -0.6265953   0.34994357 -0.          0.         -0.          0.
  -0.          0.         -0.         -0.          0.08958294  0.71816957 -0.01619688 -0.         -0.          0.04583234 -0.         -0.          0.08041633
   0.21826543  0.65338522]
 [-0.         -0.          0.06130511 -0.08306806  0.          0.10751003 -0.05580442  0.          0.         -0.43927737 -0.47651294 -0.         -0.
   0.         -0.          0.68201506 -0.30917707 -0.         -0.         -0.         -0.03816271  0.08336925  0.         -0.1484678  -0.15310155 -0.
   0.         -0.        ]
 [ 0.          0.          0.         -0.          0.         -0.          0.          0.          0.         -0.         -0.          0.         -0.69851712
  -0.          0.71602132  0.          0.          0.          0.          0.          0.         -0.          0.         -0.         -0.          0.
   0.          0.        ]]
C (ortho)
[[-0.90221893 -0.3115979   0.04287022  0.15891964  0.          0.         -0.22024952 -0.         -0.          0.02680949 -0.00358899  0.00926684 -0.10230116
  -0.         -0.         -0.         -0.          0.          0.          0.         -0.         -0.          0.         -0.00031231  0.         -0.
   0.04496037 -0.00016295]
 [ 0.24904589  0.09362513  0.28425841  0.10026321  0.          0.         -0.79751796 -0.         -0.          0.03175097 -0.06486206 -0.02517284 -0.38457843
  -0.         -0.         -0.         -0.          0.          0.          0.         -0.          0.          0.          0.0073734   0.         -0.
   0.22025555 -0.00192376]
 [-0.          0.          0.          0.         -0.81219983 -0.36218828  0.         -0.02308287 -0.09051668 -0.          0.         -0.         -0.
  -0.09382593 -0.11280674  0.          0.         -0.         -0.         -0.16631293 -0.22358055 -0.24277394 -0.2045324  -0.         -0.01331758 -0.01726382
  -0.         -0.        ]
 [-0.         -0.         -0.         -0.          0.36218828 -0.81219983 -0.         -0.09051668  0.02308287 -0.         -0.         -0.          0.
   0.11280674 -0.09382593 -0.         -0.          0.         -0.          0.22358055 -0.16631293 -0.2045324   0.24277394 -0.         -0.01726382  0.01331758
  -0.         -0.        ]
 [ 0.33068171 -0.77819328 -0.0455459   0.44312667 -0.         -0.          0.0402403   0.          0.         -0.16672881 -0.02250388  0.13704021 -0.00176138
  -0.          0.         -0.          0.          0.          0.          0.         -0.         -0.         -0.          0.1904809  -0.          0.
  -0.01640568  0.03700964]
 [-0.          0.          0.          0.         -0.04955554  0.07622332  0.         -0.7547592   0.32507883  0.          0.         -0.         -0.
  -0.00147119  0.00087548 -0.          0.          0.         -0.         -0.2789902   0.14615367 -0.13629869  0.22578533 -0.         -0.26379867  0.2793763
   0.          0.        ]
 [-0.         -0.          0.          0.          0.07622332  0.04955554  0.         -0.32507883 -0.7547592   0.          0.          0.         -0.
   0.00087548  0.00147119  0.          0.         -0.         -0.          0.14615367  0.2789902  -0.22578533 -0.13629869 -0.         -0.2793763  -0.26379867
   0.          0.        ]
 [-0.00246169  0.02307662  0.09662349  0.02227656  0.          0.          0.29079851  0.          0.         -0.00741651  0.08283147  0.0178131  -0.81439476
  -0.          0.         -0.         -0.          0.         -0.          0.          0.          0.          0.         -0.04874107  0.          0.
  -0.48183464 -0.00726615]
 [ 0.08644623 -0.10585051 -0.08380903  0.24027269  0.         -0.          0.04635911  0.          0.          0.73432458  0.02581392 -0.03685216  0.00807655
  -0.          0.          0.         -0.         -0.         -0.         -0.          0.         -0.         -0.         -0.54698828  0.         -0.
   0.04618302  0.26789426]
 [ 0.         -0.         -0.          0.         -0.01831972  0.07851851  0.          0.00500767 -0.000298    0.         -0.         -0.         -0.
   0.62256875 -0.75933932  0.          0.         -0.         -0.         -0.08221916  0.08986728  0.09174095 -0.07425295 -0.          0.02036358 -0.01026254
  -0.          0.        ]
 [-0.         -0.         -0.         -0.         -0.07851851 -0.01831972 -0.         -0.000298   -0.00500767 -0.         -0.         -0.         -0.
   0.75933932  0.62256875 -0.         -0.          0.         -0.         -0.08986728 -0.08221916 -0.07425295 -0.09174095  0.         -0.01026254 -0.02036358
  -0.         -0.        ]
 [ 0.         -0.         -0.         -0.          0.         -0.         -0.         -0.         -0.         -0.         -0.         -0.         -0.
  -0.          0.          0.99402595 -0.0461238   0.09884128  0.0039262   0.         -0.          0.          0.          0.          0.          0.
  -0.         -0.        ]
 [ 0.          0.          0.          0.         -0.          0.          0.         -0.         -0.          0.          0.          0.          0.
  -0.         -0.         -0.0461238  -0.99402595  0.0039262  -0.09884128 -0.          0.         -0.         -0.         -0.         -0.          0.
   0.          0.        ]
 [ 0.         -0.         -0.         -0.         -0.         -0.         -0.          0.          0.         -0.         -0.         -0.         -0.
   0.          0.          0.09881291 -0.00458502 -0.99431133 -0.03949629  0.         -0.         -0.          0.          0.          0.          0.
  -0.         -0.        ]
 [-0.         -0.         -0.         -0.         -0.          0.         -0.         -0.         -0.         -0.         -0.         -0.         -0.
   0.         -0.         -0.00458502 -0.09881291 -0.03949629  0.99431133 -0.         -0.         -0.         -0.          0.         -0.          0.
  -0.         -0.        ]
 [ 0.          0.          0.          0.         -0.002194    0.00019783 -0.         -0.01090894  0.04105674  0.          0.          0.          0.
   0.01685731  0.00649192  0.          0.         -0.         -0.          0.47023376  0.21103299 -0.18172241 -0.48090486 -0.          0.10064783  0.67659955
  -0.          0.        ]
 [ 0.         -0.         -0.         -0.         -0.00019783 -0.002194   -0.          0.04105674  0.01090894 -0.         -0.         -0.         -0.
  -0.00649192  0.01685731  0.          0.          0.          0.         -0.21103299  0.47023376 -0.48090486  0.18172241  0.          0.67659955 -0.10064783
  -0.         -0.        ]
 [-0.01957972  0.10790699  0.72569886  0.24173229  0.          0.          0.14392287  0.          0.          0.00058524  0.55763532  0.16647724  0.20854116
   0.         -0.          0.          0.         -0.          0.         -0.          0.         -0.          0.          0.00341536  0.         -0.
  -0.00202529  0.00287001]
 [-0.01248956 -0.00908292  0.0309183  -0.07228273 -0.         -0.         -0.00035761  0.          0.          0.09204709  0.13523146 -0.49245401 -0.00661542
   0.         -0.         -0.          0.          0.          0.          0.         -0.          0.          0.          0.46978894 -0.          0.
  -0.04112824  0.70842963]
 [-0.06229025  0.40455164 -0.22168799  0.44060111 -0.         -0.          0.00839154  0.          0.          0.23841301 -0.14229476  0.5284995  -0.01185566
   0.          0.         -0.          0.          0.          0.          0.          0.          0.          0.          0.46819698 -0.          0.
  -0.03689573  0.10955379]
 [-0.          0.         -0.          0.          0.03767515  0.43567889  0.          0.05004605  0.01310122  0.          0.          0.          0.
   0.04283614 -0.11002653 -0.         -0.          0.         -0.          0.2462656  -0.54339941 -0.6155729   0.23519255 -0.         -0.04390255  0.00669533
   0.         -0.        ]
 [-0.          0.         -0.          0.          0.43567889 -0.03767515  0.         -0.01310122  0.05004605  0.         -0.          0.         -0.
  -0.11002653 -0.04283614  0.          0.         -0.         -0.         -0.54339941 -0.2462656  -0.23519255 -0.6155729   0.         -0.00669533 -0.04390255
   0.          0.        ]
 [-0.01571365 -0.00049777 -0.06733413 -0.03922839 -0.         -0.          0.36132857  0.         -0.         -0.02048919  0.13928984  0.03650876 -0.36529075
   0.          0.          0.         -0.         -0.         -0.          0.         -0.          0.          0.          0.06471025  0.          0.
   0.83924694  0.00268663]
 [ 0.         -0.         -0.         -0.         -0.05380791 -0.01577714 -0.          0.06427951  0.55434492 -0.          0.          0.         -0.
  -0.00268314 -0.0024635   0.          0.         -0.          0.          0.30199982  0.30908077 -0.22993881 -0.25363586 -0.         -0.30839944 -0.5351302
   0.         -0.        ]
 [ 0.          0.          0.          0.         -0.01577714  0.05380791  0.         -0.55434492  0.06427951  0.          0.          0.          0.
  -0.0024635   0.00268314 -0.         -0.         -0.          0.          0.30908077 -0.30199982  0.25363586 -0.22993881  0.          0.5351302  -0.30839944
  -0.         -0.        ]
 [-0.03032129  0.06057958  0.50035754  0.18409507  0.         -0.          0.27425355  0.          0.          0.00820045 -0.76512312 -0.20689776  0.0337058
   0.          0.         -0.          0.          0.          0.         -0.          0.         -0.         -0.          0.00661968 -0.         -0.
   0.08049231 -0.00090877]
 [-0.03031698  0.31183815 -0.24560032  0.60474493 -0.         -0.         -0.00113344  0.          0.         -0.48388739  0.09541642 -0.33419353  0.00738361
  -0.          0.          0.          0.         -0.          0.         -0.          0.         -0.         -0.         -0.32945785  0.         -0.
   0.02382627  0.10816335]
 [-0.02535537 -0.02275582  0.08350689 -0.22620446  0.          0.         -0.02375014 -0.         -0.         -0.36226953 -0.15599472  0.52293672 -0.00500811
   0.         -0.          0.         -0.         -0.         -0.          0.         -0.          0.          0.         -0.33074955  0.         -0.
   0.02145601  0.63341634]]
[[-0.90221893 -0.3115979   0.04287022  0.15891964 -0.         -0.          0.22024952 -0.         -0.         -0.02680949 -0.00358899  0.00926684 -0.10230116
  -0.          0.          0.         -0.          0.         -0.          0.          0.         -0.          0.          0.00031231 -0.         -0.
  -0.04496037 -0.00016295]
 [ 0.24904589  0.09362513  0.28425841  0.10026321 -0.         -0.          0.79751796 -0.         -0.         -0.03175097 -0.06486206 -0.02517284 -0.38457843
  -0.          0.          0.         -0.          0.         -0.          0.          0.          0.          0.         -0.0073734   0.         -0.
  -0.22025555 -0.00192376]
 [ 0.          0.          0.          0.         -0.61873738 -0.63875892 -0.         -0.05860012 -0.07274692  0.          0.          0.         -0.
   0.11942256  0.08524621 -0.          0.         -0.         -0.         -0.26336678 -0.09102852 -0.26429394 -0.17584482  0.          0.00807436  0.02025345
   0.          0.        ]
 [ 0.         -0.          0.          0.         -0.63875892  0.61873738  0.          0.07274692 -0.05860012  0.          0.         -0.         -0.
   0.08524621 -0.11942256  0.          0.          0.          0.          0.09102852 -0.26336678 -0.17584482  0.26429394 -0.          0.02025345 -0.00807436
   0.         -0.        ]
 [-0.33068171  0.77819328  0.0455459  -0.44312667 -0.         -0.          0.0402403   0.         -0.         -0.16672881  0.02250388 -0.13704021  0.00176138
  -0.          0.          0.         -0.          0.         -0.         -0.         -0.         -0.          0.          0.1904809  -0.          0.
  -0.01640568 -0.03700964]
 [-0.          0.          0.         -0.         -0.05460893  0.07268845 -0.         -0.71271348  0.40911756 -0.         -0.          0.         -0.
   0.00076453 -0.00153178  0.         -0.          0.          0.          0.14816541 -0.27792704  0.10996267 -0.23971767 -0.         -0.33028374  0.19635047
  -0.          0.        ]
 [ 0.          0.         -0.          0.         -0.07268845 -0.05460893  0.          0.40911756  0.71271348 -0.         -0.          0.          0.
   0.00153178  0.00076453 -0.          0.          0.          0.         -0.27792704 -0.14816541  0.23971767  0.10996267  0.         -0.19635047 -0.33028374
   0.         -0.        ]
 [-0.00246169  0.02307662  0.09662349  0.02227656  0.          0.         -0.29079851  0.          0.          0.00741651  0.08283147  0.0178131  -0.81439476
  -0.          0.          0.         -0.          0.         -0.          0.          0.          0.          0.          0.04874107 -0.         -0.
   0.48183464 -0.00726615]
 [-0.08644623  0.10585051  0.08380903 -0.24027269 -0.         -0.          0.04635911  0.          0.          0.73432458 -0.02581392  0.03685216 -0.00807655
  -0.          0.         -0.          0.         -0.          0.          0.          0.          0.         -0.         -0.54698828  0.         -0.
   0.04618302 -0.26789426]
 [-0.          0.         -0.         -0.          0.06747594 -0.04413351 -0.         -0.00324109  0.00382896  0.         -0.         -0.         -0.
   0.71133034 -0.67690265  0.          0.         -0.          0.         -0.01730175  0.12056852  0.08278056 -0.08412657  0.         -0.02239689  0.00428656
   0.         -0.        ]
 [-0.          0.          0.         -0.         -0.04413351 -0.06747594 -0.         -0.00382896 -0.00324109  0.          0.          0.         -0.
  -0.67690265 -0.71133034 -0.         -0.          0.         -0.         -0.12056852 -0.01730175 -0.08412657 -0.08278056 -0.          0.00428656  0.02239689
  -0.          0.        ]
 [-0.         -0.         -0.         -0.         -0.          0.         -0.          0.         -0.          0.          0.         -0.          0.
   0.          0.          0.96594595 -0.23908872  0.0989155  -0.0008585  -0.         -0.         -0.         -0.         -0.          0.         -0.
  -0.          0.        ]
 [-0.          0.         -0.          0.         -0.         -0.          0.          0.          0.         -0.         -0.          0.         -0.
   0.         -0.         -0.23908872 -0.96594595 -0.0008585  -0.0989155   0.         -0.          0.          0.          0.          0.         -0.
   0.          0.        ]
 [-0.         -0.         -0.         -0.          0.         -0.         -0.         -0.         -0.          0.          0.         -0.          0.
   0.          0.         -0.09602157  0.02376704  0.99505799 -0.00863624 -0.          0.         -0.          0.         -0.          0.          0.
  -0.          0.        ]
 [ 0.         -0.         -0.          0.          0.         -0.          0.          0.          0.         -0.         -0.          0.         -0.
   0.         -0.          0.02376704  0.09602157 -0.00863624 -0.99505799 -0.          0.          0.          0.          0.         -0.         -0.
   0.         -0.        ]
 [ 0.         -0.          0.          0.          0.0005665   0.00212881  0.         -0.03939873 -0.01588713 -0.         -0.         -0.         -0.
   0.00771811  0.01633232 -0.         -0.         -0.         -0.         -0.50739933  0.09055734  0.23480399  0.4573397  -0.         -0.08870149  0.67826911
   0.         -0.        ]
 [ 0.         -0.         -0.         -0.          0.00212881 -0.0005665   0.          0.01588713 -0.03939873  0.         -0.         -0.         -0.
   0.01633232 -0.00771811 -0.          0.          0.         -0.         -0.09055734 -0.50739933  0.4573397  -0.23480399  0.          0.67826911  0.08870149
   0.          0.        ]
 [-0.01957972  0.10790699  0.72569886  0.24173229 -0.         -0.         -0.14392287  0.          0.         -0.00058524  0.55763532  0.16647724  0.20854116
   0.         -0.         -0.          0.         -0.          0.         -0.         -0.          0.         -0.         -0.00341536  0.          0.
   0.00202529  0.00287001]
 [ 0.01248956  0.00908292 -0.0309183   0.07228273  0.         -0.         -0.00035761 -0.         -0.          0.09204709 -0.13523146  0.49245401  0.00661542
  -0.         -0.          0.         -0.          0.         -0.         -0.         -0.         -0.          0.          0.46978894 -0.          0.
  -0.04112824 -0.70842963]
 [ 0.06229025 -0.40455164  0.22168799 -0.44060111 -0.         -0.          0.00839154 -0.         -0.          0.23841301  0.14229476 -0.5284995   0.01185566
  -0.         -0.          0.         -0.          0.         -0.          0.         -0.          0.          0.          0.46819698 -0.          0.
  -0.03689573 -0.10955379]
 [-0.         -0.          0.         -0.          0.42218251 -0.11400633 -0.         -0.01952263  0.04790737  0.          0.         -0.         -0.
   0.10656573 -0.05083815 -0.          0.          0.         -0.         -0.10266704 -0.58769818 -0.58511753  0.30312212 -0.          0.04405601  0.0055973
  -0.          0.        ]
 [ 0.         -0.          0.         -0.          0.11400633  0.42218251 -0.          0.04790737  0.01952263  0.          0.         -0.         -0.
   0.05083815  0.10656573 -0.         -0.         -0.         -0.         -0.58769818  0.10266704 -0.30312212 -0.58511753  0.         -0.0055973   0.04405601
  -0.         -0.        ]
 [-0.01571365 -0.00049777 -0.06733413 -0.03922839 -0.         -0.         -0.36132857  0.          0.          0.02048919  0.13928984  0.03650876 -0.36529075
   0.         -0.          0.         -0.          0.         -0.          0.          0.          0.          0.         -0.06471025  0.         -0.
  -0.83924694  0.00268663]
 [-0.          0.          0.         -0.          0.03327166  0.04513542 -0.         -0.40510079 -0.38382744 -0.          0.         -0.          0.
  -0.00265477 -0.00249404 -0.          0.         -0.          0.         -0.42364021 -0.08522786  0.25707908  0.22608262  0.         -0.14987475 -0.59917619
  -0.          0.        ]
 [-0.         -0.          0.         -0.         -0.04513542  0.03327166 -0.         -0.38382744  0.40510079 -0.          0.         -0.          0.
   0.00249404 -0.00265477  0.          0.         -0.         -0.         -0.08522786  0.42364021 -0.22608262  0.25707908  0.          0.59917619 -0.14987475
   0.         -0.        ]
 [-0.03032129  0.06057958  0.50035754  0.18409507 -0.         -0.         -0.27425355 -0.          0.         -0.00820045 -0.76512312 -0.20689776  0.0337058
  -0.         -0.          0.         -0.          0.         -0.         -0.          0.          0.         -0.         -0.00661968  0.         -0.
  -0.08049231 -0.00090877]
 [ 0.03031698 -0.31183815  0.24560032 -0.60474493 -0.         -0.         -0.00113344  0.         -0.         -0.48388739 -0.09541642  0.33419353 -0.00738361
   0.          0.         -0.          0.         -0.          0.          0.          0.          0.         -0.         -0.32945785  0.         -0.
   0.02382627 -0.10816335]
 [ 0.02535537  0.02275582 -0.08350689  0.22620446  0.          0.         -0.02375014 -0.          0.         -0.36226953  0.15599472 -0.52293672  0.00500811
   0.         -0.         -0.          0.         -0.          0.          0.          0.          0.         -0.         -0.33074955  0.         -0.
   0.02145601 -0.63341634]]
grids:  [0.06237655 0.31939555 0.74529195 1.28265786 1.85893479 2.39630071 2.8221971  3.07921611] 
weights:  [0.15900941 0.34931531 0.49276925 0.56970235 0.56970235 0.49276925 0.34931531 0.15900941]
S = 0.0, Sz = 0.0
Wigner small d:  1
value : [1. 1. 1. 1. 1. 1. 1. 1.]
**** Start Cycle 1 ****
dm (ortho)
[[[ 0.813999   -0.22469392  0.         ...  0.02735644  0.02735256  0.02287609]
  [-0.22469392  0.06202385 -0.         ... -0.00755139 -0.00755032 -0.00631465]
  [ 0.         -0.          0.         ...  0.          0.          0.        ]
  ...
  [ 0.02735644 -0.00755139  0.         ...  0.00091938  0.00091925  0.00076881]
  [ 0.02735256 -0.00755032  0.         ...  0.00091925  0.00091912  0.0007687 ]
  [ 0.02287609 -0.00631465  0.         ...  0.00076881  0.0007687   0.00064289]]

 [[ 0.813999   -0.22469392 -0.         ...  0.02735644 -0.02735256 -0.02287609]
  [-0.22469392  0.06202385  0.         ... -0.00755139  0.00755032  0.00631465]
  [-0.          0.          0.         ... -0.          0.          0.        ]
  ...
  [ 0.02735644 -0.00755139 -0.         ...  0.00091938 -0.00091925 -0.00076881]
  [-0.02735256  0.00755032  0.         ... -0.00091925  0.00091912  0.0007687 ]
  [-0.02287609  0.00631465  0.         ... -0.00076881  0.0007687   0.00064289]]]
Fock (ortho)
 (array([[-0.29501781,  0.43681057,  0.        , -0.        ,  0.18597346,  0.        ,  0.        ,  0.11163714,  0.08203972,  0.        , -0.        ,
        -0.        ,  0.        , -0.        , -0.        ,  0.        ,  0.        , -0.07688696, -0.02767381,  0.01024614,  0.        ,  0.        ,
         0.20083864,  0.        , -0.        , -0.03782509, -0.00298964, -0.0152606 ],
       [ 0.43681057,  1.23305538,  0.        ,  0.        , -0.07809494,  0.        ,  0.        ,  0.310559  ,  0.00605319,  0.        , -0.        ,
        -0.        , -0.        , -0.        ,  0.        ,  0.        ,  0.        , -0.36630457, -0.00813832, -0.0064758 ,  0.        ,  0.        ,
         0.96623131,  0.        , -0.        ,  0.05436881,  0.00041585,  0.001155  ],
       [ 0.        ,  0.        ,  1.29701311, -0.        ,  0.        , -0.00676418,  0.04272864,  0.        ,  0.        ,  0.02318788, -0.12040598,
        -0.        ,  0.        , -0.        ,  0.        ,  0.00959525,  0.00535956, -0.        , -0.        , -0.        ,  0.60661917,  1.09544752,
        -0.        ,  0.00102199, -0.00013803, -0.        , -0.        , -0.        ],
       [-0.        ,  0.        , -0.        ,  1.29701311,  0.        ,  0.04272864,  0.00676418, -0.        , -0.        ,  0.12040598,  0.02318788,
        -0.        , -0.        ,  0.        ,  0.        , -0.00535956,  0.00959525, -0.        ,  0.        ,  0.        ,  1.09544752, -0.60661917,
        -0.        , -0.00013803, -0.00102199, -0.        , -0.        ,  0.        ],
       [ 0.18597346, -0.07809494,  0.        ,  0.        ,  0.33684028, -0.        , -0.        ,  0.01556738, -0.50988163, -0.        , -0.        ,
        -0.        ,  0.        , -0.        , -0.        ,  0.        , -0.        ,  0.07314882,  0.27923055,  0.61832613,  0.        ,  0.        ,
         0.01050069, -0.        , -0.        ,  0.00585927, -0.13607639,  0.10850234],
       [ 0.        ,  0.        , -0.00676418,  0.04272864, -0.        ,  1.92711865,  0.        ,  0.        ,  0.        , -0.01372686, -0.00496803,
        -0.        ,  0.        ,  0.        , -0.        , -0.01628536,  0.0207086 ,  0.        , -0.        , -0.        ,  0.00830943, -0.00648543,
         0.        , -0.40752728, -1.35943107,  0.        ,  0.        , -0.        ],
       [ 0.        ,  0.        ,  0.04272864,  0.00676418, -0.        ,  0.        ,  1.92711865, -0.        ,  0.        , -0.00496803,  0.01372686,
        -0.        , -0.        ,  0.        , -0.        ,  0.0207086 ,  0.01628536,  0.        ,  0.        , -0.        ,  0.00648543,  0.00830943,
        -0.        ,  1.35943107, -0.40752728, -0.        ,  0.        ,  0.        ],
       [ 0.11163714,  0.310559  ,  0.        , -0.        ,  0.01556738,  0.        , -0.        ,  3.18357913, -0.01232656,  0.        ,  0.        ,
         0.        , -0.        ,  0.        ,  0.        ,  0.        ,  0.        , -0.33702626, -0.01289547,  0.00382286, -0.        , -0.        ,
        -0.72910723, -0.        ,  0.        , -0.34054937, -0.00049696, -0.0008797 ],
       [ 0.08203972,  0.00605319,  0.        , -0.        , -0.50988163,  0.        ,  0.        , -0.01232656,  2.37607748, -0.        ,  0.        ,
         0.        ,  0.        ,  0.        , -0.        , -0.        , -0.        ,  0.03414493,  0.09534628, -0.65608057, -0.        , -0.        ,
         0.01732333, -0.        ,  0.        , -0.00224456,  0.51672949,  1.17925803],
       [ 0.        ,  0.        ,  0.02318788,  0.12040598, -0.        , -0.01372686, -0.00496803,  0.        , -0.        ,  3.12966548, -0.        ,
         0.        ,  0.        , -0.        ,  0.        , -0.00458567,  0.01387754,  0.        , -0.        , -0.        , -0.19218445,  0.06272454,
        -0.        , -0.00015608,  0.00278416, -0.        ,  0.        ,  0.        ],
       [-0.        , -0.        , -0.12040598,  0.02318788, -0.        , -0.00496803,  0.01372686,  0.        ,  0.        , -0.        ,  3.12966548,
        -0.        ,  0.        ,  0.        , -0.        , -0.01387754, -0.00458567,  0.        ,  0.        , -0.        ,  0.06272454,  0.19218445,
        -0.        ,  0.00278416,  0.00015608,  0.        , -0.        , -0.        ],
       [-0.        , -0.        , -0.        , -0.        , -0.        , -0.        , -0.        ,  0.        ,  0.        ,  0.        , -0.        ,
         3.36304204,  0.        , -0.01918762,  0.        , -0.        , -0.        ,  0.        , -0.        , -0.        , -0.        , -0.        ,
         0.        , -0.        , -0.        , -0.        , -0.        ,  0.        ],
       [ 0.        , -0.        ,  0.        , -0.        ,  0.        ,  0.        , -0.        , -0.        ,  0.        ,  0.        ,  0.        ,
         0.        ,  3.36304204, -0.        , -0.01918762, -0.        ,  0.        ,  0.        ,  0.        , -0.        , -0.        , -0.        ,
        -0.        , -0.        , -0.        ,  0.        ,  0.        , -0.        ],
       [-0.        , -0.        , -0.        ,  0.        , -0.        ,  0.        ,  0.        ,  0.        ,  0.        , -0.        ,  0.        ,
        -0.01918762, -0.        ,  3.55414006, -0.        , -0.        , -0.        ,  0.        , -0.        , -0.        , -0.        , -0.        ,
         0.        , -0.        , -0.        , -0.        , -0.        ,  0.        ],
       [-0.        ,  0.        ,  0.        ,  0.        , -0.        , -0.        , -0.        ,  0.        , -0.        ,  0.        , -0.        ,
         0.        , -0.01918762, -0.        ,  3.55414006, -0.        ,  0.        , -0.        , -0.        , -0.        , -0.        , -0.        ,
         0.        , -0.        , -0.        , -0.        , -0.        ,  0.        ],
       [ 0.        ,  0.        ,  0.00959525, -0.00535956,  0.        , -0.01628536,  0.0207086 ,  0.        , -0.        , -0.00458567, -0.01387754,
        -0.        , -0.        , -0.        , -0.        ,  4.00805339,  0.        , -0.        , -0.        , -0.        , -0.00002361,  0.00644145,
         0.        , -0.17830877, -0.07021667, -0.        ,  0.        , -0.        ],
       [ 0.        ,  0.        ,  0.00535956,  0.00959525, -0.        ,  0.0207086 ,  0.01628536,  0.        , -0.        ,  0.01387754, -0.00458567,
        -0.        ,  0.        , -0.        ,  0.        ,  0.        ,  4.00805339,  0.        , -0.        , -0.        ,  0.00644145,  0.00002361,
         0.        , -0.07021667,  0.17830877,  0.        ,  0.        , -0.        ],
       [-0.07688696, -0.36630457, -0.        , -0.        ,  0.07314882,  0.        ,  0.        , -0.33702626,  0.03414493,  0.        ,  0.        ,
         0.        ,  0.        ,  0.        , -0.        , -0.        ,  0.        ,  1.23566324, -0.01733825,  0.0357036 , -0.        ,  0.        ,
        -0.00676576,  0.        ,  0.        , -0.97809533, -0.00405567,  0.0071791 ],
       [-0.02767381, -0.00813832, -0.        ,  0.        ,  0.27923055, -0.        ,  0.        , -0.01289547,  0.09534628, -0.        ,  0.        ,
        -0.        ,  0.        , -0.        , -0.        , -0.        , -0.        , -0.01733825,  4.27469467,  0.56555189, -0.        ,  0.        ,
        -0.01243516, -0.        , -0.        ,  0.00623233,  0.16745795,  0.94927176],
       [ 0.01024614, -0.0064758 , -0.        ,  0.        ,  0.61832613, -0.        , -0.        ,  0.00382286, -0.65608057, -0.        , -0.        ,
        -0.        , -0.        , -0.        , -0.        , -0.        , -0.        ,  0.0357036 ,  0.56555189,  1.96747955, -0.        , -0.        ,
        -0.00293174,  0.        , -0.        , -0.0153204 , -1.08273996,  0.36773059],
       [ 0.        ,  0.        ,  0.60661917,  1.09544752,  0.        ,  0.00830943,  0.00648543, -0.        , -0.        , -0.19218445,  0.06272454,
        -0.        , -0.        , -0.        , -0.        , -0.00002361,  0.00644145, -0.        , -0.        , -0.        ,  3.24926851, -0.        ,
        -0.        ,  0.00538165, -0.01381452, -0.        , -0.        ,  0.        ],
       [ 0.        ,  0.        ,  1.09544752, -0.60661917,  0.        , -0.00648543,  0.00830943, -0.        , -0.        ,  0.06272454,  0.19218445,
        -0.        , -0.        , -0.        , -0.        ,  0.00644145,  0.00002361,  0.        ,  0.        , -0.        , -0.        ,  3.24926851,
        -0.        ,  0.01381452,  0.00538165,  0.        , -0.        , -0.        ],
       [ 0.20083864,  0.96623131, -0.        , -0.        ,  0.01050069,  0.        , -0.        , -0.72910723,  0.01732333, -0.        , -0.        ,
         0.        , -0.        ,  0.        ,  0.        ,  0.        ,  0.        , -0.00676576, -0.01243516, -0.00293174, -0.        , -0.        ,
         3.66960674,  0.        , -0.        ,  0.03412166,  0.00206788,  0.00768455],
       [ 0.        ,  0.        ,  0.00102199, -0.00013803, -0.        , -0.40752728,  1.35943107, -0.        , -0.        , -0.00015608,  0.00278416,
        -0.        , -0.        , -0.        , -0.        , -0.17830877, -0.07021667,  0.        , -0.        ,  0.        ,  0.00538165,  0.01381452,
         0.        ,  3.0696537 , -0.        ,  0.        ,  0.        ,  0.        ],
       [-0.        , -0.        , -0.00013803, -0.00102199, -0.        , -1.35943107, -0.40752728,  0.        ,  0.        ,  0.00278416,  0.00015608,
        -0.        , -0.        , -0.        , -0.        , -0.07021667,  0.17830877,  0.        , -0.        , -0.        , -0.01381452,  0.00538165,
        -0.        ,  0.        ,  3.0696537 , -0.        , -0.        ,  0.        ],
       [-0.03782509,  0.05436881, -0.        , -0.        ,  0.00585927,  0.        , -0.        , -0.34054937, -0.00224456, -0.        ,  0.        ,
        -0.        ,  0.        , -0.        , -0.        , -0.        ,  0.        , -0.97809533,  0.00623233, -0.0153204 , -0.        ,  0.        ,
         0.03412166,  0.        , -0.        ,  1.81014712,  0.00668037, -0.0093075 ],
       [-0.00298964,  0.00041585, -0.        , -0.        , -0.13607639,  0.        ,  0.        , -0.00049696,  0.51672949,  0.        , -0.        ,
        -0.        ,  0.        , -0.        , -0.        ,  0.        ,  0.        , -0.00405567,  0.16745795, -1.08273996, -0.        , -0.        ,
         0.00206788,  0.        , -0.        ,  0.00668037,  1.3558138 ,  0.46072248],
       [-0.0152606 ,  0.001155  , -0.        ,  0.        ,  0.10850234, -0.        ,  0.        , -0.0008797 ,  1.17925803,  0.        , -0.        ,
         0.        , -0.        ,  0.        ,  0.        , -0.        , -0.        ,  0.0071791 ,  0.94927176,  0.36773059,  0.        , -0.        ,
         0.00768455,  0.        ,  0.        , -0.0093075 ,  0.46072248,  3.57801122]]), array([[-0.29501781,  0.43681057,  0.        ,  0.        , -0.18597346, -0.        ,  0.        ,  0.11163714, -0.08203972,  0.        , -0.        ,
        -0.        , -0.        , -0.        ,  0.        ,  0.        ,  0.        , -0.07688696,  0.02767381, -0.01024614, -0.        , -0.        ,
         0.20083864,  0.        , -0.        , -0.03782509,  0.00298964,  0.0152606 ],
       [ 0.43681057,  1.23305538,  0.        ,  0.        ,  0.07809494,  0.        ,  0.        ,  0.310559  , -0.00605319,  0.        , -0.        ,
        -0.        ,  0.        , -0.        , -0.        ,  0.        ,  0.        , -0.36630457,  0.00813832,  0.0064758 ,  0.        ,  0.        ,
         0.96623131,  0.        , -0.        ,  0.05436881, -0.00041585, -0.001155  ],
       [ 0.        ,  0.        ,  1.29701311, -0.        ,  0.        ,  0.00676418, -0.04272864,  0.        ,  0.        ,  0.02318788, -0.12040598,
        -0.        ,  0.        , -0.        ,  0.        , -0.00959525, -0.00535956, -0.        ,  0.        , -0.        ,  0.60661917,  1.09544752,
        -0.        , -0.00102199,  0.00013803, -0.        , -0.        , -0.        ],
       [ 0.        ,  0.        , -0.        ,  1.29701311, -0.        , -0.04272864, -0.00676418, -0.        , -0.        ,  0.12040598,  0.02318788,
        -0.        , -0.        ,  0.        ,  0.        ,  0.00535956, -0.00959525, -0.        ,  0.        ,  0.        ,  1.09544752, -0.60661917,
        -0.        ,  0.00013803,  0.00102199, -0.        , -0.        ,  0.        ],
       [-0.18597346,  0.07809494,  0.        , -0.        ,  0.33684028, -0.        , -0.        , -0.01556738, -0.50988163, -0.        , -0.        ,
        -0.        , -0.        , -0.        ,  0.        ,  0.        ,  0.        , -0.07314882,  0.27923055,  0.61832613,  0.        ,  0.        ,
        -0.01050069, -0.        , -0.        , -0.00585927, -0.13607639,  0.10850234],
       [-0.        ,  0.        ,  0.00676418, -0.04272864, -0.        ,  1.92711865,  0.        ,  0.        ,  0.        ,  0.01372686,  0.00496803,
        -0.        ,  0.        ,  0.        , -0.        , -0.01628536,  0.0207086 ,  0.        , -0.        , -0.        , -0.00830943,  0.00648543,
         0.        , -0.40752728, -1.35943107,  0.        ,  0.        , -0.        ],
       [ 0.        ,  0.        , -0.04272864, -0.00676418, -0.        ,  0.        ,  1.92711865,  0.        ,  0.        ,  0.00496803, -0.01372686,
        -0.        , -0.        ,  0.        , -0.        ,  0.0207086 ,  0.01628536,  0.        ,  0.        ,  0.        , -0.00648543, -0.00830943,
        -0.        ,  1.35943107, -0.40752728, -0.        ,  0.        ,  0.        ],
       [ 0.11163714,  0.310559  ,  0.        , -0.        , -0.01556738,  0.        ,  0.        ,  3.18357913,  0.01232656,  0.        ,  0.        ,
         0.        , -0.        ,  0.        ,  0.        ,  0.        ,  0.        , -0.33702626,  0.01289547, -0.00382286, -0.        , -0.        ,
        -0.72910723, -0.        ,  0.        , -0.34054937,  0.00049696,  0.0008797 ],
       [-0.08203972, -0.00605319,  0.        , -0.        , -0.50988163,  0.        ,  0.        ,  0.01232656,  2.37607748, -0.        ,  0.        ,
         0.        , -0.        ,  0.        ,  0.        , -0.        ,  0.        , -0.03414493,  0.09534628, -0.65608057, -0.        , -0.        ,
        -0.01732333, -0.        ,  0.        ,  0.00224456,  0.51672949,  1.17925803],
       [ 0.        ,  0.        ,  0.02318788,  0.12040598, -0.        ,  0.01372686,  0.00496803,  0.        , -0.        ,  3.12966548, -0.        ,
         0.        ,  0.        , -0.        ,  0.        ,  0.00458567, -0.01387754,  0.        ,  0.        , -0.        , -0.19218445,  0.06272454,
        -0.        ,  0.00015608, -0.00278416, -0.        ,  0.        ,  0.        ],
       [-0.        , -0.        , -0.12040598,  0.02318788, -0.        ,  0.00496803, -0.01372686,  0.        ,  0.        , -0.        ,  3.12966548,
        -0.        ,  0.        ,  0.        , -0.        ,  0.01387754,  0.00458567,  0.        ,  0.        , -0.        ,  0.06272454,  0.19218445,
        -0.        , -0.00278416, -0.00015608,  0.        , -0.        , -0.        ],
       [-0.        , -0.        , -0.        , -0.        , -0.        , -0.        , -0.        ,  0.        ,  0.        ,  0.        , -0.        ,
         3.36304204,  0.        ,  0.01918762, -0.        , -0.        , -0.        ,  0.        , -0.        , -0.        , -0.        , -0.        ,
         0.        , -0.        , -0.        , -0.        , -0.        ,  0.        ],
       [-0.        ,  0.        ,  0.        , -0.        , -0.        ,  0.        , -0.        , -0.        , -0.        ,  0.        ,  0.        ,
         0.        ,  3.36304204,  0.        ,  0.01918762, -0.        ,  0.        , -0.        ,  0.        , -0.        , -0.        , -0.        ,
        -0.        , -0.        , -0.        , -0.        ,  0.        ,  0.        ],
       [-0.        , -0.        , -0.        ,  0.        , -0.        ,  0.        ,  0.        ,  0.        ,  0.        , -0.        ,  0.        ,
         0.01918762,  0.        ,  3.55414006, -0.        , -0.        , -0.        ,  0.        , -0.        , -0.        , -0.        , -0.        ,
         0.        , -0.        , -0.        , -0.        , -0.        ,  0.        ],
       [ 0.        , -0.        ,  0.        ,  0.        ,  0.        , -0.        , -0.        ,  0.        ,  0.        ,  0.        , -0.        ,
        -0.        ,  0.01918762, -0.        ,  3.55414006, -0.        ,  0.        ,  0.        , -0.        ,  0.        , -0.        , -0.        ,
         0.        , -0.        , -0.        ,  0.        ,  0.        , -0.        ],
       [ 0.        ,  0.        , -0.00959525,  0.00535956,  0.        , -0.01628536,  0.0207086 ,  0.        , -0.        ,  0.00458567,  0.01387754,
        -0.        , -0.        , -0.        , -0.        ,  4.00805339,  0.        , -0.        , -0.        , -0.        ,  0.00002361, -0.00644145,
         0.        , -0.17830877, -0.07021667, -0.        ,  0.        , -0.        ],
       [ 0.        ,  0.        , -0.00535956, -0.00959525,  0.        ,  0.0207086 ,  0.01628536,  0.        ,  0.        , -0.01387754,  0.00458567,
        -0.        ,  0.        , -0.        ,  0.        ,  0.        ,  4.00805339,  0.        , -0.        ,  0.        , -0.00644145, -0.00002361,
         0.        , -0.07021667,  0.17830877,  0.        ,  0.        , -0.        ],
       [-0.07688696, -0.36630457, -0.        , -0.        , -0.07314882,  0.        ,  0.        , -0.33702626, -0.03414493,  0.        ,  0.        ,
         0.        , -0.        ,  0.        ,  0.        , -0.        ,  0.        ,  1.23566324,  0.01733825, -0.0357036 , -0.        , -0.        ,
        -0.00676576,  0.        ,  0.        , -0.97809533,  0.00405567, -0.0071791 ],
       [ 0.02767381,  0.00813832,  0.        ,  0.        ,  0.27923055, -0.        ,  0.        ,  0.01289547,  0.09534628,  0.        ,  0.        ,
        -0.        ,  0.        , -0.        , -0.        , -0.        , -0.        ,  0.01733825,  4.27469467,  0.56555189, -0.        ,  0.        ,
         0.01243516, -0.        , -0.        , -0.00623233,  0.16745795,  0.94927176],
       [-0.01024614,  0.0064758 , -0.        ,  0.        ,  0.61832613, -0.        ,  0.        , -0.00382286, -0.65608057, -0.        , -0.        ,
        -0.        , -0.        , -0.        ,  0.        , -0.        ,  0.        , -0.0357036 ,  0.56555189,  1.96747955, -0.        , -0.        ,
         0.00293174,  0.        , -0.        ,  0.0153204 , -1.08273996,  0.36773059],
       [-0.        ,  0.        ,  0.60661917,  1.09544752,  0.        , -0.00830943, -0.00648543, -0.        , -0.        , -0.19218445,  0.06272454,
        -0.        , -0.        , -0.        , -0.        ,  0.00002361, -0.00644145, -0.        , -0.        , -0.        ,  3.24926851, -0.        ,
        -0.        , -0.00538165,  0.01381452, -0.        , -0.        ,  0.        ],
       [-0.        ,  0.        ,  1.09544752, -0.60661917,  0.        ,  0.00648543, -0.00830943, -0.        , -0.        ,  0.06272454,  0.19218445,
        -0.        , -0.        , -0.        , -0.        , -0.00644145, -0.00002361, -0.        ,  0.        , -0.        , -0.        ,  3.24926851,
        -0.        , -0.01381452, -0.00538165,  0.        , -0.        , -0.        ],
       [ 0.20083864,  0.96623131, -0.        , -0.        , -0.01050069,  0.        , -0.        , -0.72910723, -0.01732333, -0.        , -0.        ,
         0.        , -0.        ,  0.        ,  0.        ,  0.        ,  0.        , -0.00676576,  0.01243516,  0.00293174, -0.        , -0.        ,
         3.66960674,  0.        , -0.        ,  0.03412166, -0.00206788, -0.00768455],
       [ 0.        ,  0.        , -0.00102199,  0.00013803, -0.        , -0.40752728,  1.35943107, -0.        , -0.        ,  0.00015608, -0.00278416,
        -0.        , -0.        , -0.        , -0.        , -0.17830877, -0.07021667,  0.        , -0.        ,  0.        , -0.00538165, -0.01381452,
         0.        ,  3.0696537 , -0.        ,  0.        ,  0.        ,  0.        ],
       [-0.        , -0.        ,  0.00013803,  0.00102199, -0.        , -1.35943107, -0.40752728,  0.        ,  0.        , -0.00278416, -0.00015608,
        -0.        , -0.        , -0.        , -0.        , -0.07021667,  0.17830877,  0.        , -0.        , -0.        ,  0.01381452, -0.00538165,
        -0.        ,  0.        ,  3.0696537 , -0.        , -0.        ,  0.        ],
       [-0.03782509,  0.05436881, -0.        , -0.        , -0.00585927,  0.        , -0.        , -0.34054937,  0.00224456, -0.        ,  0.        ,
        -0.        , -0.        , -0.        ,  0.        , -0.        ,  0.        , -0.97809533, -0.00623233,  0.0153204 , -0.        ,  0.        ,
         0.03412166,  0.        , -0.        ,  1.81014712, -0.00668037,  0.0093075 ],
       [ 0.00298964, -0.00041585, -0.        , -0.        , -0.13607639,  0.        ,  0.        ,  0.00049696,  0.51672949,  0.        , -0.        ,
        -0.        ,  0.        , -0.        ,  0.        ,  0.        ,  0.        ,  0.00405567,  0.16745795, -1.08273996, -0.        , -0.        ,
        -0.00206788,  0.        , -0.        , -0.00668037,  1.3558138 ,  0.46072248],
       [ 0.0152606 , -0.001155  , -0.        ,  0.        ,  0.10850234, -0.        ,  0.        ,  0.0008797 ,  1.17925803,  0.        , -0.        ,
         0.        ,  0.        ,  0.        , -0.        , -0.        , -0.        , -0.0071791 ,  0.94927176,  0.36773059,  0.        , -0.        ,
        -0.00768455,  0.        ,  0.        ,  0.0093075 ,  0.46072248,  3.57801122]]))
E(UHF) =    -1.409940
NO eigenvalue
[-1. -0. -0. -0. -0. -0. -0. -0. -0. -0. -0. -0. -0.  0.  0.  0.  0.  0.  0.  0.  0.  0.  0.  0.  0.  0.  0.  0.] [-1. -0. -0. -0. -0. -0. -0. -0. -0. -0. -0. -0. -0. -0. -0.  0.  0.  0.  0.  0.  0.  0.  0.  0.  0.  0.  0.  0.]
NO vec
[[ 0.90221893  0.          0.39799708 ...  0.          0.          0.        ]
 [-0.24904589  0.          0.78483458 ...  0.          0.          0.        ]
 [ 0.          0.         -0.         ...  0.          0.          0.        ]
 ...
 [ 0.          0.03032129  0.         ...  0.21949757 -0.35711302  0.08776819]
 [ 0.         -0.03031698  0.         ...  0.20867713  0.22639307 -0.09450247]
 [ 0.         -0.02535537  0.         ...  0.65544804  0.5399941  -0.14461576]]
dm(NO)
[[ 1.  0. -0. ...  0.  0.  0.]
 [ 0.  1.  0. ...  0. -0. -0.]
 [-0.  0. -0. ...  0.  0.  0.]
 ...
 [ 0.  0.  0. ...  0. -0. -0.]
 [ 0. -0.  0. ... -0. -0.  0.]
 [ 0. -0.  0. ... -0. -0. -0.]]
D(g) (NO)
[[ 0.99951369  0.02354823 -0.         ...  0.00164467 -0.00309571 -0.01986031]
 [-0.02354823  0.99951369 -0.01011427 ...  0.         -0.         -0.        ]
 [-0.          0.01011427  0.99951369 ... -0.00066057  0.00535533  0.00922272]
 ...
 [-0.00164467 -0.          0.00066057 ...  0.99951369  0.         -0.        ]
 [ 0.00309571 -0.         -0.00535533 ... -0.          0.99951369 -0.        ]
 [ 0.01986031 -0.         -0.00922272 ...  0.         -0.          0.99951369]]
...
N(g) (NO)
[[ 0.99993153 -0.02355807]
 [ 0.02355807  0.99993153]]
...
P(g) (NO)
[[ 1.          0.         -0.         ...  0.         -0.          0.        ]
 [ 0.          1.         -0.         ...  0.         -0.         -0.        ]
 [ 0.00023827  0.01011358 -0.         ...  0.         -0.         -0.        ]
 ...
 [-0.00164456  0.00003875  0.         ...  0.         -0.         -0.        ]
 [ 0.0030955  -0.00007293 -0.         ... -0.          0.          0.        ]
 [ 0.01985895 -0.00046787 -0.         ... -0.          0.          0.        ]]
...
Pg_ortho
[[ 0.81414541 -0.22473433  0.         ...  0.00020885 -0.00020882 -0.00017465]
 [-0.22473433  0.06203501 -0.         ... -0.00005765  0.00005764  0.00004821]
 [ 0.         -0.          0.         ...  0.         -0.         -0.        ]
 ...
 [-0.00020885  0.00005765 -0.         ...  0.00091955 -0.00091942 -0.00076895]
 [-0.00149694  0.00041321 -0.         ... -0.00091806  0.00091793  0.00076771]
 [-0.00125196  0.00034559 -0.         ... -0.00076782  0.00076771  0.00064207]]
G(g) (NO)
[[ 0.42804602 -0.00170862  0.10344355 ... -0.00020232 -0.00006074 -0.00173379]
 [ 0.00170862  0.42804602 -0.0010164  ...  0.02779627 -0.00315294 -0.07863781]
 [ 0.10335265 -0.00530081  0.97132955 ... -0.00034672 -0.0002709   0.00020175]
 ...
 [ 0.00131047  0.02778328  0.00022633 ...  0.89269719 -0.02752626 -0.02799209]
 [-0.00127095 -0.00313613 -0.00011033 ... -0.02752544  0.85872146 -0.03726911]
 [-0.01056737 -0.07848799  0.00075622 ... -0.02799356 -0.03726423  0.83018962]]
...
C(NO)
[[-1.          0.          0.         ...  0.          0.          0.        ]
 [ 0.         -1.          0.         ...  0.          0.         -0.        ]
 [ 0.          0.         -0.43995502 ...  0.          0.          0.        ]
 ...
 [ 0.          0.          0.         ...  0.         -0.37473747 -0.36661749]
 [ 0.          0.          0.         ... -0.          0.18553288 -0.26030815]
 [ 0.          0.          0.         ...  0.         -0.06445874  0.07797331]]
detC 1.0000000000000018
detNg [1.00041805 1.0109863  1.06040478 1.1817677  1.38107749 1.59432111 1.72078763 1.75229489]
xg [0.99958213 0.98913309 0.94303611 0.84618999 0.72407233 0.62722622 0.58112924 0.5706802 ]
ciS 1.570262327042601
[[-0.91897297  0.         -0.10345647 ...  0.          0.          0.        ]
 [ 0.         -0.91897297  0.         ... -0.02779257  0.0031533   0.07866063]
 [-0.10345647  0.          0.07083157 ...  0.          0.          0.        ]
 ...
 [ 0.         -0.02779257  0.         ...  1.56060279  0.32776632  0.00369172]
 [ 0.          0.0031533   0.         ...  0.32776632  2.41344385 -0.48084405]
 [ 0.          0.07866063  0.         ...  0.00369172 -0.48084405 -0.60441034]]
ciH -2.251571019076758
S2 = -0.000000
X(g)
[[ 2.         -0.          0.00023827 ...  0.00164456 -0.0030955  -0.01985895]
 [ 0.          2.         -0.01011358 ...  0.00003875 -0.00007293 -0.00046787]
 [ 0.00023827  0.01011358  0.         ...  0.          0.          0.        ]
 ...
 [-0.00164456  0.00003875  0.         ...  0.          0.          0.        ]
 [ 0.0030955  -0.00007293  0.         ...  0.          0.          0.        ]
 [ 0.01985895 -0.00046787  0.         ...  0.          0.          0.        ]]
X(g) int
[[ 2.          0.          0.1559836  ...  0.02638008 -0.04965429 -0.31855382]
 [-0.          2.         -0.16223012 ...  0.02536434 -0.0477424  -0.30628821]
 [ 0.1559836   0.16223012  0.         ...  0.          0.          0.        ]
 ...
 [-0.02638008  0.02536434  0.         ...  0.          0.          0.        ]
 [ 0.04965429 -0.0477424   0.         ...  0.          0.          0.        ]
 [ 0.31855382 -0.30628821  0.         ...  0.          0.          0.        ]]
Hsp + Hph =  -1.4338820847325042
Feff (mod,ortho)
[[-0.27483083  0.42972831  0.         ...  0.          0.          0.        ]
 [ 0.42972831  1.23542714  0.         ...  0.          0.          0.        ]
 [ 0.          0.          1.29701311 ...  0.          0.          0.        ]
 ...
 [ 0.          0.          0.         ...  1.81017759 -0.0067308   0.00934376]
 [ 0.          0.          0.         ... -0.0067308   1.35588419  0.46070292]
 [ 0.          0.          0.         ...  0.00934376  0.46070292  3.57792926]]
E(SUHF) =     -1.05589836
e_a, e_b
[-0.49297717  0.08093003  0.35103089  0.48052366  0.66580805  0.66580805  0.85380875  0.96635101  0.96635101  1.37145219  2.55165665  2.71281327  3.11772316
  3.12342528  3.12342528  3.3611345   3.3611345   3.5560476   3.5560476   3.85353898  3.85353898  3.90564322  3.90564322  4.05425303  4.1660063   4.1660063
  4.3575799   5.28715644] [-0.49297717  0.08093003  0.35103089  0.48052366  0.66580805  0.66580805  0.85380875  0.96635101  0.96635101  1.37145219  2.55165665  2.71281327  3.11772316
  3.12342528  3.12342528  3.3611345   3.3611345   3.5560476   3.5560476   3.85353898  3.85353898  3.90564322  3.90564322  4.05425303  4.1660063   4.1660063
  4.3575799   5.28715644]
P_a, P_b
[[ 0.7807544  -0.21540389  0.          0.         -0.33302064 -0.          0.          0.00132015 -0.08949408 -0.         -0.         -0.         -0.
  -0.          0.          0.         -0.          0.01342403  0.01371599  0.05730263  0.          0.          0.01310118 -0.         -0.          0.02457464
   0.02686689  0.02674222]
 [-0.21540389  0.05942821 -0.         -0.          0.09187773  0.         -0.         -0.00036422  0.0246907   0.          0.          0.          0.
   0.         -0.         -0.          0.         -0.00370358 -0.00378413 -0.01580934 -0.         -0.         -0.00361451  0.          0.         -0.00677995
  -0.00741236 -0.00737796]
 [ 0.         -0.          0.          0.         -0.         -0.          0.          0.         -0.         -0.         -0.         -0.         -0.
  -0.          0.          0.         -0.          0.          0.          0.          0.          0.          0.         -0.         -0.          0.
   0.          0.        ]
 [ 0.         -0.          0.          0.         -0.         -0.          0.          0.         -0.         -0.         -0.         -0.         -0.
  -0.          0.          0.         -0.          0.          0.          0.          0.          0.          0.         -0.         -0.          0.
   0.          0.        ]
 [-0.33302064  0.09187773 -0.         -0.          0.14204562  0.         -0.         -0.00056309  0.03817254  0.          0.          0.          0.
   0.         -0.         -0.          0.         -0.00572584 -0.00585038 -0.02444169 -0.         -0.         -0.00558814  0.          0.         -0.01048199
  -0.01145972 -0.01140654]
 [-0.          0.         -0.         -0.          0.          0.         -0.         -0.          0.          0.          0.          0.          0.
   0.         -0.         -0.          0.         -0.         -0.         -0.         -0.         -0.         -0.          0.          0.         -0.
  -0.         -0.        ]
 [ 0.         -0.          0.          0.         -0.         -0.          0.          0.         -0.         -0.         -0.         -0.         -0.
  -0.          0.          0.         -0.          0.          0.          0.          0.          0.          0.         -0.         -0.          0.
   0.          0.        ]
 [ 0.00132015 -0.00036422  0.          0.         -0.00056309 -0.          0.          0.00000223 -0.00015132 -0.         -0.         -0.         -0.
  -0.          0.          0.         -0.          0.0000227   0.00002319  0.00009689  0.          0.          0.00002215 -0.         -0.          0.00004155
   0.00004543  0.00004522]
 [-0.08949408  0.0246907  -0.         -0.          0.03817254  0.         -0.         -0.00015132  0.01025827  0.          0.          0.          0.
   0.         -0.         -0.          0.         -0.00153873 -0.0015722  -0.00656832 -0.         -0.         -0.00150172  0.          0.         -0.00281687
  -0.00307962 -0.00306533]
 [-0.          0.         -0.         -0.          0.          0.         -0.         -0.          0.          0.          0.          0.          0.
   0.         -0.         -0.          0.         -0.         -0.         -0.         -0.         -0.         -0.          0.          0.         -0.
  -0.         -0.        ]
 [-0.          0.         -0.         -0.          0.          0.         -0.         -0.          0.          0.          0.          0.          0.
   0.         -0.         -0.          0.         -0.         -0.         -0.         -0.         -0.         -0.          0.          0.         -0.
  -0.         -0.        ]
 [-0.          0.         -0.         -0.          0.          0.         -0.         -0.          0.          0.          0.          0.          0.
   0.         -0.         -0.          0.         -0.         -0.         -0.         -0.         -0.         -0.          0.          0.         -0.
  -0.         -0.        ]
 [-0.          0.         -0.         -0.          0.          0.         -0.         -0.          0.          0.          0.          0.          0.
   0.         -0.         -0.          0.         -0.         -0.         -0.         -0.         -0.         -0.          0.          0.         -0.
  -0.         -0.        ]
 [-0.          0.         -0.         -0.          0.          0.         -0.         -0.          0.          0.          0.          0.          0.
   0.         -0.         -0.          0.         -0.         -0.         -0.         -0.         -0.         -0.          0.          0.         -0.
  -0.         -0.        ]
 [ 0.         -0.          0.          0.         -0.         -0.          0.          0.         -0.         -0.         -0.         -0.         -0.
  -0.          0.          0.         -0.          0.          0.          0.          0.          0.          0.         -0.         -0.          0.
   0.          0.        ]
 [ 0.         -0.          0.          0.         -0.         -0.          0.          0.         -0.         -0.         -0.         -0.         -0.
  -0.          0.          0.         -0.          0.          0.          0.          0.          0.          0.         -0.         -0.          0.
   0.          0.        ]
 [-0.          0.         -0.         -0.          0.          0.         -0.         -0.          0.          0.          0.          0.          0.
   0.         -0.         -0.          0.         -0.         -0.         -0.         -0.         -0.         -0.          0.          0.         -0.
  -0.         -0.        ]
 [ 0.01342403 -0.00370358  0.          0.         -0.00572584 -0.          0.          0.0000227  -0.00153873 -0.         -0.         -0.         -0.
  -0.          0.          0.         -0.          0.00023081  0.00023583  0.00098524  0.          0.          0.00022526 -0.         -0.          0.00042253
   0.00046194  0.0004598 ]
 [ 0.01371599 -0.00378413  0.          0.         -0.00585038 -0.          0.          0.00002319 -0.0015722  -0.         -0.         -0.         -0.
  -0.          0.          0.         -0.          0.00023583  0.00024096  0.00100667  0.          0.          0.00023016 -0.         -0.          0.00043172
   0.00047199  0.0004698 ]
 [ 0.05730263 -0.01580934  0.          0.         -0.02444169 -0.          0.          0.00009689 -0.00656832 -0.         -0.         -0.         -0.
  -0.          0.          0.         -0.          0.00098524  0.00100667  0.00420567  0.          0.          0.00096155 -0.         -0.          0.00180363
   0.00197187  0.00196272]
 [ 0.         -0.          0.          0.         -0.         -0.          0.          0.         -0.         -0.         -0.         -0.         -0.
  -0.          0.          0.         -0.          0.          0.          0.          0.          0.          0.         -0.         -0.          0.
   0.          0.        ]
 [ 0.         -0.          0.          0.         -0.         -0.          0.          0.         -0.         -0.         -0.         -0.         -0.
  -0.          0.          0.         -0.          0.          0.          0.          0.          0.          0.         -0.         -0.          0.
   0.          0.        ]
 [ 0.01310118 -0.00361451  0.          0.         -0.00558814 -0.          0.          0.00002215 -0.00150172 -0.         -0.         -0.         -0.
  -0.          0.          0.         -0.          0.00022526  0.00023016  0.00096155  0.          0.          0.00021984 -0.         -0.          0.00041237
   0.00045083  0.00044874]
 [-0.          0.         -0.         -0.          0.          0.         -0.         -0.          0.          0.          0.          0.          0.
   0.         -0.         -0.          0.         -0.         -0.         -0.         -0.         -0.         -0.          0.          0.         -0.
  -0.         -0.        ]
 [-0.          0.         -0.         -0.          0.          0.         -0.         -0.          0.          0.          0.          0.          0.
   0.         -0.         -0.          0.         -0.         -0.         -0.         -0.         -0.         -0.          0.          0.         -0.
  -0.         -0.        ]
 [ 0.02457464 -0.00677995  0.          0.         -0.01048199 -0.          0.          0.00004155 -0.00281687 -0.         -0.         -0.         -0.
  -0.          0.          0.         -0.          0.00042253  0.00043172  0.00180363  0.          0.          0.00041237 -0.         -0.          0.0007735
   0.00084565  0.00084172]
 [ 0.02686689 -0.00741236  0.          0.         -0.01145972 -0.          0.          0.00004543 -0.00307962 -0.         -0.         -0.         -0.
  -0.          0.          0.         -0.          0.00046194  0.00047199  0.00197187  0.          0.          0.00045083 -0.         -0.          0.00084565
   0.00092453  0.00092024]
 [ 0.02674222 -0.00737796  0.          0.         -0.01140654 -0.          0.          0.00004522 -0.00306533 -0.         -0.         -0.         -0.
  -0.          0.          0.         -0.          0.0004598   0.0004698   0.00196272  0.          0.          0.00044874 -0.         -0.          0.00084172
   0.00092024  0.00091597]] 
 [[ 0.7807544  -0.21540389  0.          0.          0.33302064  0.         -0.          0.00132015  0.08949408  0.          0.          0.          0.
   0.         -0.         -0.         -0.          0.01342403 -0.01371599 -0.05730263 -0.         -0.          0.01310118  0.          0.          0.02457464
  -0.02686689 -0.02674222]
 [-0.21540389  0.05942821 -0.         -0.         -0.09187773 -0.          0.         -0.00036422 -0.0246907  -0.         -0.         -0.         -0.
  -0.          0.          0.          0.         -0.00370358  0.00378413  0.01580934  0.          0.         -0.00361451 -0.         -0.         -0.00677995
   0.00741236  0.00737796]
 [ 0.         -0.          0.          0.          0.          0.         -0.          0.          0.          0.          0.          0.          0.
   0.         -0.         -0.         -0.          0.         -0.         -0.         -0.         -0.          0.          0.          0.          0.
  -0.         -0.        ]
 [ 0.         -0.          0.          0.          0.          0.         -0.          0.          0.          0.          0.          0.          0.
   0.         -0.         -0.         -0.          0.         -0.         -0.         -0.         -0.          0.          0.          0.          0.
  -0.         -0.        ]
 [ 0.33302064 -0.09187773  0.          0.          0.14204562  0.         -0.          0.00056309  0.03817254  0.          0.          0.          0.
   0.         -0.         -0.         -0.          0.00572584 -0.00585038 -0.02444169 -0.         -0.          0.00558814  0.          0.          0.01048199
  -0.01145972 -0.01140654]
 [ 0.         -0.          0.          0.          0.          0.         -0.          0.          0.          0.          0.          0.          0.
   0.         -0.         -0.         -0.          0.         -0.         -0.         -0.         -0.          0.          0.          0.          0.
  -0.         -0.        ]
 [-0.          0.         -0.         -0.         -0.         -0.          0.         -0.         -0.         -0.         -0.         -0.         -0.
  -0.          0.          0.          0.         -0.          0.          0.          0.          0.         -0.         -0.         -0.         -0.
   0.          0.        ]
 [ 0.00132015 -0.00036422  0.          0.          0.00056309  0.         -0.          0.00000223  0.00015132  0.          0.          0.          0.
   0.         -0.         -0.         -0.          0.0000227  -0.00002319 -0.00009689 -0.         -0.          0.00002215  0.          0.          0.00004155
  -0.00004543 -0.00004522]
 [ 0.08949408 -0.0246907   0.          0.          0.03817254  0.         -0.          0.00015132  0.01025827  0.          0.          0.          0.
   0.         -0.         -0.         -0.          0.00153873 -0.0015722  -0.00656832 -0.         -0.          0.00150172  0.          0.          0.00281687
  -0.00307962 -0.00306533]
 [ 0.         -0.          0.          0.          0.          0.         -0.          0.          0.          0.          0.          0.          0.
   0.         -0.         -0.         -0.          0.         -0.         -0.         -0.         -0.          0.          0.          0.          0.
  -0.         -0.        ]
 [ 0.         -0.          0.          0.          0.          0.         -0.          0.          0.          0.          0.          0.          0.
   0.         -0.         -0.         -0.          0.         -0.         -0.         -0.         -0.          0.          0.          0.          0.
  -0.         -0.        ]
 [ 0.         -0.          0.          0.          0.          0.         -0.          0.          0.          0.          0.          0.          0.
   0.         -0.         -0.         -0.          0.         -0.         -0.         -0.         -0.          0.          0.          0.          0.
  -0.         -0.        ]
 [ 0.         -0.          0.          0.          0.          0.         -0.          0.          0.          0.          0.          0.          0.
   0.         -0.         -0.         -0.          0.         -0.         -0.         -0.         -0.          0.          0.          0.          0.
  -0.         -0.        ]
 [ 0.         -0.          0.          0.          0.          0.         -0.          0.          0.          0.          0.          0.          0.
   0.         -0.         -0.         -0.          0.         -0.         -0.         -0.         -0.          0.          0.          0.          0.
  -0.         -0.        ]
 [-0.          0.         -0.         -0.         -0.         -0.          0.         -0.         -0.         -0.         -0.         -0.         -0.
  -0.          0.          0.          0.         -0.          0.          0.          0.          0.         -0.         -0.         -0.         -0.
   0.          0.        ]
 [-0.          0.         -0.         -0.         -0.         -0.          0.         -0.         -0.         -0.         -0.         -0.         -0.
  -0.          0.          0.          0.         -0.          0.          0.          0.          0.         -0.         -0.         -0.         -0.
   0.          0.        ]
 [-0.          0.         -0.         -0.         -0.         -0.          0.         -0.         -0.         -0.         -0.         -0.         -0.
  -0.          0.          0.          0.         -0.          0.          0.          0.          0.         -0.         -0.         -0.         -0.
   0.          0.        ]
 [ 0.01342403 -0.00370358  0.          0.          0.00572584  0.         -0.          0.0000227   0.00153873  0.          0.          0.          0.
   0.         -0.         -0.         -0.          0.00023081 -0.00023583 -0.00098524 -0.         -0.          0.00022526  0.          0.          0.00042253
  -0.00046194 -0.0004598 ]
 [-0.01371599  0.00378413 -0.         -0.         -0.00585038 -0.          0.         -0.00002319 -0.0015722  -0.         -0.         -0.         -0.
  -0.          0.          0.          0.         -0.00023583  0.00024096  0.00100667  0.          0.         -0.00023016 -0.         -0.         -0.00043172
   0.00047199  0.0004698 ]
 [-0.05730263  0.01580934 -0.         -0.         -0.02444169 -0.          0.         -0.00009689 -0.00656832 -0.         -0.         -0.         -0.
  -0.          0.          0.          0.         -0.00098524  0.00100667  0.00420567  0.          0.         -0.00096155 -0.         -0.         -0.00180363
   0.00197187  0.00196272]
 [-0.          0.         -0.         -0.         -0.         -0.          0.         -0.         -0.         -0.         -0.         -0.         -0.
  -0.          0.          0.          0.         -0.          0.          0.          0.          0.         -0.         -0.         -0.         -0.
   0.          0.        ]
 [-0.          0.         -0.         -0.         -0.         -0.          0.         -0.         -0.         -0.         -0.         -0.         -0.
  -0.          0.          0.          0.         -0.          0.          0.          0.          0.         -0.         -0.         -0.         -0.
   0.          0.        ]
 [ 0.01310118 -0.00361451  0.          0.          0.00558814  0.         -0.          0.00002215  0.00150172  0.          0.          0.          0.
   0.         -0.         -0.         -0.          0.00022526 -0.00023016 -0.00096155 -0.         -0.          0.00021984  0.          0.          0.00041237
  -0.00045083 -0.00044874]
 [ 0.         -0.          0.          0.          0.          0.         -0.          0.          0.          0.          0.          0.          0.
   0.         -0.         -0.         -0.          0.         -0.         -0.         -0.         -0.          0.          0.          0.          0.
  -0.         -0.        ]
 [ 0.         -0.          0.          0.          0.          0.         -0.          0.          0.          0.          0.          0.          0.
   0.         -0.         -0.         -0.          0.         -0.         -0.         -0.         -0.          0.          0.          0.          0.
  -0.         -0.        ]
 [ 0.02457464 -0.00677995  0.          0.          0.01048199  0.         -0.          0.00004155  0.00281687  0.          0.          0.          0.
   0.         -0.         -0.         -0.          0.00042253 -0.00043172 -0.00180363 -0.         -0.          0.00041237  0.          0.          0.0007735
  -0.00084565 -0.00084172]
 [-0.02686689  0.00741236 -0.         -0.         -0.01145972 -0.          0.         -0.00004543 -0.00307962 -0.         -0.         -0.         -0.
  -0.          0.          0.          0.         -0.00046194  0.00047199  0.00197187  0.          0.         -0.00045083 -0.         -0.         -0.00084565
   0.00092453  0.00092024]
 [-0.02674222  0.00737796 -0.         -0.         -0.01140654 -0.          0.         -0.00004522 -0.00306533 -0.         -0.         -0.         -0.
  -0.          0.          0.          0.         -0.0004598   0.0004698   0.00196272  0.          0.         -0.00044874 -0.         -0.         -0.00084172
[...]
 [ 0.35483488 -0.25128899  0.         ...  0.          0.          0.        ]]
Hsp + Hph =  -1.447951887579581
Feff (mod,ortho)
[[-0.2298645   0.42837478  0.         ...  0.          0.          0.        ]
 [ 0.42837478  1.24431158  0.         ...  0.          0.          0.        ]
 [ 0.          0.          1.30776743 ...  0.          0.          0.        ]
 ...
 [ 0.          0.          0.         ...  1.81756957 -0.00901076  0.01296658]
 [ 0.          0.          0.         ... -0.00901076  1.36043179  0.46075875]
 [ 0.          0.          0.         ...  0.01296658  0.46075875  3.58507775]]
E(SUHF) =     -1.06996817
e_a, e_b
[-0.50603194  0.09802311  0.34704172  0.49779622  0.67098744  0.67098744  0.86101562  0.97329748  0.97329748  1.37824426  2.55554625  2.73539906  3.12577525
  3.13304989  3.13304989  3.36997526  3.36997526  3.56767954  3.56767954  3.85611107  3.85611107  3.92789724  3.92789724  4.06763864  4.18075049  4.18075049
  4.37471837  5.2983579 ] [-0.50603194  0.09802311  0.34704172  0.49779622  0.67098744  0.67098744  0.86101562  0.97329748  0.97329748  1.37824426  2.55554625  2.73539906  3.12577525
  3.13304989  3.13304989  3.36997526  3.36997526  3.56767954  3.56767954  3.85611107  3.85611107  3.92789724  3.92789724  4.06763864  4.18075049  4.18075049
  4.37471837  5.2983579 ]
P_a, P_b
[[ 0.7192752  -0.20222772  0.         -0.         -0.37725172 -0.          0.          0.0035578  -0.11690541 -0.          0.         -0.         -0.
  -0.          0.          0.         -0.          0.02243618  0.02147545  0.03923946  0.          0.          0.01414471 -0.         -0.          0.02654471
   0.01390094  0.03770544]
 [-0.20222772  0.05685731 -0.          0.          0.10606616  0.         -0.         -0.00100029  0.03286853  0.         -0.          0.          0.
   0.         -0.         -0.          0.         -0.00630804 -0.00603793 -0.01103237 -0.         -0.         -0.00397685  0.          0.         -0.00746318
  -0.00390832 -0.01060107]
 [ 0.         -0.          0.         -0.         -0.         -0.          0.          0.         -0.         -0.          0.         -0.         -0.
  -0.          0.          0.         -0.          0.          0.          0.          0.          0.          0.         -0.         -0.          0.
   0.          0.        ]
 [-0.          0.         -0.          0.          0.          0.         -0.         -0.          0.          0.         -0.          0.          0.
   0.         -0.         -0.          0.         -0.         -0.         -0.         -0.         -0.         -0.          0.          0.         -0.
  -0.         -0.        ]
 [-0.37725172  0.10606616 -0.          0.          0.19786427  0.         -0.         -0.00186603  0.06131557  0.         -0.          0.          0.
   0.         -0.         -0.          0.         -0.01176752 -0.01126363 -0.02058065 -0.         -0.         -0.00741874  0.          0.         -0.0139224
  -0.00729089 -0.01977608]
 [-0.          0.         -0.          0.          0.          0.         -0.         -0.          0.          0.         -0.          0.          0.
   0.         -0.         -0.          0.         -0.         -0.         -0.         -0.         -0.         -0.          0.          0.         -0.
  -0.         -0.        ]
 [ 0.         -0.          0.         -0.         -0.         -0.          0.          0.         -0.         -0.          0.         -0.         -0.
  -0.          0.          0.         -0.          0.          0.          0.          0.          0.          0.         -0.         -0.          0.
   0.          0.        ]
 [ 0.0035578  -0.00100029  0.         -0.         -0.00186603 -0.          0.          0.0000176  -0.00057826 -0.          0.         -0.         -0.
  -0.          0.          0.         -0.          0.00011098  0.00010623  0.00019409  0.          0.          0.00006996 -0.         -0.          0.0001313
   0.00006876  0.0001865 ]
 [-0.11690541  0.03286853 -0.          0.          0.06131557  0.         -0.         -0.00057826  0.0190009   0.         -0.          0.          0.
   0.         -0.         -0.          0.         -0.0036466  -0.00349045 -0.00637768 -0.         -0.         -0.00229897  0.          0.         -0.00431437
  -0.00225935 -0.00612835]
 [-0.          0.         -0.          0.          0.          0.         -0.         -0.          0.          0.         -0.          0.          0.
   0.         -0.         -0.          0.         -0.         -0.         -0.         -0.         -0.         -0.          0.          0.         -0.
  -0.         -0.        ]
 [ 0.         -0.          0.         -0.         -0.         -0.          0.          0.         -0.         -0.          0.         -0.         -0.
  -0.          0.          0.         -0.          0.          0.          0.          0.          0.          0.         -0.         -0.          0.
   0.          0.        ]
 [-0.          0.         -0.          0.          0.          0.         -0.         -0.          0.          0.         -0.          0.          0.
   0.         -0.         -0.          0.         -0.         -0.         -0.         -0.         -0.         -0.          0.          0.         -0.
  -0.         -0.        ]
 [-0.          0.         -0.          0.          0.          0.         -0.         -0.          0.          0.         -0.          0.          0.
   0.         -0.         -0.          0.         -0.         -0.         -0.         -0.         -0.         -0.          0.          0.         -0.
  -0.         -0.        ]
 [-0.          0.         -0.          0.          0.          0.         -0.         -0.          0.          0.         -0.          0.          0.
   0.         -0.         -0.          0.         -0.         -0.         -0.         -0.         -0.         -0.          0.          0.         -0.
  -0.         -0.        ]
 [ 0.         -0.          0.         -0.         -0.         -0.          0.          0.         -0.         -0.          0.         -0.         -0.
  -0.          0.          0.         -0.          0.          0.          0.          0.          0.          0.         -0.         -0.          0.
   0.          0.        ]
 [ 0.         -0.          0.         -0.         -0.         -0.          0.          0.         -0.         -0.          0.         -0.         -0.
  -0.          0.          0.         -0.          0.          0.          0.          0.          0.          0.         -0.         -0.          0.
   0.          0.        ]
 [-0.          0.         -0.          0.          0.          0.         -0.         -0.          0.          0.         -0.          0.          0.
   0.         -0.         -0.          0.         -0.         -0.         -0.         -0.         -0.         -0.          0.          0.         -0.
  -0.         -0.        ]
 [ 0.02243618 -0.00630804  0.         -0.         -0.01176752 -0.          0.          0.00011098 -0.0036466  -0.          0.         -0.         -0.
  -0.          0.          0.         -0.          0.00069985  0.00066988  0.00122399  0.          0.          0.00044121 -0.         -0.          0.000828
   0.00043361  0.00117614]
 [ 0.02147545 -0.00603793  0.         -0.         -0.01126363 -0.          0.          0.00010623 -0.00349045 -0.          0.         -0.         -0.
  -0.          0.          0.         -0.          0.00066988  0.00064119  0.00117158  0.          0.          0.00042232 -0.         -0.          0.00079255
   0.00041504  0.00112577]
 [ 0.03923946 -0.01103237  0.         -0.         -0.02058065 -0.          0.          0.00019409 -0.00637768 -0.          0.         -0.         -0.
  -0.          0.          0.         -0.          0.00122399  0.00117158  0.00214068  0.          0.          0.00077165 -0.         -0.          0.00144812
   0.00075835  0.00205699]
 [ 0.         -0.          0.         -0.         -0.         -0.          0.          0.         -0.         -0.          0.         -0.         -0.
  -0.          0.          0.         -0.          0.          0.          0.          0.          0.          0.         -0.         -0.          0.
   0.          0.        ]
 [ 0.         -0.          0.         -0.         -0.         -0.          0.          0.         -0.         -0.          0.         -0.         -0.
  -0.          0.          0.         -0.          0.          0.          0.          0.          0.          0.         -0.         -0.          0.
   0.          0.        ]
 [ 0.01414471 -0.00397685  0.         -0.         -0.00741874 -0.          0.          0.00006996 -0.00229897 -0.          0.         -0.         -0.
  -0.          0.          0.         -0.          0.00044121  0.00042232  0.00077165  0.          0.          0.00027816 -0.         -0.          0.00052201
   0.00027337  0.00074149]
 [-0.          0.         -0.          0.          0.          0.         -0.         -0.          0.          0.         -0.          0.          0.
   0.         -0.         -0.          0.         -0.         -0.         -0.         -0.         -0.         -0.          0.          0.         -0.
  -0.         -0.        ]
 [-0.          0.         -0.          0.          0.          0.         -0.         -0.          0.          0.         -0.          0.          0.
   0.         -0.         -0.          0.         -0.         -0.         -0.         -0.         -0.         -0.          0.          0.         -0.
  -0.         -0.        ]
 [ 0.02654471 -0.00746318  0.         -0.         -0.0139224  -0.          0.          0.0001313  -0.00431437 -0.          0.         -0.         -0.
  -0.          0.          0.         -0.          0.000828    0.00079255  0.00144812  0.          0.          0.00052201 -0.         -0.          0.00097963
   0.00051301  0.00139151]
 [ 0.01390094 -0.00390832  0.         -0.         -0.00729089 -0.          0.          0.00006876 -0.00225935 -0.          0.         -0.         -0.
  -0.          0.          0.         -0.          0.00043361  0.00041504  0.00075835  0.          0.          0.00027337 -0.         -0.          0.00051301
   0.00026865  0.00072871]
 [ 0.03770544 -0.01060107  0.         -0.         -0.01977608 -0.          0.          0.0001865  -0.00612835 -0.          0.         -0.         -0.
  -0.          0.          0.         -0.          0.00117614  0.00112577  0.00205699  0.          0.          0.00074149 -0.         -0.          0.00139151
   0.00072871  0.00197657]] 
 [[ 0.7192752  -0.20222772 -0.          0.          0.37725172  0.          0.          0.0035578   0.11690541  0.         -0.          0.          0.
   0.         -0.         -0.         -0.          0.02243618 -0.02147545 -0.03923946 -0.         -0.          0.01414471  0.          0.          0.02654471
  -0.01390094 -0.03770544]
 [-0.20222772  0.05685731  0.         -0.         -0.10606616 -0.         -0.         -0.00100029 -0.03286853 -0.          0.         -0.         -0.
  -0.          0.          0.          0.         -0.00630804  0.00603793  0.01103237  0.          0.         -0.00397685 -0.         -0.         -0.00746318
   0.00390832  0.01060107]
 [-0.          0.          0.         -0.         -0.         -0.         -0.         -0.         -0.         -0.          0.         -0.         -0.
  -0.          0.          0.          0.         -0.          0.          0.          0.          0.         -0.         -0.         -0.         -0.
   0.          0.        ]
 [ 0.         -0.         -0.          0.          0.          0.          0.          0.          0.          0.         -0.          0.          0.
   0.         -0.         -0.         -0.          0.         -0.         -0.         -0.         -0.          0.          0.          0.          0.
  -0.         -0.        ]
 [ 0.37725172 -0.10606616 -0.          0.          0.19786427  0.          0.          0.00186603  0.06131557  0.         -0.          0.          0.
   0.         -0.         -0.         -0.          0.01176752 -0.01126363 -0.02058065 -0.         -0.          0.00741874  0.          0.          0.0139224
  -0.00729089 -0.01977608]
 [ 0.         -0.         -0.          0.          0.          0.          0.          0.          0.          0.         -0.          0.          0.
   0.         -0.         -0.         -0.          0.         -0.         -0.         -0.         -0.          0.          0.          0.          0.
  -0.         -0.        ]
 [ 0.         -0.         -0.          0.          0.          0.          0.          0.          0.          0.         -0.          0.          0.
   0.         -0.         -0.         -0.          0.         -0.         -0.         -0.         -0.          0.          0.          0.          0.
  -0.         -0.        ]
 [ 0.0035578  -0.00100029 -0.          0.          0.00186603  0.          0.          0.0000176   0.00057826  0.         -0.          0.          0.
   0.         -0.         -0.         -0.          0.00011098 -0.00010623 -0.00019409 -0.         -0.          0.00006996  0.          0.          0.0001313
  -0.00006876 -0.0001865 ]
 [ 0.11690541 -0.03286853 -0.          0.          0.06131557  0.          0.          0.00057826  0.0190009   0.         -0.          0.          0.
   0.         -0.         -0.         -0.          0.0036466  -0.00349045 -0.00637768 -0.         -0.          0.00229897  0.          0.          0.00431437
  -0.00225935 -0.00612835]
 [ 0.         -0.         -0.          0.          0.          0.          0.          0.          0.          0.         -0.          0.          0.
   0.         -0.         -0.         -0.          0.         -0.         -0.         -0.         -0.          0.          0.          0.          0.
  -0.         -0.        ]
 [-0.          0.          0.         -0.         -0.         -0.         -0.         -0.         -0.         -0.          0.         -0.         -0.
  -0.          0.          0.          0.         -0.          0.          0.          0.          0.         -0.         -0.         -0.         -0.
   0.          0.        ]
 [ 0.         -0.         -0.          0.          0.          0.          0.          0.          0.          0.         -0.          0.          0.
   0.         -0.         -0.         -0.          0.         -0.         -0.         -0.         -0.          0.          0.          0.          0.
  -0.         -0.        ]
 [ 0.         -0.         -0.          0.          0.          0.          0.          0.          0.          0.         -0.          0.          0.
   0.         -0.         -0.         -0.          0.         -0.         -0.         -0.         -0.          0.          0.          0.          0.
  -0.         -0.        ]
 [ 0.         -0.         -0.          0.          0.          0.          0.          0.          0.          0.         -0.          0.          0.
   0.         -0.         -0.         -0.          0.         -0.         -0.         -0.         -0.          0.          0.          0.          0.
  -0.         -0.        ]
 [-0.          0.          0.         -0.         -0.         -0.         -0.         -0.         -0.         -0.          0.         -0.         -0.
  -0.          0.          0.          0.         -0.          0.          0.          0.          0.         -0.         -0.         -0.         -0.
   0.          0.        ]
 [-0.          0.          0.         -0.         -0.         -0.         -0.         -0.         -0.         -0.          0.         -0.         -0.
  -0.          0.          0.          0.         -0.          0.          0.          0.          0.         -0.         -0.         -0.         -0.
   0.          0.        ]
 [-0.          0.          0.         -0.         -0.         -0.         -0.         -0.         -0.         -0.          0.         -0.         -0.
  -0.          0.          0.          0.         -0.          0.          0.          0.          0.         -0.         -0.         -0.         -0.
   0.          0.        ]
 [ 0.02243618 -0.00630804 -0.          0.          0.01176752  0.          0.          0.00011098  0.0036466   0.         -0.          0.          0.
   0.         -0.         -0.         -0.          0.00069985 -0.00066988 -0.00122399 -0.         -0.          0.00044121  0.          0.          0.000828
  -0.00043361 -0.00117614]
 [-0.02147545  0.00603793  0.         -0.         -0.01126363 -0.         -0.         -0.00010623 -0.00349045 -0.          0.         -0.         -0.
  -0.          0.          0.          0.         -0.00066988  0.00064119  0.00117158  0.          0.         -0.00042232 -0.         -0.         -0.00079255
   0.00041504  0.00112577]
 [-0.03923946  0.01103237  0.         -0.         -0.02058065 -0.         -0.         -0.00019409 -0.00637768 -0.          0.         -0.         -0.
  -0.          0.          0.          0.         -0.00122399  0.00117158  0.00214068  0.          0.         -0.00077165 -0.         -0.         -0.00144812
   0.00075835  0.00205699]
 [-0.          0.          0.         -0.         -0.         -0.         -0.         -0.         -0.         -0.          0.         -0.         -0.
  -0.          0.          0.          0.         -0.          0.          0.          0.          0.         -0.         -0.         -0.         -0.
   0.          0.        ]
 [-0.          0.          0.         -0.         -0.         -0.         -0.         -0.         -0.         -0.          0.         -0.         -0.
  -0.          0.          0.          0.         -0.          0.          0.          0.          0.         -0.         -0.         -0.         -0.
   0.          0.        ]
 [ 0.01414471 -0.00397685 -0.          0.          0.00741874  0.          0.          0.00006996  0.00229897  0.         -0.          0.          0.
   0.         -0.         -0.         -0.          0.00044121 -0.00042232 -0.00077165 -0.         -0.          0.00027816  0.          0.          0.00052201
  -0.00027337 -0.00074149]
 [ 0.         -0.         -0.          0.          0.          0.          0.          0.          0.          0.         -0.          0.          0.
   0.         -0.         -0.         -0.          0.         -0.         -0.         -0.         -0.          0.          0.          0.          0.
  -0.         -0.        ]
 [ 0.         -0.         -0.          0.          0.          0.          0.          0.          0.          0.         -0.          0.          0.
   0.         -0.         -0.         -0.          0.         -0.         -0.         -0.         -0.          0.          0.          0.          0.
  -0.         -0.        ]
 [ 0.02654471 -0.00746318 -0.          0.          0.0139224   0.          0.          0.0001313   0.00431437  0.         -0.          0.          0.
   0.         -0.         -0.         -0.          0.000828   -0.00079255 -0.00144812 -0.         -0.          0.00052201  0.          0.          0.00097963
  -0.00051301 -0.00139151]
 [-0.01390094  0.00390832  0.         -0.         -0.00729089 -0.         -0.         -0.00006876 -0.00225935 -0.          0.         -0.         -0.
  -0.          0.          0.          0.         -0.00043361  0.00041504  0.00075835  0.          0.         -0.00027337 -0.         -0.         -0.00051301
   0.00026865  0.00072871]
 [-0.03770544  0.01060107  0.         -0.         -0.01977608 -0.         -0.         -0.0001865  -0.00612835 -0.          0.         -0.         -0.
  -0.          0.          0.          0.         -0.00117614  0.00112577  0.00205699  0.          0.         -0.00074149 -0.         -0.         -0.00139151
   0.00072871  0.00197657]]

***************
SUHF converged at cycle 19
Final E(SUHF) =     -1.06996817, delta E = -5.61478e-09
