#INFO: **** input file is /share/home/srwang/ExSCF/test/pytest/scan_h2/scan_suhf.py ****
#import phf
from pyscf import lib
#import scipy
import numpy as np
import sys, os, contextlib

from pyphf import util, sudft

#xyz = 'h2.xyz' #sys.argv[1]
fch = 'test_uhf.fchk' #sys.argv[2]
#bas = '../h2.bas'
bas = 'cc-pvtz'

lib.num_threads(8)

for r in np.arange(0.5, 2.55, 0.1):
    output = 'suhf/suhf_%.1f_diis.out' % r
    os.system("echo '\n' > %s" % output)
    with open(output, 'w', encoding='utf-8') as f:
        with contextlib.redirect_stdout(f):
            xyz = '''H 0.0 0.0 0.0; H 0.0 0.0 %f'''%r
            mf = util.guess_from_fchk(xyz, bas, fch)
            #mf = util.guess(xyz, bas)
            #f.flush()
            mf2 = util.SUHF(mf)
            #mf2.cut_no = False
            mf2.debug = False
            #mf2.max_cycle = 50
            mf2.diis_on = True
            #mf2.output = 'sudft_%.1f.out'%r
            mf2.kernel()
            
            #mf3 = sudft.SUDFT(mf2)
            #mf3.suxc = 'TPSS'
            #mf3.kernel()
                    
#INFO: ******************** input file end ********************


System: uname_result(system='Linux', node='xcluster', release='3.10.0-693.el7.x86_64', version='#1 SMP Thu Jul 6 19:56:57 EDT 2017', machine='x86_64', processor='x86_64')  Threads 8
Python 3.7.4 (default, Aug 13 2019, 20:35:49) 
[GCC 7.3.0]
numpy 1.17.2  scipy 1.4.1
Date: Mon Nov 23 19:28:17 2020
PySCF version 1.7.5
PySCF path  /share/home/srwang/pyscf-1.7.5/pyscf

[CONFIG] conf_file None
[INPUT] verbose = 4
[INPUT] num. atoms = 2
[INPUT] num. electrons = 2
[INPUT] charge = 0
[INPUT] spin (= nelec alpha-beta = 2S) = 0
[INPUT] symmetry False subgroup None
[INPUT] Mole.unit = angstrom
[INPUT]  1 H      0.000000000000   0.000000000000   0.000000000000 AA    0.000000000000   0.000000000000   0.000000000000 Bohr
[INPUT]  2 H      0.000000000000   0.000000000000   2.100000000000 AA    0.000000000000   0.000000000000   3.968424861587 Bohr

nuclear repulsion = 0.251989148057143
number of shells = 12
number of NR pGTOs = 32
number of NR cGTOs = 28
basis = cc-pvtz
ecp = {}
CPU time:       830.24


******** <class 'pyscf.scf.uhf.UHF'> ********
method = UHF
initial guess = minao
damping factor = 0
level_shift factor = 0
DIIS = <class 'pyscf.scf.diis.CDIIS'>
diis_start_cycle = 1
diis_space = 8
SCF conv_tol = 1e-09
SCF conv_tol_grad = None
SCF max_cycles = 1
direct_scf = True
direct_scf_tol = 1e-13
chkfile to save SCF result = /share/home/srwang/ExSCF/test/pytest/scan_h2/tmp4ycxlfgo
max_memory 4000 MB (current use 125 MB)
number electrons alpha = 1  beta = 1
Set gradient conv threshold to 3.16228e-05
init E= -0.651208003439757
  alpha nocc = 1  HOMO = -0.24662660432929  LUMO = -0.111912100495558
  beta  nocc = 1  HOMO = -0.245203159036255  LUMO = -0.111599687178142
cycle= 1 E= -0.911063185643869  delta_E= -0.26  |g|= 0.0337  |ddm|= 0.436
SCF not converged.
SCF energy = -0.911063185643869 after 1 cycles  <S^2> = 2.2033932e-07  2S+1 = 1.0000004


******** <class 'pyscf.scf.uhf.UHF'> ********
method = UHF
initial guess = minao
damping factor = 0
level_shift factor = 0
DIIS = <class 'pyscf.scf.diis.CDIIS'>
diis_start_cycle = 1
diis_space = 8
SCF conv_tol = 1e-09
SCF conv_tol_grad = None
SCF max_cycles = 1
direct_scf = True
direct_scf_tol = 1e-13
chkfile to save SCF result = /share/home/srwang/ExSCF/test/pytest/scan_h2/tmp4ycxlfgo
max_memory 4000 MB (current use 125 MB)
number electrons alpha = 1  beta = 1
Set gradient conv threshold to 3.16228e-05
init E= -0.88463010917409
  alpha nocc = 1  HOMO = -0.490919873861728  LUMO = -0.0271115591955546
  beta  nocc = 1  HOMO = -0.490919873861729  LUMO = -0.0271115591955547
cycle= 1 E= -0.994628987552321  delta_E= -0.11  |g|= 0.0495  |ddm|= 0.109
SCF not converged.
SCF energy = -0.994628987552321 after 1 cycles  <S^2> = 0.7709912  2S+1 = 2.0208822

******** <class 'pyphf.util.SUHF'> ********
max_cycle = 70
verbose: normal
DIIS: <class 'pyscf.scf.diis.CDIIS'>
diis_start_cyc = 40
SVD: S^(-1/2)
[[-0.17821899  0.29301795  0.08696669  0.          0.          0.         -0.         -0.14756264 -0.02972752  0.          0.         -0.          0.
   0.          0.          0.         -0.          0.04991279 -0.6646199   0.64588099 -0.08777246 -0.         -0.         -0.         -0.          0.42902879
  -0.84410142  0.73496513]
 [-0.2535955   0.32057513  0.07511746  0.          0.          0.          0.         -0.1038636  -0.0022857  -0.         -0.          0.         -0.
  -0.         -0.         -0.          0.          0.00713905 -0.04641007 -0.21077066  0.0113776   0.          0.          0.         -0.         -0.38797382
   1.67345762 -1.63224697]
 [-0.2770669   0.20675714  0.04922242  0.          0.         -0.         -0.         -0.00893885  0.00062354  0.         -0.         -0.         -0.
   0.         -0.         -0.         -0.         -0.01642179  0.48585551 -0.59202423  0.13115796  0.         -0.          0.          0.         -0.29763523
  -0.98744122  1.6186908 ]
 [-0.         -0.          0.          0.27734068 -0.26309157  0.35568469 -0.19220401 -0.          0.         -0.02106895  0.00065677 -0.         -0.
  -0.         -0.         -0.00161117  0.02150851 -0.          0.         -0.         -0.         -0.79547212  0.10412138 -0.74120766 -0.32696616 -0.
  -0.          0.        ]
 [ 0.         -0.          0.          0.26309157  0.27734068 -0.19220401 -0.35568469  0.          0.         -0.00065677 -0.02106895  0.         -0.
   0.          0.          0.02150851  0.00161117 -0.          0.          0.         -0.         -0.10412138 -0.79547212 -0.32696616  0.74120766  0.
   0.         -0.        ]
 [-0.0428038  -0.08681232 -0.33754053  0.          0.          0.         -0.         -0.43763878 -0.07531473 -0.         -0.         -0.         -0.
   0.         -0.         -0.          0.          0.08999071 -0.13033035 -0.35782484  0.79679389  0.          0.          0.         -0.          0.75372545
   0.03342961 -0.15233656]
 [-0.         -0.          0.          0.28819875 -0.27339178  0.34237789 -0.18501331 -0.         -0.         -0.00051241  0.00001597 -0.         -0.
   0.         -0.         -0.00001929  0.00025756 -0.         -0.          0.         -0.          0.76618653 -0.10028811  0.7707289   0.33998875  0.
   0.          0.        ]
 [-0.         -0.          0.          0.27339178  0.28819875 -0.18501331 -0.34237789  0.          0.         -0.00001597 -0.00051241  0.          0.
   0.          0.          0.00025756  0.00001929 -0.          0.         -0.         -0.          0.10028811  0.76618653  0.33998875 -0.7707289  -0.
  -0.          0.        ]
 [-0.08473757 -0.11920462 -0.39250332  0.          0.          0.         -0.         -0.34337074 -0.00530394  0.          0.          0.          0.
  -0.          0.          0.         -0.          0.00019505  0.02075267  0.25535945 -0.69301917 -0.         -0.         -0.          0.         -1.04519599
  -0.0169698   0.33410928]
 [ 0.          0.          0.          0.         -0.          0.          0.         -0.          0.          0.         -0.         -0.          0.70702093
   0.          0.70719266 -0.          0.         -0.         -0.         -0.         -0.          0.         -0.          0.         -0.         -0.
   0.          0.        ]
 [-0.         -0.          0.          0.00805986  0.00849638  0.00592177  0.01095857  0.         -0.          0.02198031  0.70511791 -0.          0.
  -0.         -0.          0.70615322  0.05289698 -0.         -0.         -0.          0.         -0.00303827 -0.02321195  0.00983496 -0.02229511 -0.
  -0.         -0.        ]
 [-0.01346015 -0.00805332 -0.03556224 -0.         -0.         -0.         -0.          0.06718389  0.69673001 -0.         -0.         -0.          0.
   0.          0.          0.          0.          0.70568046 -0.04287494 -0.01176738  0.07703063  0.         -0.          0.          0.         -0.12917516
  -0.02615731  0.02153104]
 [-0.         -0.          0.          0.00849638 -0.00805986 -0.01095857  0.00592177 -0.         -0.          0.70511791 -0.02198031  0.         -0.
   0.         -0.         -0.05289698  0.70615322 -0.          0.          0.          0.         -0.02321195  0.00303827  0.02229511  0.00983496 -0.
   0.          0.        ]
 [ 0.          0.          0.         -0.         -0.         -0.          0.          0.          0.          0.          0.         -0.70702093 -0.
   0.70719266 -0.         -0.         -0.          0.          0.          0.         -0.          0.          0.         -0.         -0.         -0.
  -0.         -0.        ]
 [-0.17821899 -0.29301795  0.08696669 -0.         -0.         -0.         -0.          0.14756264 -0.02972752  0.         -0.          0.         -0.
  -0.         -0.         -0.         -0.         -0.04991279 -0.6646199  -0.64588099 -0.08777246  0.          0.          0.         -0.         -0.42902879
  -0.84410142 -0.73496513]
 [-0.2535955  -0.32057513  0.07511746 -0.         -0.         -0.          0.          0.1038636  -0.0022857   0.          0.         -0.          0.
   0.         -0.          0.         -0.         -0.00713905 -0.04641007  0.21077066  0.0113776  -0.         -0.         -0.          0.          0.38797382
   1.67345762  1.63224697]
 [-0.2770669  -0.20675714  0.04922242 -0.         -0.          0.          0.          0.00893885  0.00062354 -0.          0.          0.          0.
  -0.          0.         -0.          0.          0.01642179  0.48585551  0.59202423  0.13115796 -0.         -0.         -0.         -0.          0.29763523
  -0.98744122 -1.6186908 ]
 [-0.         -0.          0.          0.27734068 -0.26309157 -0.35568469  0.19220401 -0.         -0.         -0.02106895  0.00065677 -0.          0.
  -0.          0.          0.00161117 -0.02150851  0.          0.         -0.          0.         -0.79547212  0.10412138  0.74120766  0.32696616 -0.
   0.          0.        ]
 [-0.         -0.          0.          0.26309157  0.27734068  0.19220401  0.35568469  0.          0.         -0.00065677 -0.02106895  0.         -0.
   0.          0.         -0.02150851 -0.00161117 -0.         -0.         -0.          0.         -0.10412138 -0.79547212  0.32696616 -0.74120766 -0.
  -0.          0.        ]
 [ 0.0428038  -0.08681232  0.33754053  0.          0.          0.          0.         -0.43763878  0.07531473 -0.         -0.          0.         -0.
  -0.         -0.          0.          0.          0.08999071  0.13033035 -0.35782484 -0.79679389  0.          0.          0.         -0.          0.75372545
  -0.03342961 -0.15233656]
 [-0.         -0.          0.          0.28819875 -0.27339178 -0.34237789  0.18501331 -0.          0.         -0.00051241  0.00001597  0.          0.
   0.         -0.          0.00001929 -0.00025756 -0.         -0.          0.         -0.          0.76618653 -0.10028811 -0.7707289  -0.33998875  0.
   0.          0.        ]
 [-0.         -0.          0.          0.27339178  0.28819875  0.18501331  0.34237789  0.         -0.         -0.00001597 -0.00051241  0.          0.
   0.          0.         -0.00025756 -0.00001929  0.          0.          0.          0.          0.10028811  0.76618653 -0.33998875  0.7707289   0.
   0.         -0.        ]
 [ 0.08473757 -0.11920462  0.39250332  0.          0.          0.          0.         -0.34337074  0.00530394  0.         -0.         -0.          0.
   0.          0.         -0.         -0.          0.00019505 -0.02075267  0.25535945  0.69301917 -0.         -0.         -0.          0.         -1.04519599
   0.0169698   0.33410928]
 [-0.         -0.         -0.         -0.          0.         -0.         -0.         -0.          0.         -0.         -0.         -0.          0.70702093
  -0.         -0.70719266  0.          0.          0.         -0.         -0.          0.          0.          0.         -0.          0.          0.
   0.         -0.        ]
 [ 0.          0.         -0.         -0.00805986 -0.00849638  0.00592177  0.01095857 -0.         -0.         -0.02198031 -0.70511791  0.         -0.
   0.          0.          0.70615322  0.05289698 -0.          0.          0.         -0.          0.00303827  0.02321195  0.00983496 -0.02229511 -0.
  -0.          0.        ]
 [-0.01346015  0.00805332 -0.03556224  0.          0.         -0.         -0.         -0.06718389  0.69673001  0.         -0.         -0.          0.
   0.          0.          0.         -0.         -0.70568046 -0.04287494  0.01176738  0.07703063  0.          0.          0.         -0.          0.12917516
  -0.02615731 -0.02153104]
 [ 0.          0.         -0.         -0.00849638  0.00805986 -0.01095857  0.00592177  0.         -0.         -0.70511791  0.02198031 -0.         -0.
  -0.         -0.         -0.05289698  0.70615322 -0.         -0.          0.          0.          0.02321195 -0.00303827  0.02229511  0.00983496  0.
   0.          0.        ]
 [ 0.          0.          0.          0.         -0.         -0.          0.          0.          0.          0.         -0.         -0.70702093 -0.
  -0.70719266  0.          0.          0.          0.          0.          0.          0.          0.         -0.          0.          0.          0.
   0.          0.        ]]
C (ortho)
[[-0.84968071 -0.48780133 -0.01034859  0.1500762  -0.10729738  0.         -0.          0.          0.          0.01450192  0.04081567  0.0238895  -0.00628824
   0.          0.         -0.         -0.          0.          0.          0.         -0.          0.00230649 -0.          0.         -0.0586384  -0.
   0.          0.00442722]
 [ 0.49301983 -0.78296805 -0.06548366  0.27025454  0.03351257 -0.         -0.          0.          0.         -0.19038323 -0.02140255  0.13150188 -0.00789086
   0.         -0.         -0.          0.         -0.         -0.          0.          0.          0.07357585 -0.         -0.          0.00082376  0.
   0.         -0.07727111]
 [ 0.1274249   0.04157489  0.04018916  0.05269674 -0.88172894  0.          0.         -0.         -0.          0.05507926  0.00573517 -0.00286874  0.06147326
   0.          0.          0.         -0.          0.          0.          0.          0.          0.02345835 -0.          0.         -0.43813532 -0.
   0.          0.02880504]
 [ 0.         -0.         -0.          0.          0.          0.81448142  0.1775665   0.10523701  0.20167497  0.         -0.         -0.         -0.
  -0.03863618 -0.0347236  -0.         -0.         -0.         -0.          0.00368868  0.02320022  0.          0.47764571  0.01703765 -0.          0.06504263
   0.13200737 -0.        ]
 [ 0.         -0.         -0.         -0.         -0.          0.1775665  -0.81448142 -0.20167497  0.10523701  0.          0.          0.          0.
  -0.0347236   0.03863618  0.          0.          0.          0.          0.02320022 -0.00368868 -0.          0.01703765 -0.47764571 -0.         -0.13200737
   0.06504263  0.        ]
 [ 0.         -0.         -0.          0.          0.          0.02352814  0.23059677 -0.81718811  0.13574915 -0.         -0.         -0.          0.
  -0.00470905  0.01066548 -0.         -0.         -0.         -0.         -0.04993346  0.02561667  0.          0.03838505  0.13314815  0.         -0.48253176
   0.06872468 -0.        ]
 [ 0.          0.          0.         -0.         -0.         -0.23059677  0.02352814  0.13574915  0.81718811  0.          0.          0.          0.
  -0.01066548 -0.00470905  0.          0.          0.          0.         -0.02561667 -0.04993346 -0.         -0.13314815  0.03838505  0.          0.06872468
   0.48253176  0.        ]
 [-0.1009079   0.09183847  0.18841832 -0.22096497 -0.06939352  0.         -0.         -0.          0.         -0.79741096  0.00177877 -0.03926407 -0.00979823
  -0.          0.          0.         -0.          0.          0.          0.         -0.          0.17316329  0.         -0.         -0.01349803 -0.
   0.         -0.47388612]
 [-0.00693804 -0.00194161 -0.00268548 -0.00462518  0.01830898  0.         -0.          0.         -0.         -0.00489756  0.15790885  0.0579814   0.97743304
  -0.          0.          0.         -0.          0.          0.          0.         -0.          0.07272598  0.         -0.          0.10271384  0.
  -0.          0.00697816]
 [-0.          0.         -0.          0.          0.          0.00664736  0.00915029  0.00367783  0.00139264  0.         -0.         -0.         -0.
   0.10566053  0.94965676  0.          0.         -0.          0.          0.15102457 -0.23551449  0.          0.06595288  0.06312971  0.          0.0141726
   0.00574494 -0.        ]
 [-0.          0.         -0.          0.          0.          0.00915029 -0.00664736 -0.00139264  0.00367783  0.         -0.          0.          0.
   0.94965676 -0.10566053  0.         -0.          0.         -0.         -0.23551449 -0.15102457 -0.          0.06312971 -0.06595288 -0.         -0.00574494
   0.0141726  -0.        ]
 [ 0.          0.         -0.         -0.          0.         -0.          0.          0.         -0.          0.         -0.          0.         -0.
  -0.          0.         -0.74418295 -0.03863309  0.43037963 -0.50938453  0.          0.         -0.         -0.          0.         -0.          0.
  -0.          0.        ]
 [-0.          0.         -0.          0.         -0.          0.         -0.         -0.         -0.         -0.         -0.          0.          0.
   0.         -0.         -0.03863309  0.74418295  0.50938453  0.43037963  0.         -0.         -0.          0.         -0.         -0.         -0.
  -0.         -0.        ]
 [ 0.          0.         -0.         -0.          0.         -0.          0.          0.         -0.          0.         -0.          0.         -0.
  -0.          0.          0.66596094  0.03457232  0.48093088 -0.56921548  0.          0.          0.         -0.          0.         -0.          0.
  -0.          0.        ]
 [-0.          0.         -0.          0.         -0.         -0.         -0.         -0.         -0.         -0.         -0.          0.          0.
  -0.         -0.         -0.03457232  0.66596094 -0.56921548 -0.48093088  0.         -0.         -0.         -0.          0.         -0.         -0.
  -0.         -0.        ]
 [ 0.          0.         -0.          0.          0.         -0.00262134  0.00208477 -0.00593738  0.01382758  0.         -0.          0.         -0.
   0.2790035  -0.04342737 -0.         -0.         -0.          0.          0.82572748  0.48003913 -0.         -0.02737418  0.0312158   0.         -0.03232438
   0.07072028  0.        ]
 [-0.         -0.          0.         -0.         -0.         -0.00208477 -0.00262134  0.01382758  0.00593738 -0.          0.          0.          0.
   0.04342737  0.2790035  -0.          0.         -0.         -0.         -0.48003913  0.82572748 -0.         -0.0312158  -0.02737418  0.          0.07072028
   0.03232438  0.        ]
 [ 0.00621126  0.00526401 -0.04079431  0.0425156  -0.00132736 -0.         -0.          0.          0.         -0.07163755 -0.04115656  0.16053276  0.07519032
  -0.          0.          0.         -0.          0.          0.          0.         -0.         -0.9383724  -0.          0.         -0.06180484 -0.
   0.         -0.27174886]
 [ 0.01668719  0.15577281  0.58619027  0.50173069  0.13970847 -0.         -0.          0.          0.         -0.00534902  0.54887972  0.17108337 -0.0814137
   0.         -0.         -0.          0.         -0.         -0.          0.          0.          0.00432643 -0.          0.         -0.15256237 -0.
   0.          0.00979505]
 [-0.07648835  0.29316097 -0.47296054  0.44450192  0.0031323  -0.         -0.          0.          0.          0.00951443 -0.15948553  0.56316395 -0.02120109
   0.         -0.          0.         -0.          0.          0.         -0.          0.          0.23033993 -0.         -0.         -0.00567335  0.
   0.         -0.30117234]
 [ 0.00901391  0.01986168  0.14483751  0.1468897  -0.4228135   0.          0.         -0.         -0.          0.03585234  0.0413381   0.00996949 -0.08554611
   0.         -0.         -0.          0.         -0.         -0.          0.         -0.         -0.05160312  0.         -0.          0.87328215  0.
  -0.         -0.0500216 ]
 [ 0.         -0.         -0.          0.          0.          0.32150776  0.36124825  0.12455837  0.0618619   0.         -0.         -0.         -0.
   0.01373325  0.06449669  0.          0.          0.          0.          0.01636161 -0.03211361 -0.         -0.64997764 -0.50919642 -0.         -0.21570012
  -0.11342351  0.        ]
 [ 0.         -0.          0.         -0.         -0.          0.36124825 -0.32150776 -0.0618619   0.12455837 -0.          0.         -0.          0.
   0.06449669 -0.01373325 -0.         -0.          0.          0.         -0.03211361 -0.01636161  0.         -0.50919642  0.64997764  0.          0.11342351
  -0.21570012  0.        ]
 [ 0.         -0.         -0.          0.          0.          0.11173905  0.06978126 -0.36152605 -0.3342805  -0.         -0.         -0.          0.
  -0.00414642 -0.00767929  0.          0.          0.          0.          0.01234548 -0.0656372  -0.         -0.22858772 -0.09110027  0.          0.59021477
   0.57162797  0.        ]
 [ 0.         -0.         -0.          0.          0.         -0.06978126  0.11173905 -0.3342805   0.36152605 -0.         -0.         -0.         -0.
   0.00767929 -0.00414642  0.         -0.         -0.         -0.          0.0656372   0.01234548 -0.          0.09110027 -0.22858772 -0.          0.57162797
  -0.59021477 -0.        ]
 [-0.0398173   0.07842904 -0.03533424  0.01942652 -0.03493598 -0.          0.          0.          0.         -0.49818845 -0.10750835  0.3481292  -0.00616848
  -0.          0.          0.         -0.          0.          0.          0.          0.         -0.12114176  0.          0.          0.04218162 -0.
  -0.          0.7694028 ]
 [ 0.02592388 -0.07068386 -0.41764198 -0.39342325 -0.07238808  0.          0.         -0.         -0.         -0.00366568  0.76828607  0.21621777 -0.14287713
  -0.         -0.          0.          0.         -0.         -0.         -0.          0.         -0.01020104  0.         -0.          0.04832223  0.
  -0.         -0.00223997]
 [-0.00051258 -0.13063806  0.43915241 -0.47429603 -0.00239473  0.          0.         -0.         -0.          0.26434889 -0.20242516  0.66105025 -0.01210627
   0.         -0.         -0.          0.         -0.         -0.         -0.         -0.          0.08772774 -0.          0.         -0.00162046  0.
   0.         -0.09709319]]
[[-0.84968071 -0.48780133 -0.01034859  0.1500762   0.10729738  0.         -0.          0.         -0.         -0.01450192  0.04081567  0.0238895  -0.00628824
   0.          0.          0.          0.          0.          0.          0.         -0.          0.00230649  0.          0.          0.0586384   0.
   0.         -0.00442722]
 [-0.49301983  0.78296805  0.06548366 -0.27025454  0.03351257 -0.         -0.         -0.         -0.         -0.19038323  0.02140255 -0.13150188  0.00789086
   0.         -0.          0.          0.          0.          0.          0.         -0.         -0.07357585 -0.          0.          0.00082376  0.
  -0.         -0.07727111]
 [ 0.1274249   0.04157489  0.04018916  0.05269674  0.88172894  0.          0.          0.          0.         -0.05507926  0.00573517 -0.00286874  0.06147326
  -0.          0.         -0.          0.          0.         -0.         -0.         -0.          0.02345835  0.          0.          0.43813532  0.
   0.         -0.02880504]
 [-0.          0.          0.         -0.         -0.          0.60759434  0.57073546  0.18964534  0.12562748  0.         -0.         -0.          0.
   0.03603049  0.0374204  -0.          0.         -0.          0.         -0.01713622 -0.0160688   0.          0.32794154  0.34769246 -0.          0.13311679
   0.0627408   0.        ]
 [-0.          0.          0.         -0.          0.         -0.57073546  0.60759434 -0.12562748  0.18964534  0.         -0.         -0.         -0.
  -0.0374204   0.03603049 -0.         -0.         -0.          0.          0.0160688  -0.01713622  0.          0.34769246 -0.32794154  0.         -0.0627408
   0.13311679  0.        ]
 [-0.          0.          0.         -0.         -0.         -0.20338101  0.11119627  0.64961727 -0.51402494  0.          0.         -0.         -0.
   0.0104974  -0.00507269  0.          0.         -0.         -0.          0.04921845 -0.02696494 -0.          0.06622633 -0.12172065 -0.          0.33464022
  -0.35436691  0.        ]
 [ 0.         -0.         -0.          0.          0.          0.11119627  0.20338101 -0.51402494 -0.64961727  0.          0.          0.         -0.
  -0.00507269 -0.0104974   0.          0.         -0.         -0.         -0.02696494 -0.04921845 -0.          0.12172065  0.06622633  0.         -0.35436691
  -0.33464022 -0.        ]
 [ 0.1009079  -0.09183847 -0.18841832  0.22096497 -0.06939352 -0.          0.         -0.          0.         -0.79741096 -0.00177877  0.03926407  0.00979823
  -0.          0.         -0.          0.          0.          0.          0.         -0.         -0.17316329  0.         -0.         -0.01349803 -0.
   0.         -0.47388612]
 [-0.00693804 -0.00194161 -0.00268548 -0.00462518 -0.01830898  0.          0.          0.          0.          0.00489756  0.15790885  0.0579814   0.97743304
  -0.         -0.          0.         -0.         -0.          0.         -0.          0.          0.07272598 -0.         -0.         -0.10271384 -0.
  -0.         -0.00697816]
 [-0.          0.          0.         -0.          0.          0.01130606  0.00029688  0.00389263 -0.00055971  0.          0.          0.         -0.
  -0.95272623 -0.07297158  0.         -0.          0.          0.          0.27968743  0.00710204 -0.          0.00258314  0.09126045 -0.          0.01466532
  -0.00433535  0.        ]
 [ 0.         -0.         -0.          0.          0.         -0.00029688  0.01130606  0.00055971  0.00389263 -0.         -0.         -0.         -0.
   0.07297158 -0.95272623 -0.         -0.          0.          0.         -0.00710204  0.27968743 -0.          0.09126045 -0.00258314 -0.          0.00433535
   0.01466532 -0.        ]
 [-0.          0.          0.          0.          0.          0.         -0.          0.         -0.         -0.          0.         -0.          0.
  -0.          0.         -0.74445418 -0.03299626 -0.00214179 -0.66685428  0.         -0.         -0.         -0.          0.         -0.          0.
  -0.         -0.        ]
 [ 0.         -0.          0.         -0.         -0.         -0.          0.          0.          0.          0.          0.         -0.          0.
  -0.         -0.         -0.03299626  0.74445418  0.66685428 -0.00214179 -0.         -0.          0.          0.         -0.         -0.          0.
  -0.         -0.        ]
 [-0.          0.          0.         -0.         -0.          0.         -0.         -0.         -0.          0.          0.         -0.          0.
  -0.          0.         -0.66620366 -0.02952798  0.00239336  0.74518122  0.         -0.          0.         -0.          0.          0.         -0.
  -0.         -0.        ]
 [ 0.         -0.          0.         -0.         -0.         -0.         -0.          0.         -0.          0.          0.         -0.          0.
   0.          0.          0.02952798 -0.66620366  0.74518122 -0.00239336 -0.         -0.          0.          0.         -0.         -0.          0.
  -0.         -0.        ]
 [-0.         -0.         -0.          0.          0.         -0.00023379  0.00334111 -0.0014904  -0.01497442 -0.          0.         -0.         -0.
  -0.03381624  0.28033079 -0.          0.          0.          0.         -0.0658455   0.95285246 -0.          0.04141105 -0.00298277  0.         -0.01877202
  -0.0754575  -0.        ]
 [ 0.          0.         -0.          0.          0.          0.00334111  0.00023379 -0.01497442  0.0014904  -0.          0.         -0.          0.
   0.28033079  0.03381624  0.          0.          0.         -0.          0.95285246  0.0658455   0.          0.00298277  0.04141105  0.         -0.0754575
   0.01877202 -0.        ]
 [-0.00621126 -0.00526401  0.04079431 -0.0425156  -0.00132736 -0.         -0.         -0.         -0.         -0.07163755  0.04115656 -0.16053276 -0.07519032
  -0.         -0.         -0.         -0.         -0.         -0.         -0.          0.          0.9383724   0.          0.         -0.06180484  0.
  -0.         -0.27174886]
 [ 0.01668719  0.15577281  0.58619027  0.50173069 -0.13970847 -0.          0.         -0.          0.          0.00534902  0.54887972  0.17108337 -0.0814137
  -0.         -0.          0.         -0.         -0.         -0.         -0.         -0.          0.00432643  0.          0.          0.15256237  0.
   0.         -0.00979505]
 [ 0.07648835 -0.29316097  0.47296054 -0.44450192  0.0031323  -0.          0.         -0.          0.          0.00951443  0.15948553 -0.56316395  0.02120109
   0.          0.          0.         -0.         -0.          0.          0.         -0.         -0.23033993 -0.         -0.         -0.00567335 -0.
   0.         -0.30117234]
 [ 0.00901391  0.01986168  0.14483751  0.1468897   0.4228135  -0.          0.         -0.         -0.         -0.03585234  0.0413381   0.00996949 -0.08554611
   0.         -0.          0.          0.          0.          0.          0.          0.         -0.05160312 -0.         -0.         -0.87328215 -0.
  -0.          0.0500216 ]
 [ 0.          0.          0.         -0.         -0.          0.47981071  0.06040874  0.13894088 -0.00609216  0.         -0.          0.          0.
  -0.06493043 -0.01150928  0.         -0.          0.          0.          0.03576304  0.0044712   0.         -0.10481576 -0.8190028   0.         -0.23938933
   0.04565287 -0.        ]
 [ 0.         -0.         -0.         -0.         -0.         -0.06040874  0.47981071  0.00609216  0.13894088 -0.         -0.          0.          0.
   0.01150928 -0.06493043  0.         -0.          0.         -0.         -0.0044712   0.03576304 -0.         -0.8190028   0.10481576  0.         -0.04565287
  -0.23938933 -0.        ]
 [ 0.          0.          0.         -0.         -0.         -0.12079179 -0.0525774   0.47810023  0.1177485   0.         -0.          0.          0.
  -0.00781721 -0.00388014  0.          0.          0.         -0.         -0.06126142 -0.02660245  0.          0.09866984  0.22542375  0.         -0.81780112
  -0.07945643 -0.        ]
 [-0.          0.          0.          0.         -0.         -0.0525774   0.12079179  0.1177485  -0.47810023  0.          0.         -0.          0.
  -0.00388014  0.00781721 -0.         -0.          0.          0.         -0.02660245  0.06126142  0.         -0.22542375  0.09866984 -0.         -0.07945643
   0.81780112 -0.        ]
 [ 0.0398173  -0.07842904  0.03533424 -0.01942652 -0.03493598  0.         -0.          0.         -0.         -0.49818845  0.10750835 -0.3481292   0.00616848
  -0.         -0.          0.         -0.         -0.         -0.         -0.          0.          0.12114176 -0.         -0.          0.04218162 -0.
   0.          0.7694028 ]
 [ 0.02592388 -0.07068386 -0.41764198 -0.39342325  0.07238808  0.          0.          0.          0.          0.00366568  0.76828607  0.21621777 -0.14287713
   0.          0.         -0.         -0.         -0.         -0.          0.         -0.         -0.01020104  0.         -0.         -0.04832223 -0.
   0.          0.00223997]
 [ 0.00051258  0.13063806 -0.43915241  0.47429603 -0.00239473  0.          0.          0.          0.          0.26434889  0.20242516 -0.66105025  0.01210627
   0.          0.          0.          0.          0.          0.          0.         -0.         -0.08772774 -0.          0.         -0.00162046  0.
  -0.         -0.09709319]]
grids:  [0.06237655 0.31939555 0.74529195 1.28265786 1.85893479 2.39630071 2.8221971  3.07921611] 
weights:  [0.15900941 0.34931531 0.49276925 0.56970235 0.56970235 0.49276925 0.34931531 0.15900941]
S = 0.0, Sz = 0.0
Wigner small d:  1
value : [1. 1. 1. 1. 1. 1. 1. 1.]
**** Start Cycle 1 ****
dm (ortho)
[[[ 0.72195732 -0.41890944 -0.10827048 ...  0.03383199 -0.02202702  0.00043553]
  [-0.41890944  0.24306855  0.062823   ... -0.01963072  0.01278099 -0.00025271]
  [-0.10827048  0.062823    0.0162371  ... -0.00507371  0.00330335 -0.00006532]
  ...
  [ 0.03383199 -0.01963072 -0.00507371 ...  0.00158542 -0.00103222  0.00002041]
  [-0.02202702  0.01278099  0.00330335 ... -0.00103222  0.00067205 -0.00001329]
  [ 0.00043553 -0.00025271 -0.00006532 ...  0.00002041 -0.00001329  0.00000026]]

 [[ 0.72195732  0.41890944 -0.10827048 ... -0.03383199 -0.02202702 -0.00043553]
  [ 0.41890944  0.24306855 -0.062823   ... -0.01963072 -0.01278099 -0.00025271]
  [-0.10827048 -0.062823    0.0162371  ...  0.00507371  0.00330335  0.00006532]
  ...
  [-0.03383199 -0.01963072  0.00507371 ...  0.00158542  0.00103222  0.00002041]
  [-0.02202702 -0.01278099  0.00330335 ...  0.00103222  0.00067205  0.00001329]
  [-0.00043553 -0.00025271  0.00006532 ...  0.00002041  0.00001329  0.00000026]]]
Fock (ortho)
 (array([[-0.2622689 ,  0.26154905,  0.21970629, -0.        ,  0.        ,  0.        ,  0.        , -0.08660372, -0.02938978,  0.        , -0.        ,
         0.        ,  0.        ,  0.        , -0.        ,  0.        , -0.        ,  0.01238607,  0.14271508,  0.02261451, -0.14721861,  0.        ,
        -0.        ,  0.        ,  0.        , -0.0056877 ,  0.0685799 , -0.01034465],
       [ 0.26154905,  0.07005048, -0.0752877 , -0.        , -0.        , -0.        ,  0.        ,  0.34677127,  0.00621678,  0.        ,  0.        ,
         0.        ,  0.        ,  0.        ,  0.        ,  0.        , -0.        , -0.07845532,  0.08917023,  0.44869031,  0.00670126, -0.        ,
        -0.        , -0.        ,  0.        , -0.04338175, -0.00988128,  0.16823595],
       [ 0.21970629, -0.0752877 ,  1.28187415,  0.        ,  0.        , -0.        , -0.        , -0.0354727 ,  0.02358211,  0.        , -0.        ,
        -0.        , -0.        , -0.        , -0.        ,  0.        , -0.        ,  0.00485173,  0.18844315, -0.01461986, -1.26503977, -0.        ,
        -0.        , -0.        ,  0.        , -0.00003093, -0.08126999,  0.00026475],
       [-0.        , -0.        ,  0.        ,  1.52083171, -0.        , -0.01856383,  0.05671389, -0.        ,  0.        , -0.00535595, -0.00477268,
         0.        , -0.        ,  0.        ,  0.        , -0.0015233 , -0.00186737, -0.        , -0.        , -0.        ,  0.        , -1.09702302,
        -0.79798461,  0.00597068, -0.00213618,  0.        ,  0.        ,  0.        ],
       [ 0.        , -0.        ,  0.        , -0.        ,  1.52083171,  0.05671389,  0.01856383, -0.        ,  0.        ,  0.00477268, -0.00535595,
         0.        , -0.        ,  0.        , -0.        , -0.00186737,  0.0015233 , -0.        ,  0.        , -0.        , -0.        ,  0.79798461,
        -1.09702302, -0.00213618, -0.00597068,  0.        ,  0.        , -0.        ],
       [ 0.        , -0.        , -0.        , -0.01856383,  0.05671389,  1.65176838, -0.        ,  0.        , -0.        ,  0.0015582 , -0.00090585,
         0.        , -0.        ,  0.        , -0.        , -0.0089688 ,  0.01398658,  0.        , -0.        , -0.        ,  0.        ,  0.00723895,
        -0.00522915, -0.83218904, -1.07243901,  0.        , -0.        ,  0.        ],
       [ 0.        ,  0.        , -0.        ,  0.05671389,  0.01856383, -0.        ,  1.65176838,  0.        , -0.        , -0.00090585, -0.0015582 ,
        -0.        ,  0.        ,  0.        ,  0.        , -0.01398658, -0.0089688 ,  0.        ,  0.        ,  0.        , -0.        , -0.00522915,
        -0.00723895,  1.07243901, -0.83218904, -0.        , -0.        ,  0.        ],
       [-0.08660372,  0.34677127, -0.0354727 , -0.        , -0.        ,  0.        ,  0.        ,  1.8344541 , -0.01086601,  0.        , -0.        ,
        -0.        ,  0.        , -0.        ,  0.        , -0.        ,  0.        ,  0.01802059, -0.03839022,  0.60550309,  0.01112246,  0.        ,
        -0.        , -0.        , -0.        , -1.24294104,  0.00013857,  0.02774384],
       [-0.02938978,  0.00621678,  0.02358211,  0.        ,  0.        , -0.        , -0.        , -0.01086601,  3.34213183,  0.        ,  0.        ,
         0.        ,  0.        ,  0.        ,  0.        , -0.        , -0.        , -0.02274586, -0.08829499,  0.00141401,  0.06293226,  0.        ,
         0.        ,  0.        , -0.        ,  0.00218061, -0.12166953,  0.00023397],
       [ 0.        ,  0.        ,  0.        , -0.00535595,  0.00477268,  0.0015582 , -0.00090585,  0.        ,  0.        ,  3.42116231, -0.        ,
        -0.        ,  0.        , -0.        ,  0.        ,  0.00106819, -0.02448052, -0.        ,  0.        , -0.        ,  0.        , -0.04784887,
         0.0047521 , -0.00054576, -0.0002207 ,  0.        , -0.        , -0.        ],
       [-0.        ,  0.        , -0.        , -0.00477268, -0.00535595, -0.00090585, -0.0015582 , -0.        ,  0.        , -0.        ,  3.42116231,
         0.        , -0.        ,  0.        ,  0.        , -0.02448052, -0.00106819, -0.        ,  0.        , -0.        ,  0.        , -0.0047521 ,
        -0.04784887, -0.0002207 ,  0.00054576, -0.        , -0.        , -0.        ],
       [ 0.        ,  0.        , -0.        ,  0.        ,  0.        ,  0.        , -0.        , -0.        ,  0.        , -0.        ,  0.        ,
         3.44828873, -0.        ,  0.02477949, -0.        ,  0.        , -0.        , -0.        ,  0.        , -0.        ,  0.        , -0.        ,
         0.        , -0.        , -0.        , -0.        , -0.        , -0.        ],
       [ 0.        ,  0.        , -0.        , -0.        , -0.        , -0.        ,  0.        ,  0.        ,  0.        ,  0.        , -0.        ,
        -0.        ,  3.44828873, -0.        , -0.02477949, -0.        , -0.        ,  0.        , -0.        , -0.        ,  0.        ,  0.        ,
        -0.        , -0.        , -0.        , -0.        ,  0.        ,  0.        ],
       [ 0.        ,  0.        , -0.        ,  0.        ,  0.        ,  0.        ,  0.        , -0.        ,  0.        , -0.        ,  0.        ,
         0.02477949, -0.        ,  3.45274742, -0.        ,  0.        ,  0.        , -0.        ,  0.        ,  0.        ,  0.        ,  0.        ,
         0.        ,  0.        , -0.        , -0.        , -0.        , -0.        ],
       [-0.        ,  0.        , -0.        ,  0.        , -0.        , -0.        ,  0.        ,  0.        ,  0.        ,  0.        ,  0.        ,
        -0.        , -0.02477949, -0.        ,  3.45274742,  0.        , -0.        ,  0.        , -0.        , -0.        ,  0.        ,  0.        ,
        -0.        , -0.        , -0.        , -0.        , -0.        ,  0.        ],
       [ 0.        ,  0.        ,  0.        , -0.0015233 , -0.00186737, -0.0089688 , -0.01398658, -0.        , -0.        ,  0.00106819, -0.02448052,
         0.        , -0.        ,  0.        ,  0.        ,  3.48028905,  0.        , -0.        ,  0.        , -0.        ,  0.        ,  0.00005929,
         0.00106937,  0.0181446 , -0.05118316, -0.        , -0.        , -0.        ],
       [-0.        , -0.        , -0.        , -0.00186737,  0.0015233 ,  0.01398658, -0.0089688 ,  0.        , -0.        , -0.02448052, -0.00106819,
        -0.        , -0.        ,  0.        , -0.        ,  0.        ,  3.48028905, -0.        , -0.        ,  0.        ,  0.        ,  0.00106937,
        -0.00005929,  0.05118316,  0.0181446 , -0.        , -0.        ,  0.        ],
       [ 0.01238607, -0.07845532,  0.00485173, -0.        , -0.        ,  0.        ,  0.        ,  0.01802059, -0.02274586, -0.        , -0.        ,
        -0.        ,  0.        , -0.        ,  0.        , -0.        , -0.        ,  3.54688752,  0.00951353, -0.14800238, -0.00403557, -0.        ,
        -0.        , -0.        ,  0.        , -0.3112308 ,  0.00108515,  0.07957653],
       [ 0.14271508,  0.08917023,  0.18844315, -0.        ,  0.        , -0.        ,  0.        , -0.03839022, -0.08829499,  0.        ,  0.        ,
         0.        , -0.        ,  0.        , -0.        ,  0.        , -0.        ,  0.00951353,  1.19889541,  0.04720322, -0.41051872, -0.        ,
        -0.        , -0.        ,  0.        ,  0.0190493 ,  0.95243422,  0.01085656],
       [ 0.02261451,  0.44869031, -0.01461986, -0.        , -0.        , -0.        ,  0.        ,  0.60550309,  0.00141401, -0.        , -0.        ,
        -0.        , -0.        ,  0.        , -0.        , -0.        ,  0.        , -0.14800238,  0.04720322,  1.65027823,  0.01572877,  0.        ,
        -0.        , -0.        ,  0.        , -0.53476025,  0.01806463,  1.07920255],
       [-0.14721861,  0.00670126, -1.26503977,  0.        , -0.        ,  0.        , -0.        ,  0.01112246,  0.06293226,  0.        ,  0.        ,
         0.        ,  0.        ,  0.        ,  0.        ,  0.        ,  0.        , -0.00403557, -0.41051872,  0.01572877,  3.14854987,  0.        ,
         0.        ,  0.        , -0.        , -0.01352179,  0.26083134,  0.00274298],
       [ 0.        , -0.        , -0.        , -1.09702302,  0.79798461,  0.00723895, -0.00522915,  0.        ,  0.        , -0.04784887, -0.0047521 ,
        -0.        ,  0.        ,  0.        ,  0.        ,  0.00005929,  0.00106937, -0.        , -0.        ,  0.        ,  0.        ,  3.04685609,
         0.        , -0.02024755, -0.00593858,  0.        ,  0.        , -0.        ],
       [-0.        , -0.        , -0.        , -0.79798461, -1.09702302, -0.00522915, -0.00723895, -0.        ,  0.        ,  0.0047521 , -0.04784887,
         0.        , -0.        ,  0.        , -0.        ,  0.00106937, -0.00005929, -0.        , -0.        , -0.        ,  0.        ,  0.        ,
         3.04685609, -0.00593858,  0.02024755,  0.        , -0.        ,  0.        ],
       [ 0.        , -0.        , -0.        ,  0.00597068, -0.00213618, -0.83218904,  1.07243901, -0.        ,  0.        , -0.00054576, -0.0002207 ,
        -0.        , -0.        ,  0.        , -0.        ,  0.0181446 ,  0.05118316, -0.        , -0.        , -0.        ,  0.        , -0.02024755,
        -0.00593858,  3.12438264,  0.        ,  0.        ,  0.        , -0.        ],
       [ 0.        ,  0.        ,  0.        , -0.00213618, -0.00597068, -1.07243901, -0.83218904, -0.        , -0.        , -0.0002207 ,  0.00054576,
        -0.        , -0.        , -0.        , -0.        , -0.05118316,  0.0181446 ,  0.        ,  0.        ,  0.        , -0.        , -0.00593858,
         0.02024755,  0.        ,  3.12438264, -0.        ,  0.        , -0.        ],
       [-0.0056877 , -0.04338175, -0.00003093,  0.        ,  0.        ,  0.        , -0.        , -1.24294104,  0.00218061,  0.        , -0.        ,
        -0.        , -0.        , -0.        , -0.        , -0.        , -0.        , -0.3112308 ,  0.0190493 , -0.53476025, -0.01352179,  0.        ,
         0.        ,  0.        , -0.        ,  3.22758907,  0.00999897,  0.1412044 ],
       [ 0.0685799 , -0.00988128, -0.08126999,  0.        ,  0.        , -0.        , -0.        ,  0.00013857, -0.12166953, -0.        , -0.        ,
        -0.        ,  0.        , -0.        , -0.        , -0.        , -0.        ,  0.00108515,  0.95243422,  0.01806463,  0.26083134,  0.        ,
        -0.        ,  0.        ,  0.        ,  0.00999897,  1.78080813,  0.01585911],
       [-0.01034465,  0.16823595,  0.00026475,  0.        , -0.        ,  0.        ,  0.        ,  0.02774384,  0.00023397, -0.        , -0.        ,
        -0.        ,  0.        , -0.        ,  0.        , -0.        ,  0.        ,  0.07957653,  0.01085656,  1.07920255,  0.00274298, -0.        ,
         0.        , -0.        , -0.        ,  0.1412044 ,  0.01585911,  1.55595442]]), array([[-0.2622689 , -0.26154905,  0.21970629, -0.        , -0.        , -0.        ,  0.        ,  0.08660372, -0.02938978, -0.        ,  0.        ,
        -0.        , -0.        , -0.        , -0.        ,  0.        , -0.        , -0.01238607,  0.14271508, -0.02261451, -0.14721861,  0.        ,
        -0.        ,  0.        ,  0.        ,  0.0056877 ,  0.0685799 ,  0.01034465],
       [-0.26154905,  0.07005048,  0.0752877 , -0.        , -0.        , -0.        ,  0.        ,  0.34677127, -0.00621678,  0.        ,  0.        ,
        -0.        ,  0.        , -0.        ,  0.        ,  0.        , -0.        , -0.07845532, -0.08917023,  0.44869031, -0.00670126, -0.        ,
        -0.        , -0.        , -0.        , -0.04338175,  0.00988128,  0.16823595],
       [ 0.21970629,  0.0752877 ,  1.28187415,  0.        , -0.        , -0.        , -0.        ,  0.0354727 ,  0.02358211, -0.        ,  0.        ,
         0.        , -0.        ,  0.        , -0.        ,  0.        ,  0.        , -0.00485173,  0.18844315,  0.01461986, -1.26503977, -0.        ,
        -0.        , -0.        ,  0.        ,  0.00003093, -0.08126999, -0.00026475],
       [-0.        , -0.        ,  0.        ,  1.52083171,  0.        ,  0.01856383, -0.05671389, -0.        ,  0.        , -0.00535595, -0.00477268,
         0.        , -0.        ,  0.        ,  0.        ,  0.0015233 ,  0.00186737, -0.        , -0.        , -0.        ,  0.        , -1.09702302,
        -0.79798461, -0.00597068,  0.00213618,  0.        ,  0.        ,  0.        ],
       [-0.        , -0.        , -0.        ,  0.        ,  1.52083171, -0.05671389, -0.01856383, -0.        ,  0.        ,  0.00477268, -0.00535595,
         0.        , -0.        ,  0.        , -0.        ,  0.00186737, -0.0015233 , -0.        , -0.        , -0.        ,  0.        ,  0.79798461,
        -1.09702302,  0.00213618,  0.00597068,  0.        ,  0.        , -0.        ],
       [-0.        , -0.        , -0.        ,  0.01856383, -0.05671389,  1.65176838,  0.        , -0.        , -0.        , -0.0015582 ,  0.00090585,
        -0.        , -0.        , -0.        , -0.        , -0.0089688 ,  0.01398658,  0.        , -0.        , -0.        ,  0.        , -0.00723895,
         0.00522915, -0.83218904, -1.07243901,  0.        , -0.        ,  0.        ],
       [ 0.        ,  0.        , -0.        , -0.05671389, -0.01856383,  0.        ,  1.65176838, -0.        , -0.        ,  0.00090585,  0.0015582 ,
        -0.        ,  0.        , -0.        ,  0.        , -0.01398658, -0.0089688 ,  0.        ,  0.        ,  0.        , -0.        ,  0.00522915,
         0.00723895,  1.07243901, -0.83218904, -0.        , -0.        ,  0.        ],
       [ 0.08660372,  0.34677127,  0.0354727 , -0.        , -0.        , -0.        , -0.        ,  1.8344541 ,  0.01086601,  0.        , -0.        ,
         0.        ,  0.        ,  0.        ,  0.        ,  0.        , -0.        ,  0.01802059,  0.03839022,  0.60550309, -0.01112246,  0.        ,
        -0.        , -0.        , -0.        , -1.24294104, -0.00013857,  0.02774384],
       [-0.02938978, -0.00621678,  0.02358211,  0.        ,  0.        , -0.        , -0.        ,  0.01086601,  3.34213183, -0.        ,  0.        ,
        -0.        ,  0.        , -0.        ,  0.        , -0.        , -0.        ,  0.02274586, -0.08829499, -0.00141401,  0.06293226,  0.        ,
         0.        ,  0.        , -0.        , -0.00218061, -0.12166953, -0.00023397],
       [-0.        ,  0.        , -0.        , -0.00535595,  0.00477268, -0.0015582 ,  0.00090585,  0.        , -0.        ,  3.42116231,  0.        ,
        -0.        , -0.        ,  0.        , -0.        , -0.00106819,  0.02448052, -0.        ,  0.        , -0.        ,  0.        , -0.04784887,
         0.0047521 ,  0.00054576,  0.0002207 ,  0.        , -0.        , -0.        ],
       [ 0.        ,  0.        ,  0.        , -0.00477268, -0.00535595,  0.00090585,  0.0015582 , -0.        ,  0.        ,  0.        ,  3.42116231,
        -0.        , -0.        ,  0.        ,  0.        ,  0.02448052,  0.00106819, -0.        ,  0.        , -0.        ,  0.        , -0.0047521 ,
        -0.04784887,  0.0002207 , -0.00054576, -0.        , -0.        , -0.        ],
       [-0.        , -0.        ,  0.        ,  0.        ,  0.        , -0.        , -0.        ,  0.        , -0.        , -0.        , -0.        ,
         3.44828873,  0.        , -0.02477949,  0.        , -0.        ,  0.        , -0.        , -0.        , -0.        , -0.        , -0.        ,
         0.        , -0.        , -0.        ,  0.        ,  0.        ,  0.        ],
       [-0.        ,  0.        , -0.        , -0.        , -0.        , -0.        ,  0.        ,  0.        ,  0.        , -0.        , -0.        ,
         0.        ,  3.44828873,  0.        ,  0.02477949,  0.        , -0.        ,  0.        , -0.        , -0.        ,  0.        ,  0.        ,
        -0.        , -0.        , -0.        , -0.        , -0.        ,  0.        ],
       [-0.        , -0.        ,  0.        ,  0.        ,  0.        , -0.        , -0.        ,  0.        , -0.        ,  0.        ,  0.        ,
        -0.02477949,  0.        ,  3.45274742,  0.        , -0.        , -0.        , -0.        , -0.        , -0.        , -0.        ,  0.        ,
         0.        ,  0.        ,  0.        ,  0.        ,  0.        ,  0.        ],
       [-0.        ,  0.        , -0.        ,  0.        , -0.        , -0.        ,  0.        ,  0.        ,  0.        , -0.        ,  0.        ,
         0.        ,  0.02477949,  0.        ,  3.45274742, -0.        ,  0.        ,  0.        , -0.        , -0.        ,  0.        ,  0.        ,
        -0.        , -0.        , -0.        , -0.        , -0.        ,  0.        ],
       [ 0.        ,  0.        ,  0.        ,  0.0015233 ,  0.00186737, -0.0089688 , -0.01398658,  0.        , -0.        , -0.00106819,  0.02448052,
        -0.        ,  0.        , -0.        , -0.        ,  3.48028905, -0.        , -0.        ,  0.        , -0.        ,  0.        , -0.00005929,
        -0.00106937,  0.0181446 , -0.05118316, -0.        , -0.        , -0.        ],
       [-0.        , -0.        ,  0.        ,  0.00186737, -0.0015233 ,  0.01398658, -0.0089688 , -0.        , -0.        ,  0.02448052,  0.00106819,
         0.        , -0.        , -0.        ,  0.        , -0.        ,  3.48028905,  0.        , -0.        ,  0.        ,  0.        , -0.00106937,
         0.00005929,  0.05118316,  0.0181446 , -0.        , -0.        ,  0.        ],
       [-0.01238607, -0.07845532, -0.00485173, -0.        , -0.        ,  0.        ,  0.        ,  0.01802059,  0.02274586, -0.        , -0.        ,
        -0.        ,  0.        , -0.        ,  0.        , -0.        ,  0.        ,  3.54688752, -0.00951353, -0.14800238,  0.00403557, -0.        ,
        -0.        , -0.        ,  0.        , -0.3112308 , -0.00108515,  0.07957653],
       [ 0.14271508, -0.08917023,  0.18844315, -0.        , -0.        , -0.        ,  0.        ,  0.03839022, -0.08829499,  0.        ,  0.        ,
        -0.        , -0.        , -0.        , -0.        ,  0.        , -0.        , -0.00951353,  1.19889541, -0.04720322, -0.41051872,  0.        ,
        -0.        ,  0.        ,  0.        , -0.0190493 ,  0.95243422, -0.01085656],
       [-0.02261451,  0.44869031,  0.01461986, -0.        , -0.        , -0.        ,  0.        ,  0.60550309, -0.00141401, -0.        , -0.        ,
        -0.        , -0.        , -0.        , -0.        , -0.        ,  0.        , -0.14800238, -0.04720322,  1.65027823, -0.01572877,  0.        ,
        -0.        ,  0.        ,  0.        , -0.53476025, -0.01806463,  1.07920255],
       [-0.14721861, -0.00670126, -1.26503977,  0.        ,  0.        ,  0.        , -0.        , -0.01112246,  0.06293226,  0.        ,  0.        ,
        -0.        ,  0.        , -0.        ,  0.        ,  0.        ,  0.        ,  0.00403557, -0.41051872, -0.01572877,  3.14854987,  0.        ,
         0.        ,  0.        , -0.        ,  0.01352179,  0.26083134, -0.00274298],
       [ 0.        , -0.        , -0.        , -1.09702302,  0.79798461, -0.00723895,  0.00522915,  0.        ,  0.        , -0.04784887, -0.0047521 ,
        -0.        ,  0.        ,  0.        ,  0.        , -0.00005929, -0.00106937, -0.        ,  0.        ,  0.        ,  0.        ,  3.04685609,
         0.        ,  0.02024755,  0.00593858,  0.        ,  0.        , -0.        ],
       [-0.        , -0.        , -0.        , -0.79798461, -1.09702302,  0.00522915,  0.00723895, -0.        ,  0.        ,  0.0047521 , -0.04784887,
         0.        , -0.        ,  0.        , -0.        , -0.00106937,  0.00005929, -0.        , -0.        , -0.        ,  0.        ,  0.        ,
         3.04685609,  0.00593858, -0.02024755,  0.        , -0.        ,  0.        ],
       [ 0.        , -0.        , -0.        , -0.00597068,  0.00213618, -0.83218904,  1.07243901, -0.        ,  0.        ,  0.00054576,  0.0002207 ,
        -0.        , -0.        ,  0.        , -0.        ,  0.0181446 ,  0.05118316, -0.        ,  0.        ,  0.        ,  0.        ,  0.02024755,
         0.00593858,  3.12438264,  0.        ,  0.        ,  0.        , -0.        ],
       [ 0.        , -0.        ,  0.        ,  0.00213618,  0.00597068, -1.07243901, -0.83218904, -0.        , -0.        ,  0.0002207 , -0.00054576,
        -0.        , -0.        ,  0.        , -0.        , -0.05118316,  0.0181446 ,  0.        ,  0.        ,  0.        , -0.        ,  0.00593858,
        -0.02024755,  0.        ,  3.12438264, -0.        ,  0.        , -0.        ],
       [ 0.0056877 , -0.04338175,  0.00003093,  0.        ,  0.        ,  0.        , -0.        , -1.24294104, -0.00218061,  0.        , -0.        ,
         0.        , -0.        ,  0.        , -0.        , -0.        , -0.        , -0.3112308 , -0.0190493 , -0.53476025,  0.01352179,  0.        ,
         0.        ,  0.        , -0.        ,  3.22758907, -0.00999897,  0.1412044 ],
       [ 0.0685799 ,  0.00988128, -0.08126999,  0.        ,  0.        , -0.        , -0.        , -0.00013857, -0.12166953, -0.        , -0.        ,
         0.        , -0.        ,  0.        , -0.        , -0.        , -0.        , -0.00108515,  0.95243422, -0.01806463,  0.26083134,  0.        ,
        -0.        ,  0.        ,  0.        , -0.00999897,  1.78080813, -0.01585911],
       [ 0.01034465,  0.16823595, -0.00026475,  0.        , -0.        ,  0.        ,  0.        ,  0.02774384, -0.00023397, -0.        , -0.        ,
         0.        ,  0.        ,  0.        ,  0.        , -0.        ,  0.        ,  0.07957653, -0.01085656,  1.07920255, -0.00274298, -0.        ,
         0.        , -0.        , -0.        ,  0.1412044 , -0.01585911,  1.55595442]]))
E(UHF) =    -1.246618
NO eigenvalue
[-1. -0. -0. -0. -0. -0. -0. -0. -0. -0. -0. -0. -0. -0.  0.  0.  0.  0.  0.  0.  0.  0.  0.  0.  0.  0.  0.  0.] [-1. -0. -0. -0. -0. -0. -0. -0. -0. -0. -0. -0.  0.  0.  0.  0.  0.  0.  0.  0.  0.  0.  0.  0.  0.  0.  0.  0.]
NO vec
[[ 0.84968071  0.         -0.21127095 ...  0.          0.          0.        ]
 [-0.49301983  0.         -0.11709276 ...  0.          0.          0.        ]
 [-0.1274249   0.         -0.78159673 ...  0.          0.          0.        ]
 ...
 [ 0.         -0.0398173   0.         ...  0.43642789  0.10463757  0.22465549]
 [ 0.         -0.02592388  0.         ... -0.62044151  0.07291503  0.21274556]
 [ 0.         -0.00051258  0.         ...  0.00518493 -0.00203283  0.00211762]]
dm(NO)
[[ 1.  0. -0. ...  0.  0.  0.]
 [ 0.  1.  0. ... -0. -0. -0.]
 [-0.  0. -0. ...  0.  0.  0.]
 ...
 [ 0. -0.  0. ... -0.  0.  0.]
 [ 0. -0.  0. ...  0.  0.  0.]
 [ 0. -0.  0. ...  0.  0.  0.]]
D(g) (NO)
[[ 0.99951369  0.01492269  0.         ... -0.00135366  0.00656264  0.0041315 ]
 [-0.01492269  0.99951369  0.00492485 ... -0.         -0.         -0.        ]
 [ 0.         -0.00492485  0.99951369 ...  0.00094761  0.02651262 -0.01374113]
 ...
 [ 0.00135366  0.         -0.00094761 ...  0.99951369  0.          0.        ]
 [-0.00656264 -0.         -0.02651262 ...  0.          0.99951369 -0.        ]
 [-0.0041315  -0.          0.01374113 ...  0.         -0.          0.99951369]]
...
N(g) (NO)
[[ 1.00026359 -0.01493388]
 [ 0.01493388  1.00026359]]
...
P(g) (NO)
[[ 1.         -0.         -0.         ...  0.          0.          0.        ]
 [ 0.          1.          0.         ... -0.         -0.         -0.        ]
 [-0.00007355 -0.00492615  0.         ...  0.          0.          0.        ]
 ...
 [ 0.00135402 -0.00002022 -0.         ...  0.          0.          0.        ]
 [-0.00656437  0.00009801  0.         ... -0.         -0.         -0.        ]
 [-0.00413259  0.0000617   0.         ... -0.         -0.         -0.        ]]
...
Pg_ortho
[[ 0.72213263 -0.41901116 -0.10829677 ... -0.00055027 -0.00035827 -0.00000708]
 [-0.418621    0.24290119  0.06277974 ... -0.00090533 -0.00058943 -0.00001165]
 [-0.10829677  0.06283826  0.01624105 ...  0.00008252  0.00005373  0.00000106]
 ...
 [-0.00156027  0.00090533  0.00023399 ...  0.00158433  0.00103151  0.0000204 ]
 [ 0.00035827 -0.00020788 -0.00005373 ...  0.00103247  0.00067221  0.00001329]
 [-0.00002009  0.00001165  0.00000301 ...  0.0000204   0.00001328  0.00000026]]
G(g) (NO)
[[ 0.28666874 -0.00206711 -0.05197756 ... -0.00043402 -0.00028404  0.00010326]
 [ 0.00206711  0.28666874 -0.00010625 ...  0.01568393 -0.00544897  0.03533404]
 [-0.05195603  0.00076562  0.77024776 ...  0.00073126 -0.00141261 -0.00020227]
 ...
 [-0.00290105  0.01569084  0.00096653 ...  0.8537555  -0.05118375 -0.01399537]
 [ 0.00306128 -0.0054609   0.00083004 ... -0.05118231  0.77465814 -0.01863429]
 [ 0.001497    0.03530868 -0.0021091  ... -0.01400206 -0.01862923  0.87060001]]
...
C(NO)
[[-1.          0.         -0.         ...  0.          0.          0.        ]
 [ 0.         -1.          0.         ...  0.         -0.          0.        ]
 [ 0.          0.          0.29003826 ...  0.          0.          0.        ]
 ...
 [ 0.          0.          0.         ...  0.         -0.          0.43063304]
 [ 0.          0.          0.         ... -0.          0.         -0.1560416 ]
 [ 0.          0.          0.         ...  0.          0.         -0.22177021]]
detC 0.9999999999999996
detNg [1.00075027 1.01988396 1.11383228 1.38112031 1.98035914 3.01925475 4.02406245 4.35239603]
xg [0.99925029 0.98050371 0.89780124 0.72404988 0.50495891 0.33120756 0.24850509 0.2297585 ]
ciS 1.2290087975649981
[[-0.76662801  0.          0.04388663 ...  0.          0.          0.        ]
 [ 0.         -0.76662801  0.         ... -0.01919499  0.00478246 -0.02618073]
 [ 0.04388663  0.          0.49221889 ...  0.          0.          0.        ]
 ...
 [ 0.         -0.01919499  0.         ...  1.41274635 -0.34551708 -0.29223994]
 [ 0.          0.00478246  0.         ... -0.34551708  0.80189248  0.28843133]
 [ 0.         -0.02618073  0.         ... -0.29223994  0.28843133  0.64113828]]
ciH -1.5357849192016104
S2 = 0.000000
X(g)
[[ 2.         -0.         -0.00007355 ... -0.00135402  0.00656437  0.00413259]
 [ 0.          2.          0.00492615 ... -0.00002022  0.00009801  0.0000617 ]
 [-0.00007355 -0.00492615  0.         ...  0.          0.          0.        ]
 ...
 [ 0.00135402 -0.00002022  0.         ...  0.          0.          0.        ]
 [-0.00656437  0.00009801  0.         ...  0.          0.          0.        ]
 [-0.00413259  0.0000617   0.         ...  0.          0.          0.        ]]
X(g) int
[[ 2.         -0.         -0.06149544 ... -0.02774106  0.13449088  0.08466841]
 [ 0.          2.          0.10092684 ... -0.01690282  0.08194624  0.05158906]
 [-0.06149544 -0.10092684  0.         ...  0.          0.          0.        ]
 ...
 [ 0.02774106 -0.01690282  0.         ...  0.          0.          0.        ]
 [-0.13449088  0.08194624  0.         ...  0.          0.          0.        ]
 [-0.08466841  0.05158906  0.         ...  0.          0.          0.        ]]
Hsp + Hph =  -1.249612632752849
Feff (mod,ortho)
[[-0.24230752  0.27287914  0.215682   ...  0.          0.          0.        ]
 [ 0.27287914  0.05018151 -0.07638877 ...  0.          0.          0.        ]
 [ 0.215682   -0.07638877  1.28263224 ...  0.          0.          0.        ]
 ...
 [ 0.          0.          0.         ...  3.2276938  -0.00988867  0.1411314 ]
 [ 0.          0.          0.         ... -0.00988867  1.78090736 -0.0159061 ]
 [ 0.          0.          0.         ...  0.1411314  -0.0159061   1.55595252]]
E(SUHF) =     -0.99762348
e_a, e_b
[-0.48551368  0.05317463  0.36962956  0.48590522  0.66242265  0.71277325  0.71277325  0.85715345  0.85715345  1.12362223  2.44794888  2.62304191  3.36149546
  3.40979328  3.40979328  3.4256385   3.4256385   3.47539765  3.47539765  3.48581782  3.48581782  3.54032176  3.83096782  3.83096782  3.88930657  3.94878457
  3.94878457  4.30384913] [-0.48551368  0.05317463  0.36962956  0.48590522  0.66242265  0.71277325  0.71277325  0.85715345  0.85715345  1.12362223  2.44794888  2.62304191  3.36149546
  3.40979328  3.40979328  3.4256385   3.4256385   3.47539765  3.47539765  3.48581782  3.48581782  3.54032176  3.83096782  3.83096782  3.88930657  3.94878457
  3.94878457  4.30384913]
P_a, P_b
[[ 0.63837468 -0.45302937 -0.10096309 -0.         -0.         -0.         -0.          0.09544979  0.00554102 -0.          0.         -0.          0.
  -0.          0.         -0.          0.         -0.00628284 -0.01923459  0.06489584 -0.01012781 -0.          0.         -0.         -0.          0.03615354
  -0.01542167  0.00367883]
 [-0.45302937  0.3214971   0.07164953  0.          0.          0.          0.         -0.06773696 -0.00393224  0.         -0.          0.         -0.
   0.         -0.          0.         -0.          0.00445868  0.01365003 -0.04605402  0.0071873   0.         -0.          0.          0.         -0.02565674
   0.01094415 -0.00261072]
 [-0.10096309  0.07164953  0.01596797  0.          0.          0.          0.         -0.015096   -0.00087635  0.         -0.          0.         -0.
   0.         -0.          0.         -0.          0.00099367  0.00304207 -0.0102637   0.00160178  0.         -0.          0.          0.         -0.00571792
   0.00243904 -0.00058183]
 [-0.          0.          0.          0.          0.          0.          0.         -0.         -0.          0.         -0.          0.         -0.
   0.         -0.          0.         -0.          0.          0.         -0.          0.          0.         -0.          0.          0.         -0.
   0.         -0.        ]
 [-0.          0.          0.          0.          0.          0.          0.         -0.         -0.          0.         -0.          0.         -0.
   0.         -0.          0.         -0.          0.          0.         -0.          0.          0.         -0.          0.          0.         -0.
   0.         -0.        ]
 [-0.          0.          0.          0.          0.          0.          0.         -0.         -0.          0.         -0.          0.         -0.
   0.         -0.          0.         -0.          0.          0.         -0.          0.          0.         -0.          0.          0.         -0.
   0.         -0.        ]
 [-0.          0.          0.          0.          0.          0.          0.         -0.         -0.          0.         -0.          0.         -0.
   0.         -0.          0.         -0.          0.          0.         -0.          0.          0.         -0.          0.          0.         -0.
   0.         -0.        ]
 [ 0.09544979 -0.06773696 -0.015096   -0.         -0.         -0.         -0.          0.01427166  0.00082849 -0.          0.         -0.          0.
  -0.          0.         -0.          0.         -0.00093941 -0.00287596  0.00970323 -0.00151431 -0.          0.         -0.         -0.          0.00540568
  -0.00230585  0.00055006]
 [ 0.00554102 -0.00393224 -0.00087635 -0.         -0.         -0.         -0.          0.00082849  0.0000481  -0.          0.         -0.          0.
  -0.          0.         -0.          0.         -0.00005453 -0.00016695  0.00056329 -0.00008791 -0.          0.         -0.         -0.          0.00031381
  -0.00013386  0.00003193]
 [-0.          0.          0.          0.          0.          0.          0.         -0.         -0.          0.         -0.          0.         -0.
   0.         -0.          0.         -0.          0.          0.         -0.          0.          0.         -0.          0.          0.         -0.
   0.         -0.        ]
 [ 0.         -0.         -0.         -0.         -0.         -0.         -0.          0.          0.         -0.          0.         -0.          0.
  -0.          0.         -0.          0.         -0.         -0.          0.         -0.         -0.          0.         -0.         -0.          0.
  -0.          0.        ]
 [-0.          0.          0.          0.          0.          0.          0.         -0.         -0.          0.         -0.          0.         -0.
   0.         -0.          0.         -0.          0.          0.         -0.          0.          0.         -0.          0.          0.         -0.
   0.         -0.        ]
 [ 0.         -0.         -0.         -0.         -0.         -0.         -0.          0.          0.         -0.          0.         -0.          0.
  -0.          0.         -0.          0.         -0.         -0.          0.         -0.         -0.          0.         -0.         -0.          0.
  -0.          0.        ]
 [-0.          0.          0.          0.          0.          0.          0.         -0.         -0.          0.         -0.          0.         -0.
   0.         -0.          0.         -0.          0.          0.         -0.          0.          0.         -0.          0.          0.         -0.
   0.         -0.        ]
 [ 0.         -0.         -0.         -0.         -0.         -0.         -0.          0.          0.         -0.          0.         -0.          0.
  -0.          0.         -0.          0.         -0.         -0.          0.         -0.         -0.          0.         -0.         -0.          0.
  -0.          0.        ]
 [-0.          0.          0.          0.          0.          0.          0.         -0.         -0.          0.         -0.          0.         -0.
   0.         -0.          0.         -0.          0.          0.         -0.          0.          0.         -0.          0.          0.         -0.
   0.         -0.        ]
 [ 0.         -0.         -0.         -0.         -0.         -0.         -0.          0.          0.         -0.          0.         -0.          0.
  -0.          0.         -0.          0.         -0.         -0.          0.         -0.         -0.          0.         -0.         -0.          0.
  -0.          0.        ]
 [-0.00628284  0.00445868  0.00099367  0.          0.          0.          0.         -0.00093941 -0.00005453  0.         -0.          0.         -0.
   0.         -0.          0.         -0.          0.00006184  0.00018931 -0.0006387   0.00009968  0.         -0.          0.          0.         -0.00035582
   0.00015178 -0.00003621]
 [-0.01923459  0.01365003  0.00304207  0.          0.          0.          0.         -0.00287596 -0.00016695  0.         -0.          0.         -0.
   0.         -0.          0.         -0.          0.00018931  0.00057955 -0.00195535  0.00030516  0.         -0.          0.          0.         -0.00108933
   0.00046466 -0.00011085]
 [ 0.06489584 -0.04605402 -0.0102637  -0.         -0.         -0.         -0.          0.00970323  0.00056329 -0.          0.         -0.          0.
  -0.          0.         -0.          0.         -0.0006387  -0.00195535  0.00659717 -0.00102957 -0.          0.         -0.         -0.          0.00367529
  -0.00156773  0.00037398]
 [-0.01012781  0.0071873   0.00160178  0.          0.          0.          0.         -0.00151431 -0.00008791  0.         -0.          0.         -0.
   0.         -0.          0.         -0.          0.00009968  0.00030516 -0.00102957  0.00016068  0.         -0.          0.          0.         -0.00057358
   0.00024466 -0.00005836]
 [-0.          0.          0.          0.          0.          0.          0.         -0.         -0.          0.         -0.          0.         -0.
   0.         -0.          0.         -0.          0.          0.         -0.          0.          0.         -0.          0.          0.         -0.
   0.         -0.        ]
 [ 0.         -0.         -0.         -0.         -0.         -0.         -0.          0.          0.         -0.          0.         -0.          0.
  -0.          0.         -0.          0.         -0.         -0.          0.         -0.         -0.          0.         -0.         -0.          0.
  -0.          0.        ]
 [-0.          0.          0.          0.          0.          0.          0.         -0.         -0.          0.         -0.          0.         -0.
   0.         -0.          0.         -0.          0.          0.         -0.          0.          0.         -0.          0.          0.         -0.
   0.         -0.        ]
 [-0.          0.          0.          0.          0.          0.          0.         -0.         -0.          0.         -0.          0.         -0.
   0.         -0.          0.         -0.          0.          0.         -0.          0.          0.         -0.          0.          0.         -0.
   0.         -0.        ]
 [ 0.03615354 -0.02565674 -0.00571792 -0.         -0.         -0.         -0.          0.00540568  0.00031381 -0.          0.         -0.          0.
  -0.          0.         -0.          0.         -0.00035582 -0.00108933  0.00367529 -0.00057358 -0.          0.         -0.         -0.          0.00204751
  -0.00087339  0.00020835]
 [-0.01542167  0.01094415  0.00243904  0.          0.          0.          0.         -0.00230585 -0.00013386  0.         -0.          0.         -0.
   0.         -0.          0.         -0.          0.00015178  0.00046466 -0.00156773  0.00024466  0.         -0.          0.          0.         -0.00087339
   0.00037255 -0.00008887]
 [ 0.00367883 -0.00261072 -0.00058183 -0.         -0.         -0.         -0.          0.00055006  0.00003193 -0.          0.         -0.          0.
  -0.          0.         -0.          0.         -0.00003621 -0.00011085  0.00037398 -0.00005836 -0.          0.         -0.         -0.          0.00020835
  -0.00008887  0.0000212 ]] 
 [[ 0.63837468  0.45302937 -0.10096309  0.          0.          0.         -0.         -0.09544979  0.00554102  0.         -0.          0.         -0.
   0.         -0.          0.         -0.          0.00628284 -0.01923459 -0.06489584 -0.01012781  0.         -0.          0.          0.         -0.03615354
  -0.01542167 -0.00367883]
 [ 0.45302937  0.3214971  -0.07164953  0.          0.          0.         -0.         -0.06773696  0.00393224  0.         -0.          0.         -0.
   0.         -0.          0.         -0.          0.00445868 -0.01365003 -0.04605402 -0.0071873   0.         -0.          0.          0.         -0.02565674
  -0.01094415 -0.00261072]
 [-0.10096309 -0.07164953  0.01596797 -0.         -0.         -0.          0.          0.015096   -0.00087635 -0.          0.         -0.          0.
  -0.          0.         -0.          0.         -0.00099367  0.00304207  0.0102637   0.00160178 -0.          0.         -0.         -0.          0.00571792
   0.00243904  0.00058183]
 [ 0.          0.         -0.          0.          0.          0.         -0.         -0.          0.          0.         -0.          0.         -0.
   0.         -0.          0.         -0.          0.         -0.         -0.         -0.          0.         -0.          0.          0.         -0.
  -0.         -0.        ]
 [ 0.          0.         -0.          0.          0.          0.         -0.         -0.          0.          0.         -0.          0.         -0.
   0.         -0.          0.         -0.          0.         -0.         -0.         -0.          0.         -0.          0.          0.         -0.
  -0.         -0.        ]
 [ 0.          0.         -0.          0.          0.          0.         -0.         -0.          0.          0.         -0.          0.         -0.
   0.         -0.          0.         -0.          0.         -0.         -0.         -0.          0.         -0.          0.          0.         -0.
  -0.         -0.        ]
 [-0.         -0.          0.         -0.         -0.         -0.          0.          0.         -0.         -0.          0.         -0.          0.
  -0.          0.         -0.          0.         -0.          0.          0.          0.         -0.          0.         -0.         -0.          0.
   0.          0.        ]
 [-0.09544979 -0.06773696  0.015096   -0.         -0.         -0.          0.          0.01427166 -0.00082849 -0.          0.         -0.          0.
  -0.          0.         -0.          0.         -0.00093941  0.00287596  0.00970323  0.00151431 -0.          0.         -0.         -0.          0.00540568
   0.00230585  0.00055006]
 [ 0.00554102  0.00393224 -0.00087635  0.          0.          0.         -0.         -0.00082849  0.0000481   0.         -0.          0.         -0.
   0.         -0.          0.         -0.          0.00005453 -0.00016695 -0.00056329 -0.00008791  0.         -0.          0.          0.         -0.00031381
  -0.00013386 -0.00003193]
 [ 0.          0.         -0.          0.          0.          0.         -0.         -0.          0.          0.         -0.          0.         -0.
   0.         -0.          0.         -0.          0.         -0.         -0.         -0.          0.         -0.          0.          0.         -0.
  -0.         -0.        ]
 [-0.         -0.          0.         -0.         -0.         -0.          0.          0.         -0.         -0.          0.         -0.          0.
  -0.          0.         -0.          0.         -0.          0.          0.          0.         -0.          0.         -0.         -0.          0.
   0.          0.        ]
 [ 0.          0.         -0.          0.          0.          0.         -0.         -0.          0.          0.         -0.          0.         -0.
   0.         -0.          0.         -0.          0.         -0.         -0.         -0.          0.         -0.          0.          0.         -0.
  -0.         -0.        ]
 [-0.         -0.          0.         -0.         -0.         -0.          0.          0.         -0.         -0.          0.         -0.          0.
  -0.          0.         -0.          0.         -0.          0.          0.          0.         -0.          0.         -0.         -0.          0.
   0.          0.        ]
 [ 0.          0.         -0.          0.          0.          0.         -0.         -0.          0.          0.         -0.          0.         -0.
   0.         -0.          0.         -0.          0.         -0.         -0.         -0.          0.         -0.          0.          0.         -0.
  -0.         -0.        ]
 [-0.         -0.          0.         -0.         -0.         -0.          0.          0.         -0.         -0.          0.         -0.          0.
  -0.          0.         -0.          0.         -0.          0.          0.          0.         -0.          0.         -0.         -0.          0.
   0.          0.        ]
 [ 0.          0.         -0.          0.          0.          0.         -0.         -0.          0.          0.         -0.          0.         -0.
   0.         -0.          0.         -0.          0.         -0.         -0.         -0.          0.         -0.          0.          0.         -0.
  -0.         -0.        ]
 [-0.         -0.          0.         -0.         -0.         -0.          0.          0.         -0.         -0.          0.         -0.          0.
  -0.          0.         -0.          0.         -0.          0.          0.          0.         -0.          0.         -0.         -0.          0.
   0.          0.        ]
 [ 0.00628284  0.00445868 -0.00099367  0.          0.          0.         -0.         -0.00093941  0.00005453  0.         -0.          0.         -0.
   0.         -0.          0.         -0.          0.00006184 -0.00018931 -0.0006387  -0.00009968  0.         -0.          0.          0.         -0.00035582
  -0.00015178 -0.00003621]
 [-0.01923459 -0.01365003  0.00304207 -0.         -0.         -0.          0.          0.00287596 -0.00016695 -0.          0.         -0.          0.
  -0.          0.         -0.          0.         -0.00018931  0.00057955  0.00195535  0.00030516 -0.          0.         -0.         -0.          0.00108933
   0.00046466  0.00011085]
 [-0.06489584 -0.04605402  0.0102637  -0.         -0.         -0.          0.          0.00970323 -0.00056329 -0.          0.         -0.          0.
  -0.          0.         -0.          0.         -0.0006387   0.00195535  0.00659717  0.00102957 -0.          0.         -0.         -0.          0.00367529
   0.00156773  0.00037398]
 [-0.01012781 -0.0071873   0.00160178 -0.         -0.         -0.          0.          0.00151431 -0.00008791 -0.          0.         -0.          0.
  -0.          0.         -0.          0.         -0.00009968  0.00030516  0.00102957  0.00016068 -0.          0.         -0.         -0.          0.00057358
   0.00024466  0.00005836]
 [ 0.          0.         -0.          0.          0.          0.         -0.         -0.          0.          0.         -0.          0.         -0.
   0.         -0.          0.         -0.          0.         -0.         -0.         -0.          0.         -0.          0.          0.         -0.
  -0.         -0.        ]
 [-0.         -0.          0.         -0.         -0.         -0.          0.          0.         -0.         -0.          0.         -0.          0.
  -0.          0.         -0.          0.         -0.          0.          0.          0.         -0.          0.         -0.         -0.          0.
   0.          0.        ]
 [ 0.          0.         -0.          0.          0.          0.         -0.         -0.          0.          0.         -0.          0.         -0.
   0.         -0.          0.         -0.          0.         -0.         -0.         -0.          0.         -0.          0.          0.         -0.
  -0.         -0.        ]
 [ 0.          0.         -0.          0.          0.          0.         -0.         -0.          0.          0.         -0.          0.         -0.
   0.         -0.          0.         -0.          0.         -0.         -0.         -0.          0.         -0.          0.          0.         -0.
  -0.         -0.        ]
 [-0.03615354 -0.02565674  0.00571792 -0.         -0.         -0.          0.          0.00540568 -0.00031381 -0.          0.         -0.          0.
  -0.          0.         -0.          0.         -0.00035582  0.00108933  0.00367529  0.00057358 -0.          0.         -0.         -0.          0.00204751
   0.00087339  0.00020835]
 [-0.01542167 -0.01094415  0.00243904 -0.         -0.         -0.          0.          0.00230585 -0.00013386 -0.          0.         -0.          0.
  -0.          0.         -0.          0.         -0.00015178  0.00046466  0.00156773  0.00024466 -0.          0.         -0.         -0.          0.00087339
   0.00037255  0.00008887]
 [-0.00367883 -0.00261072  0.00058183 -0.         -0.         -0.          0.          0.00055006 -0.00003193 -0.          0.         -0.          0.
  -0.          0.         -0.          0.         -0.00003621  0.00011085  0.00037398  0.00005836 -0.          0.         -0.         -0.          0.00020835
[...]
 [ 0.70352959 -0.2379715   0.         ...  0.          0.          0.        ]]
Hsp + Hph =  -1.2653389677805638
Feff (mod,ortho)
[[-0.22817589  0.29099471  0.22196937 ...  0.          0.          0.        ]
 [ 0.29099471  0.04904642 -0.08668506 ...  0.          0.          0.        ]
 [ 0.22196937 -0.08668506  1.288036   ...  0.          0.          0.        ]
 ...
 [ 0.          0.          0.         ...  3.23011518 -0.01120018  0.14083337]
 [ 0.          0.          0.         ... -0.01120018  1.78528833 -0.01794118]
 [ 0.          0.          0.         ...  0.14083337 -0.01794118  1.56029533]]
E(SUHF) =     -1.01334982
e_a, e_b
[-0.49859463  0.06645621  0.36571808  0.49699695  0.66537971  0.71395616  0.71395616  0.86238665  0.86238665  1.12694424  2.45210313  2.6375701   3.36916135
  3.41527332  3.41527332  3.43018812  3.43018812  3.4857531   3.4857531   3.49367027  3.49367027  3.54480493  3.83770183  3.83770183  3.89744661  3.96287719
  3.96287719  4.31509319] [-0.49859463  0.06645621  0.36571808  0.49699695  0.66537971  0.71395616  0.71395616  0.86238665  0.86238665  1.12694424  2.45210313  2.6375701   3.36916135
  3.41527332  3.41527332  3.43018812  3.43018812  3.4857531   3.4857531   3.49367027  3.49367027  3.54480493  3.83770183  3.83770183  3.89744661  3.96287719
  3.96287719  4.31509319]
P_a, P_b
[[ 0.61434808 -0.45848626 -0.10376192 -0.         -0.         -0.          0.          0.10152546  0.00598595 -0.          0.         -0.          0.
   0.          0.          0.         -0.         -0.00714838 -0.00705622  0.05957814 -0.01091591 -0.          0.         -0.         -0.          0.03719238
  -0.01964351  0.00814493]
 [-0.45848626  0.34216701  0.07743723  0.          0.          0.         -0.         -0.07576817 -0.0044673   0.         -0.          0.         -0.
  -0.         -0.         -0.          0.          0.00533482  0.00526604 -0.044463    0.00814651  0.         -0.          0.          0.         -0.02775657
   0.0146599  -0.00607854]
 [-0.10376192  0.07743723  0.01752514  0.          0.          0.         -0.         -0.01714741 -0.00101101  0.         -0.          0.         -0.
  -0.         -0.         -0.          0.          0.00120734  0.00119178 -0.01006261  0.00184367  0.         -0.          0.          0.         -0.0062817
   0.00331774 -0.00137566]
 [-0.          0.          0.          0.          0.          0.         -0.         -0.         -0.          0.         -0.          0.         -0.
  -0.         -0.         -0.          0.          0.          0.         -0.          0.          0.         -0.          0.          0.         -0.
   0.         -0.        ]
 [-0.          0.          0.          0.          0.          0.         -0.         -0.         -0.          0.         -0.          0.         -0.
  -0.         -0.         -0.          0.          0.          0.         -0.          0.          0.         -0.          0.          0.         -0.
   0.         -0.        ]
 [-0.          0.          0.          0.          0.          0.         -0.         -0.         -0.          0.         -0.          0.         -0.
  -0.         -0.         -0.          0.          0.          0.         -0.          0.          0.         -0.          0.          0.         -0.
   0.         -0.        ]
 [ 0.         -0.         -0.         -0.         -0.         -0.          0.          0.          0.         -0.          0.         -0.          0.
   0.          0.          0.         -0.         -0.         -0.          0.         -0.         -0.          0.         -0.         -0.          0.
  -0.          0.        ]
 [ 0.10152546 -0.07576817 -0.01714741 -0.         -0.         -0.          0.          0.01677782  0.00098922 -0.          0.         -0.          0.
   0.          0.          0.         -0.         -0.00118132 -0.00116609  0.00984572 -0.00180393 -0.          0.         -0.         -0.          0.00614631
  -0.00324623  0.00134601]
 [ 0.00598595 -0.0044673  -0.00101101 -0.         -0.         -0.          0.          0.00098922  0.00005832 -0.          0.         -0.          0.
   0.          0.          0.         -0.         -0.00006965 -0.00006875  0.0005805  -0.00010636 -0.          0.         -0.         -0.          0.00036239
  -0.0001914   0.00007936]
 [-0.          0.          0.          0.          0.          0.         -0.         -0.         -0.          0.         -0.          0.         -0.
  -0.         -0.         -0.          0.          0.          0.         -0.          0.          0.         -0.          0.          0.         -0.
   0.         -0.        ]
 [ 0.         -0.         -0.         -0.         -0.         -0.          0.          0.          0.         -0.          0.         -0.          0.
   0.          0.          0.         -0.         -0.         -0.          0.         -0.         -0.          0.         -0.         -0.          0.
  -0.          0.        ]
 [-0.          0.          0.          0.          0.          0.         -0.         -0.         -0.          0.         -0.          0.         -0.
  -0.         -0.         -0.          0.          0.          0.         -0.          0.          0.         -0.          0.          0.         -0.
   0.         -0.        ]
 [ 0.         -0.         -0.         -0.         -0.         -0.          0.          0.          0.         -0.          0.         -0.          0.
   0.          0.          0.         -0.         -0.         -0.          0.         -0.         -0.          0.         -0.         -0.          0.
  -0.          0.        ]
 [ 0.         -0.         -0.         -0.         -0.         -0.          0.          0.          0.         -0.          0.         -0.          0.
   0.          0.          0.         -0.         -0.         -0.          0.         -0.         -0.          0.         -0.         -0.          0.
  -0.          0.        ]
 [ 0.         -0.         -0.         -0.         -0.         -0.          0.          0.          0.         -0.          0.         -0.          0.
   0.          0.          0.         -0.         -0.         -0.          0.         -0.         -0.          0.         -0.         -0.          0.
  -0.          0.        ]
 [ 0.         -0.         -0.         -0.         -0.         -0.          0.          0.          0.         -0.          0.         -0.          0.
   0.          0.          0.         -0.         -0.         -0.          0.         -0.         -0.          0.         -0.         -0.          0.
  -0.          0.        ]
 [-0.          0.          0.          0.          0.          0.         -0.         -0.         -0.          0.         -0.          0.         -0.
  -0.         -0.         -0.          0.          0.          0.         -0.          0.          0.         -0.          0.          0.         -0.
   0.         -0.        ]
 [-0.00714838  0.00533482  0.00120734  0.          0.          0.         -0.         -0.00118132 -0.00006965  0.         -0.          0.         -0.
  -0.         -0.         -0.          0.          0.00008318  0.0000821  -0.00069323  0.00012701  0.         -0.          0.          0.         -0.00043276
   0.00022857 -0.00009477]
 [-0.00705622  0.00526604  0.00119178  0.          0.          0.         -0.         -0.00116609 -0.00006875  0.         -0.          0.         -0.
  -0.         -0.         -0.          0.          0.0000821   0.00008105 -0.0006843   0.00012538  0.         -0.          0.          0.         -0.00042718
   0.00022562 -0.00009355]
 [ 0.05957814 -0.044463   -0.01006261 -0.         -0.         -0.          0.          0.00984572  0.0005805  -0.          0.         -0.          0.
   0.          0.          0.         -0.         -0.00069323 -0.0006843   0.00577776 -0.0010586  -0.          0.         -0.         -0.          0.00360684
  -0.00190499  0.00078988]
 [-0.01091591  0.00814651  0.00184367  0.          0.          0.         -0.         -0.00180393 -0.00010636  0.         -0.          0.         -0.
  -0.         -0.         -0.          0.          0.00012701  0.00012538 -0.0010586   0.00019396  0.         -0.          0.          0.         -0.00066084
   0.00034903 -0.00014472]
 [-0.          0.          0.          0.          0.          0.         -0.         -0.         -0.          0.         -0.          0.         -0.
  -0.         -0.         -0.          0.          0.          0.         -0.          0.          0.         -0.          0.          0.         -0.
   0.         -0.        ]
 [ 0.         -0.         -0.         -0.         -0.         -0.          0.          0.          0.         -0.          0.         -0.          0.
   0.          0.          0.         -0.         -0.         -0.          0.         -0.         -0.          0.         -0.         -0.          0.
  -0.          0.        ]
 [-0.          0.          0.          0.          0.          0.         -0.         -0.         -0.          0.         -0.          0.         -0.
  -0.         -0.         -0.          0.          0.          0.         -0.          0.          0.         -0.          0.          0.         -0.
   0.         -0.        ]
 [-0.          0.          0.          0.          0.          0.         -0.         -0.         -0.          0.         -0.          0.         -0.
  -0.         -0.         -0.          0.          0.          0.         -0.          0.          0.         -0.          0.          0.         -0.
   0.         -0.        ]
 [ 0.03719238 -0.02775657 -0.0062817  -0.         -0.         -0.          0.          0.00614631  0.00036239 -0.          0.         -0.          0.
   0.          0.          0.         -0.         -0.00043276 -0.00042718  0.00360684 -0.00066084 -0.          0.         -0.         -0.          0.00225161
  -0.00118921  0.00049309]
 [-0.01964351  0.0146599   0.00331774  0.          0.          0.         -0.         -0.00324623 -0.0001914   0.         -0.          0.         -0.
  -0.         -0.         -0.          0.          0.00022857  0.00022562 -0.00190499  0.00034903  0.         -0.          0.          0.         -0.00118921
   0.00062809 -0.00026043]
 [ 0.00814493 -0.00607854 -0.00137566 -0.         -0.         -0.          0.          0.00134601  0.00007936 -0.          0.         -0.          0.
   0.          0.          0.         -0.         -0.00009477 -0.00009355  0.00078988 -0.00014472 -0.          0.         -0.         -0.          0.00049309
  -0.00026043  0.00010798]] 
 [[ 0.61434808  0.45848626 -0.10376192  0.          0.          0.         -0.         -0.10152546  0.00598595  0.         -0.          0.         -0.
   0.         -0.         -0.          0.          0.00714838 -0.00705622 -0.05957814 -0.01091591  0.         -0.          0.          0.         -0.03719238
  -0.01964351 -0.00814493]
 [ 0.45848626  0.34216701 -0.07743723  0.          0.          0.         -0.         -0.07576817  0.0044673   0.         -0.          0.         -0.
   0.         -0.         -0.          0.          0.00533482 -0.00526604 -0.044463   -0.00814651  0.         -0.          0.          0.         -0.02775657
  -0.0146599  -0.00607854]
 [-0.10376192 -0.07743723  0.01752514 -0.         -0.         -0.          0.          0.01714741 -0.00101101 -0.          0.         -0.          0.
  -0.          0.          0.         -0.         -0.00120734  0.00119178  0.01006261  0.00184367 -0.          0.         -0.         -0.          0.0062817
   0.00331774  0.00137566]
 [ 0.          0.         -0.          0.          0.          0.         -0.         -0.          0.          0.         -0.          0.         -0.
   0.         -0.         -0.          0.          0.         -0.         -0.         -0.          0.         -0.          0.          0.         -0.
  -0.         -0.        ]
 [ 0.          0.         -0.          0.          0.          0.         -0.         -0.          0.          0.         -0.          0.         -0.
   0.         -0.         -0.          0.          0.         -0.         -0.         -0.          0.         -0.          0.          0.         -0.
  -0.         -0.        ]
 [ 0.          0.         -0.          0.          0.          0.         -0.         -0.          0.          0.         -0.          0.         -0.
   0.         -0.         -0.          0.          0.         -0.         -0.         -0.          0.         -0.          0.          0.         -0.
  -0.         -0.        ]
 [-0.         -0.          0.         -0.         -0.         -0.          0.          0.         -0.         -0.          0.         -0.          0.
  -0.          0.          0.         -0.         -0.          0.          0.          0.         -0.          0.         -0.         -0.          0.
   0.          0.        ]
 [-0.10152546 -0.07576817  0.01714741 -0.         -0.         -0.          0.          0.01677782 -0.00098922 -0.          0.         -0.          0.
  -0.          0.          0.         -0.         -0.00118132  0.00116609  0.00984572  0.00180393 -0.          0.         -0.         -0.          0.00614631
   0.00324623  0.00134601]
 [ 0.00598595  0.0044673  -0.00101101  0.          0.          0.         -0.         -0.00098922  0.00005832  0.         -0.          0.         -0.
   0.         -0.         -0.          0.          0.00006965 -0.00006875 -0.0005805  -0.00010636  0.         -0.          0.          0.         -0.00036239
  -0.0001914  -0.00007936]
 [ 0.          0.         -0.          0.          0.          0.         -0.         -0.          0.          0.         -0.          0.         -0.
   0.         -0.         -0.          0.          0.         -0.         -0.         -0.          0.         -0.          0.          0.         -0.
  -0.         -0.        ]
 [-0.         -0.          0.         -0.         -0.         -0.          0.          0.         -0.         -0.          0.         -0.          0.
  -0.          0.          0.         -0.         -0.          0.          0.          0.         -0.          0.         -0.         -0.          0.
   0.          0.        ]
 [ 0.          0.         -0.          0.          0.          0.         -0.         -0.          0.          0.         -0.          0.         -0.
   0.         -0.         -0.          0.          0.         -0.         -0.         -0.          0.         -0.          0.          0.         -0.
  -0.         -0.        ]
 [-0.         -0.          0.         -0.         -0.         -0.          0.          0.         -0.         -0.          0.         -0.          0.
  -0.          0.          0.         -0.         -0.          0.          0.          0.         -0.          0.         -0.         -0.          0.
   0.          0.        ]
 [ 0.          0.         -0.          0.          0.          0.         -0.         -0.          0.          0.         -0.          0.         -0.
   0.         -0.         -0.          0.          0.         -0.         -0.         -0.          0.         -0.          0.          0.         -0.
  -0.         -0.        ]
 [-0.         -0.          0.         -0.         -0.         -0.          0.          0.         -0.         -0.          0.         -0.          0.
  -0.          0.          0.         -0.         -0.          0.          0.          0.         -0.          0.         -0.         -0.          0.
   0.          0.        ]
 [-0.         -0.          0.         -0.         -0.         -0.          0.          0.         -0.         -0.          0.         -0.          0.
  -0.          0.          0.         -0.         -0.          0.          0.          0.         -0.          0.         -0.         -0.          0.
   0.          0.        ]
 [ 0.          0.         -0.          0.          0.          0.         -0.         -0.          0.          0.         -0.          0.         -0.
   0.         -0.         -0.          0.          0.         -0.         -0.         -0.          0.         -0.          0.          0.         -0.
  -0.         -0.        ]
 [ 0.00714838  0.00533482 -0.00120734  0.          0.          0.         -0.         -0.00118132  0.00006965  0.         -0.          0.         -0.
   0.         -0.         -0.          0.          0.00008318 -0.0000821  -0.00069323 -0.00012701  0.         -0.          0.          0.         -0.00043276
  -0.00022857 -0.00009477]
 [-0.00705622 -0.00526604  0.00119178 -0.         -0.         -0.          0.          0.00116609 -0.00006875 -0.          0.         -0.          0.
  -0.          0.          0.         -0.         -0.0000821   0.00008105  0.0006843   0.00012538 -0.          0.         -0.         -0.          0.00042718
   0.00022562  0.00009355]
 [-0.05957814 -0.044463    0.01006261 -0.         -0.         -0.          0.          0.00984572 -0.0005805  -0.          0.         -0.          0.
  -0.          0.          0.         -0.         -0.00069323  0.0006843   0.00577776  0.0010586  -0.          0.         -0.         -0.          0.00360684
   0.00190499  0.00078988]
 [-0.01091591 -0.00814651  0.00184367 -0.         -0.         -0.          0.          0.00180393 -0.00010636 -0.          0.         -0.          0.
  -0.          0.          0.         -0.         -0.00012701  0.00012538  0.0010586   0.00019396 -0.          0.         -0.         -0.          0.00066084
   0.00034903  0.00014472]
 [ 0.          0.         -0.          0.          0.          0.         -0.         -0.          0.          0.         -0.          0.         -0.
   0.         -0.         -0.          0.          0.         -0.         -0.         -0.          0.         -0.          0.          0.         -0.
  -0.         -0.        ]
 [-0.         -0.          0.         -0.         -0.         -0.          0.          0.         -0.         -0.          0.         -0.          0.
  -0.          0.          0.         -0.         -0.          0.          0.          0.         -0.          0.         -0.         -0.          0.
   0.          0.        ]
 [ 0.          0.         -0.          0.          0.          0.         -0.         -0.          0.          0.         -0.          0.         -0.
   0.         -0.         -0.          0.          0.         -0.         -0.         -0.          0.         -0.          0.          0.         -0.
  -0.         -0.        ]
 [ 0.          0.         -0.          0.          0.          0.         -0.         -0.          0.          0.         -0.          0.         -0.
   0.         -0.         -0.          0.          0.         -0.         -0.         -0.          0.         -0.          0.          0.         -0.
  -0.         -0.        ]
 [-0.03719238 -0.02775657  0.0062817  -0.         -0.         -0.          0.          0.00614631 -0.00036239 -0.          0.         -0.          0.
  -0.          0.          0.         -0.         -0.00043276  0.00042718  0.00360684  0.00066084 -0.          0.         -0.         -0.          0.00225161
   0.00118921  0.00049309]
 [-0.01964351 -0.0146599   0.00331774 -0.         -0.         -0.          0.          0.00324623 -0.0001914  -0.          0.         -0.          0.
  -0.          0.          0.         -0.         -0.00022857  0.00022562  0.00190499  0.00034903 -0.          0.         -0.         -0.          0.00118921
   0.00062809  0.00026043]
 [-0.00814493 -0.00607854  0.00137566 -0.         -0.         -0.          0.          0.00134601 -0.00007936 -0.          0.         -0.          0.
  -0.          0.          0.         -0.         -0.00009477  0.00009355  0.00078988  0.00014472 -0.          0.         -0.         -0.          0.00049309
   0.00026043  0.00010798]]

***************
SUHF converged at cycle 9
Final E(SUHF) =     -1.01334982, delta E = -5.322e-09
