 Entering Gaussian System, Link 0=g09
 Input=suhf-1.8.gjf
 Output=suhf-1.8.log
 Initial command:
 /share/apps/gaussian/G09C01Z/srwang-mod-2020/g09/l1.exe /share/home/srwang/gauscr/Gau-26793.inp -scrdir=/share/home/srwang/gauscr/
 Entering Link 1 = /share/apps/gaussian/G09C01Z/srwang-mod-2020/g09/l1.exe PID=     26794.
  
 Copyright (c) 1988,1990,1992,1993,1995,1998,2003,2009,2011,
            Gaussian, Inc.  All Rights Reserved.
  
 This is part of the Gaussian(R) 09 program.  It is based on
 the Gaussian(R) 03 system (copyright 2003, Gaussian, Inc.),
 the Gaussian(R) 98 system (copyright 1998, Gaussian, Inc.),
 the Gaussian(R) 94 system (copyright 1995, Gaussian, Inc.),
 the Gaussian 92(TM) system (copyright 1992, Gaussian, Inc.),
 the Gaussian 90(TM) system (copyright 1990, Gaussian, Inc.),
 the Gaussian 88(TM) system (copyright 1988, Gaussian, Inc.),
 the Gaussian 86(TM) system (copyright 1986, Carnegie Mellon
 University), and the Gaussian 82(TM) system (copyright 1983,
 Carnegie Mellon University). Gaussian is a federally registered
 trademark of Gaussian, Inc.
  
 This software contains proprietary and confidential information,
 including trade secrets, belonging to Gaussian, Inc.
  
 This software is provided under written license and may be
 used, copied, transmitted, or stored only in accord with that
 written license.
  
 The following legend is applicable only to US Government
 contracts under FAR:
  
                    RESTRICTED RIGHTS LEGEND
  
 Use, reproduction and disclosure by the US Government is
 subject to restrictions as set forth in subparagraphs (a)
 and (c) of the Commercial Computer Software - Restricted
 Rights clause in FAR 52.227-19.
  
 Gaussian, Inc.
 340 Quinnipiac St., Bldg. 40, Wallingford CT 06492
  
  
 ---------------------------------------------------------------
 Warning -- This program may not be used in any manner that
 competes with the business of Gaussian, Inc. or will provide
 assistance to any competitor of Gaussian, Inc.  The licensee
 of this program is prohibited from giving any competitor of
 Gaussian, Inc. access to this program.  By using this program,
 the user acknowledges that Gaussian, Inc. is engaged in the
 business of creating and licensing software in the field of
 computational chemistry and represents and warrants to the
 licensee that it is not a competitor of Gaussian, Inc. and that
 it will not use this program in any manner prohibited above.
 ---------------------------------------------------------------
  

 Cite this work as:
 Gaussian 09, Revision C.01,
 M. J. Frisch, G. W. Trucks, H. B. Schlegel, G. E. Scuseria, 
 M. A. Robb, J. R. Cheeseman, G. Scalmani, V. Barone, B. Mennucci, 
 G. A. Petersson, H. Nakatsuji, M. Caricato, X. Li, H. P. Hratchian, 
 A. F. Izmaylov, J. Bloino, G. Zheng, J. L. Sonnenberg, M. Hada, 
 M. Ehara, K. Toyota, R. Fukuda, J. Hasegawa, M. Ishida, T. Nakajima, 
 Y. Honda, O. Kitao, H. Nakai, T. Vreven, J. A. Montgomery, Jr., 
 J. E. Peralta, F. Ogliaro, M. Bearpark, J. J. Heyd, E. Brothers, 
 K. N. Kudin, V. N. Staroverov, T. Keith, R. Kobayashi, J. Normand, 
 K. Raghavachari, A. Rendell, J. C. Burant, S. S. Iyengar, J. Tomasi, 
 M. Cossi, N. Rega, J. M. Millam, M. Klene, J. E. Knox, J. B. Cross, 
 V. Bakken, C. Adamo, J. Jaramillo, R. Gomperts, R. E. Stratmann, 
 O. Yazyev, A. J. Austin, R. Cammi, C. Pomelli, J. W. Ochterski, 
 R. L. Martin, K. Morokuma, V. G. Zakrzewski, G. A. Voth, 
 P. Salvador, J. J. Dannenberg, S. Dapprich, A. D. Daniels, 
 O. Farkas, J. B. Foresman, J. V. Ortiz, J. Cioslowski, 
 and D. J. Fox, Gaussian, Inc., Wallingford CT, 2010.
 
 ******************************************
 Gaussian 09:  EM64L-G09RevC.01 23-Sep-2011
                24-Nov-2020 
 ******************************************
 %subst l530 /share/home/srwang/ExSCF/phf
 %nproc=1
 Will use up to    1 processors via shared memory.
 %mem=4GB
 %chk=suhf-1.8.chk
 ----------------------------------------------------------------------
 #p uhf/cc-pvtz guess=mix scf=conver=4 extralink=l530 iop( 5/207=4) pop
 =none
 ----------------------------------------------------------------------
 1/38=1/1;
 2/12=2,17=6,18=5,40=1/2;
 3/5=16,6=1,11=2,16=1,25=1,30=1,116=2/1,2,3;
 4/13=-1/1;
 5/5=2,6=4,38=5,207=4/2,30;
 99/5=1,9=1/99;
 Leave Link    1 at Tue Nov 24 04:04:15 2020, MaxMem=  536870912 cpu:       0.0
 (Enter /share/apps/gaussian/G09C01Z/srwang-mod-2020/g09/l101.exe)
 -----
 title
 -----
 Charge =  0 Multiplicity = 1
 Symbolic Z-Matrix:
 H                     0.        0.        0. 
 H                     0.        0.        1.8 
 
 NAtoms=      2 NQM=        0 NQMF=       0 NMMI=      2 NMMIF=      0
                NMic=       0 NMicF=      0.
                    Isotopes and Nuclear Properties:
 (Nuclear quadrupole moments (NQMom) in fm**2, nuclear magnetic moments (NMagM)
  in nuclear magnetons)

  Atom         1           2
 IAtWgt=           1           1
 AtmWgt=   1.0078250   1.0078250
 NucSpn=           1           1
 AtZEff=   0.0000000   0.0000000
 NQMom=    0.0000000   0.0000000
 NMagM=    2.7928460   2.7928460
 Leave Link  101 at Tue Nov 24 04:04:15 2020, MaxMem=  536870912 cpu:       0.0
 (Enter /share/apps/gaussian/G09C01Z/srwang-mod-2020/g09/l202.exe)
                          Input orientation:                          
 ---------------------------------------------------------------------
 Center     Atomic      Atomic             Coordinates (Angstroms)
 Number     Number       Type             X           Y           Z
 ---------------------------------------------------------------------
      1          1           0        0.000000    0.000000    0.000000
      2          1           0        0.000000    0.000000    1.800000
 ---------------------------------------------------------------------
 Stoichiometry    H2
 Framework group  D*H[C*(H.H)]
 Deg. of freedom     1
 Full point group                 D*H     NOp   8
 Largest Abelian subgroup         D2H     NOp   8
 Largest concise Abelian subgroup C2      NOp   2
                         Standard orientation:                         
 ---------------------------------------------------------------------
 Center     Atomic      Atomic             Coordinates (Angstroms)
 Number     Number       Type             X           Y           Z
 ---------------------------------------------------------------------
      1          1           0        0.000000    0.000000    0.900000
      2          1           0        0.000000    0.000000   -0.900000
 ---------------------------------------------------------------------
 Rotational constants (GHZ):      0.0000000    309.5401854    309.5401854
 Leave Link  202 at Tue Nov 24 04:04:15 2020, MaxMem=  536870912 cpu:       0.0
 (Enter /share/apps/gaussian/G09C01Z/srwang-mod-2020/g09/l301.exe)
 Standard basis: CC-pVTZ (5D, 7F)
 Ernie: Thresh=  0.10000D-02 Tol=  0.10000D-05 Strict=F.
 There are     7 symmetry adapted basis functions of AG  symmetry.
 There are     1 symmetry adapted basis functions of B1G symmetry.
 There are     3 symmetry adapted basis functions of B2G symmetry.
 There are     3 symmetry adapted basis functions of B3G symmetry.
 There are     1 symmetry adapted basis functions of AU  symmetry.
 There are     7 symmetry adapted basis functions of B1U symmetry.
 There are     3 symmetry adapted basis functions of B2U symmetry.
 There are     3 symmetry adapted basis functions of B3U symmetry.
 Integral buffers will be    131072 words long.
 Raffenetti 2 integral format.
 Two-electron integral symmetry is turned on.
    28 basis functions,    34 primitive gaussians,    30 cartesian basis functions
     1 alpha electrons        1 beta electrons
       nuclear repulsion energy         0.2939873381 Hartrees.
 IExCor=    0 DFT=F Ex=HF Corr=None ExCW=0 ScaHFX=  1.000000
 ScaDFX=  1.000000  1.000000  1.000000  1.000000 ScalE2=  1.000000  1.000000
 IRadAn=      0 IRanWt=     -1 IRanGd=            0 ICorTp=0
 NAtoms=    2 NActive=    2 NUniq=    1 SFac= 4.00D+00 NAtFMM=   60 NAOKFM=F Big=F
 Leave Link  301 at Tue Nov 24 04:04:15 2020, MaxMem=  536870912 cpu:       0.0
 (Enter /share/apps/gaussian/G09C01Z/srwang-mod-2020/g09/l302.exe)
 NPDir=0 NMtPBC=     1 NCelOv=     1 NCel=       1 NClECP=     1 NCelD=      1
         NCelK=      1 NCelE2=     1 NClLst=     1 CellRange=     0.0.
 One-electron integrals computed using PRISM.
 One-electron integral symmetry used in STVInt
 Bad symmetry data in SVDSVc:  NBasis=   28 NT=   28 NBlks=8 MaxCmp=8 NBF=    7    1    3    3    1    7    3    3
 NBasis=    28 RedAO= T  NBF=     7     1     3     3     1     7     3     3
 NBsUse=    28 1.00D-06 NBFU=     7     1     3     3     1     7     3     3
 Leave Link  302 at Tue Nov 24 04:04:15 2020, MaxMem=  536870912 cpu:       0.1
 (Enter /share/apps/gaussian/G09C01Z/srwang-mod-2020/g09/l303.exe)
 DipDrv:  MaxL=1.
 Leave Link  303 at Tue Nov 24 04:04:15 2020, MaxMem=  536870912 cpu:       0.0
 (Enter /share/apps/gaussian/G09C01Z/srwang-mod-2020/g09/l401.exe)
 Harris functional with IExCor=  205 diagonalized for initial guess.
 ExpMin= 1.03D-01 ExpMax= 3.39D+01 ExpMxC= 3.39D+01 IAcc=1 IRadAn=         1 AccDes= 0.00D+00
 HarFok:  IExCor=  205 AccDes= 0.00D+00 IRadAn=         1 IDoV= 1
 ScaDFX=  1.000000  1.000000  1.000000  1.000000
 FoFCou: FMM=F IPFlag=           0 FMFlag=      100000 FMFlg1=           0
         NFxFlg=           0 DoJE=T BraDBF=F KetDBF=T FulRan=T
         Omega=  0.000000  0.000000  1.000000  0.000000  0.000000 ICntrl=     500 IOpCl=  0
         NMat0=    1 NMatS0=    1 NMatT0=    0 NMatD0=    1 NMtDS0=    0 NMtDT0=    0
         I1Cent=           4 NGrid=           0.
 Petite list used in FoFCou.
 Harris En= -1.03274538737148    
 Mixing orbitals, IMix= 1 IMixAn=  0 NRI=1 NE=    1 Coef=  7.07106781D-01  7.07106781D-01
 Mixing orbitals, IMix= 1 IMixAn=  0 NRI=1 NE=    1 Coef= -7.07106781D-01  7.07106781D-01
 Initial guess orbital symmetries:
 Alpha Orbitals:
       Occupied  (?A)
       Virtual   (?A) (SGG) (SGU) (PIU) (PIU) (SGG) (PIG) (PIG)
                 (SGU) (SGG) (SGU) (SGG) (PIU) (PIU) (DLTG) (DLTG)
                 (DLTU) (DLTU) (PIG) (PIG) (SGU) (PIU) (PIU) (PIG)
                 (PIG) (SGG) (SGU)
 Beta  Orbitals:
       Occupied  (?A)
       Virtual   (?A) (SGG) (SGU) (PIU) (PIU) (SGG) (PIG) (PIG)
                 (SGU) (SGG) (SGU) (SGG) (PIU) (PIU) (DLTG) (DLTG)
                 (DLTU) (DLTU) (PIG) (PIG) (SGU) (PIU) (PIU) (PIG)
                 (PIG) (SGG) (SGU)
 Initial guess <Sx>= 0.0000 <Sy>= 0.0000 <Sz>= 0.0000 <S**2>= 1.0000 S= 0.6180
 Leave Link  401 at Tue Nov 24 04:04:15 2020, MaxMem=  536870912 cpu:       0.1
 (Enter /share/apps/gaussian/G09C01Z/srwang-mod-2020/g09/l502.exe)
 UHF open shell SCF:
 Requested convergence on RMS density matrix=1.00D-04 within 128 cycles.
 Requested convergence on MAX density matrix=1.00D-02.
 Requested convergence on             energy=1.00D-02.
 No special actions if energy rises.
 Using DIIS extrapolation, IDIIS=  1040.
 Integral symmetry usage will be decided dynamically.
 Keep R1 and R2 ints in memory in canonical form, NReq=1058073.
 IEnd=       21362 IEndB=       21362 NGot=   536870912 MDV=   536650403
 LenX=   536650403 LenY=   536649062
 Symmetry not used in FoFDir.
 MinBra= 0 MaxBra= 2 Meth= 1.
 IRaf=       0 NMat=   1 IRICut=       1 DoRegI=T DoRafI=F ISym2E= 0 JSym2E=0.
 An orbital has undefined symmetry, so N**3 symmetry is turned off.

 Cycle   1  Pass 1  IDiag  1:
 Density matrix breaks symmetry, PCut= 1.00D-04
 Density matrix has no symmetry -- integrals replicated.
 E=-0.967186083526432    
 DIIS: error= 3.08D-02 at cycle   1 NSaved=   1.
 NSaved= 1 IEnMin= 1 EnMin=-0.967186083526432     IErMin= 1 ErrMin= 3.08D-02
 ErrMax= 3.08D-02 EMaxC= 1.00D-01 BMatC= 3.60D-02 BMatP= 3.60D-02
 IDIUse=3 WtCom= 6.92D-01 WtEn= 3.08D-01
 Coeff-Com:  0.100D+01
 Coeff-En:   0.100D+01
 Coeff:      0.100D+01
 Gap=     0.573 Goal=   None    Shift=    0.000
 Gap=     0.573 Goal=   None    Shift=    0.000
 GapD=    0.573 DampG=2.000 DampE=0.500 DampFc=1.0000 IDamp=-1.
 RMSDP=7.33D-03 MaxDP=1.27D-01              OVMax= 1.41D-01

 Cycle   2  Pass 1  IDiag  1:
 Density matrix breaks symmetry, PCut= 1.00D-07
 Density matrix has no symmetry -- integrals replicated.
 E= -1.00223221670931     Delta-E=       -0.035046133183 Rises=F Damp=F
 DIIS: error= 1.22D-02 at cycle   2 NSaved=   2.
 NSaved= 2 IEnMin= 2 EnMin= -1.00223221670931     IErMin= 2 ErrMin= 1.22D-02
 ErrMax= 1.22D-02 EMaxC= 1.00D-01 BMatC= 4.39D-03 BMatP= 3.60D-02
 IDIUse=3 WtCom= 8.78D-01 WtEn= 1.22D-01
 Coeff-Com: -0.462D+00 0.146D+01
 Coeff-En:   0.000D+00 0.100D+01
 Coeff:     -0.406D+00 0.141D+01
 Gap=     0.582 Goal=   None    Shift=    0.000
 Gap=     0.582 Goal=   None    Shift=    0.000
 RMSDP=3.29D-03 MaxDP=5.06D-02 DE=-3.50D-02 OVMax= 7.17D-02

 Cycle   3  Pass 1  IDiag  1:
 Density matrix breaks symmetry, PCut= 1.00D-07
 Density matrix has no symmetry -- integrals replicated.
 E= -1.00764618241650     Delta-E=       -0.005413965707 Rises=F Damp=F
 DIIS: error= 3.18D-03 at cycle   3 NSaved=   3.
 NSaved= 3 IEnMin= 3 EnMin= -1.00764618241650     IErMin= 3 ErrMin= 3.18D-03
 ErrMax= 3.18D-03 EMaxC= 1.00D-01 BMatC= 2.32D-04 BMatP= 4.39D-03
 IDIUse=3 WtCom= 9.68D-01 WtEn= 3.18D-02
 Coeff-Com:  0.150D+00-0.588D+00 0.144D+01
 Coeff-En:   0.000D+00 0.000D+00 0.100D+01
 Coeff:      0.145D+00-0.570D+00 0.142D+01
 Gap=     0.569 Goal=   None    Shift=    0.000
 Gap=     0.569 Goal=   None    Shift=    0.000
 RMSDP=5.29D-04 MaxDP=5.88D-03 DE=-5.41D-03 OVMax= 1.80D-02

 Cycle   4  Pass 1  IDiag  1:
 Density matrix breaks symmetry, PCut= 1.00D-07
 Density matrix has no symmetry -- integrals replicated.
 E= -1.00798355443113     Delta-E=       -0.000337372015 Rises=F Damp=F
 DIIS: error= 1.02D-03 at cycle   4 NSaved=   4.
 NSaved= 4 IEnMin= 4 EnMin= -1.00798355443113     IErMin= 4 ErrMin= 1.02D-03
 ErrMax= 1.02D-03 EMaxC= 1.00D-01 BMatC= 2.70D-05 BMatP= 2.32D-04
 IDIUse=3 WtCom= 9.90D-01 WtEn= 1.02D-02
 Coeff-Com: -0.627D-01 0.255D+00-0.876D+00 0.168D+01
 Coeff-En:   0.000D+00 0.000D+00 0.000D+00 0.100D+01
 Coeff:     -0.620D-01 0.252D+00-0.867D+00 0.168D+01
 Gap=     0.570 Goal=   None    Shift=    0.000
 Gap=     0.570 Goal=   None    Shift=    0.000
 RMSDP=2.24D-04 MaxDP=3.79D-03 DE=-3.37D-04 OVMax= 7.39D-03

 Cycle   5  Pass 1  IDiag  1:
 Density matrix breaks symmetry, PCut= 1.00D-07
 Density matrix has no symmetry -- integrals replicated.
 E= -1.00802415525590     Delta-E=       -0.000040600825 Rises=F Damp=F
 DIIS: error= 1.32D-04 at cycle   5 NSaved=   5.
 NSaved= 5 IEnMin= 5 EnMin= -1.00802415525590     IErMin= 5 ErrMin= 1.32D-04
 ErrMax= 1.32D-04 EMaxC= 1.00D-01 BMatC= 5.93D-07 BMatP= 2.70D-05
 IDIUse=3 WtCom= 9.99D-01 WtEn= 1.32D-03
 Coeff-Com:  0.870D-02-0.370D-01 0.160D+00-0.504D+00 0.137D+01
 Coeff-En:   0.000D+00 0.000D+00 0.000D+00 0.000D+00 0.100D+01
 Coeff:      0.869D-02-0.369D-01 0.160D+00-0.503D+00 0.137D+01
 Gap=     0.568 Goal=   None    Shift=    0.000
 Gap=     0.568 Goal=   None    Shift=    0.000
 RMSDP=4.29D-05 MaxDP=7.88D-04 DE=-4.06D-05 OVMax= 1.24D-03

 Density matrix breaks symmetry, PCut= 1.00D-07
 Density matrix has no symmetry -- integrals replicated.
 SCF Done:  E(UHF) =  -1.00802415526     A.U. after    5 cycles
             Convg  =    0.4294D-04             -V/T =  2.0535
 <Sx>= 0.0000 <Sy>= 0.0000 <Sz>= 0.0000 <S**2>= 0.8260 S= 0.5373
 <L.S>= 0.000000000000E+00
 KE= 9.567884684723D-01 PE=-2.565686310343D+00 EE= 3.068863485095D-01
 Annihilation of the first spin contaminant:
 S**2 before annihilation     0.8260,   after     0.0000
 Leave Link  502 at Tue Nov 24 04:04:15 2020, MaxMem=  536870912 cpu:       0.1
  
  +-------------------------------------------+
  |                                           |
  |  LINK 530 - Projected Hartree-Fock (PHF)  |
  |     Self-Consistent Field (SCF) Code      |
  |                                           |
  |                                           |
  |         the Scuseria group, v0.2, 07.2011 |
  +-------------------------------------------+
  
 (Enter /share/home/srwang/ExSCF/phf/l530.exe)

 PHF SCF was invoked with the following options:

   method selection:
 iprint =  0
 iphf   =  4, [ UHF + spin projection ]

   general options:
 maxcyc =    512, S      =      0
 ngrda  =      1, ngrdb  =      8, ngrdg  =      1

   accuracy requested:
 conv criterion (RMSDP, RMSDK) =     1.0000E-08
 requested integral accuracy   =     1.0000E-10

   use of symmetry:
 two-electron integral symmetry not used

   strategy options:
 level shifting is turned off
 istrat =      1, continue as usual if energy rises
 modified PHF effective Fock matrix used

   initial guess options:
 igues1 =  1, read GDV guess


 PHF SCF - preparing initial guess


 PHF SCF - starting SCF procedure

beta in GauLeg
grd=    0.0624    0.3194    0.7453    1.2827    1.8589    2.3963    2.8222    3.0792
wgt=    0.0099    0.1097    0.3342    0.5462    0.5462    0.3342    0.1097    0.0099
WigArr: s=    0, sz=    0, isint=    T, ncis=                       1, dind=    0.0000
dmt=    1.0000    1.0000    1.0000    1.0000    1.0000    1.0000    1.0000    1.0000
*********  Start Cycle  1  *************
 
Start hffock
  
 Core Hamiltonian (real):
                 1             2             3             4             5 
      1  -0.819079915323807D+00 -0.187848559079987D+00  0.262270204199671D-01  0.000000000000000D+00 -0.105347447567627D-01
      2  -0.187848559079987D+00  0.339111018329942D+00  0.148084445653289D-01  0.000000000000000D+00 -0.588264780997041D-01
      3   0.262270204199671D-01  0.148084445653289D-01  0.229244304276413D+01  0.000000000000000D+00 -0.655633262890776D-01
      4   0.000000000000000D+00  0.000000000000000D+00  0.000000000000000D+00  0.252824701505025D+01  0.000000000000000D+00
      5  -0.105347447567627D-01 -0.588264780997041D-01 -0.655633262890776D-01  0.000000000000000D+00  0.336753954508402D+00
      6  -0.208301658703707D+00  0.107621407613942D+01  0.807926732887145D-01  0.000000000000000D+00 -0.229517715743913D+00
      7  -0.728638301033147D-01 -0.573666804819368D-01 -0.261918904954277D+00  0.000000000000000D+00 -0.787489242855071D+00
      8   0.000000000000000D+00  0.000000000000000D+00  0.000000000000000D+00  0.000000000000000D+00  0.000000000000000D+00
      9   0.000000000000000D+00  0.000000000000000D+00  0.000000000000000D+00  0.000000000000000D+00  0.000000000000000D+00
     10   0.000000000000000D+00  0.000000000000000D+00  0.000000000000000D+00  0.000000000000000D+00  0.000000000000000D+00
     11   0.000000000000000D+00  0.000000000000000D+00  0.000000000000000D+00  0.000000000000000D+00  0.000000000000000D+00
     12   0.000000000000000D+00  0.000000000000000D+00  0.000000000000000D+00  0.000000000000000D+00  0.000000000000000D+00
     13   0.000000000000000D+00  0.000000000000000D+00  0.000000000000000D+00  0.000000000000000D+00  0.000000000000000D+00
     14   0.000000000000000D+00  0.000000000000000D+00  0.000000000000000D+00  0.000000000000000D+00  0.000000000000000D+00
     15   0.000000000000000D+00  0.000000000000000D+00  0.000000000000000D+00  0.000000000000000D+00  0.000000000000000D+00
     16   0.000000000000000D+00  0.000000000000000D+00  0.000000000000000D+00  0.000000000000000D+00  0.000000000000000D+00
     17   0.000000000000000D+00  0.000000000000000D+00  0.000000000000000D+00  0.000000000000000D+00  0.000000000000000D+00
     18   0.000000000000000D+00  0.000000000000000D+00  0.000000000000000D+00  0.000000000000000D+00  0.000000000000000D+00
     19   0.000000000000000D+00  0.000000000000000D+00  0.000000000000000D+00  0.000000000000000D+00  0.000000000000000D+00
     20   0.000000000000000D+00  0.000000000000000D+00  0.000000000000000D+00  0.000000000000000D+00  0.000000000000000D+00
     21   0.000000000000000D+00  0.000000000000000D+00  0.000000000000000D+00  0.000000000000000D+00  0.000000000000000D+00
     22   0.000000000000000D+00  0.000000000000000D+00  0.000000000000000D+00  0.000000000000000D+00  0.000000000000000D+00
     23   0.000000000000000D+00  0.000000000000000D+00  0.000000000000000D+00  0.000000000000000D+00  0.000000000000000D+00
     24   0.000000000000000D+00  0.000000000000000D+00  0.000000000000000D+00  0.000000000000000D+00  0.000000000000000D+00
     25   0.000000000000000D+00  0.000000000000000D+00  0.000000000000000D+00  0.000000000000000D+00  0.000000000000000D+00
     26   0.000000000000000D+00  0.000000000000000D+00  0.000000000000000D+00  0.000000000000000D+00  0.000000000000000D+00
     27   0.000000000000000D+00  0.000000000000000D+00  0.000000000000000D+00  0.000000000000000D+00  0.000000000000000D+00
     28   0.000000000000000D+00  0.000000000000000D+00  0.000000000000000D+00  0.000000000000000D+00  0.000000000000000D+00
                 6             7             8             9            10 
      1  -0.208301658703707D+00 -0.728638301033146D-01  0.000000000000000D+00  0.000000000000000D+00  0.000000000000000D+00
      2   0.107621407613942D+01 -0.573666804819369D-01  0.000000000000000D+00  0.000000000000000D+00  0.000000000000000D+00
      3   0.807926732887145D-01 -0.261918904954277D+00  0.000000000000000D+00  0.000000000000000D+00  0.000000000000000D+00
      4   0.000000000000000D+00  0.000000000000000D+00  0.000000000000000D+00  0.000000000000000D+00  0.000000000000000D+00
      5  -0.229517715743913D+00 -0.787489242855071D+00  0.000000000000000D+00  0.000000000000000D+00  0.000000000000000D+00
      6   0.255366984753533D+01 -0.197725056986616D+00  0.000000000000000D+00  0.000000000000000D+00  0.000000000000000D+00
      7  -0.197725056986616D+00  0.107772580566395D+01  0.000000000000000D+00  0.000000000000000D+00  0.000000000000000D+00
      8   0.000000000000000D+00  0.000000000000000D+00  0.252824701505025D+01  0.000000000000000D+00  0.000000000000000D+00
      9   0.000000000000000D+00  0.000000000000000D+00  0.000000000000000D+00  0.839069965886930D+00  0.318302473809321D-01
     10   0.000000000000000D+00  0.000000000000000D+00  0.000000000000000D+00  0.318302473809321D-01  0.265245972531191D+01
     11   0.000000000000000D+00  0.000000000000000D+00  0.000000000000000D+00 -0.124425377173072D+01 -0.990935264074695D-01
     12   0.000000000000000D+00  0.000000000000000D+00  0.000000000000000D+00  0.000000000000000D+00  0.000000000000000D+00
     13   0.000000000000000D+00  0.000000000000000D+00  0.000000000000000D+00  0.000000000000000D+00  0.000000000000000D+00
     14   0.000000000000000D+00  0.000000000000000D+00  0.000000000000000D+00  0.000000000000000D+00  0.000000000000000D+00
     15   0.000000000000000D+00  0.000000000000000D+00  0.000000000000000D+00  0.000000000000000D+00  0.000000000000000D+00
     16   0.000000000000000D+00  0.000000000000000D+00  0.000000000000000D+00  0.000000000000000D+00  0.000000000000000D+00
     17   0.000000000000000D+00  0.000000000000000D+00  0.000000000000000D+00  0.000000000000000D+00  0.000000000000000D+00
     18   0.000000000000000D+00  0.000000000000000D+00  0.000000000000000D+00  0.000000000000000D+00  0.000000000000000D+00
     19   0.000000000000000D+00  0.000000000000000D+00  0.000000000000000D+00  0.000000000000000D+00  0.000000000000000D+00
     20   0.000000000000000D+00  0.000000000000000D+00  0.000000000000000D+00  0.000000000000000D+00  0.000000000000000D+00
     21   0.000000000000000D+00  0.000000000000000D+00  0.000000000000000D+00  0.000000000000000D+00  0.000000000000000D+00
     22   0.000000000000000D+00  0.000000000000000D+00  0.000000000000000D+00  0.000000000000000D+00  0.000000000000000D+00
     23   0.000000000000000D+00  0.000000000000000D+00  0.000000000000000D+00  0.000000000000000D+00  0.000000000000000D+00
     24   0.000000000000000D+00  0.000000000000000D+00  0.000000000000000D+00  0.000000000000000D+00  0.000000000000000D+00
     25   0.000000000000000D+00  0.000000000000000D+00  0.000000000000000D+00  0.000000000000000D+00  0.000000000000000D+00
     26   0.000000000000000D+00  0.000000000000000D+00  0.000000000000000D+00  0.000000000000000D+00  0.000000000000000D+00
     27   0.000000000000000D+00  0.000000000000000D+00  0.000000000000000D+00  0.000000000000000D+00  0.000000000000000D+00
     28   0.000000000000000D+00  0.000000000000000D+00  0.000000000000000D+00  0.000000000000000D+00  0.000000000000000D+00
                11            12            13            14            15 
      1   0.000000000000000D+00  0.000000000000000D+00  0.000000000000000D+00  0.000000000000000D+00  0.000000000000000D+00
      2   0.000000000000000D+00  0.000000000000000D+00  0.000000000000000D+00  0.000000000000000D+00  0.000000000000000D+00
      3   0.000000000000000D+00  0.000000000000000D+00  0.000000000000000D+00  0.000000000000000D+00  0.000000000000000D+00
      4   0.000000000000000D+00  0.000000000000000D+00  0.000000000000000D+00  0.000000000000000D+00  0.000000000000000D+00
      5   0.000000000000000D+00  0.000000000000000D+00  0.000000000000000D+00  0.000000000000000D+00  0.000000000000000D+00
      6   0.000000000000000D+00  0.000000000000000D+00  0.000000000000000D+00  0.000000000000000D+00  0.000000000000000D+00
      7   0.000000000000000D+00  0.000000000000000D+00  0.000000000000000D+00  0.000000000000000D+00  0.000000000000000D+00
      8   0.000000000000000D+00  0.000000000000000D+00  0.000000000000000D+00  0.000000000000000D+00  0.000000000000000D+00
      9  -0.124425377173072D+01  0.000000000000000D+00  0.000000000000000D+00  0.000000000000000D+00  0.000000000000000D+00
     10  -0.990935264074695D-01  0.000000000000000D+00  0.000000000000000D+00  0.000000000000000D+00  0.000000000000000D+00
     11   0.229741845279566D+01  0.000000000000000D+00  0.000000000000000D+00  0.000000000000000D+00  0.000000000000000D+00
     12   0.000000000000000D+00  0.839069965886930D+00  0.318302473809321D-01 -0.124425377173072D+01  0.000000000000000D+00
     13   0.000000000000000D+00  0.318302473809321D-01  0.265245972531191D+01 -0.990935264074695D-01  0.000000000000000D+00
     14   0.000000000000000D+00 -0.124425377173072D+01 -0.990935264074695D-01  0.229741845279566D+01  0.000000000000000D+00
     15   0.000000000000000D+00  0.000000000000000D+00  0.000000000000000D+00  0.000000000000000D+00  0.255614871249693D+01
     16   0.000000000000000D+00  0.000000000000000D+00  0.000000000000000D+00  0.000000000000000D+00  0.000000000000000D+00
     17   0.000000000000000D+00  0.000000000000000D+00  0.000000000000000D+00  0.000000000000000D+00  0.000000000000000D+00
     18   0.000000000000000D+00  0.000000000000000D+00  0.000000000000000D+00  0.000000000000000D+00  0.000000000000000D+00
     19   0.000000000000000D+00  0.000000000000000D+00  0.000000000000000D+00  0.000000000000000D+00  0.000000000000000D+00
     20   0.000000000000000D+00  0.000000000000000D+00  0.000000000000000D+00  0.000000000000000D+00  0.000000000000000D+00
     21   0.000000000000000D+00  0.000000000000000D+00  0.000000000000000D+00  0.000000000000000D+00  0.000000000000000D+00
     22   0.000000000000000D+00  0.000000000000000D+00  0.000000000000000D+00  0.000000000000000D+00  0.000000000000000D+00
     23   0.000000000000000D+00  0.000000000000000D+00  0.000000000000000D+00  0.000000000000000D+00  0.000000000000000D+00
     24   0.000000000000000D+00  0.000000000000000D+00  0.000000000000000D+00  0.000000000000000D+00  0.000000000000000D+00
     25   0.000000000000000D+00  0.000000000000000D+00  0.000000000000000D+00  0.000000000000000D+00  0.000000000000000D+00
     26   0.000000000000000D+00  0.000000000000000D+00  0.000000000000000D+00  0.000000000000000D+00  0.000000000000000D+00
     27   0.000000000000000D+00  0.000000000000000D+00  0.000000000000000D+00  0.000000000000000D+00  0.000000000000000D+00
     28   0.000000000000000D+00  0.000000000000000D+00  0.000000000000000D+00  0.000000000000000D+00  0.000000000000000D+00
                16            17            18            19            20 
      1   0.000000000000000D+00  0.000000000000000D+00  0.000000000000000D+00  0.000000000000000D+00  0.000000000000000D+00
      2   0.000000000000000D+00  0.000000000000000D+00  0.000000000000000D+00  0.000000000000000D+00  0.000000000000000D+00
      3   0.000000000000000D+00  0.000000000000000D+00  0.000000000000000D+00  0.000000000000000D+00  0.000000000000000D+00
      4   0.000000000000000D+00  0.000000000000000D+00  0.000000000000000D+00  0.000000000000000D+00  0.000000000000000D+00
      5   0.000000000000000D+00  0.000000000000000D+00  0.000000000000000D+00  0.000000000000000D+00  0.000000000000000D+00
      6   0.000000000000000D+00  0.000000000000000D+00  0.000000000000000D+00  0.000000000000000D+00  0.000000000000000D+00
      7   0.000000000000000D+00  0.000000000000000D+00  0.000000000000000D+00  0.000000000000000D+00  0.000000000000000D+00
      8   0.000000000000000D+00  0.000000000000000D+00  0.000000000000000D+00  0.000000000000000D+00  0.000000000000000D+00
      9   0.000000000000000D+00  0.000000000000000D+00  0.000000000000000D+00  0.000000000000000D+00  0.000000000000000D+00
     10   0.000000000000000D+00  0.000000000000000D+00  0.000000000000000D+00  0.000000000000000D+00  0.000000000000000D+00
     11   0.000000000000000D+00  0.000000000000000D+00  0.000000000000000D+00  0.000000000000000D+00  0.000000000000000D+00
     12   0.000000000000000D+00  0.000000000000000D+00  0.000000000000000D+00  0.000000000000000D+00  0.000000000000000D+00
     13   0.000000000000000D+00  0.000000000000000D+00  0.000000000000000D+00  0.000000000000000D+00  0.000000000000000D+00
     14   0.000000000000000D+00  0.000000000000000D+00  0.000000000000000D+00  0.000000000000000D+00  0.000000000000000D+00
     15   0.000000000000000D+00  0.000000000000000D+00  0.000000000000000D+00  0.000000000000000D+00  0.000000000000000D+00
     16  -0.514509160388337D+00  0.459876825592778D+00  0.000000000000000D+00 -0.150358140827036D+00  0.388188023261078D+00
     17   0.459876825592778D+00  0.107979614822683D+01  0.000000000000000D+00  0.172202535728623D+00  0.627148930166108D+00
     18   0.000000000000000D+00  0.000000000000000D+00  0.255614871249693D+01  0.000000000000000D+00  0.000000000000000D+00
     19  -0.150358140827036D+00  0.172202535728623D+00  0.000000000000000D+00  0.279888567964370D+01 -0.227965820073045D+00
     20   0.388188023261079D+00  0.627148930166108D+00  0.000000000000000D+00 -0.227965820073045D+00  0.996659740776382D+00
     21  -0.636692194391470D-01 -0.119381967044881D+01  0.000000000000000D+00 -0.490345814051109D+00 -0.556460453123005D+00
     22   0.168891298800422D+00 -0.550461437100463D-01  0.000000000000000D+00 -0.449890848678796D-01  0.894534472872039D+00
     23   0.000000000000000D+00  0.000000000000000D+00  0.000000000000000D+00  0.000000000000000D+00  0.000000000000000D+00
     24   0.000000000000000D+00  0.000000000000000D+00  0.000000000000000D+00  0.000000000000000D+00  0.000000000000000D+00
     25   0.000000000000000D+00  0.000000000000000D+00  0.000000000000000D+00  0.000000000000000D+00  0.000000000000000D+00
     26   0.000000000000000D+00  0.000000000000000D+00  0.000000000000000D+00  0.000000000000000D+00  0.000000000000000D+00
     27   0.000000000000000D+00  0.000000000000000D+00  0.000000000000000D+00  0.000000000000000D+00  0.000000000000000D+00
     28   0.000000000000000D+00  0.000000000000000D+00  0.000000000000000D+00  0.000000000000000D+00  0.000000000000000D+00
                21            22            23            24            25 
      1   0.000000000000000D+00  0.000000000000000D+00  0.000000000000000D+00  0.000000000000000D+00  0.000000000000000D+00
      2   0.000000000000000D+00  0.000000000000000D+00  0.000000000000000D+00  0.000000000000000D+00  0.000000000000000D+00
      3   0.000000000000000D+00  0.000000000000000D+00  0.000000000000000D+00  0.000000000000000D+00  0.000000000000000D+00
      4   0.000000000000000D+00  0.000000000000000D+00  0.000000000000000D+00  0.000000000000000D+00  0.000000000000000D+00
      5   0.000000000000000D+00  0.000000000000000D+00  0.000000000000000D+00  0.000000000000000D+00  0.000000000000000D+00
      6   0.000000000000000D+00  0.000000000000000D+00  0.000000000000000D+00  0.000000000000000D+00  0.000000000000000D+00
      7   0.000000000000000D+00  0.000000000000000D+00  0.000000000000000D+00  0.000000000000000D+00  0.000000000000000D+00
      8   0.000000000000000D+00  0.000000000000000D+00  0.000000000000000D+00  0.000000000000000D+00  0.000000000000000D+00
      9   0.000000000000000D+00  0.000000000000000D+00  0.000000000000000D+00  0.000000000000000D+00  0.000000000000000D+00
     10   0.000000000000000D+00  0.000000000000000D+00  0.000000000000000D+00  0.000000000000000D+00  0.000000000000000D+00
     11   0.000000000000000D+00  0.000000000000000D+00  0.000000000000000D+00  0.000000000000000D+00  0.000000000000000D+00
     12   0.000000000000000D+00  0.000000000000000D+00  0.000000000000000D+00  0.000000000000000D+00  0.000000000000000D+00
     13   0.000000000000000D+00  0.000000000000000D+00  0.000000000000000D+00  0.000000000000000D+00  0.000000000000000D+00
     14   0.000000000000000D+00  0.000000000000000D+00  0.000000000000000D+00  0.000000000000000D+00  0.000000000000000D+00
     15   0.000000000000000D+00  0.000000000000000D+00  0.000000000000000D+00  0.000000000000000D+00  0.000000000000000D+00
     16  -0.636692194391471D-01  0.168891298800422D+00  0.000000000000000D+00  0.000000000000000D+00  0.000000000000000D+00
     17  -0.119381967044881D+01 -0.550461437100463D-01  0.000000000000000D+00  0.000000000000000D+00  0.000000000000000D+00
     18   0.000000000000000D+00  0.000000000000000D+00  0.000000000000000D+00  0.000000000000000D+00  0.000000000000000D+00
     19  -0.490345814051109D+00 -0.449890848678796D-01  0.000000000000000D+00  0.000000000000000D+00  0.000000000000000D+00
     20  -0.556460453123006D+00  0.894534472872039D+00  0.000000000000000D+00  0.000000000000000D+00  0.000000000000000D+00
     21   0.245453981551062D+01  0.254627306568131D+00  0.000000000000000D+00  0.000000000000000D+00  0.000000000000000D+00
     22   0.254627306568131D+00  0.909678118453495D+00  0.000000000000000D+00  0.000000000000000D+00  0.000000000000000D+00
     23   0.000000000000000D+00  0.000000000000000D+00  0.569940382962555D+00  0.490076994774483D-01  0.120855861259262D+01
     24   0.000000000000000D+00  0.000000000000000D+00  0.490076994774483D-01  0.240816531866574D+01 -0.644622841935536D-01
     25   0.000000000000000D+00  0.000000000000000D+00  0.120855861259262D+01 -0.644622841935536D-01  0.224666606343850D+01
     26   0.000000000000000D+00  0.000000000000000D+00  0.000000000000000D+00  0.000000000000000D+00  0.000000000000000D+00
     27   0.000000000000000D+00  0.000000000000000D+00  0.000000000000000D+00  0.000000000000000D+00  0.000000000000000D+00
     28   0.000000000000000D+00  0.000000000000000D+00  0.000000000000000D+00  0.000000000000000D+00  0.000000000000000D+00
                26            27            28 
      1   0.000000000000000D+00  0.000000000000000D+00  0.000000000000000D+00
      2   0.000000000000000D+00  0.000000000000000D+00  0.000000000000000D+00
      3   0.000000000000000D+00  0.000000000000000D+00  0.000000000000000D+00
      4   0.000000000000000D+00  0.000000000000000D+00  0.000000000000000D+00
      5   0.000000000000000D+00  0.000000000000000D+00  0.000000000000000D+00
      6   0.000000000000000D+00  0.000000000000000D+00  0.000000000000000D+00
      7   0.000000000000000D+00  0.000000000000000D+00  0.000000000000000D+00
      8   0.000000000000000D+00  0.000000000000000D+00  0.000000000000000D+00
      9   0.000000000000000D+00  0.000000000000000D+00  0.000000000000000D+00
     10   0.000000000000000D+00  0.000000000000000D+00  0.000000000000000D+00
     11   0.000000000000000D+00  0.000000000000000D+00  0.000000000000000D+00
     12   0.000000000000000D+00  0.000000000000000D+00  0.000000000000000D+00
     13   0.000000000000000D+00  0.000000000000000D+00  0.000000000000000D+00
     14   0.000000000000000D+00  0.000000000000000D+00  0.000000000000000D+00
     15   0.000000000000000D+00  0.000000000000000D+00  0.000000000000000D+00
     16   0.000000000000000D+00  0.000000000000000D+00  0.000000000000000D+00
     17   0.000000000000000D+00  0.000000000000000D+00  0.000000000000000D+00
     18   0.000000000000000D+00  0.000000000000000D+00  0.000000000000000D+00
     19   0.000000000000000D+00  0.000000000000000D+00  0.000000000000000D+00
     20   0.000000000000000D+00  0.000000000000000D+00  0.000000000000000D+00
     21   0.000000000000000D+00  0.000000000000000D+00  0.000000000000000D+00
     22   0.000000000000000D+00  0.000000000000000D+00  0.000000000000000D+00
     23   0.000000000000000D+00  0.000000000000000D+00  0.000000000000000D+00
     24   0.000000000000000D+00  0.000000000000000D+00  0.000000000000000D+00
     25   0.000000000000000D+00  0.000000000000000D+00  0.000000000000000D+00
     26   0.569940382962555D+00  0.490076994774483D-01  0.120855861259262D+01
     27   0.490076994774483D-01  0.240816531866574D+01 -0.644622841935536D-01
     28   0.120855861259262D+01 -0.644622841935537D-01  0.224666606343850D+01
 Core Hamiltonian (imaginary):
                 1             2             3             4             5 
      1   0.000000000000000D+00  0.000000000000000D+00  0.000000000000000D+00  0.000000000000000D+00  0.000000000000000D+00
      2   0.000000000000000D+00  0.000000000000000D+00  0.000000000000000D+00  0.000000000000000D+00  0.000000000000000D+00
      3   0.000000000000000D+00  0.000000000000000D+00  0.000000000000000D+00  0.000000000000000D+00  0.000000000000000D+00
      4   0.000000000000000D+00  0.000000000000000D+00  0.000000000000000D+00  0.000000000000000D+00  0.000000000000000D+00
      5   0.000000000000000D+00  0.000000000000000D+00  0.000000000000000D+00  0.000000000000000D+00  0.000000000000000D+00
      6   0.000000000000000D+00  0.000000000000000D+00  0.000000000000000D+00  0.000000000000000D+00  0.000000000000000D+00
      7   0.000000000000000D+00  0.000000000000000D+00  0.000000000000000D+00  0.000000000000000D+00  0.000000000000000D+00
      8   0.000000000000000D+00  0.000000000000000D+00  0.000000000000000D+00  0.000000000000000D+00  0.000000000000000D+00
      9   0.000000000000000D+00  0.000000000000000D+00  0.000000000000000D+00  0.000000000000000D+00  0.000000000000000D+00
     10   0.000000000000000D+00  0.000000000000000D+00  0.000000000000000D+00  0.000000000000000D+00  0.000000000000000D+00
     11   0.000000000000000D+00  0.000000000000000D+00  0.000000000000000D+00  0.000000000000000D+00  0.000000000000000D+00
     12   0.000000000000000D+00  0.000000000000000D+00  0.000000000000000D+00  0.000000000000000D+00  0.000000000000000D+00
     13   0.000000000000000D+00  0.000000000000000D+00  0.000000000000000D+00  0.000000000000000D+00  0.000000000000000D+00
     14   0.000000000000000D+00  0.000000000000000D+00  0.000000000000000D+00  0.000000000000000D+00  0.000000000000000D+00
     15   0.000000000000000D+00  0.000000000000000D+00  0.000000000000000D+00  0.000000000000000D+00  0.000000000000000D+00
     16   0.000000000000000D+00  0.000000000000000D+00  0.000000000000000D+00  0.000000000000000D+00  0.000000000000000D+00
     17   0.000000000000000D+00  0.000000000000000D+00  0.000000000000000D+00  0.000000000000000D+00  0.000000000000000D+00
     18   0.000000000000000D+00  0.000000000000000D+00  0.000000000000000D+00  0.000000000000000D+00  0.000000000000000D+00
     19   0.000000000000000D+00  0.000000000000000D+00  0.000000000000000D+00  0.000000000000000D+00  0.000000000000000D+00
     20   0.000000000000000D+00  0.000000000000000D+00  0.000000000000000D+00  0.000000000000000D+00  0.000000000000000D+00
     21   0.000000000000000D+00  0.000000000000000D+00  0.000000000000000D+00  0.000000000000000D+00  0.000000000000000D+00
     22   0.000000000000000D+00  0.000000000000000D+00  0.000000000000000D+00  0.000000000000000D+00  0.000000000000000D+00
     23   0.000000000000000D+00  0.000000000000000D+00  0.000000000000000D+00  0.000000000000000D+00  0.000000000000000D+00
     24   0.000000000000000D+00  0.000000000000000D+00  0.000000000000000D+00  0.000000000000000D+00  0.000000000000000D+00
     25   0.000000000000000D+00  0.000000000000000D+00  0.000000000000000D+00  0.000000000000000D+00  0.000000000000000D+00
     26   0.000000000000000D+00  0.000000000000000D+00  0.000000000000000D+00  0.000000000000000D+00  0.000000000000000D+00
     27   0.000000000000000D+00  0.000000000000000D+00  0.000000000000000D+00  0.000000000000000D+00  0.000000000000000D+00
     28   0.000000000000000D+00  0.000000000000000D+00  0.000000000000000D+00  0.000000000000000D+00  0.000000000000000D+00
                 6             7             8             9            10 
      1   0.000000000000000D+00  0.000000000000000D+00  0.000000000000000D+00  0.000000000000000D+00  0.000000000000000D+00
      2   0.000000000000000D+00  0.000000000000000D+00  0.000000000000000D+00  0.000000000000000D+00  0.000000000000000D+00
      3   0.000000000000000D+00  0.000000000000000D+00  0.000000000000000D+00  0.000000000000000D+00  0.000000000000000D+00
      4   0.000000000000000D+00  0.000000000000000D+00  0.000000000000000D+00  0.000000000000000D+00  0.000000000000000D+00
      5   0.000000000000000D+00  0.000000000000000D+00  0.000000000000000D+00  0.000000000000000D+00  0.000000000000000D+00
      6   0.000000000000000D+00  0.000000000000000D+00  0.000000000000000D+00  0.000000000000000D+00  0.000000000000000D+00
      7   0.000000000000000D+00  0.000000000000000D+00  0.000000000000000D+00  0.000000000000000D+00  0.000000000000000D+00
      8   0.000000000000000D+00  0.000000000000000D+00  0.000000000000000D+00  0.000000000000000D+00  0.000000000000000D+00
      9   0.000000000000000D+00  0.000000000000000D+00  0.000000000000000D+00  0.000000000000000D+00  0.000000000000000D+00
     10   0.000000000000000D+00  0.000000000000000D+00  0.000000000000000D+00  0.000000000000000D+00  0.000000000000000D+00
     11   0.000000000000000D+00  0.000000000000000D+00  0.000000000000000D+00  0.000000000000000D+00  0.000000000000000D+00
     12   0.000000000000000D+00  0.000000000000000D+00  0.000000000000000D+00  0.000000000000000D+00  0.000000000000000D+00
     13   0.000000000000000D+00  0.000000000000000D+00  0.000000000000000D+00  0.000000000000000D+00  0.000000000000000D+00
     14   0.000000000000000D+00  0.000000000000000D+00  0.000000000000000D+00  0.000000000000000D+00  0.000000000000000D+00
     15   0.000000000000000D+00  0.000000000000000D+00  0.000000000000000D+00  0.000000000000000D+00  0.000000000000000D+00
     16   0.000000000000000D+00  0.000000000000000D+00  0.000000000000000D+00  0.000000000000000D+00  0.000000000000000D+00
     17   0.000000000000000D+00  0.000000000000000D+00  0.000000000000000D+00  0.000000000000000D+00  0.000000000000000D+00
     18   0.000000000000000D+00  0.000000000000000D+00  0.000000000000000D+00  0.000000000000000D+00  0.000000000000000D+00
     19   0.000000000000000D+00  0.000000000000000D+00  0.000000000000000D+00  0.000000000000000D+00  0.000000000000000D+00
     20   0.000000000000000D+00  0.000000000000000D+00  0.000000000000000D+00  0.000000000000000D+00  0.000000000000000D+00
     21   0.000000000000000D+00  0.000000000000000D+00  0.000000000000000D+00  0.000000000000000D+00  0.000000000000000D+00
     22   0.000000000000000D+00  0.000000000000000D+00  0.000000000000000D+00  0.000000000000000D+00  0.000000000000000D+00
     23   0.000000000000000D+00  0.000000000000000D+00  0.000000000000000D+00  0.000000000000000D+00  0.000000000000000D+00
     24   0.000000000000000D+00  0.000000000000000D+00  0.000000000000000D+00  0.000000000000000D+00  0.000000000000000D+00
     25   0.000000000000000D+00  0.000000000000000D+00  0.000000000000000D+00  0.000000000000000D+00  0.000000000000000D+00
     26   0.000000000000000D+00  0.000000000000000D+00  0.000000000000000D+00  0.000000000000000D+00  0.000000000000000D+00
     27   0.000000000000000D+00  0.000000000000000D+00  0.000000000000000D+00  0.000000000000000D+00  0.000000000000000D+00
     28   0.000000000000000D+00  0.000000000000000D+00  0.000000000000000D+00  0.000000000000000D+00  0.000000000000000D+00
                11            12            13            14            15 
      1   0.000000000000000D+00  0.000000000000000D+00  0.000000000000000D+00  0.000000000000000D+00  0.000000000000000D+00
      2   0.000000000000000D+00  0.000000000000000D+00  0.000000000000000D+00  0.000000000000000D+00  0.000000000000000D+00
      3   0.000000000000000D+00  0.000000000000000D+00  0.000000000000000D+00  0.000000000000000D+00  0.000000000000000D+00
      4   0.000000000000000D+00  0.000000000000000D+00  0.000000000000000D+00  0.000000000000000D+00  0.000000000000000D+00
      5   0.000000000000000D+00  0.000000000000000D+00  0.000000000000000D+00  0.000000000000000D+00  0.000000000000000D+00
      6   0.000000000000000D+00  0.000000000000000D+00  0.000000000000000D+00  0.000000000000000D+00  0.000000000000000D+00
      7   0.000000000000000D+00  0.000000000000000D+00  0.000000000000000D+00  0.000000000000000D+00  0.000000000000000D+00
      8   0.000000000000000D+00  0.000000000000000D+00  0.000000000000000D+00  0.000000000000000D+00  0.000000000000000D+00
      9   0.000000000000000D+00  0.000000000000000D+00  0.000000000000000D+00  0.000000000000000D+00  0.000000000000000D+00
     10   0.000000000000000D+00  0.000000000000000D+00  0.000000000000000D+00  0.000000000000000D+00  0.000000000000000D+00
     11   0.000000000000000D+00  0.000000000000000D+00  0.000000000000000D+00  0.000000000000000D+00  0.000000000000000D+00
     12   0.000000000000000D+00  0.000000000000000D+00  0.000000000000000D+00  0.000000000000000D+00  0.000000000000000D+00
     13   0.000000000000000D+00  0.000000000000000D+00  0.000000000000000D+00  0.000000000000000D+00  0.000000000000000D+00
     14   0.000000000000000D+00  0.000000000000000D+00  0.000000000000000D+00  0.000000000000000D+00  0.000000000000000D+00
     15   0.000000000000000D+00  0.000000000000000D+00  0.000000000000000D+00  0.000000000000000D+00  0.000000000000000D+00
     16   0.000000000000000D+00  0.000000000000000D+00  0.000000000000000D+00  0.000000000000000D+00  0.000000000000000D+00
     17   0.000000000000000D+00  0.000000000000000D+00  0.000000000000000D+00  0.000000000000000D+00  0.000000000000000D+00
     18   0.000000000000000D+00  0.000000000000000D+00  0.000000000000000D+00  0.000000000000000D+00  0.000000000000000D+00
     19   0.000000000000000D+00  0.000000000000000D+00  0.000000000000000D+00  0.000000000000000D+00  0.000000000000000D+00
     20   0.000000000000000D+00  0.000000000000000D+00  0.000000000000000D+00  0.000000000000000D+00  0.000000000000000D+00
     21   0.000000000000000D+00  0.000000000000000D+00  0.000000000000000D+00  0.000000000000000D+00  0.000000000000000D+00
     22   0.000000000000000D+00  0.000000000000000D+00  0.000000000000000D+00  0.000000000000000D+00  0.000000000000000D+00
     23   0.000000000000000D+00  0.000000000000000D+00  0.000000000000000D+00  0.000000000000000D+00  0.000000000000000D+00
     24   0.000000000000000D+00  0.000000000000000D+00  0.000000000000000D+00  0.000000000000000D+00  0.000000000000000D+00
     25   0.000000000000000D+00  0.000000000000000D+00  0.000000000000000D+00  0.000000000000000D+00  0.000000000000000D+00
     26   0.000000000000000D+00  0.000000000000000D+00  0.000000000000000D+00  0.000000000000000D+00  0.000000000000000D+00
     27   0.000000000000000D+00  0.000000000000000D+00  0.000000000000000D+00  0.000000000000000D+00  0.000000000000000D+00
     28   0.000000000000000D+00  0.000000000000000D+00  0.000000000000000D+00  0.000000000000000D+00  0.000000000000000D+00
                16            17            18            19            20 
      1   0.000000000000000D+00  0.000000000000000D+00  0.000000000000000D+00  0.000000000000000D+00  0.000000000000000D+00
      2   0.000000000000000D+00  0.000000000000000D+00  0.000000000000000D+00  0.000000000000000D+00  0.000000000000000D+00
      3   0.000000000000000D+00  0.000000000000000D+00  0.000000000000000D+00  0.000000000000000D+00  0.000000000000000D+00
      4   0.000000000000000D+00  0.000000000000000D+00  0.000000000000000D+00  0.000000000000000D+00  0.000000000000000D+00
      5   0.000000000000000D+00  0.000000000000000D+00  0.000000000000000D+00  0.000000000000000D+00  0.000000000000000D+00
      6   0.000000000000000D+00  0.000000000000000D+00  0.000000000000000D+00  0.000000000000000D+00  0.000000000000000D+00
      7   0.000000000000000D+00  0.000000000000000D+00  0.000000000000000D+00  0.000000000000000D+00  0.000000000000000D+00
      8   0.000000000000000D+00  0.000000000000000D+00  0.000000000000000D+00  0.000000000000000D+00  0.000000000000000D+00
      9   0.000000000000000D+00  0.000000000000000D+00  0.000000000000000D+00  0.000000000000000D+00  0.000000000000000D+00
     10   0.000000000000000D+00  0.000000000000000D+00  0.000000000000000D+00  0.000000000000000D+00  0.000000000000000D+00
     11   0.000000000000000D+00  0.000000000000000D+00  0.000000000000000D+00  0.000000000000000D+00  0.000000000000000D+00
     12   0.000000000000000D+00  0.000000000000000D+00  0.000000000000000D+00  0.000000000000000D+00  0.000000000000000D+00
     13   0.000000000000000D+00  0.000000000000000D+00  0.000000000000000D+00  0.000000000000000D+00  0.000000000000000D+00
     14   0.000000000000000D+00  0.000000000000000D+00  0.000000000000000D+00  0.000000000000000D+00  0.000000000000000D+00
     15   0.000000000000000D+00  0.000000000000000D+00  0.000000000000000D+00  0.000000000000000D+00  0.000000000000000D+00
     16   0.000000000000000D+00  0.000000000000000D+00  0.000000000000000D+00  0.000000000000000D+00  0.000000000000000D+00
     17   0.000000000000000D+00  0.000000000000000D+00  0.000000000000000D+00  0.000000000000000D+00  0.000000000000000D+00
     18   0.000000000000000D+00  0.000000000000000D+00  0.000000000000000D+00  0.000000000000000D+00  0.000000000000000D+00
     19   0.000000000000000D+00  0.000000000000000D+00  0.000000000000000D+00  0.000000000000000D+00  0.000000000000000D+00
     20   0.000000000000000D+00  0.000000000000000D+00  0.000000000000000D+00  0.000000000000000D+00  0.000000000000000D+00
     21   0.000000000000000D+00  0.000000000000000D+00  0.000000000000000D+00  0.000000000000000D+00  0.000000000000000D+00
     22   0.000000000000000D+00  0.000000000000000D+00  0.000000000000000D+00  0.000000000000000D+00  0.000000000000000D+00
     23   0.000000000000000D+00  0.000000000000000D+00  0.000000000000000D+00  0.000000000000000D+00  0.000000000000000D+00
     24   0.000000000000000D+00  0.000000000000000D+00  0.000000000000000D+00  0.000000000000000D+00  0.000000000000000D+00
     25   0.000000000000000D+00  0.000000000000000D+00  0.000000000000000D+00  0.000000000000000D+00  0.000000000000000D+00
     26   0.000000000000000D+00  0.000000000000000D+00  0.000000000000000D+00  0.000000000000000D+00  0.000000000000000D+00
     27   0.000000000000000D+00  0.000000000000000D+00  0.000000000000000D+00  0.000000000000000D+00  0.000000000000000D+00
     28   0.000000000000000D+00  0.000000000000000D+00  0.000000000000000D+00  0.000000000000000D+00  0.000000000000000D+00
                21            22            23            24            25 
      1   0.000000000000000D+00  0.000000000000000D+00  0.000000000000000D+00  0.000000000000000D+00  0.000000000000000D+00
      2   0.000000000000000D+00  0.000000000000000D+00  0.000000000000000D+00  0.000000000000000D+00  0.000000000000000D+00
      3   0.000000000000000D+00  0.000000000000000D+00  0.000000000000000D+00  0.000000000000000D+00  0.000000000000000D+00
      4   0.000000000000000D+00  0.000000000000000D+00  0.000000000000000D+00  0.000000000000000D+00  0.000000000000000D+00
      5   0.000000000000000D+00  0.000000000000000D+00  0.000000000000000D+00  0.000000000000000D+00  0.000000000000000D+00
      6   0.000000000000000D+00  0.000000000000000D+00  0.000000000000000D+00  0.000000000000000D+00  0.000000000000000D+00
      7   0.000000000000000D+00  0.000000000000000D+00  0.000000000000000D+00  0.000000000000000D+00  0.000000000000000D+00
      8   0.000000000000000D+00  0.000000000000000D+00  0.000000000000000D+00  0.000000000000000D+00  0.000000000000000D+00
      9   0.000000000000000D+00  0.000000000000000D+00  0.000000000000000D+00  0.000000000000000D+00  0.000000000000000D+00
     10   0.000000000000000D+00  0.000000000000000D+00  0.000000000000000D+00  0.000000000000000D+00  0.000000000000000D+00
     11   0.000000000000000D+00  0.000000000000000D+00  0.000000000000000D+00  0.000000000000000D+00  0.000000000000000D+00
     12   0.000000000000000D+00  0.000000000000000D+00  0.000000000000000D+00  0.000000000000000D+00  0.000000000000000D+00
     13   0.000000000000000D+00  0.000000000000000D+00  0.000000000000000D+00  0.000000000000000D+00  0.000000000000000D+00
     14   0.000000000000000D+00  0.000000000000000D+00  0.000000000000000D+00  0.000000000000000D+00  0.000000000000000D+00
     15   0.000000000000000D+00  0.000000000000000D+00  0.000000000000000D+00  0.000000000000000D+00  0.000000000000000D+00
     16   0.000000000000000D+00  0.000000000000000D+00  0.000000000000000D+00  0.000000000000000D+00  0.000000000000000D+00
     17   0.000000000000000D+00  0.000000000000000D+00  0.000000000000000D+00  0.000000000000000D+00  0.000000000000000D+00
     18   0.000000000000000D+00  0.000000000000000D+00  0.000000000000000D+00  0.000000000000000D+00  0.000000000000000D+00
     19   0.000000000000000D+00  0.000000000000000D+00  0.000000000000000D+00  0.000000000000000D+00  0.000000000000000D+00
     20   0.000000000000000D+00  0.000000000000000D+00  0.000000000000000D+00  0.000000000000000D+00  0.000000000000000D+00
     21   0.000000000000000D+00  0.000000000000000D+00  0.000000000000000D+00  0.000000000000000D+00  0.000000000000000D+00
     22   0.000000000000000D+00  0.000000000000000D+00  0.000000000000000D+00  0.000000000000000D+00  0.000000000000000D+00
     23   0.000000000000000D+00  0.000000000000000D+00  0.000000000000000D+00  0.000000000000000D+00  0.000000000000000D+00
     24   0.000000000000000D+00  0.000000000000000D+00  0.000000000000000D+00  0.000000000000000D+00  0.000000000000000D+00
     25   0.000000000000000D+00  0.000000000000000D+00  0.000000000000000D+00  0.000000000000000D+00  0.000000000000000D+00
     26   0.000000000000000D+00  0.000000000000000D+00  0.000000000000000D+00  0.000000000000000D+00  0.000000000000000D+00
     27   0.000000000000000D+00  0.000000000000000D+00  0.000000000000000D+00  0.000000000000000D+00  0.000000000000000D+00
     28   0.000000000000000D+00  0.000000000000000D+00  0.000000000000000D+00  0.000000000000000D+00  0.000000000000000D+00
                26            27            28 
      1   0.000000000000000D+00  0.000000000000000D+00  0.000000000000000D+00
      2   0.000000000000000D+00  0.000000000000000D+00  0.000000000000000D+00
      3   0.000000000000000D+00  0.000000000000000D+00  0.000000000000000D+00
      4   0.000000000000000D+00  0.000000000000000D+00  0.000000000000000D+00
      5   0.000000000000000D+00  0.000000000000000D+00  0.000000000000000D+00
      6   0.000000000000000D+00  0.000000000000000D+00  0.000000000000000D+00
      7   0.000000000000000D+00  0.000000000000000D+00  0.000000000000000D+00
      8   0.000000000000000D+00  0.000000000000000D+00  0.000000000000000D+00
      9   0.000000000000000D+00  0.000000000000000D+00  0.000000000000000D+00
     10   0.000000000000000D+00  0.000000000000000D+00  0.000000000000000D+00
     11   0.000000000000000D+00  0.000000000000000D+00  0.000000000000000D+00
     12   0.000000000000000D+00  0.000000000000000D+00  0.000000000000000D+00
     13   0.000000000000000D+00  0.000000000000000D+00  0.000000000000000D+00
     14   0.000000000000000D+00  0.000000000000000D+00  0.000000000000000D+00
     15   0.000000000000000D+00  0.000000000000000D+00  0.000000000000000D+00
     16   0.000000000000000D+00  0.000000000000000D+00  0.000000000000000D+00
     17   0.000000000000000D+00  0.000000000000000D+00  0.000000000000000D+00
     18   0.000000000000000D+00  0.000000000000000D+00  0.000000000000000D+00
     19   0.000000000000000D+00  0.000000000000000D+00  0.000000000000000D+00
     20   0.000000000000000D+00  0.000000000000000D+00  0.000000000000000D+00
     21   0.000000000000000D+00  0.000000000000000D+00  0.000000000000000D+00
     22   0.000000000000000D+00  0.000000000000000D+00  0.000000000000000D+00
     23   0.000000000000000D+00  0.000000000000000D+00  0.000000000000000D+00
     24   0.000000000000000D+00  0.000000000000000D+00  0.000000000000000D+00
     25   0.000000000000000D+00  0.000000000000000D+00  0.000000000000000D+00
     26   0.000000000000000D+00  0.000000000000000D+00  0.000000000000000D+00
     27   0.000000000000000D+00  0.000000000000000D+00  0.000000000000000D+00
     28   0.000000000000000D+00  0.000000000000000D+00  0.000000000000000D+00

 Symmetry not used in FoFDir.
 MinBra= 0 MaxBra= 2 Meth= 1.
 IRaf=       1 NMat=   2 IRICut=       1 DoRegI=T DoRafI=F ISym2E= 0 JSym2E=0.
 PrsmSu:  NPrtUS=   1 ThrOK=F IAlg=1 NPAlg=1 LenDen=           0.
 Prism:   IPart=     0 DynPar=F LinDyn=F Incr=          30.
 PRISM was handed   536821445 working-precision words and    78 shell-pairs
 IPart=  0 NShTot=        3081 NBatch=          66 AvBLen=        46.7
 PrSmSu:  NxtVal=             31.
 
Start hfdmdg: find NO basis
 
Start formng/pg
 
Start formgg

 Symmetry not used in FoFDir.
 MinBra= 0 MaxBra= 2 Meth= 1.
 IRaf=       1 NMat=  64 IRICut=       1 DoRegI=T DoRafI=F ISym2E= 0 JSym2E=0.
 PrsmSu:  NPrtUS=   1 ThrOK=F IAlg=1 NPAlg=1 LenDen=           0.
 Prism:   IPart=     0 DynPar=F LinDyn=F Incr=          30.
 PRISM was handed   536685825 working-precision words and    78 shell-pairs
 IPart=  0 NShTot=        3081 NBatch=          66 AvBLen=        46.7
 PrSmSu:  NxtVal=             31.
 
Start evalsmt/hmt
 
Form Fock eff
ifsel =     2, useproj    T
 
Diag Fock
*********  Start Cycle  2  *************
 
Start hffock
  
 Core Hamiltonian (real):
                 1             2             3             4             5 
      1  -0.819079915323807D+00 -0.187848559079987D+00  0.262270204199671D-01  0.000000000000000D+00 -0.105347447567627D-01
      2  -0.187848559079987D+00  0.339111018329942D+00  0.148084445653289D-01  0.000000000000000D+00 -0.588264780997041D-01
      3   0.262270204199671D-01  0.148084445653289D-01  0.229244304276413D+01  0.000000000000000D+00 -0.655633262890776D-01
      4   0.000000000000000D+00  0.000000000000000D+00  0.000000000000000D+00  0.252824701505025D+01  0.000000000000000D+00
      5  -0.105347447567627D-01 -0.588264780997041D-01 -0.655633262890776D-01  0.000000000000000D+00  0.336753954508402D+00
      6  -0.208301658703707D+00  0.107621407613942D+01  0.807926732887145D-01  0.000000000000000D+00 -0.229517715743913D+00
      7  -0.728638301033147D-01 -0.573666804819368D-01 -0.261918904954277D+00  0.000000000000000D+00 -0.787489242855071D+00
      8   0.000000000000000D+00  0.000000000000000D+00  0.000000000000000D+00  0.000000000000000D+00  0.000000000000000D+00
      9   0.000000000000000D+00  0.000000000000000D+00  0.000000000000000D+00  0.000000000000000D+00  0.000000000000000D+00
     10   0.000000000000000D+00  0.000000000000000D+00  0.000000000000000D+00  0.000000000000000D+00  0.000000000000000D+00
     11   0.000000000000000D+00  0.000000000000000D+00  0.000000000000000D+00  0.000000000000000D+00  0.000000000000000D+00
     12   0.000000000000000D+00  0.000000000000000D+00  0.000000000000000D+00  0.000000000000000D+00  0.000000000000000D+00
     13   0.000000000000000D+00  0.000000000000000D+00  0.000000000000000D+00  0.000000000000000D+00  0.000000000000000D+00
     14   0.000000000000000D+00  0.000000000000000D+00  0.000000000000000D+00  0.000000000000000D+00  0.000000000000000D+00
     15   0.000000000000000D+00  0.000000000000000D+00  0.000000000000000D+00  0.000000000000000D+00  0.000000000000000D+00
     16   0.000000000000000D+00  0.000000000000000D+00  0.000000000000000D+00  0.000000000000000D+00  0.000000000000000D+00
     17   0.000000000000000D+00  0.000000000000000D+00  0.000000000000000D+00  0.000000000000000D+00  0.000000000000000D+00
     18   0.000000000000000D+00  0.000000000000000D+00  0.000000000000000D+00  0.000000000000000D+00  0.000000000000000D+00
     19   0.000000000000000D+00  0.000000000000000D+00  0.000000000000000D+00  0.000000000000000D+00  0.000000000000000D+00
     20   0.000000000000000D+00  0.000000000000000D+00  0.000000000000000D+00  0.000000000000000D+00  0.000000000000000D+00
     21   0.000000000000000D+00  0.000000000000000D+00  0.000000000000000D+00  0.000000000000000D+00  0.000000000000000D+00
     22   0.000000000000000D+00  0.000000000000000D+00  0.000000000000000D+00  0.000000000000000D+00  0.000000000000000D+00
     23   0.000000000000000D+00  0.000000000000000D+00  0.000000000000000D+00  0.000000000000000D+00  0.000000000000000D+00
     24   0.000000000000000D+00  0.000000000000000D+00  0.000000000000000D+00  0.000000000000000D+00  0.000000000000000D+00
     25   0.000000000000000D+00  0.000000000000000D+00  0.000000000000000D+00  0.000000000000000D+00  0.000000000000000D+00
     26   0.000000000000000D+00  0.000000000000000D+00  0.000000000000000D+00  0.000000000000000D+00  0.000000000000000D+00
     27   0.000000000000000D+00  0.000000000000000D+00  0.000000000000000D+00  0.000000000000000D+00  0.000000000000000D+00
     28   0.000000000000000D+00  0.000000000000000D+00  0.000000000000000D+00  0.000000000000000D+00  0.000000000000000D+00
                 6             7             8             9            10 
      1  -0.208301658703707D+00 -0.728638301033146D-01  0.000000000000000D+00  0.000000000000000D+00  0.000000000000000D+00
      2   0.107621407613942D+01 -0.573666804819369D-01  0.000000000000000D+00  0.000000000000000D+00  0.000000000000000D+00
      3   0.807926732887145D-01 -0.261918904954277D+00  0.000000000000000D+00  0.000000000000000D+00  0.000000000000000D+00
      4   0.000000000000000D+00  0.000000000000000D+00  0.000000000000000D+00  0.000000000000000D+00  0.000000000000000D+00
      5  -0.229517715743913D+00 -0.787489242855071D+00  0.000000000000000D+00  0.000000000000000D+00  0.000000000000000D+00
      6   0.255366984753533D+01 -0.197725056986616D+00  0.000000000000000D+00  0.000000000000000D+00  0.000000000000000D+00
      7  -0.197725056986616D+00  0.107772580566395D+01  0.000000000000000D+00  0.000000000000000D+00  0.000000000000000D+00
      8   0.000000000000000D+00  0.000000000000000D+00  0.252824701505025D+01  0.000000000000000D+00  0.000000000000000D+00
      9   0.000000000000000D+00  0.000000000000000D+00  0.000000000000000D+00  0.839069965886930D+00  0.318302473809321D-01
     10   0.000000000000000D+00  0.000000000000000D+00  0.000000000000000D+00  0.318302473809321D-01  0.265245972531191D+01
     11   0.000000000000000D+00  0.000000000000000D+00  0.000000000000000D+00 -0.124425377173072D+01 -0.990935264074695D-01
     12   0.000000000000000D+00  0.000000000000000D+00  0.000000000000000D+00  0.000000000000000D+00  0.000000000000000D+00
     13   0.000000000000000D+00  0.000000000000000D+00  0.000000000000000D+00  0.000000000000000D+00  0.000000000000000D+00
     14   0.000000000000000D+00  0.000000000000000D+00  0.000000000000000D+00  0.000000000000000D+00  0.000000000000000D+00
     15   0.000000000000000D+00  0.000000000000000D+00  0.000000000000000D+00  0.000000000000000D+00  0.000000000000000D+00
     16   0.000000000000000D+00  0.000000000000000D+00  0.000000000000000D+00  0.000000000000000D+00  0.000000000000000D+00
     17   0.000000000000000D+00  0.000000000000000D+00  0.000000000000000D+00  0.000000000000000D+00  0.000000000000000D+00
     18   0.000000000000000D+00  0.000000000000000D+00  0.000000000000000D+00  0.000000000000000D+00  0.000000000000000D+00
     19   0.000000000000000D+00  0.000000000000000D+00  0.000000000000000D+00  0.000000000000000D+00  0.000000000000000D+00
     20   0.000000000000000D+00  0.000000000000000D+00  0.000000000000000D+00  0.000000000000000D+00  0.000000000000000D+00
     21   0.000000000000000D+00  0.000000000000000D+00  0.000000000000000D+00  0.000000000000000D+00  0.000000000000000D+00
     22   0.000000000000000D+00  0.000000000000000D+00  0.000000000000000D+00  0.000000000000000D+00  0.000000000000000D+00
     23   0.000000000000000D+00  0.000000000000000D+00  0.000000000000000D+00  0.000000000000000D+00  0.000000000000000D+00
     24   0.000000000000000D+00  0.000000000000000D+00  0.000000000000000D+00  0.000000000000000D+00  0.000000000000000D+00
     25   0.000000000000000D+00  0.000000000000000D+00  0.000000000000000D+00  0.000000000000000D+00  0.000000000000000D+00
     26   0.000000000000000D+00  0.000000000000000D+00  0.000000000000000D+00  0.000000000000000D+00  0.000000000000000D+00
     27   0.000000000000000D+00  0.000000000000000D+00  0.000000000000000D+00  0.000000000000000D+00  0.000000000000000D+00
     28   0.000000000000000D+00  0.000000000000000D+00  0.000000000000000D+00  0.000000000000000D+00  0.000000000000000D+00
                11            12            13            14            15 
      1   0.000000000000000D+00  0.000000000000000D+00  0.000000000000000D+00  0.000000000000000D+00  0.000000000000000D+00
      2   0.000000000000000D+00  0.000000000000000D+00  0.000000000000000D+00  0.000000000000000D+00  0.000000000000000D+00
      3   0.000000000000000D+00  0.000000000000000D+00  0.000000000000000D+00  0.000000000000000D+00  0.000000000000000D+00
      4   0.000000000000000D+00  0.000000000000000D+00  0.000000000000000D+00  0.000000000000000D+00  0.000000000000000D+00
      5   0.000000000000000D+00  0.000000000000000D+00  0.000000000000000D+00  0.000000000000000D+00  0.000000000000000D+00
      6   0.000000000000000D+00  0.000000000000000D+00  0.000000000000000D+00  0.000000000000000D+00  0.000000000000000D+00
      7   0.000000000000000D+00  0.000000000000000D+00  0.000000000000000D+00  0.000000000000000D+00  0.000000000000000D+00
      8   0.000000000000000D+00  0.000000000000000D+00  0.000000000000000D+00  0.000000000000000D+00  0.000000000000000D+00
      9  -0.124425377173072D+01  0.000000000000000D+00  0.000000000000000D+00  0.000000000000000D+00  0.000000000000000D+00
     10  -0.990935264074695D-01  0.000000000000000D+00  0.000000000000000D+00  0.000000000000000D+00  0.000000000000000D+00
     11   0.229741845279566D+01  0.000000000000000D+00  0.000000000000000D+00  0.000000000000000D+00  0.000000000000000D+00
     12   0.000000000000000D+00  0.839069965886930D+00  0.318302473809321D-01 -0.124425377173072D+01  0.000000000000000D+00
     13   0.000000000000000D+00  0.318302473809321D-01  0.265245972531191D+01 -0.990935264074695D-01  0.000000000000000D+00
     14   0.000000000000000D+00 -0.124425377173072D+01 -0.990935264074695D-01  0.229741845279566D+01  0.000000000000000D+00
     15   0.000000000000000D+00  0.000000000000000D+00  0.000000000000000D+00  0.000000000000000D+00  0.255614871249693D+01
     16   0.000000000000000D+00  0.000000000000000D+00  0.000000000000000D+00  0.000000000000000D+00  0.000000000000000D+00
     17   0.000000000000000D+00  0.000000000000000D+00  0.000000000000000D+00  0.000000000000000D+00  0.000000000000000D+00
     18   0.000000000000000D+00  0.000000000000000D+00  0.000000000000000D+00  0.000000000000000D+00  0.000000000000000D+00
     19   0.000000000000000D+00  0.000000000000000D+00  0.000000000000000D+00  0.000000000000000D+00  0.000000000000000D+00
     20   0.000000000000000D+00  0.000000000000000D+00  0.000000000000000D+00  0.000000000000000D+00  0.000000000000000D+00
     21   0.000000000000000D+00  0.000000000000000D+00  0.000000000000000D+00  0.000000000000000D+00  0.000000000000000D+00
     22   0.000000000000000D+00  0.000000000000000D+00  0.000000000000000D+00  0.000000000000000D+00  0.000000000000000D+00
     23   0.000000000000000D+00  0.000000000000000D+00  0.000000000000000D+00  0.000000000000000D+00  0.000000000000000D+00
     24   0.000000000000000D+00  0.000000000000000D+00  0.000000000000000D+00  0.000000000000000D+00  0.000000000000000D+00
     25   0.000000000000000D+00  0.000000000000000D+00  0.000000000000000D+00  0.000000000000000D+00  0.000000000000000D+00
     26   0.000000000000000D+00  0.000000000000000D+00  0.000000000000000D+00  0.000000000000000D+00  0.000000000000000D+00
     27   0.000000000000000D+00  0.000000000000000D+00  0.000000000000000D+00  0.000000000000000D+00  0.000000000000000D+00
     28   0.000000000000000D+00  0.000000000000000D+00  0.000000000000000D+00  0.000000000000000D+00  0.000000000000000D+00
                16            17            18            19            20 
      1   0.000000000000000D+00  0.000000000000000D+00  0.000000000000000D+00  0.000000000000000D+00  0.000000000000000D+00
      2   0.000000000000000D+00  0.000000000000000D+00  0.000000000000000D+00  0.000000000000000D+00  0.000000000000000D+00
      3   0.000000000000000D+00  0.000000000000000D+00  0.000000000000000D+00  0.000000000000000D+00  0.000000000000000D+00
      4   0.000000000000000D+00  0.000000000000000D+00  0.000000000000000D+00  0.000000000000000D+00  0.000000000000000D+00
      5   0.000000000000000D+00  0.000000000000000D+00  0.000000000000000D+00  0.000000000000000D+00  0.000000000000000D+00
      6   0.000000000000000D+00  0.000000000000000D+00  0.000000000000000D+00  0.000000000000000D+00  0.000000000000000D+00
      7   0.000000000000000D+00  0.000000000000000D+00  0.000000000000000D+00  0.000000000000000D+00  0.000000000000000D+00
      8   0.000000000000000D+00  0.000000000000000D+00  0.000000000000000D+00  0.000000000000000D+00  0.000000000000000D+00
      9   0.000000000000000D+00  0.000000000000000D+00  0.000000000000000D+00  0.000000000000000D+00  0.000000000000000D+00
     10   0.000000000000000D+00  0.000000000000000D+00  0.000000000000000D+00  0.000000000000000D+00  0.000000000000000D+00
     11   0.000000000000000D+00  0.000000000000000D+00  0.000000000000000D+00  0.000000000000000D+00  0.000000000000000D+00
     12   0.000000000000000D+00  0.000000000000000D+00  0.000000000000000D+00  0.000000000000000D+00  0.000000000000000D+00
     13   0.000000000000000D+00  0.000000000000000D+00  0.000000000000000D+00  0.000000000000000D+00  0.000000000000000D+00
     14   0.000000000000000D+00  0.000000000000000D+00  0.000000000000000D+00  0.000000000000000D+00  0.000000000000000D+00
     15   0.000000000000000D+00  0.000000000000000D+00  0.000000000000000D+00  0.000000000000000D+00  0.000000000000000D+00
     16  -0.514509160388337D+00  0.459876825592778D+00  0.000000000000000D+00 -0.150358140827036D+00  0.388188023261078D+00
     17   0.459876825592778D+00  0.107979614822683D+01  0.000000000000000D+00  0.172202535728623D+00  0.627148930166108D+00
     18   0.000000000000000D+00  0.000000000000000D+00  0.255614871249693D+01  0.000000000000000D+00  0.000000000000000D+00
     19  -0.150358140827036D+00  0.172202535728623D+00  0.000000000000000D+00  0.279888567964370D+01 -0.227965820073045D+00
     20   0.388188023261079D+00  0.627148930166108D+00  0.000000000000000D+00 -0.227965820073045D+00  0.996659740776382D+00
     21  -0.636692194391470D-01 -0.119381967044881D+01  0.000000000000000D+00 -0.490345814051109D+00 -0.556460453123005D+00
     22   0.168891298800422D+00 -0.550461437100463D-01  0.000000000000000D+00 -0.449890848678796D-01  0.894534472872039D+00
     23   0.000000000000000D+00  0.000000000000000D+00  0.000000000000000D+00  0.000000000000000D+00  0.000000000000000D+00
     24   0.000000000000000D+00  0.000000000000000D+00  0.000000000000000D+00  0.000000000000000D+00  0.000000000000000D+00
     25   0.000000000000000D+00  0.000000000000000D+00  0.000000000000000D+00  0.000000000000000D+00  0.000000000000000D+00
     26   0.000000000000000D+00  0.000000000000000D+00  0.000000000000000D+00  0.000000000000000D+00  0.000000000000000D+00
     27   0.000000000000000D+00  0.000000000000000D+00  0.000000000000000D+00  0.000000000000000D+00  0.000000000000000D+00
     28   0.000000000000000D+00  0.000000000000000D+00  0.000000000000000D+00  0.000000000000000D+00  0.000000000000000D+00
                21            22            23            24            25 
      1   0.000000000000000D+00  0.000000000000000D+00  0.000000000000000D+00  0.000000000000000D+00  0.000000000000000D+00
      2   0.000000000000000D+00  0.000000000000000D+00  0.000000000000000D+00  0.000000000000000D+00  0.000000000000000D+00
      3   0.000000000000000D+00  0.000000000000000D+00  0.000000000000000D+00  0.000000000000000D+00  0.000000000000000D+00
      4   0.000000000000000D+00  0.000000000000000D+00  0.000000000000000D+00  0.000000000000000D+00  0.000000000000000D+00
      5   0.000000000000000D+00  0.000000000000000D+00  0.000000000000000D+00  0.000000000000000D+00  0.000000000000000D+00
      6   0.000000000000000D+00  0.000000000000000D+00  0.000000000000000D+00  0.000000000000000D+00  0.000000000000000D+00
      7   0.000000000000000D+00  0.000000000000000D+00  0.000000000000000D+00  0.000000000000000D+00  0.000000000000000D+00
      8   0.000000000000000D+00  0.000000000000000D+00  0.000000000000000D+00  0.000000000000000D+00  0.000000000000000D+00
      9   0.000000000000000D+00  0.000000000000000D+00  0.000000000000000D+00  0.000000000000000D+00  0.000000000000000D+00
     10   0.000000000000000D+00  0.000000000000000D+00  0.000000000000000D+00  0.000000000000000D+00  0.000000000000000D+00
     11   0.000000000000000D+00  0.000000000000000D+00  0.000000000000000D+00  0.000000000000000D+00  0.000000000000000D+00
     12   0.000000000000000D+00  0.000000000000000D+00  0.000000000000000D+00  0.000000000000000D+00  0.000000000000000D+00
     13   0.000000000000000D+00  0.000000000000000D+00  0.000000000000000D+00  0.000000000000000D+00  0.000000000000000D+00
     14   0.000000000000000D+00  0.000000000000000D+00  0.000000000000000D+00  0.000000000000000D+00  0.000000000000000D+00
     15   0.000000000000000D+00  0.000000000000000D+00  0.000000000000000D+00  0.000000000000000D+00  0.000000000000000D+00
     16  -0.636692194391471D-01  0.168891298800422D+00  0.000000000000000D+00  0.000000000000000D+00  0.000000000000000D+00
     17  -0.119381967044881D+01 -0.550461437100463D-01  0.000000000000000D+00  0.000000000000000D+00  0.000000000000000D+00
     18   0.000000000000000D+00  0.000000000000000D+00  0.000000000000000D+00  0.000000000000000D+00  0.000000000000000D+00
     19  -0.490345814051109D+00 -0.449890848678796D-01  0.000000000000000D+00  0.000000000000000D+00  0.000000000000000D+00
     20  -0.556460453123006D+00  0.894534472872039D+00  0.000000000000000D+00  0.000000000000000D+00  0.000000000000000D+00
     21   0.245453981551062D+01  0.254627306568131D+00  0.000000000000000D+00  0.000000000000000D+00  0.000000000000000D+00
     22   0.254627306568131D+00  0.909678118453495D+00  0.000000000000000D+00  0.000000000000000D+00  0.000000000000000D+00
     23   0.000000000000000D+00  0.000000000000000D+00  0.569940382962555D+00  0.490076994774483D-01  0.120855861259262D+01
     24   0.000000000000000D+00  0.000000000000000D+00  0.490076994774483D-01  0.240816531866574D+01 -0.644622841935536D-01
     25   0.000000000000000D+00  0.000000000000000D+00  0.120855861259262D+01 -0.644622841935536D-01  0.224666606343850D+01
     26   0.000000000000000D+00  0.000000000000000D+00  0.000000000000000D+00  0.000000000000000D+00  0.000000000000000D+00
     27   0.000000000000000D+00  0.000000000000000D+00  0.000000000000000D+00  0.000000000000000D+00  0.000000000000000D+00
     28   0.000000000000000D+00  0.000000000000000D+00  0.000000000000000D+00  0.000000000000000D+00  0.000000000000000D+00
                26            27            28 
      1   0.000000000000000D+00  0.000000000000000D+00  0.000000000000000D+00
      2   0.000000000000000D+00  0.000000000000000D+00  0.000000000000000D+00
      3   0.000000000000000D+00  0.000000000000000D+00  0.000000000000000D+00
      4   0.000000000000000D+00  0.000000000000000D+00  0.000000000000000D+00
      5   0.000000000000000D+00  0.000000000000000D+00  0.000000000000000D+00
      6   0.000000000000000D+00  0.000000000000000D+00  0.000000000000000D+00
      7   0.000000000000000D+00  0.000000000000000D+00  0.000000000000000D+00
      8   0.000000000000000D+00  0.000000000000000D+00  0.000000000000000D+00
      9   0.000000000000000D+00  0.000000000000000D+00  0.000000000000000D+00
     10   0.000000000000000D+00  0.000000000000000D+00  0.000000000000000D+00
     11   0.000000000000000D+00  0.000000000000000D+00  0.000000000000000D+00
     12   0.000000000000000D+00  0.000000000000000D+00  0.000000000000000D+00
     13   0.000000000000000D+00  0.000000000000000D+00  0.000000000000000D+00
     14   0.000000000000000D+00  0.000000000000000D+00  0.000000000000000D+00
     15   0.000000000000000D+00  0.000000000000000D+00  0.000000000000000D+00
     16   0.000000000000000D+00  0.000000000000000D+00  0.000000000000000D+00
     17   0.000000000000000D+00  0.000000000000000D+00  0.000000000000000D+00
     18   0.000000000000000D+00  0.000000000000000D+00  0.000000000000000D+00
     19   0.000000000000000D+00  0.000000000000000D+00  0.000000000000000D+00
     20   0.000000000000000D+00  0.000000000000000D+00  0.000000000000000D+00
     21   0.000000000000000D+00  0.000000000000000D+00  0.000000000000000D+00
     22   0.000000000000000D+00  0.000000000000000D+00  0.000000000000000D+00
     23   0.000000000000000D+00  0.000000000000000D+00  0.000000000000000D+00
     24   0.000000000000000D+00  0.000000000000000D+00  0.000000000000000D+00
     25   0.000000000000000D+00  0.000000000000000D+00  0.000000000000000D+00
     26   0.569940382962555D+00  0.490076994774483D-01  0.120855861259262D+01
     27   0.490076994774483D-01  0.240816531866574D+01 -0.644622841935536D-01
     28   0.120855861259262D+01 -0.644622841935537D-01  0.224666606343850D+01
 Core Hamiltonian (imaginary):
                 1             2             3             4             5 
      1   0.000000000000000D+00  0.000000000000000D+00  0.000000000000000D+00  0.000000000000000D+00  0.000000000000000D+00
      2   0.000000000000000D+00  0.000000000000000D+00  0.000000000000000D+00  0.000000000000000D+00  0.000000000000000D+00
      3   0.000000000000000D+00  0.000000000000000D+00  0.000000000000000D+00  0.000000000000000D+00  0.000000000000000D+00
      4   0.000000000000000D+00  0.000000000000000D+00  0.000000000000000D+00  0.000000000000000D+00  0.000000000000000D+00
      5   0.000000000000000D+00  0.000000000000000D+00  0.000000000000000D+00  0.000000000000000D+00  0.000000000000000D+00
      6   0.000000000000000D+00  0.000000000000000D+00  0.000000000000000D+00  0.000000000000000D+00  0.000000000000000D+00
      7   0.000000000000000D+00  0.000000000000000D+00  0.000000000000000D+00  0.000000000000000D+00  0.000000000000000D+00
      8   0.000000000000000D+00  0.000000000000000D+00  0.000000000000000D+00  0.000000000000000D+00  0.000000000000000D+00
      9   0.000000000000000D+00  0.000000000000000D+00  0.000000000000000D+00  0.000000000000000D+00  0.000000000000000D+00
     10   0.000000000000000D+00  0.000000000000000D+00  0.000000000000000D+00  0.000000000000000D+00  0.000000000000000D+00
     11   0.000000000000000D+00  0.000000000000000D+00  0.000000000000000D+00  0.000000000000000D+00  0.000000000000000D+00
     12   0.000000000000000D+00  0.000000000000000D+00  0.000000000000000D+00  0.000000000000000D+00  0.000000000000000D+00
     13   0.000000000000000D+00  0.000000000000000D+00  0.000000000000000D+00  0.000000000000000D+00  0.000000000000000D+00
[...]
     18   0.000000000000000D+00  0.000000000000000D+00  0.000000000000000D+00  0.000000000000000D+00  0.000000000000000D+00
     19   0.000000000000000D+00  0.000000000000000D+00  0.000000000000000D+00  0.000000000000000D+00  0.000000000000000D+00
     20   0.000000000000000D+00  0.000000000000000D+00  0.000000000000000D+00  0.000000000000000D+00  0.000000000000000D+00
     21   0.000000000000000D+00  0.000000000000000D+00  0.000000000000000D+00  0.000000000000000D+00  0.000000000000000D+00
     22   0.000000000000000D+00  0.000000000000000D+00  0.000000000000000D+00  0.000000000000000D+00  0.000000000000000D+00
     23   0.000000000000000D+00  0.000000000000000D+00  0.000000000000000D+00  0.000000000000000D+00  0.000000000000000D+00
     24   0.000000000000000D+00  0.000000000000000D+00  0.000000000000000D+00  0.000000000000000D+00  0.000000000000000D+00
     25   0.000000000000000D+00  0.000000000000000D+00  0.000000000000000D+00  0.000000000000000D+00  0.000000000000000D+00
     26   0.000000000000000D+00  0.000000000000000D+00  0.000000000000000D+00  0.000000000000000D+00  0.000000000000000D+00
     27   0.000000000000000D+00  0.000000000000000D+00  0.000000000000000D+00  0.000000000000000D+00  0.000000000000000D+00
     28   0.000000000000000D+00  0.000000000000000D+00  0.000000000000000D+00  0.000000000000000D+00  0.000000000000000D+00
                 6             7             8             9            10 
      1   0.000000000000000D+00  0.000000000000000D+00  0.000000000000000D+00  0.000000000000000D+00  0.000000000000000D+00
      2   0.000000000000000D+00  0.000000000000000D+00  0.000000000000000D+00  0.000000000000000D+00  0.000000000000000D+00
      3   0.000000000000000D+00  0.000000000000000D+00  0.000000000000000D+00  0.000000000000000D+00  0.000000000000000D+00
      4   0.000000000000000D+00  0.000000000000000D+00  0.000000000000000D+00  0.000000000000000D+00  0.000000000000000D+00
      5   0.000000000000000D+00  0.000000000000000D+00  0.000000000000000D+00  0.000000000000000D+00  0.000000000000000D+00
      6   0.000000000000000D+00  0.000000000000000D+00  0.000000000000000D+00  0.000000000000000D+00  0.000000000000000D+00
      7   0.000000000000000D+00  0.000000000000000D+00  0.000000000000000D+00  0.000000000000000D+00  0.000000000000000D+00
      8   0.000000000000000D+00  0.000000000000000D+00  0.000000000000000D+00  0.000000000000000D+00  0.000000000000000D+00
      9   0.000000000000000D+00  0.000000000000000D+00  0.000000000000000D+00  0.000000000000000D+00  0.000000000000000D+00
     10   0.000000000000000D+00  0.000000000000000D+00  0.000000000000000D+00  0.000000000000000D+00  0.000000000000000D+00
     11   0.000000000000000D+00  0.000000000000000D+00  0.000000000000000D+00  0.000000000000000D+00  0.000000000000000D+00
     12   0.000000000000000D+00  0.000000000000000D+00  0.000000000000000D+00  0.000000000000000D+00  0.000000000000000D+00
     13   0.000000000000000D+00  0.000000000000000D+00  0.000000000000000D+00  0.000000000000000D+00  0.000000000000000D+00
     14   0.000000000000000D+00  0.000000000000000D+00  0.000000000000000D+00  0.000000000000000D+00  0.000000000000000D+00
     15   0.000000000000000D+00  0.000000000000000D+00  0.000000000000000D+00  0.000000000000000D+00  0.000000000000000D+00
     16   0.000000000000000D+00  0.000000000000000D+00  0.000000000000000D+00  0.000000000000000D+00  0.000000000000000D+00
     17   0.000000000000000D+00  0.000000000000000D+00  0.000000000000000D+00  0.000000000000000D+00  0.000000000000000D+00
     18   0.000000000000000D+00  0.000000000000000D+00  0.000000000000000D+00  0.000000000000000D+00  0.000000000000000D+00
     19   0.000000000000000D+00  0.000000000000000D+00  0.000000000000000D+00  0.000000000000000D+00  0.000000000000000D+00
     20   0.000000000000000D+00  0.000000000000000D+00  0.000000000000000D+00  0.000000000000000D+00  0.000000000000000D+00
     21   0.000000000000000D+00  0.000000000000000D+00  0.000000000000000D+00  0.000000000000000D+00  0.000000000000000D+00
     22   0.000000000000000D+00  0.000000000000000D+00  0.000000000000000D+00  0.000000000000000D+00  0.000000000000000D+00
     23   0.000000000000000D+00  0.000000000000000D+00  0.000000000000000D+00  0.000000000000000D+00  0.000000000000000D+00
     24   0.000000000000000D+00  0.000000000000000D+00  0.000000000000000D+00  0.000000000000000D+00  0.000000000000000D+00
     25   0.000000000000000D+00  0.000000000000000D+00  0.000000000000000D+00  0.000000000000000D+00  0.000000000000000D+00
     26   0.000000000000000D+00  0.000000000000000D+00  0.000000000000000D+00  0.000000000000000D+00  0.000000000000000D+00
     27   0.000000000000000D+00  0.000000000000000D+00  0.000000000000000D+00  0.000000000000000D+00  0.000000000000000D+00
     28   0.000000000000000D+00  0.000000000000000D+00  0.000000000000000D+00  0.000000000000000D+00  0.000000000000000D+00
                11            12            13            14            15 
      1   0.000000000000000D+00  0.000000000000000D+00  0.000000000000000D+00  0.000000000000000D+00  0.000000000000000D+00
      2   0.000000000000000D+00  0.000000000000000D+00  0.000000000000000D+00  0.000000000000000D+00  0.000000000000000D+00
      3   0.000000000000000D+00  0.000000000000000D+00  0.000000000000000D+00  0.000000000000000D+00  0.000000000000000D+00
      4   0.000000000000000D+00  0.000000000000000D+00  0.000000000000000D+00  0.000000000000000D+00  0.000000000000000D+00
      5   0.000000000000000D+00  0.000000000000000D+00  0.000000000000000D+00  0.000000000000000D+00  0.000000000000000D+00
      6   0.000000000000000D+00  0.000000000000000D+00  0.000000000000000D+00  0.000000000000000D+00  0.000000000000000D+00
      7   0.000000000000000D+00  0.000000000000000D+00  0.000000000000000D+00  0.000000000000000D+00  0.000000000000000D+00
      8   0.000000000000000D+00  0.000000000000000D+00  0.000000000000000D+00  0.000000000000000D+00  0.000000000000000D+00
      9   0.000000000000000D+00  0.000000000000000D+00  0.000000000000000D+00  0.000000000000000D+00  0.000000000000000D+00
     10   0.000000000000000D+00  0.000000000000000D+00  0.000000000000000D+00  0.000000000000000D+00  0.000000000000000D+00
     11   0.000000000000000D+00  0.000000000000000D+00  0.000000000000000D+00  0.000000000000000D+00  0.000000000000000D+00
     12   0.000000000000000D+00  0.000000000000000D+00  0.000000000000000D+00  0.000000000000000D+00  0.000000000000000D+00
     13   0.000000000000000D+00  0.000000000000000D+00  0.000000000000000D+00  0.000000000000000D+00  0.000000000000000D+00
     14   0.000000000000000D+00  0.000000000000000D+00  0.000000000000000D+00  0.000000000000000D+00  0.000000000000000D+00
     15   0.000000000000000D+00  0.000000000000000D+00  0.000000000000000D+00  0.000000000000000D+00  0.000000000000000D+00
     16   0.000000000000000D+00  0.000000000000000D+00  0.000000000000000D+00  0.000000000000000D+00  0.000000000000000D+00
     17   0.000000000000000D+00  0.000000000000000D+00  0.000000000000000D+00  0.000000000000000D+00  0.000000000000000D+00
     18   0.000000000000000D+00  0.000000000000000D+00  0.000000000000000D+00  0.000000000000000D+00  0.000000000000000D+00
     19   0.000000000000000D+00  0.000000000000000D+00  0.000000000000000D+00  0.000000000000000D+00  0.000000000000000D+00
     20   0.000000000000000D+00  0.000000000000000D+00  0.000000000000000D+00  0.000000000000000D+00  0.000000000000000D+00
     21   0.000000000000000D+00  0.000000000000000D+00  0.000000000000000D+00  0.000000000000000D+00  0.000000000000000D+00
     22   0.000000000000000D+00  0.000000000000000D+00  0.000000000000000D+00  0.000000000000000D+00  0.000000000000000D+00
     23   0.000000000000000D+00  0.000000000000000D+00  0.000000000000000D+00  0.000000000000000D+00  0.000000000000000D+00
     24   0.000000000000000D+00  0.000000000000000D+00  0.000000000000000D+00  0.000000000000000D+00  0.000000000000000D+00
     25   0.000000000000000D+00  0.000000000000000D+00  0.000000000000000D+00  0.000000000000000D+00  0.000000000000000D+00
     26   0.000000000000000D+00  0.000000000000000D+00  0.000000000000000D+00  0.000000000000000D+00  0.000000000000000D+00
     27   0.000000000000000D+00  0.000000000000000D+00  0.000000000000000D+00  0.000000000000000D+00  0.000000000000000D+00
     28   0.000000000000000D+00  0.000000000000000D+00  0.000000000000000D+00  0.000000000000000D+00  0.000000000000000D+00
                16            17            18            19            20 
      1   0.000000000000000D+00  0.000000000000000D+00  0.000000000000000D+00  0.000000000000000D+00  0.000000000000000D+00
      2   0.000000000000000D+00  0.000000000000000D+00  0.000000000000000D+00  0.000000000000000D+00  0.000000000000000D+00
      3   0.000000000000000D+00  0.000000000000000D+00  0.000000000000000D+00  0.000000000000000D+00  0.000000000000000D+00
      4   0.000000000000000D+00  0.000000000000000D+00  0.000000000000000D+00  0.000000000000000D+00  0.000000000000000D+00
      5   0.000000000000000D+00  0.000000000000000D+00  0.000000000000000D+00  0.000000000000000D+00  0.000000000000000D+00
      6   0.000000000000000D+00  0.000000000000000D+00  0.000000000000000D+00  0.000000000000000D+00  0.000000000000000D+00
      7   0.000000000000000D+00  0.000000000000000D+00  0.000000000000000D+00  0.000000000000000D+00  0.000000000000000D+00
      8   0.000000000000000D+00  0.000000000000000D+00  0.000000000000000D+00  0.000000000000000D+00  0.000000000000000D+00
      9   0.000000000000000D+00  0.000000000000000D+00  0.000000000000000D+00  0.000000000000000D+00  0.000000000000000D+00
     10   0.000000000000000D+00  0.000000000000000D+00  0.000000000000000D+00  0.000000000000000D+00  0.000000000000000D+00
     11   0.000000000000000D+00  0.000000000000000D+00  0.000000000000000D+00  0.000000000000000D+00  0.000000000000000D+00
     12   0.000000000000000D+00  0.000000000000000D+00  0.000000000000000D+00  0.000000000000000D+00  0.000000000000000D+00
     13   0.000000000000000D+00  0.000000000000000D+00  0.000000000000000D+00  0.000000000000000D+00  0.000000000000000D+00
     14   0.000000000000000D+00  0.000000000000000D+00  0.000000000000000D+00  0.000000000000000D+00  0.000000000000000D+00
     15   0.000000000000000D+00  0.000000000000000D+00  0.000000000000000D+00  0.000000000000000D+00  0.000000000000000D+00
     16   0.000000000000000D+00  0.000000000000000D+00  0.000000000000000D+00  0.000000000000000D+00  0.000000000000000D+00
     17   0.000000000000000D+00  0.000000000000000D+00  0.000000000000000D+00  0.000000000000000D+00  0.000000000000000D+00
     18   0.000000000000000D+00  0.000000000000000D+00  0.000000000000000D+00  0.000000000000000D+00  0.000000000000000D+00
     19   0.000000000000000D+00  0.000000000000000D+00  0.000000000000000D+00  0.000000000000000D+00  0.000000000000000D+00
     20   0.000000000000000D+00  0.000000000000000D+00  0.000000000000000D+00  0.000000000000000D+00  0.000000000000000D+00
     21   0.000000000000000D+00  0.000000000000000D+00  0.000000000000000D+00  0.000000000000000D+00  0.000000000000000D+00
     22   0.000000000000000D+00  0.000000000000000D+00  0.000000000000000D+00  0.000000000000000D+00  0.000000000000000D+00
     23   0.000000000000000D+00  0.000000000000000D+00  0.000000000000000D+00  0.000000000000000D+00  0.000000000000000D+00
     24   0.000000000000000D+00  0.000000000000000D+00  0.000000000000000D+00  0.000000000000000D+00  0.000000000000000D+00
     25   0.000000000000000D+00  0.000000000000000D+00  0.000000000000000D+00  0.000000000000000D+00  0.000000000000000D+00
     26   0.000000000000000D+00  0.000000000000000D+00  0.000000000000000D+00  0.000000000000000D+00  0.000000000000000D+00
     27   0.000000000000000D+00  0.000000000000000D+00  0.000000000000000D+00  0.000000000000000D+00  0.000000000000000D+00
     28   0.000000000000000D+00  0.000000000000000D+00  0.000000000000000D+00  0.000000000000000D+00  0.000000000000000D+00
                21            22            23            24            25 
      1   0.000000000000000D+00  0.000000000000000D+00  0.000000000000000D+00  0.000000000000000D+00  0.000000000000000D+00
      2   0.000000000000000D+00  0.000000000000000D+00  0.000000000000000D+00  0.000000000000000D+00  0.000000000000000D+00
      3   0.000000000000000D+00  0.000000000000000D+00  0.000000000000000D+00  0.000000000000000D+00  0.000000000000000D+00
      4   0.000000000000000D+00  0.000000000000000D+00  0.000000000000000D+00  0.000000000000000D+00  0.000000000000000D+00
      5   0.000000000000000D+00  0.000000000000000D+00  0.000000000000000D+00  0.000000000000000D+00  0.000000000000000D+00
      6   0.000000000000000D+00  0.000000000000000D+00  0.000000000000000D+00  0.000000000000000D+00  0.000000000000000D+00
      7   0.000000000000000D+00  0.000000000000000D+00  0.000000000000000D+00  0.000000000000000D+00  0.000000000000000D+00
      8   0.000000000000000D+00  0.000000000000000D+00  0.000000000000000D+00  0.000000000000000D+00  0.000000000000000D+00
      9   0.000000000000000D+00  0.000000000000000D+00  0.000000000000000D+00  0.000000000000000D+00  0.000000000000000D+00
     10   0.000000000000000D+00  0.000000000000000D+00  0.000000000000000D+00  0.000000000000000D+00  0.000000000000000D+00
     11   0.000000000000000D+00  0.000000000000000D+00  0.000000000000000D+00  0.000000000000000D+00  0.000000000000000D+00
     12   0.000000000000000D+00  0.000000000000000D+00  0.000000000000000D+00  0.000000000000000D+00  0.000000000000000D+00
     13   0.000000000000000D+00  0.000000000000000D+00  0.000000000000000D+00  0.000000000000000D+00  0.000000000000000D+00
     14   0.000000000000000D+00  0.000000000000000D+00  0.000000000000000D+00  0.000000000000000D+00  0.000000000000000D+00
     15   0.000000000000000D+00  0.000000000000000D+00  0.000000000000000D+00  0.000000000000000D+00  0.000000000000000D+00
     16   0.000000000000000D+00  0.000000000000000D+00  0.000000000000000D+00  0.000000000000000D+00  0.000000000000000D+00
     17   0.000000000000000D+00  0.000000000000000D+00  0.000000000000000D+00  0.000000000000000D+00  0.000000000000000D+00
     18   0.000000000000000D+00  0.000000000000000D+00  0.000000000000000D+00  0.000000000000000D+00  0.000000000000000D+00
     19   0.000000000000000D+00  0.000000000000000D+00  0.000000000000000D+00  0.000000000000000D+00  0.000000000000000D+00
     20   0.000000000000000D+00  0.000000000000000D+00  0.000000000000000D+00  0.000000000000000D+00  0.000000000000000D+00
     21   0.000000000000000D+00  0.000000000000000D+00  0.000000000000000D+00  0.000000000000000D+00  0.000000000000000D+00
     22   0.000000000000000D+00  0.000000000000000D+00  0.000000000000000D+00  0.000000000000000D+00  0.000000000000000D+00
     23   0.000000000000000D+00  0.000000000000000D+00  0.000000000000000D+00  0.000000000000000D+00  0.000000000000000D+00
     24   0.000000000000000D+00  0.000000000000000D+00  0.000000000000000D+00  0.000000000000000D+00  0.000000000000000D+00
     25   0.000000000000000D+00  0.000000000000000D+00  0.000000000000000D+00  0.000000000000000D+00  0.000000000000000D+00
     26   0.000000000000000D+00  0.000000000000000D+00  0.000000000000000D+00  0.000000000000000D+00  0.000000000000000D+00
     27   0.000000000000000D+00  0.000000000000000D+00  0.000000000000000D+00  0.000000000000000D+00  0.000000000000000D+00
     28   0.000000000000000D+00  0.000000000000000D+00  0.000000000000000D+00  0.000000000000000D+00  0.000000000000000D+00
                26            27            28 
      1   0.000000000000000D+00  0.000000000000000D+00  0.000000000000000D+00
      2   0.000000000000000D+00  0.000000000000000D+00  0.000000000000000D+00
      3   0.000000000000000D+00  0.000000000000000D+00  0.000000000000000D+00
      4   0.000000000000000D+00  0.000000000000000D+00  0.000000000000000D+00
      5   0.000000000000000D+00  0.000000000000000D+00  0.000000000000000D+00
      6   0.000000000000000D+00  0.000000000000000D+00  0.000000000000000D+00
      7   0.000000000000000D+00  0.000000000000000D+00  0.000000000000000D+00
      8   0.000000000000000D+00  0.000000000000000D+00  0.000000000000000D+00
      9   0.000000000000000D+00  0.000000000000000D+00  0.000000000000000D+00
     10   0.000000000000000D+00  0.000000000000000D+00  0.000000000000000D+00
     11   0.000000000000000D+00  0.000000000000000D+00  0.000000000000000D+00
     12   0.000000000000000D+00  0.000000000000000D+00  0.000000000000000D+00
     13   0.000000000000000D+00  0.000000000000000D+00  0.000000000000000D+00
     14   0.000000000000000D+00  0.000000000000000D+00  0.000000000000000D+00
     15   0.000000000000000D+00  0.000000000000000D+00  0.000000000000000D+00
     16   0.000000000000000D+00  0.000000000000000D+00  0.000000000000000D+00
     17   0.000000000000000D+00  0.000000000000000D+00  0.000000000000000D+00
     18   0.000000000000000D+00  0.000000000000000D+00  0.000000000000000D+00
     19   0.000000000000000D+00  0.000000000000000D+00  0.000000000000000D+00
     20   0.000000000000000D+00  0.000000000000000D+00  0.000000000000000D+00
     21   0.000000000000000D+00  0.000000000000000D+00  0.000000000000000D+00
     22   0.000000000000000D+00  0.000000000000000D+00  0.000000000000000D+00
     23   0.000000000000000D+00  0.000000000000000D+00  0.000000000000000D+00
     24   0.000000000000000D+00  0.000000000000000D+00  0.000000000000000D+00
     25   0.000000000000000D+00  0.000000000000000D+00  0.000000000000000D+00
     26   0.000000000000000D+00  0.000000000000000D+00  0.000000000000000D+00
     27   0.000000000000000D+00  0.000000000000000D+00  0.000000000000000D+00
     28   0.000000000000000D+00  0.000000000000000D+00  0.000000000000000D+00

 Symmetry not used in FoFDir.
 MinBra= 0 MaxBra= 2 Meth= 1.
 IRaf=       1 NMat=   2 IRICut=       1 DoRegI=T DoRafI=F ISym2E= 0 JSym2E=0.
 PrsmSu:  NPrtUS=   1 ThrOK=F IAlg=1 NPAlg=1 LenDen=           0.
 Prism:   IPart=     0 DynPar=F LinDyn=F Incr=          30.
 PRISM was handed   536821445 working-precision words and    78 shell-pairs
 IPart=  0 NShTot=        3081 NBatch=          66 AvBLen=        46.7
 PrSmSu:  NxtVal=             31.
 
Start hfdmdg: find NO basis
 
Start formng/pg
 
Start formgg

 Symmetry not used in FoFDir.
 MinBra= 0 MaxBra= 2 Meth= 1.
 IRaf=       1 NMat=  64 IRICut=       1 DoRegI=T DoRafI=F ISym2E= 0 JSym2E=0.
 PrsmSu:  NPrtUS=   1 ThrOK=F IAlg=1 NPAlg=1 LenDen=           0.
 Prism:   IPart=     0 DynPar=F LinDyn=F Incr=          30.
 PRISM was handed   536685825 working-precision words and    78 shell-pairs
 IPart=  0 NShTot=        3081 NBatch=          66 AvBLen=        46.7
 PrSmSu:  NxtVal=             31.
 
Start evalsmt/hmt
 
Form Fock eff
ifsel =     2, useproj    T
 
Diag Fock

 *** SCF Done after   21 cycles ***

        E =      -1.029336373337    conv =           6.5234E-09
      Hsp =      -1.644579555171     Hph =       0.321255843728
   <S**2> =       0.000000000000

 **********************************


 PHF SCF - quitting the program

 Leave Link  530 at Tue Nov 24 04:04:17 2020, MaxMem=  536870912 cpu:       1.9
 (Enter /share/apps/gaussian/G09C01Z/srwang-mod-2020/g09/l9999.exe)

 Test job not archived.
 1\1\GINC-XC02N18\SP\CUHF\CC-pVTZ\H2\SRWANG\24-Nov-2020\0\\#p uhf/cc-pv
 tz guess=mix scf=conver=4 extralink=l530 iop( 5/207=4) pop=none\\title
 \\0,1\H,0,0.,0.,0.\H,0,0.,0.,1.8\\Version=EM64L-G09RevC.01\HF=-1.02933
 64\S2=0.\S2-1=0.\S2A=0.\RMSD=6.523e-09\PG=D*H [C*(H1.H1)]\\@


 ... THIS SEEMS PLAINLY ABSURD; BUT WHOEVER WISHES TO BECOME A 
 PHILOSOPHER MUST LEARN NOT TO BE FRIGHTENED BY ABSURDITIES.

                          -- BERTRAND RUSSELL
 Job cpu time:  0 days  0 hours  0 minutes  2.3 seconds.
 File lengths (MBytes):  RWF=     82 Int=      0 D2E=      0 Chk=      2 Scr=      2
 Normal termination of Gaussian 09 at Tue Nov 24 04:04:17 2020.
