#INFO: **** input file is /share/home/srwang/ExSCF/test/pytest/scan_h2/scan_suhf.py ****
#import phf
from pyscf import lib
#import scipy
import numpy as np
import sys, os, contextlib

from pyphf import util, sudft

#xyz = 'h2.xyz' #sys.argv[1]
fch = 'test_uhf.fchk' #sys.argv[2]
#bas = '../h2.bas'
bas = 'cc-pvtz'

lib.num_threads(8)

for r in np.arange(0.5, 2.55, 0.1):
    output = 'suhf/suhf_%.1f_diis.out' % r
    os.system("echo '\n' > %s" % output)
    with open(output, 'w', encoding='utf-8') as f:
        with contextlib.redirect_stdout(f):
            xyz = '''H 0.0 0.0 0.0; H 0.0 0.0 %f'''%r
            mf = util.guess_from_fchk(xyz, bas, fch)
            #mf = util.guess(xyz, bas)
            #f.flush()
            mf2 = util.SUHF(mf)
            #mf2.cut_no = False
            mf2.debug = False
            #mf2.max_cycle = 50
            mf2.diis_on = True
            #mf2.output = 'sudft_%.1f.out'%r
            mf2.kernel()
            
            #mf3 = sudft.SUDFT(mf2)
            #mf3.suxc = 'TPSS'
            #mf3.kernel()
                    
#INFO: ******************** input file end ********************


System: uname_result(system='Linux', node='xcluster', release='3.10.0-693.el7.x86_64', version='#1 SMP Thu Jul 6 19:56:57 EDT 2017', machine='x86_64', processor='x86_64')  Threads 8
Python 3.7.4 (default, Aug 13 2019, 20:35:49) 
[GCC 7.3.0]
numpy 1.17.2  scipy 1.4.1
Date: Mon Nov 23 19:28:24 2020
PySCF version 1.7.5
PySCF path  /share/home/srwang/pyscf-1.7.5/pyscf

[CONFIG] conf_file None
[INPUT] verbose = 4
[INPUT] num. atoms = 2
[INPUT] num. electrons = 2
[INPUT] charge = 0
[INPUT] spin (= nelec alpha-beta = 2S) = 0
[INPUT] symmetry False subgroup None
[INPUT] Mole.unit = angstrom
[INPUT]  1 H      0.000000000000   0.000000000000   0.000000000000 AA    0.000000000000   0.000000000000   0.000000000000 Bohr
[INPUT]  2 H      0.000000000000   0.000000000000   2.400000000000 AA    0.000000000000   0.000000000000   4.535342698956 Bohr

nuclear repulsion = 0.22049050455
number of shells = 12
number of NR pGTOs = 32
number of NR cGTOs = 28
basis = cc-pvtz
ecp = {}
CPU time:       887.06


******** <class 'pyscf.scf.uhf.UHF'> ********
method = UHF
initial guess = minao
damping factor = 0
level_shift factor = 0
DIIS = <class 'pyscf.scf.diis.CDIIS'>
diis_start_cycle = 1
diis_space = 8
SCF conv_tol = 1e-09
SCF conv_tol_grad = None
SCF max_cycles = 1
direct_scf = True
direct_scf_tol = 1e-13
chkfile to save SCF result = /share/home/srwang/ExSCF/test/pytest/scan_h2/tmpv2hn5qc_
max_memory 4000 MB (current use 125 MB)
number electrons alpha = 1  beta = 1
Set gradient conv threshold to 3.16228e-05
init E= -0.647383841010906
  alpha nocc = 1  HOMO = -0.226495182918148  LUMO = -0.135269848449052
  beta  nocc = 1  HOMO = -0.225259174935632  LUMO = -0.135180325760412
cycle= 1 E= -0.877997059160339  delta_E= -0.231  |g|= 0.0311  |ddm|= 0.468
SCF not converged.
SCF energy = -0.877997059160339 after 1 cycles  <S^2> = 2.0472661e-07  2S+1 = 1.0000004


******** <class 'pyscf.scf.uhf.UHF'> ********
method = UHF
initial guess = minao
damping factor = 0
level_shift factor = 0
DIIS = <class 'pyscf.scf.diis.CDIIS'>
diis_start_cycle = 1
diis_space = 8
SCF conv_tol = 1e-09
SCF conv_tol_grad = None
SCF max_cycles = 1
direct_scf = True
direct_scf_tol = 1e-13
chkfile to save SCF result = /share/home/srwang/ExSCF/test/pytest/scan_h2/tmpv2hn5qc_
max_memory 4000 MB (current use 125 MB)
number electrons alpha = 1  beta = 1
Set gradient conv threshold to 3.16228e-05
init E= -0.849258222168617
  alpha nocc = 1  HOMO = -0.492501846454583  LUMO = -0.0486926785315158
  beta  nocc = 1  HOMO = -0.492501846454585  LUMO = -0.0486926785315153
cycle= 1 E= -0.992367625114095  delta_E= -0.143  |g|= 0.0542  |ddm|= 0.138
SCF not converged.
SCF energy = -0.992367625114095 after 1 cycles  <S^2> = 0.85503152  2S+1 = 2.1024096

******** <class 'pyphf.util.SUHF'> ********
max_cycle = 70
verbose: normal
DIIS: <class 'pyscf.scf.diis.CDIIS'>
diis_start_cyc = 40
SVD: S^(-1/2)
[[-0.19660874  0.28602026  0.06859239  0.          0.         -0.         -0.         -0.09612422 -0.02966761  0.         -0.          0.          0.
   0.         -0.         -0.         -0.          0.02730421 -0.65133785 -0.66942252  0.12306022 -0.          0.          0.          0.         -0.33878886
   0.85818717 -0.75764506]
 [-0.26660924  0.32210981  0.05872356  0.         -0.         -0.          0.         -0.07524241 -0.00814378  0.          0.         -0.         -0.
  -0.          0.         -0.          0.          0.00700982 -0.04028518  0.18175447 -0.04032187  0.         -0.         -0.         -0.          0.25179414
  -1.66991965  1.66807409]
 [-0.28240525  0.222855    0.01950839  0.          0.         -0.         -0.         -0.00355808  0.01315979 -0.          0.          0.          0.
   0.         -0.          0.         -0.         -0.01526685  0.50081363  0.60048616 -0.11243036 -0.         -0.         -0.          0.          0.20417944
   0.99089846 -1.50711369]
 [ 0.          0.         -0.         -0.22704278 -0.31612725  0.39071241 -0.07403477 -0.         -0.          0.00619395 -0.00001539 -0.         -0.
  -0.          0.         -0.00622163 -0.00002314  0.         -0.         -0.          0.          0.58371955 -0.55210324 -0.6003497  -0.54112371 -0.
   0.         -0.        ]
 [ 0.         -0.          0.         -0.31612725  0.22704278  0.07403477  0.39071241  0.         -0.         -0.00001539 -0.00619395  0.          0.
   0.          0.         -0.00002314  0.00622163  0.          0.         -0.          0.         -0.55210324 -0.58371955 -0.54112371  0.6003497   0.
   0.          0.        ]
 [-0.03100136 -0.05561338 -0.36190206  0.          0.         -0.          0.         -0.41681541 -0.03576366 -0.          0.         -0.         -0.
  -0.         -0.          0.          0.          0.03227379 -0.13810522  0.28822631 -0.78718366 -0.         -0.         -0.          0.         -0.77147066
   0.01717571  0.13961616]
 [ 0.          0.         -0.         -0.23048413 -0.32091888  0.38488615 -0.07293077 -0.         -0.          0.00002812 -0.00000007 -0.          0.
  -0.          0.         -0.00002027 -0.00000008  0.          0.          0.         -0.         -0.5750482   0.54390156  0.60948472  0.54935754 -0.
  -0.         -0.        ]
 [-0.         -0.          0.         -0.32091888  0.23048413  0.07293077  0.38488615  0.         -0.         -0.00000007 -0.00002812  0.         -0.
   0.          0.         -0.00000008  0.00002027 -0.         -0.          0.         -0.          0.54390156  0.5750482   0.54935754 -0.60948472  0.
   0.         -0.        ]
 [-0.05883497 -0.07969596 -0.39618007  0.          0.         -0.          0.         -0.37019585 -0.00114993  0.         -0.          0.          0.
   0.          0.         -0.         -0.         -0.00063941  0.03384155 -0.19193665  0.73014431  0.          0.          0.         -0.          0.90663962
  -0.06580143 -0.28667296]
 [ 0.          0.          0.          0.         -0.          0.         -0.          0.         -0.         -0.          0.         -0.         -0.70710006
  -0.7071135  -0.          0.          0.         -0.         -0.          0.          0.          0.         -0.         -0.          0.          0.
   0.          0.        ]
 [-0.         -0.          0.         -0.00278257  0.00199844 -0.0006534  -0.00344828  0.          0.          0.00175628  0.70693829 -0.          0.
   0.         -0.         -0.00263001  0.70721404  0.          0.         -0.          0.         -0.00481571 -0.00509148  0.00474472 -0.00526403  0.
  -0.         -0.        ]
 [-0.00775653 -0.00696703 -0.01581662 -0.          0.         -0.          0.          0.02309446  0.70445175 -0.         -0.          0.         -0.
  -0.         -0.          0.          0.          0.70636929 -0.04420821  0.02370805 -0.03195515  0.         -0.         -0.         -0.          0.05107881
  -0.00090923 -0.02647923]
 [ 0.          0.         -0.         -0.00199844 -0.00278257 -0.00344828  0.0006534   0.          0.         -0.70693829  0.00175628 -0.          0.
  -0.          0.         -0.70721404 -0.00263001  0.         -0.         -0.          0.          0.00509148 -0.00481571  0.00526403  0.00474472 -0.
  -0.          0.        ]
 [ 0.          0.          0.          0.          0.          0.         -0.          0.          0.         -0.         -0.         -0.70710006  0.
   0.         -0.7071135   0.          0.          0.          0.          0.          0.          0.          0.          0.          0.          0.
   0.          0.        ]
 [-0.19660874 -0.28602026  0.06859239  0.         -0.          0.         -0.          0.09612422 -0.02966761  0.          0.          0.          0.
  -0.          0.         -0.          0.         -0.02730421 -0.65133785  0.66942252  0.12306022  0.          0.         -0.         -0.          0.33878886
   0.85818717  0.75764506]
 [-0.26660924 -0.32210981  0.05872356 -0.         -0.          0.         -0.          0.07524241 -0.00814378  0.         -0.         -0.          0.
   0.         -0.         -0.         -0.         -0.00700982 -0.04028518 -0.18175447 -0.04032187 -0.         -0.         -0.          0.         -0.25179414
  -1.66991965 -1.66807409]
 [-0.28240525 -0.222855    0.01950839 -0.         -0.          0.          0.          0.00355808  0.01315979 -0.          0.          0.         -0.
  -0.          0.          0.          0.          0.01526685  0.50081363 -0.60048616 -0.11243036 -0.          0.          0.          0.         -0.20417944
   0.99089846  1.50711369]
 [ 0.          0.         -0.         -0.22704278 -0.31612725 -0.39071241  0.07403477  0.         -0.          0.00619395 -0.00001539  0.          0.
   0.         -0.          0.00622163  0.00002314 -0.         -0.         -0.          0.          0.58371955 -0.55210324  0.6003497   0.54112371 -0.
  -0.          0.        ]
 [-0.         -0.          0.         -0.31612725  0.22704278 -0.07403477 -0.39071241  0.         -0.         -0.00001539 -0.00619395  0.         -0.
  -0.          0.          0.00002314 -0.00622163 -0.          0.         -0.          0.         -0.55210324 -0.58371955  0.54112371 -0.6003497   0.
   0.         -0.        ]
 [ 0.03100136 -0.05561338  0.36190206  0.          0.         -0.         -0.         -0.41681541  0.03576366 -0.         -0.          0.          0.
   0.          0.          0.         -0.          0.03227379  0.13810522  0.28822631  0.78718366  0.          0.          0.         -0.         -0.77147066
  -0.01717571  0.13961616]
 [ 0.          0.         -0.         -0.23048413 -0.32091888 -0.38488615  0.07293077  0.         -0.          0.00002812 -0.00000007 -0.         -0.
   0.         -0.          0.00002027  0.00000008 -0.          0.          0.         -0.         -0.5750482   0.54390156 -0.60948472 -0.54935754  0.
  -0.          0.        ]
 [-0.         -0.          0.         -0.32091888  0.23048413 -0.07293077 -0.38488615  0.         -0.         -0.00000007 -0.00002812  0.          0.
  -0.          0.          0.00000008 -0.00002027 -0.         -0.          0.         -0.          0.54390156  0.5750482  -0.54935754  0.60948472 -0.
  -0.          0.        ]
 [ 0.05883497 -0.07969596  0.39618007  0.         -0.         -0.         -0.         -0.37019585  0.00114993  0.          0.         -0.         -0.
  -0.         -0.         -0.          0.         -0.00063941 -0.03384155 -0.19193665 -0.73014431 -0.         -0.         -0.          0.          0.90663962
   0.06580143 -0.28667296]
 [-0.         -0.         -0.          0.         -0.          0.         -0.         -0.         -0.          0.         -0.         -0.         -0.70710006
   0.7071135   0.         -0.         -0.         -0.         -0.          0.         -0.          0.         -0.         -0.          0.         -0.
  -0.         -0.        ]
 [ 0.          0.         -0.          0.00278257 -0.00199844 -0.0006534  -0.00344828 -0.         -0.         -0.00175628 -0.70693829  0.          0.
   0.          0.         -0.00263001  0.70721404 -0.         -0.          0.         -0.          0.00481571  0.00509148  0.00474472 -0.00526403  0.
   0.         -0.        ]
 [-0.00775653  0.00696703 -0.01581662 -0.         -0.          0.         -0.         -0.02309446  0.70445175  0.          0.         -0.          0.
   0.          0.         -0.         -0.         -0.70636929 -0.04420821 -0.02370805 -0.03195515 -0.          0.          0.         -0.         -0.05107881
  -0.00090923  0.02647923]
 [-0.         -0.          0.          0.00199844  0.00278257 -0.00344828  0.0006534   0.          0.          0.70693829 -0.00175628 -0.         -0.
  -0.          0.         -0.70721404 -0.00263001  0.          0.          0.         -0.         -0.00509148  0.00481571  0.00526403  0.00474472 -0.
  -0.         -0.        ]
 [ 0.          0.          0.          0.         -0.          0.         -0.          0.          0.         -0.          0.         -0.70710006  0.
  -0.          0.7071135   0.         -0.          0.          0.          0.         -0.          0.         -0.         -0.         -0.         -0.
  -0.         -0.        ]]
C (ortho)
[[-0.82615386 -0.53229466 -0.00337211  0.15147827 -0.07737835  0.         -0.         -0.          0.          0.00786883  0.04160788  0.03897487 -0.00127806
   0.          0.         -0.         -0.         -0.          0.         -0.         -0.          0.00086208 -0.04305387  0.          0.         -0.
  -0.          0.0044232 ]
 [ 0.54493706 -0.76990012 -0.05362497  0.25617197 -0.00292423  0.          0.         -0.         -0.         -0.1498748  -0.04598592  0.11191592 -0.0100563
   0.          0.          0.          0.         -0.          0.          0.         -0.          0.0280999  -0.00330748  0.          0.          0.
  -0.         -0.06152342]
 [ 0.07923968  0.01460825 -0.05919563 -0.09723164 -0.85931933 -0.         -0.          0.          0.          0.07666666  0.00369393 -0.00174613  0.08141534
  -0.         -0.         -0.         -0.         -0.          0.         -0.          0.          0.04301223 -0.4750247  -0.          0.         -0.
   0.          0.04580831]
 [-0.         -0.         -0.         -0.          0.         -0.77555995 -0.12706844 -0.32038837 -0.14732496 -0.         -0.          0.          0.
   0.0147155   0.01124364  0.          0.         -0.01437241 -0.01138278 -0.         -0.          0.          0.         -0.45786317  0.04537988  0.01691018
  -0.21294122  0.        ]
 [-0.         -0.         -0.          0.          0.          0.12706844 -0.77555995  0.14732496 -0.32038837  0.          0.          0.         -0.
  -0.01124364  0.0147155   0.          0.         -0.01138278  0.01437241 -0.          0.          0.         -0.         -0.04537988 -0.45786317 -0.21294122
  -0.01691018  0.        ]
 [-0.          0.          0.         -0.         -0.          0.21608077  0.28559826 -0.29036729 -0.72888305 -0.         -0.         -0.         -0.
   0.0018049   0.01135307  0.          0.          0.01764149 -0.00160727  0.         -0.          0.          0.          0.16104471  0.12547945 -0.29142284
  -0.35931234 -0.        ]
 [-0.          0.         -0.          0.          0.          0.28559826 -0.21608077 -0.72888305  0.29036729  0.          0.          0.          0.
   0.01135307 -0.0018049   0.          0.          0.00160727  0.01764149 -0.         -0.         -0.         -0.          0.12547945 -0.16104471  0.35931234
  -0.29142284 -0.        ]
 [-0.07761817  0.05547938  0.1861127  -0.209363   -0.07323864  0.         -0.         -0.          0.         -0.81406546  0.02176299 -0.04674746 -0.02878145
  -0.          0.          0.          0.         -0.          0.          0.         -0.          0.09574082 -0.03271223 -0.          0.         -0.
   0.         -0.48024625]
 [-0.00430488  0.00571132  0.02701838  0.02696164  0.01697329 -0.         -0.         -0.         -0.         -0.00345457  0.06161847  0.04024543  0.93148093
   0.         -0.         -0.         -0.          0.         -0.         -0.         -0.          0.32108967  0.14839129  0.         -0.          0.
  -0.          0.00029418]
 [ 0.         -0.         -0.         -0.          0.         -0.00204771 -0.00415439 -0.00042905 -0.00223872  0.         -0.         -0.         -0.
   0.025088   -0.78150313 -0.         -0.          0.59759545 -0.17223414 -0.         -0.          0.         -0.         -0.02665906 -0.03044831 -0.01009466
  -0.0084957   0.        ]
 [ 0.         -0.         -0.         -0.         -0.          0.00415439 -0.00204771  0.00223872 -0.00042905 -0.          0.         -0.         -0.
   0.78150313  0.025088    0.         -0.         -0.17223414 -0.59759545  0.         -0.         -0.         -0.          0.03044831 -0.02665906 -0.0084957
   0.01009466  0.        ]
 [ 0.          0.         -0.         -0.          0.         -0.          0.          0.         -0.         -0.         -0.          0.         -0.
   0.          0.          0.00636003 -0.71195765 -0.          0.         -0.65760883 -0.24622444 -0.         -0.         -0.          0.         -0.
  -0.          0.        ]
 [ 0.         -0.          0.         -0.          0.          0.          0.          0.         -0.         -0.          0.          0.         -0.
   0.          0.         -0.71195765 -0.00636003 -0.          0.          0.24622444 -0.65760883  0.          0.          0.         -0.         -0.
   0.          0.        ]
 [ 0.         -0.          0.         -0.          0.          0.         -0.          0.         -0.         -0.          0.          0.         -0.
   0.          0.         -0.70216558 -0.00627256 -0.          0.         -0.24965817  0.66677953  0.          0.          0.         -0.         -0.
   0.          0.        ]
 [-0.         -0.          0.          0.         -0.         -0.          0.          0.          0.          0.         -0.         -0.          0.
   0.          0.          0.00627256 -0.70216558  0.          0.          0.66677953  0.24965817 -0.          0.         -0.          0.         -0.
   0.         -0.        ]
 [ 0.          0.          0.          0.         -0.          0.00107998  0.0021572  -0.0012165  -0.00614126 -0.          0.          0.          0.
   0.01611361 -0.62229506  0.         -0.         -0.75272295  0.21189558  0.          0.         -0.          0.          0.01215024  0.01370477 -0.01890786
  -0.01611433 -0.        ]
 [ 0.          0.         -0.         -0.         -0.         -0.0021572   0.00107998  0.00614126 -0.0012165  -0.          0.         -0.         -0.
   0.62229506  0.01611361  0.          0.          0.21189558  0.75272295  0.         -0.         -0.          0.         -0.01370477  0.01215024 -0.01611433
   0.01890786  0.        ]
 [ 0.00285056  0.00734514 -0.03860867  0.03603609 -0.00452384 -0.          0.         -0.         -0.         -0.05013394 -0.01965138  0.03848528  0.32665343
  -0.         -0.         -0.         -0.          0.         -0.         -0.          0.         -0.92806779 -0.04465622 -0.         -0.         -0.
   0.         -0.15080138]
 [ 0.03021728  0.178499    0.57305326  0.54840588 -0.01043883 -0.         -0.          0.          0.         -0.0051123   0.47520467  0.28952127 -0.0481472
   0.          0.          0.          0.         -0.          0.          0.         -0.         -0.01029488 -0.16026829 -0.          0.         -0.
   0.          0.01409859]
 [ 0.07474701 -0.26245838  0.51874965 -0.44172012  0.02577642  0.         -0.         -0.          0.          0.05629952  0.29657265 -0.52113082  0.03583867
  -0.         -0.         -0.         -0.          0.         -0.         -0.          0.         -0.10733439  0.02133255 -0.         -0.          0.
   0.          0.29100468]
 [-0.00855945 -0.0151788  -0.0752666  -0.05875976  0.49179853 -0.          0.          0.         -0.         -0.05104285 -0.07384216 -0.04227959  0.11240308
   0.         -0.          0.         -0.         -0.          0.          0.         -0.          0.06927868 -0.84622205  0.          0.         -0.
  -0.          0.073085  ]
 [ 0.         -0.         -0.         -0.          0.          0.13486721 -0.44046142  0.11470482 -0.18064743 -0.         -0.         -0.          0.
   0.01617862 -0.01612117 -0.         -0.          0.01307462 -0.02205595  0.         -0.         -0.          0.         -0.02820734  0.78443971  0.35257624
  -0.01958338  0.        ]
 [-0.          0.         -0.          0.          0.          0.44046142  0.13486721  0.18064743  0.11470482  0.         -0.          0.          0.
   0.01612117  0.01617862  0.          0.         -0.02205595 -0.01307462 -0.         -0.          0.         -0.         -0.78443971 -0.02820734 -0.01958338
  -0.35257624  0.        ]
 [-0.          0.          0.          0.         -0.          0.19029053  0.07529891 -0.36974989 -0.27841143  0.         -0.          0.          0.
  -0.00696822 -0.00820691 -0.         -0.         -0.01832061 -0.00897302 -0.          0.          0.         -0.         -0.35608562 -0.04135166  0.10565545
   0.77697465  0.        ]
 [ 0.         -0.          0.          0.         -0.         -0.07529891  0.19029053  0.27841143 -0.36974989 -0.          0.          0.          0.
   0.00820691 -0.00696822  0.          0.         -0.00897302  0.01832061 -0.          0.         -0.         -0.          0.04135166 -0.35608562  0.77697465
  -0.10565545 -0.        ]
 [ 0.03201118 -0.05444027  0.01560916  0.00961591  0.04412442 -0.          0.          0.         -0.          0.49364933  0.16415834 -0.27759138 -0.01587769
   0.          0.          0.          0.         -0.          0.          0.         -0.          0.08465149 -0.06992341 -0.          0.         -0.
   0.         -0.79606948]
 [-0.02365651  0.07407856  0.38728039  0.40441015 -0.06425722  0.         -0.         -0.          0.          0.00212744 -0.71329874 -0.40691983  0.03987447
   0.         -0.         -0.         -0.          0.          0.         -0.         -0.          0.01303972 -0.0120934  -0.          0.         -0.
   0.          0.00067644]
 [ 0.00504306  0.10540492 -0.45095927  0.43949909 -0.03444883 -0.          0.          0.         -0.         -0.23848396  0.36947702 -0.61712107  0.00145901
  -0.         -0.          0.          0.         -0.          0.          0.         -0.         -0.00477366  0.01159404  0.         -0.          0.
  -0.          0.12949251]]
[[-0.82615386 -0.53229466 -0.00337211  0.15147827  0.07737835  0.         -0.         -0.         -0.         -0.00786883  0.04160788  0.03897487 -0.00127806
  -0.          0.         -0.          0.          0.          0.         -0.          0.          0.00086208  0.04305387  0.          0.          0.
   0.         -0.0044232 ]
 [-0.54493706  0.76990012  0.05362497 -0.25617197 -0.00292423  0.          0.          0.          0.         -0.1498748   0.04598592 -0.11191592  0.0100563
   0.          0.          0.          0.          0.         -0.          0.          0.         -0.0280999  -0.00330748  0.          0.          0.
   0.         -0.06152342]
 [ 0.07923968  0.01460825 -0.05919563 -0.09723164  0.85931933  0.         -0.         -0.         -0.         -0.07666666  0.00369393 -0.00174613  0.08141534
  -0.         -0.         -0.          0.         -0.          0.         -0.         -0.          0.04301223  0.4750247   0.         -0.          0.
   0.         -0.04580831]
 [-0.          0.         -0.         -0.         -0.         -0.37410912 -0.69114542 -0.02954868 -0.35139753 -0.          0.         -0.         -0.
  -0.00544274 -0.01770147  0.          0.          0.00988303  0.01544214 -0.         -0.         -0.          0.         -0.425432   -0.17523022 -0.03211054
  -0.21118435 -0.        ]
 [-0.          0.         -0.         -0.         -0.          0.69114542 -0.37410912 -0.35139753  0.02954868  0.         -0.          0.         -0.
   0.01770147 -0.00544274 -0.          0.          0.01544214 -0.00988303 -0.          0.         -0.          0.          0.17523022 -0.425432   -0.21118435
   0.03211054 -0.        ]
 [ 0.         -0.          0.          0.          0.          0.09364643 -0.3456698   0.58663535  0.52100156 -0.          0.          0.         -0.
  -0.00512811  0.01028846  0.         -0.          0.0172035   0.00422434 -0.          0.         -0.         -0.         -0.08313404 -0.18646507  0.36570348
   0.28336124  0.        ]
 [-0.          0.         -0.          0.         -0.         -0.3456698  -0.09364643 -0.52100156  0.58663535  0.         -0.          0.          0.
   0.01028846  0.00512811 -0.         -0.         -0.00422434  0.0172035   0.         -0.          0.          0.         -0.18646507  0.08313404 -0.28336124
   0.36570348  0.        ]
 [ 0.07761817 -0.05547938 -0.1861127   0.209363   -0.07323864  0.          0.         -0.         -0.         -0.81406546 -0.02176299  0.04674746  0.02878145
   0.          0.          0.         -0.          0.         -0.          0.          0.         -0.09574082 -0.03271223  0.          0.         -0.
   0.         -0.48024625]
 [-0.00430488  0.00571132  0.02701838  0.02696164 -0.01697329 -0.         -0.          0.         -0.          0.00345457  0.06161847  0.04024543  0.93148093
  -0.         -0.         -0.          0.         -0.          0.         -0.         -0.          0.32108967 -0.14839129 -0.         -0.          0.
  -0.         -0.00029418]
 [ 0.         -0.         -0.          0.         -0.          0.00203257 -0.00416182 -0.00195925 -0.00116503  0.         -0.          0.         -0.
  -0.47453235  0.62144637  0.         -0.         -0.62111056 -0.03172693  0.         -0.         -0.          0.         -0.00921204 -0.0394074  -0.0117665
  -0.00596897 -0.        ]
 [ 0.          0.          0.          0.          0.          0.00416182  0.00203257 -0.00116503  0.00195925 -0.         -0.          0.         -0.
  -0.62144637 -0.47453235 -0.          0.         -0.03172693  0.62111056  0.         -0.         -0.         -0.          0.0394074  -0.00921204 -0.00596897
   0.0117665   0.        ]
 [-0.          0.          0.          0.          0.         -0.         -0.          0.         -0.         -0.          0.         -0.          0.
   0.         -0.         -0.0558352  -0.70979334  0.         -0.         -0.01232089 -0.7020855  -0.         -0.         -0.          0.          0.
  -0.         -0.        ]
 [-0.          0.          0.         -0.         -0.          0.          0.          0.         -0.         -0.          0.         -0.         -0.
   0.         -0.         -0.70979334  0.0558352  -0.          0.         -0.7020855   0.01232089 -0.         -0.          0.         -0.          0.
  -0.          0.        ]
 [ 0.          0.          0.         -0.         -0.          0.          0.          0.         -0.         -0.          0.         -0.         -0.
   0.         -0.          0.70003103 -0.05506726 -0.          0.         -0.71187645  0.01249272 -0.         -0.          0.         -0.          0.
  -0.          0.        ]
 [ 0.         -0.         -0.          0.          0.         -0.         -0.          0.         -0.          0.         -0.          0.         -0.
   0.          0.          0.05506726  0.70003103  0.         -0.         -0.01249272 -0.71187645 -0.         -0.         -0.         -0.          0.
  -0.          0.        ]
 [-0.         -0.          0.          0.          0.          0.00104522 -0.00217426  0.00536116  0.00323309 -0.          0.         -0.          0.
   0.37471621 -0.49709009 -0.          0.         -0.78069858 -0.04473588  0.         -0.         -0.         -0.         -0.00427961 -0.01780826  0.02208525
   0.01137631  0.        ]
 [-0.          0.          0.          0.          0.          0.00217426  0.00104522  0.00323309 -0.00536116 -0.         -0.          0.          0.
   0.49709009  0.37471621 -0.         -0.         -0.04473588  0.78069858  0.         -0.         -0.         -0.          0.01780826 -0.00427961  0.01137631
  -0.02208525  0.        ]
 [-0.00285056 -0.00734514  0.03860867 -0.03603609 -0.00452384 -0.         -0.          0.         -0.         -0.05013394  0.01965138 -0.03848528 -0.32665343
  -0.         -0.         -0.         -0.         -0.          0.         -0.         -0.          0.92806779 -0.04465622  0.         -0.          0.
   0.         -0.15080138]
 [ 0.03021728  0.178499    0.57305326  0.54840588  0.01043883 -0.         -0.         -0.         -0.          0.0051123   0.47520467  0.28952127 -0.0481472
   0.          0.          0.          0.          0.         -0.          0.          0.         -0.01029488  0.16026829  0.          0.          0.
   0.         -0.01409859]
 [-0.07474701  0.26245838 -0.51874965  0.44172012  0.02577642  0.          0.          0.          0.          0.05629952 -0.29657265  0.52113082 -0.03583867
  -0.         -0.         -0.         -0.         -0.          0.         -0.         -0.          0.10733439  0.02133255 -0.         -0.         -0.
  -0.          0.29100468]
 [-0.00855945 -0.0151788  -0.0752666  -0.05875976 -0.49179853 -0.         -0.          0.         -0.          0.05104285 -0.07384216 -0.04227959  0.11240308
  -0.         -0.         -0.          0.         -0.          0.         -0.         -0.          0.06927868  0.84622205  0.          0.          0.
   0.         -0.073085  ]
 [-0.          0.         -0.         -0.         -0.          0.43089061 -0.16287636 -0.20889399  0.04641113  0.         -0.          0.          0.
  -0.0225346   0.00371913  0.         -0.         -0.01954353  0.01659702  0.         -0.          0.         -0.         -0.39372771  0.67905802  0.33881313
  -0.09949463  0.        ]
 [ 0.         -0.          0.         -0.         -0.          0.16287636  0.43089061  0.04641113  0.20889399  0.         -0.         -0.          0.
  -0.00371913 -0.0225346   0.          0.          0.01659702  0.01954353 -0.         -0.         -0.          0.         -0.67905802 -0.39372771 -0.09949463
  -0.33881313 -0.        ]
 [ 0.         -0.          0.         -0.          0.         -0.05689556 -0.19657901  0.13602537  0.44240819  0.         -0.         -0.          0.
  -0.00090221 -0.01072826 -0.          0.         -0.01440069 -0.01444922  0.          0.          0.          0.          0.29482649  0.20392222 -0.28010858
  -0.73238779 -0.        ]
 [ 0.          0.          0.         -0.          0.          0.19657901 -0.05689556  0.44240819 -0.13602537 -0.          0.         -0.          0.
   0.01072826 -0.00090221  0.         -0.         -0.01444922  0.01440069  0.         -0.          0.          0.         -0.20392222  0.29482649 -0.73238779
   0.28010858 -0.        ]
 [-0.03201118  0.05444027 -0.01560916 -0.00961591  0.04412442  0.         -0.         -0.         -0.          0.49364933 -0.16415834  0.27759138  0.01587769
   0.          0.          0.         -0.          0.         -0.          0.          0.         -0.08465149 -0.06992341  0.          0.          0.
   0.         -0.79606948]
 [-0.02365651  0.07407856  0.38728039  0.40441015  0.06425722  0.         -0.         -0.         -0.         -0.00212744 -0.71329874 -0.40691983  0.03987447
  -0.          0.         -0.          0.         -0.         -0.         -0.         -0.          0.01303972  0.0120934   0.         -0.          0.
   0.         -0.00067644]
 [-0.00504306 -0.10540492  0.45095927 -0.43949909 -0.03444883 -0.         -0.         -0.         -0.         -0.23848396 -0.36947702  0.61712107 -0.00145901
   0.          0.          0.         -0.         -0.         -0.          0.         -0.          0.00477366  0.01159404  0.         -0.         -0.
   0.          0.12949251]]
grids:  [0.06237655 0.31939555 0.74529195 1.28265786 1.85893479 2.39630071 2.8221971  3.07921611] 
weights:  [0.15900941 0.34931531 0.49276925 0.56970235 0.56970235 0.49276925 0.34931531 0.15900941]
S = 0.0, Sz = 0.0
Wigner small d:  1
value : [1. 1. 1. 1. 1. 1. 1. 1.]
**** Start Cycle 1 ****
dm (ortho)
[[[ 0.6825302  -0.45020185 -0.06546417 ... -0.02644616  0.01954392 -0.00416634]
  [-0.45020185  0.2969564   0.04318064 ...  0.01744408 -0.01289131  0.00274815]
  [-0.06546417  0.04318064  0.00627893 ...  0.00253656 -0.00187453  0.00039961]
  ...
  [-0.02644616  0.01744408  0.00253656 ...  0.00102472 -0.00075727  0.00016143]
  [ 0.01954392 -0.01289131 -0.00187453 ... -0.00075727  0.00055963 -0.0001193 ]
  [-0.00416634  0.00274815  0.00039961 ...  0.00016143 -0.0001193   0.00002543]]

 [[ 0.6825302   0.45020185 -0.06546417 ...  0.02644616  0.01954392  0.00416634]
  [ 0.45020185  0.2969564  -0.04318064 ...  0.01744408  0.01289131  0.00274815]
  [-0.06546417 -0.04318064  0.00627893 ... -0.00253656 -0.00187453 -0.00039961]
  ...
  [ 0.02644616  0.01744408 -0.00253656 ...  0.00102472  0.00075727  0.00016143]
  [ 0.01954392  0.01289131 -0.00187453 ...  0.00075727  0.00055963  0.0001193 ]
  [ 0.00416634  0.00274815 -0.00039961 ...  0.00016143  0.0001193   0.00002543]]]
Fock (ortho)
 (array([[-0.24479429,  0.28539711,  0.15100143, -0.        , -0.        ,  0.        , -0.        , -0.06671363, -0.0187389 ,  0.        , -0.        ,
         0.        ,  0.        ,  0.        , -0.        ,  0.        , -0.        ,  0.00733033,  0.16811747, -0.03249902,  0.09051177,  0.        ,
         0.        ,  0.        , -0.        ,  0.00040547, -0.08674184,  0.01143446],
       [ 0.28539711, -0.0188973 , -0.05691119, -0.        , -0.        ,  0.        , -0.        ,  0.23084064,  0.00776206,  0.        , -0.        ,
         0.        ,  0.        ,  0.        , -0.        , -0.        , -0.        , -0.03718419,  0.09072082, -0.36996869, -0.00709755,  0.        ,
         0.        ,  0.        , -0.        ,  0.02872747,  0.01079475, -0.15773624],
       [ 0.15100143, -0.05691119,  1.39966377,  0.        ,  0.        , -0.        ,  0.        , -0.04983488,  0.02628413, -0.        , -0.        ,
        -0.        ,  0.        ,  0.        ,  0.        ,  0.        , -0.        ,  0.00233193,  0.2449699 ,  0.01409738,  1.31198178,  0.        ,
         0.        ,  0.        , -0.        , -0.00212425,  0.04148662,  0.00004394],
       [-0.        , -0.        ,  0.        ,  1.55940915, -0.        ,  0.04529727,  0.04311264, -0.        , -0.        , -0.00124226,  0.00173878,
        -0.        ,  0.        ,  0.        , -0.        , -0.00066047,  0.00091244,  0.        ,  0.        ,  0.        , -0.        ,  0.18274169,
         1.3481099 , -0.00712556,  0.00155157, -0.        , -0.        , -0.        ],
       [-0.        , -0.        ,  0.        ,  0.        ,  1.55940915,  0.04311264, -0.04529727, -0.        , -0.        , -0.00173878, -0.00124226,
        -0.        , -0.        , -0.        , -0.        , -0.00091244, -0.00066047,  0.        , -0.        ,  0.        ,  0.        , -1.3481099 ,
         0.18274169, -0.00155157, -0.00712556, -0.        , -0.        ,  0.        ],
       [ 0.        ,  0.        , -0.        ,  0.04529727,  0.04311264,  1.61350058, -0.        ,  0.        ,  0.        , -0.00013776,  0.00002646,
        -0.        , -0.        ,  0.        ,  0.        , -0.00941408,  0.0017476 , -0.        ,  0.        , -0.        ,  0.        , -0.00485916,
         0.00672133, -1.15704787, -0.70350347,  0.        ,  0.        , -0.        ],
       [-0.        , -0.        ,  0.        ,  0.04311264, -0.04529727, -0.        ,  1.61350058, -0.        , -0.        ,  0.00002646,  0.00013776,
         0.        ,  0.        ,  0.        ,  0.        ,  0.0017476 ,  0.00941408,  0.        , -0.        ,  0.        ,  0.        ,  0.00672133,
         0.00485916, -0.70350347,  1.15704787, -0.        ,  0.        ,  0.        ],
       [-0.06671363,  0.23084064, -0.04983488, -0.        , -0.        ,  0.        , -0.        ,  1.71794108, -0.0053244 ,  0.        , -0.        ,
        -0.        ,  0.        ,  0.        ,  0.        ,  0.        , -0.        , -0.00788204, -0.02897592, -0.50436911, -0.00950355, -0.        ,
         0.        ,  0.        ,  0.        ,  1.25414387, -0.000776  , -0.04231412],
       [-0.0187389 ,  0.00776206,  0.02628413, -0.        , -0.        ,  0.        , -0.        , -0.0053244 ,  3.42052812,  0.        ,  0.        ,
         0.        , -0.        , -0.        , -0.        , -0.        ,  0.        , -0.02523931, -0.13863219, -0.00276287, -0.0528896 ,  0.        ,
         0.        ,  0.        , -0.        , -0.00153524, -0.00913373, -0.00037606],
       [ 0.        ,  0.        , -0.        , -0.00124226, -0.00173878, -0.00013776,  0.00002646,  0.        ,  0.        ,  3.44612394, -0.        ,
        -0.        , -0.        , -0.        , -0.        , -0.02584231, -0.00016031,  0.        ,  0.        , -0.        , -0.        , -0.01501902,
         0.01413501,  0.00010868,  0.00009845, -0.        ,  0.        ,  0.        ],
       [-0.        , -0.        , -0.        ,  0.00173878, -0.00124226,  0.00002646,  0.00013776, -0.        ,  0.        , -0.        ,  3.44612394,
        -0.        ,  0.        , -0.        , -0.        ,  0.00016031, -0.02584231, -0.        , -0.        , -0.        ,  0.        , -0.01413501,
        -0.01501902, -0.00009845,  0.00010868,  0.        , -0.        , -0.        ],
       [ 0.        ,  0.        , -0.        , -0.        , -0.        , -0.        ,  0.        , -0.        ,  0.        , -0.        , -0.        ,
         3.44986332, -0.        , -0.        , -0.02590852,  0.        ,  0.        , -0.        ,  0.        , -0.        , -0.        ,  0.        ,
         0.        , -0.        , -0.        ,  0.        ,  0.        ,  0.        ],
       [ 0.        ,  0.        ,  0.        ,  0.        , -0.        , -0.        ,  0.        ,  0.        , -0.        , -0.        ,  0.        ,
        -0.        ,  3.44986332, -0.02590852,  0.        ,  0.        ,  0.        , -0.        ,  0.        , -0.        , -0.        , -0.        ,
        -0.        ,  0.        , -0.        , -0.        , -0.        , -0.        ],
       [ 0.        ,  0.        ,  0.        ,  0.        , -0.        ,  0.        ,  0.        ,  0.        , -0.        , -0.        , -0.        ,
        -0.        , -0.02590852,  3.45039644,  0.        ,  0.        , -0.        , -0.        ,  0.        , -0.        , -0.        , -0.        ,
        -0.        ,  0.        , -0.        , -0.        , -0.        , -0.        ],
       [-0.        , -0.        ,  0.        , -0.        , -0.        ,  0.        ,  0.        ,  0.        , -0.        , -0.        , -0.        ,
        -0.02590852,  0.        ,  0.        ,  3.45039644,  0.        ,  0.        ,  0.        , -0.        ,  0.        ,  0.        ,  0.        ,
         0.        ,  0.        , -0.        , -0.        , -0.        , -0.        ],
       [ 0.        , -0.        ,  0.        , -0.00066047, -0.00091244, -0.00941408,  0.0017476 ,  0.        , -0.        , -0.02584231,  0.00016031,
         0.        ,  0.        ,  0.        ,  0.        ,  3.45494071, -0.        , -0.        , -0.        ,  0.        ,  0.        ,  0.00018226,
        -0.00017367, -0.01569769, -0.01404362,  0.        , -0.        , -0.        ],
       [-0.        , -0.        , -0.        ,  0.00091244, -0.00066047,  0.0017476 ,  0.00941408, -0.        ,  0.        , -0.00016031, -0.02584231,
         0.        ,  0.        , -0.        ,  0.        , -0.        ,  3.45494071, -0.        , -0.        , -0.        ,  0.        ,  0.00017367,
         0.00018226,  0.01404362, -0.01569769,  0.        , -0.        , -0.        ],
       [ 0.00733033, -0.03718419,  0.00233193,  0.        ,  0.        , -0.        ,  0.        , -0.00788204, -0.02523931,  0.        , -0.        ,
        -0.        , -0.        , -0.        ,  0.        , -0.        , -0.        ,  3.46632265,  0.00585275,  0.11565648,  0.00119878,  0.        ,
        -0.        , -0.        , -0.        ,  0.15662631, -0.0003831 , -0.11838588],
       [ 0.16811747,  0.09072082,  0.2449699 ,  0.        , -0.        ,  0.        , -0.        , -0.02897592, -0.13863219,  0.        , -0.        ,
         0.        ,  0.        ,  0.        , -0.        , -0.        , -0.        ,  0.00585275,  1.16353477, -0.05284514,  0.34654261,  0.        ,
         0.        ,  0.        , -0.        , -0.02034979, -0.9614322 , -0.01186612],
       [-0.03249902, -0.36996869,  0.01409738,  0.        ,  0.        , -0.        ,  0.        , -0.50436911, -0.00276287, -0.        , -0.        ,
        -0.        , -0.        , -0.        ,  0.        ,  0.        , -0.        ,  0.11565648, -0.05284514,  1.51870155,  0.01653399,  0.        ,
         0.        ,  0.        , -0.        , -0.46838145,  0.01918711,  1.07271719],
       [ 0.09051177, -0.00709755,  1.31198178, -0.        ,  0.        ,  0.        ,  0.        , -0.00950355, -0.0528896 , -0.        ,  0.        ,
        -0.        , -0.        , -0.        ,  0.        ,  0.        ,  0.        ,  0.00119878,  0.34654261,  0.01653399,  2.98699325,  0.        ,
         0.        ,  0.        , -0.        , -0.01607152,  0.19052555,  0.00381545],
       [ 0.        ,  0.        ,  0.        ,  0.18274169, -1.3481099 , -0.00485916,  0.00672133, -0.        ,  0.        , -0.01501902, -0.01413501,
         0.        , -0.        , -0.        ,  0.        ,  0.00018226,  0.00017367,  0.        ,  0.        ,  0.        ,  0.        ,  3.04603344,
         0.        ,  0.0017752 ,  0.02223542, -0.        ,  0.        , -0.        ],
       [ 0.        ,  0.        ,  0.        ,  1.3481099 ,  0.18274169,  0.00672133,  0.00485916,  0.        ,  0.        ,  0.01413501, -0.01501902,
         0.        , -0.        , -0.        ,  0.        , -0.00017367,  0.00018226, -0.        ,  0.        ,  0.        ,  0.        ,  0.        ,
         3.04603344, -0.02223542,  0.0017752 ,  0.        ,  0.        , -0.        ],
       [ 0.        ,  0.        ,  0.        , -0.00712556, -0.00155157, -1.15704787, -0.70350347,  0.        ,  0.        ,  0.00010868, -0.00009845,
        -0.        ,  0.        ,  0.        ,  0.        , -0.01569769,  0.01404362, -0.        ,  0.        ,  0.        ,  0.        ,  0.0017752 ,
        -0.02223542,  3.10772716,  0.        ,  0.        , -0.        , -0.        ],
       [-0.        , -0.        , -0.        ,  0.00155157, -0.00712556, -0.70350347,  1.15704787,  0.        , -0.        ,  0.00009845,  0.00010868,
        -0.        , -0.        , -0.        , -0.        , -0.01404362, -0.01569769, -0.        , -0.        , -0.        , -0.        ,  0.02223542,
         0.0017752 , -0.        ,  3.10772716,  0.        , -0.        ,  0.        ],
       [ 0.00040547,  0.02872747, -0.00212425, -0.        , -0.        ,  0.        , -0.        ,  1.25414387, -0.00153524, -0.        ,  0.        ,
         0.        , -0.        , -0.        , -0.        ,  0.        ,  0.        ,  0.15662631, -0.02034979, -0.46838145, -0.01607152, -0.        ,
         0.        ,  0.        ,  0.        ,  3.17430336,  0.00992102,  0.04527346],
       [-0.08674184,  0.01079475,  0.04148662, -0.        , -0.        ,  0.        ,  0.        , -0.000776  , -0.00913373,  0.        , -0.        ,
         0.        , -0.        , -0.        , -0.        , -0.        , -0.        , -0.0003831 , -0.9614322 ,  0.01918711,  0.19052555,  0.        ,
         0.        , -0.        , -0.        ,  0.00992102,  1.82632141,  0.01738292],
       [ 0.01143446, -0.15773624,  0.00004394, -0.        ,  0.        , -0.        ,  0.        , -0.04231412, -0.00037606,  0.        , -0.        ,
         0.        , -0.        , -0.        , -0.        , -0.        , -0.        , -0.11838588, -0.01186612,  1.07271719,  0.00381545, -0.        ,
        -0.        , -0.        ,  0.        ,  0.04527346,  0.01738292,  1.60786603]]), array([[-0.24479429, -0.28539711,  0.15100143, -0.        , -0.        ,  0.        , -0.        ,  0.06671363, -0.0187389 ,  0.        , -0.        ,
        -0.        ,  0.        ,  0.        ,  0.        , -0.        , -0.        , -0.00733033,  0.16811747,  0.03249902,  0.09051177,  0.        ,
         0.        ,  0.        , -0.        , -0.00040547, -0.08674184, -0.01143446],
       [-0.28539711, -0.0188973 ,  0.05691119, -0.        , -0.        ,  0.        , -0.        ,  0.23084064, -0.00776206,  0.        , -0.        ,
        -0.        ,  0.        ,  0.        ,  0.        , -0.        , -0.        , -0.03718419, -0.09072082, -0.36996869,  0.00709755,  0.        ,
         0.        ,  0.        , -0.        ,  0.02872747, -0.01079475, -0.15773624],
       [ 0.15100143,  0.05691119,  1.39966377,  0.        ,  0.        , -0.        ,  0.        ,  0.04983488,  0.02628413, -0.        , -0.        ,
         0.        ,  0.        ,  0.        , -0.        ,  0.        , -0.        , -0.00233193,  0.2449699 , -0.01409738,  1.31198178,  0.        ,
         0.        ,  0.        , -0.        ,  0.00212425,  0.04148662, -0.00004394],
       [-0.        , -0.        ,  0.        ,  1.55940915, -0.        , -0.04529727, -0.04311264, -0.        , -0.        , -0.00124226,  0.00173878,
        -0.        ,  0.        ,  0.        , -0.        ,  0.00066047, -0.00091244,  0.        ,  0.        ,  0.        , -0.        ,  0.18274169,
         1.3481099 ,  0.00712556, -0.00155157, -0.        , -0.        , -0.        ],
       [-0.        , -0.        ,  0.        , -0.        ,  1.55940915, -0.04311264,  0.04529727, -0.        , -0.        , -0.00173878, -0.00124226,
         0.        , -0.        , -0.        ,  0.        ,  0.00091244,  0.00066047,  0.        , -0.        ,  0.        ,  0.        , -1.3481099 ,
         0.18274169,  0.00155157,  0.00712556, -0.        , -0.        ,  0.        ],
       [ 0.        ,  0.        , -0.        , -0.04529727, -0.04311264,  1.61350058, -0.        ,  0.        ,  0.        ,  0.00013776, -0.00002646,
        -0.        , -0.        ,  0.        ,  0.        , -0.00941408,  0.0017476 , -0.        ,  0.        , -0.        ,  0.        ,  0.00485916,
        -0.00672133, -1.15704787, -0.70350347,  0.        ,  0.        , -0.        ],
       [-0.        , -0.        ,  0.        , -0.04311264,  0.04529727, -0.        ,  1.61350058, -0.        , -0.        , -0.00002646, -0.00013776,
         0.        ,  0.        ,  0.        ,  0.        ,  0.0017476 ,  0.00941408,  0.        , -0.        ,  0.        ,  0.        , -0.00672133,
        -0.00485916, -0.70350347,  1.15704787, -0.        ,  0.        ,  0.        ],
       [ 0.06671363,  0.23084064,  0.04983488, -0.        , -0.        ,  0.        , -0.        ,  1.71794108,  0.0053244 ,  0.        , -0.        ,
         0.        ,  0.        ,  0.        , -0.        ,  0.        , -0.        , -0.00788204,  0.02897592, -0.50436911,  0.00950355, -0.        ,
         0.        ,  0.        ,  0.        ,  1.25414387,  0.000776  , -0.04231412],
       [-0.0187389 , -0.00776206,  0.02628413, -0.        , -0.        ,  0.        , -0.        ,  0.0053244 ,  3.42052812, -0.        ,  0.        ,
        -0.        , -0.        , -0.        ,  0.        ,  0.        ,  0.        ,  0.02523931, -0.13863219,  0.00276287, -0.0528896 ,  0.        ,
         0.        ,  0.        , -0.        ,  0.00153524, -0.00913373,  0.00037606],
       [ 0.        ,  0.        , -0.        , -0.00124226, -0.00173878,  0.00013776, -0.00002646,  0.        , -0.        ,  3.44612394,  0.        ,
         0.        ,  0.        ,  0.        ,  0.        ,  0.02584231,  0.00016031, -0.        ,  0.        , -0.        , -0.        , -0.01501902,
         0.01413501, -0.00010868, -0.00009845, -0.        ,  0.        ,  0.        ],
       [-0.        , -0.        , -0.        ,  0.00173878, -0.00124226, -0.00002646, -0.00013776, -0.        ,  0.        ,  0.        ,  3.44612394,
         0.        , -0.        ,  0.        ,  0.        , -0.00016031,  0.02584231, -0.        , -0.        , -0.        ,  0.        , -0.01413501,
        -0.01501902,  0.00009845, -0.00010868,  0.        , -0.        , -0.        ],
       [-0.        , -0.        ,  0.        , -0.        ,  0.        , -0.        ,  0.        ,  0.        , -0.        ,  0.        ,  0.        ,
         3.44986332,  0.        ,  0.        ,  0.02590852,  0.        , -0.        , -0.        , -0.        ,  0.        ,  0.        ,  0.        ,
         0.        , -0.        , -0.        , -0.        , -0.        , -0.        ],
       [ 0.        ,  0.        ,  0.        ,  0.        , -0.        , -0.        ,  0.        ,  0.        , -0.        ,  0.        , -0.        ,
         0.        ,  3.44986332,  0.02590852, -0.        , -0.        , -0.        , -0.        ,  0.        , -0.        , -0.        , -0.        ,
        -0.        ,  0.        , -0.        , -0.        , -0.        , -0.        ],
       [ 0.        ,  0.        ,  0.        ,  0.        , -0.        ,  0.        ,  0.        ,  0.        , -0.        ,  0.        ,  0.        ,
         0.        ,  0.02590852,  3.45039644, -0.        , -0.        ,  0.        , -0.        ,  0.        , -0.        , -0.        , -0.        ,
        -0.        ,  0.        , -0.        , -0.        , -0.        , -0.        ],
       [ 0.        ,  0.        , -0.        , -0.        ,  0.        ,  0.        ,  0.        , -0.        ,  0.        ,  0.        ,  0.        ,
         0.02590852, -0.        , -0.        ,  3.45039644, -0.        , -0.        , -0.        ,  0.        , -0.        , -0.        ,  0.        ,
         0.        ,  0.        , -0.        ,  0.        ,  0.        ,  0.        ],
       [-0.        , -0.        ,  0.        ,  0.00066047,  0.00091244, -0.00941408,  0.0017476 ,  0.        ,  0.        ,  0.02584231, -0.00016031,
         0.        , -0.        , -0.        , -0.        ,  3.45494071, -0.        ,  0.        , -0.        ,  0.        ,  0.        , -0.00018226,
         0.00017367, -0.01569769, -0.01404362,  0.        , -0.        , -0.        ],
       [-0.        , -0.        , -0.        , -0.00091244,  0.00066047,  0.0017476 ,  0.00941408, -0.        ,  0.        ,  0.00016031,  0.02584231,
        -0.        , -0.        ,  0.        , -0.        , -0.        ,  3.45494071,  0.        , -0.        , -0.        ,  0.        , -0.00017367,
        -0.00018226,  0.01404362, -0.01569769,  0.        , -0.        , -0.        ],
       [-0.00733033, -0.03718419, -0.00233193,  0.        ,  0.        , -0.        ,  0.        , -0.00788204,  0.02523931, -0.        , -0.        ,
        -0.        , -0.        , -0.        , -0.        ,  0.        ,  0.        ,  3.46632265, -0.00585275,  0.11565648, -0.00119878,  0.        ,
        -0.        , -0.        , -0.        ,  0.15662631,  0.0003831 , -0.11838588],
       [ 0.16811747, -0.09072082,  0.2449699 ,  0.        , -0.        ,  0.        , -0.        ,  0.02897592, -0.13863219,  0.        , -0.        ,
        -0.        ,  0.        ,  0.        ,  0.        , -0.        , -0.        , -0.00585275,  1.16353477,  0.05284514,  0.34654261,  0.        ,
         0.        ,  0.        , -0.        ,  0.02034979, -0.9614322 ,  0.01186612],
       [ 0.03249902, -0.36996869, -0.01409738,  0.        ,  0.        , -0.        ,  0.        , -0.50436911,  0.00276287, -0.        , -0.        ,
         0.        , -0.        , -0.        , -0.        ,  0.        , -0.        ,  0.11565648,  0.05284514,  1.51870155, -0.01653399,  0.        ,
         0.        ,  0.        , -0.        , -0.46838145, -0.01918711,  1.07271719],
       [ 0.09051177,  0.00709755,  1.31198178, -0.        ,  0.        ,  0.        ,  0.        ,  0.00950355, -0.0528896 , -0.        ,  0.        ,
         0.        , -0.        , -0.        , -0.        ,  0.        ,  0.        , -0.00119878,  0.34654261, -0.01653399,  2.98699325,  0.        ,
         0.        ,  0.        , -0.        ,  0.01607152,  0.19052555, -0.00381545],
       [ 0.        ,  0.        ,  0.        ,  0.18274169, -1.3481099 ,  0.00485916, -0.00672133, -0.        ,  0.        , -0.01501902, -0.01413501,
         0.        , -0.        , -0.        ,  0.        , -0.00018226, -0.00017367,  0.        ,  0.        ,  0.        ,  0.        ,  3.04603344,
         0.        , -0.0017752 , -0.02223542, -0.        ,  0.        , -0.        ],
       [ 0.        ,  0.        ,  0.        ,  1.3481099 ,  0.18274169, -0.00672133, -0.00485916,  0.        ,  0.        ,  0.01413501, -0.01501902,
         0.        , -0.        , -0.        ,  0.        ,  0.00017367, -0.00018226, -0.        ,  0.        ,  0.        ,  0.        ,  0.        ,
         3.04603344,  0.02223542, -0.0017752 ,  0.        ,  0.        , -0.        ],
       [ 0.        ,  0.        ,  0.        ,  0.00712556,  0.00155157, -1.15704787, -0.70350347,  0.        ,  0.        , -0.00010868,  0.00009845,
        -0.        ,  0.        ,  0.        ,  0.        , -0.01569769,  0.01404362, -0.        ,  0.        ,  0.        ,  0.        , -0.0017752 ,
         0.02223542,  3.10772716,  0.        ,  0.        , -0.        , -0.        ],
       [-0.        , -0.        , -0.        , -0.00155157,  0.00712556, -0.70350347,  1.15704787,  0.        , -0.        , -0.00009845, -0.00010868,
        -0.        , -0.        , -0.        , -0.        , -0.01404362, -0.01569769, -0.        , -0.        , -0.        , -0.        , -0.02223542,
        -0.0017752 ,  0.        ,  3.10772716,  0.        , -0.        ,  0.        ],
       [-0.00040547,  0.02872747,  0.00212425, -0.        , -0.        ,  0.        , -0.        ,  1.25414387,  0.00153524, -0.        ,  0.        ,
        -0.        , -0.        , -0.        ,  0.        ,  0.        ,  0.        ,  0.15662631,  0.02034979, -0.46838145,  0.01607152, -0.        ,
         0.        ,  0.        ,  0.        ,  3.17430336, -0.00992102,  0.04527346],
       [-0.08674184, -0.01079475,  0.04148662, -0.        , -0.        ,  0.        ,  0.        ,  0.000776  , -0.00913373,  0.        , -0.        ,
        -0.        , -0.        , -0.        ,  0.        , -0.        , -0.        ,  0.0003831 , -0.9614322 , -0.01918711,  0.19052555,  0.        ,
         0.        , -0.        , -0.        , -0.00992102,  1.82632141, -0.01738292],
       [-0.01143446, -0.15773624, -0.00004394, -0.        ,  0.        , -0.        ,  0.        , -0.04231412,  0.00037606,  0.        , -0.        ,
        -0.        , -0.        , -0.        ,  0.        , -0.        , -0.        , -0.11838588,  0.01186612,  1.07271719, -0.00381545, -0.        ,
        -0.        , -0.        ,  0.        ,  0.04527346, -0.01738292,  1.60786603]]))
E(UHF) =    -1.212858
NO eigenvalue
[-1. -0. -0. -0. -0. -0. -0. -0. -0. -0. -0. -0. -0. -0. -0. -0.  0.  0.  0.  0.  0.  0.  0.  0.  0.  0.  0.  0.] [-1. -0. -0. -0. -0. -0. -0. -0. -0. -0. -0. -0. -0.  0.  0.  0.  0.  0.  0.  0.  0.  0.  0.  0.  0.  0.  0.  0.]
NO vec
[[ 0.82615386  0.         -0.11809985 ...  0.          0.          0.        ]
 [-0.54493706  0.         -0.28017135 ...  0.          0.          0.        ]
 [-0.07923968  0.          0.12547148 ...  0.          0.          0.        ]
 ...
 [ 0.          0.03201118  0.         ...  0.66751418 -0.02289594 -0.05947392]
 [ 0.          0.02365651  0.         ... -0.13563153 -0.0332158  -0.03482402]
 [ 0.          0.00504306  0.         ...  0.00626007 -0.02853544 -0.00895177]]
dm(NO)
[[ 1.  0. -0. ...  0.  0.  0.]
 [ 0.  1.  0. ... -0.  0.  0.]
 [ 0.  0. -0. ...  0.  0.  0.]
 ...
 [ 0. -0.  0. ... -0. -0.  0.]
 [ 0.  0.  0. ... -0.  0.  0.]
 [ 0.  0.  0. ...  0. -0. -0.]]
D(g) (NO)
[[ 0.99951369  0.01187293  0.         ... -0.00391716 -0.00070659  0.02811949]
 [-0.01187293  0.99951369  0.00741727 ... -0.          0.          0.        ]
 [ 0.         -0.00741727  0.99951369 ...  0.02055719 -0.00265858  0.00460552]
 ...
 [ 0.00391716 -0.         -0.02055719 ...  0.99951369 -0.          0.        ]
 [ 0.00070659  0.          0.00265858 ... -0.          0.99951369  0.        ]
 [-0.02811949  0.         -0.00460552 ...  0.          0.          0.99951369]]
...
N(g) (NO)
[[ 1.0003454 -0.0118828]
 [ 0.0118828  1.0003454]]
...
P(g) (NO)
[[ 1.         -0.         -0.         ...  0.         -0.         -0.        ]
 [ 0.          1.         -0.         ... -0.          0.          0.        ]
 [-0.00008814 -0.00741983  0.         ...  0.         -0.         -0.        ]
 ...
 [ 0.00391851 -0.00004655 -0.         ...  0.         -0.         -0.        ]
 [ 0.00070683 -0.0000084  -0.         ...  0.         -0.         -0.        ]
 [-0.0281292   0.00033414  0.         ... -0.          0.          0.        ]]
...
Pg_ortho
[[ 0.68268681 -0.45030516 -0.06547919 ...  0.00051086  0.00037753  0.00008048]
 [-0.44997152  0.29680446  0.04315854 ...  0.00075133  0.00055524  0.00011837]
 [-0.06547919  0.04319055  0.00628037 ... -0.000049   -0.00003621 -0.00000772]
 ...
 [ 0.00113906 -0.00075133 -0.00010925 ...  0.00102419  0.00075689  0.00016135]
 [-0.00037753  0.00024902  0.00003621 ...  0.00075745  0.00055976  0.00011933]
 [ 0.00017945 -0.00011837 -0.00001721 ...  0.00016135  0.00011924  0.00002542]]
G(g) (NO)
[[ 0.24501887 -0.00188403 -0.01064061 ...  0.00004651 -0.00010617  0.00077552]
 [ 0.00188403  0.24501887  0.00077399 ...  0.0177544   0.01685608  0.07121901]
 [-0.0106165   0.00637853  0.85197148 ... -0.00012804  0.00069432 -0.00073546]
 ...
 [ 0.00034871  0.01776049  0.00229368 ...  0.81129922  0.0155847   0.09553065]
 [-0.00190543  0.01685043 -0.00036686 ...  0.01558368  0.88625987 -0.03639404]
 [ 0.01671593  0.07114485  0.00415131 ...  0.09552587 -0.03640177  0.82281879]]
...
C(NO)
[[-1.          0.         -0.         ...  0.          0.          0.        ]
 [ 0.         -1.          0.         ...  0.          0.          0.        ]
 [-0.          0.          0.14778449 ...  0.          0.          0.        ]
 ...
 [ 0.          0.          0.         ...  0.          0.         -0.35592181]
 [ 0.         -0.          0.         ...  0.          0.         -0.4197255 ]
 [ 0.         -0.          0.         ...  0.         -0.          0.07271363]]
detC 1.000000000000002
detNg [1.00083212 1.02209926 1.12782641 1.44098343 2.21730485 3.87135918 6.00276381 6.85871474]
xg [0.99916857 0.97837855 0.88666127 0.69397051 0.45099798 0.25830721 0.16658993 0.14579991]
ciS 1.1449684843791594
[[-0.72892731  0.         -0.0046461  ...  0.          0.          0.        ]
 [ 0.         -0.72892731  0.         ... -0.01383901 -0.01376334 -0.03440349]
 [-0.0046461   0.          1.00511602 ...  0.          0.          0.        ]
 ...
 [ 0.         -0.01383901  0.         ...  1.08090529  0.33684765  0.11223444]
 [ 0.         -0.01376334  0.         ...  0.33684765  0.9414577  -0.07693853]
 [ 0.         -0.03440349  0.         ...  0.11223444 -0.07693853 -0.62924809]]
ciH -1.3865493304479362
S2 = 0.000000
X(g)
[[ 2.         -0.         -0.00008814 ... -0.00391851 -0.00070683  0.0281292 ]
 [ 0.          2.          0.00741983 ... -0.00004655 -0.0000084   0.00033414]
 [-0.00008814 -0.00741983  0.         ...  0.          0.          0.        ]
 ...
 [ 0.00391851 -0.00004655  0.         ...  0.          0.          0.        ]
 [ 0.00070683 -0.0000084   0.         ...  0.          0.          0.        ]
 [-0.0281292   0.00033414  0.         ...  0.          0.          0.        ]]
X(g) int
[[ 2.         -0.         -0.07909812 ... -0.08616818 -0.01554324  0.61856138]
 [ 0.          2.          0.16316208 ... -0.04177282 -0.00753509  0.29986772]
 [-0.07909812 -0.16316208  0.         ...  0.          0.          0.        ]
 ...
 [ 0.08616818 -0.04177282  0.         ...  0.          0.          0.        ]
 [ 0.01554324 -0.00753509  0.         ...  0.          0.          0.        ]
 [-0.61856138  0.29986772  0.         ...  0.          0.          0.        ]]
Hsp + Hph =  -1.2109934459897118
Feff (mod,ortho)
[[-0.22074263  0.29544097  0.14849749 ...  0.          0.          0.        ]
 [ 0.29544097 -0.04261175 -0.05774455 ...  0.          0.          0.        ]
 [ 0.14849749 -0.05774455  1.39992283 ...  0.          0.          0.        ]
 ...
 [ 0.          0.          0.         ...  3.17437658 -0.00982434  0.04522364]
 [ 0.          0.          0.         ... -0.00982434  1.82642432 -0.01741303]
 [ 0.          0.          0.         ...  0.04522364 -0.01741303  1.60784851]]
E(SUHF) =     -0.99050294
e_a, e_b
[-0.49047816  0.0519237   0.37112381  0.49529873  0.65894039  0.72829796  0.72829796  0.83772495  0.83772495  1.0210503   2.47559418  2.60343316  3.41309563
  3.42396203  3.42396203  3.42421999  3.42421999  3.47603977  3.47603977  3.47618675  3.47618675  3.47683773  3.80740803  3.83301481  3.83301481  3.92854847
  3.92854847  4.13425689] [-0.49047816  0.0519237   0.37112381  0.49529873  0.65894039  0.72829796  0.72829796  0.83772495  0.83772495  1.0210503   2.47559418  2.60343316  3.41309563
  3.42396203  3.42396203  3.42421999  3.42421999  3.47603977  3.47603977  3.47618675  3.47618675  3.47683773  3.80740803  3.83301481  3.83301481  3.92854847
  3.92854847  4.13425689]
P_a, P_b
[[ 0.58553126 -0.47793059 -0.06200657  0.         -0.          0.         -0.          0.07016571  0.00334666  0.         -0.         -0.          0.
   0.          0.         -0.         -0.         -0.00287046 -0.02508095 -0.06112426  0.00948353  0.          0.          0.          0.         -0.02788503
   0.0140921  -0.00692396]
 [-0.47793059  0.39010326  0.05061188 -0.          0.         -0.          0.         -0.05727165 -0.00273166 -0.          0.          0.         -0.
  -0.         -0.          0.          0.          0.00234297  0.02047192  0.04989171 -0.00774078 -0.         -0.         -0.         -0.          0.02276071
  -0.01150245  0.00565157]
 [-0.06200657  0.05061188  0.00656637 -0.          0.         -0.          0.         -0.00743041 -0.0003544  -0.          0.          0.         -0.
  -0.         -0.          0.          0.          0.00030398  0.00265602  0.00647294 -0.00100429 -0.         -0.         -0.         -0.          0.00295297
  -0.00149232  0.00073323]
 [ 0.         -0.         -0.          0.         -0.          0.         -0.          0.          0.          0.         -0.         -0.          0.
   0.          0.         -0.         -0.         -0.         -0.         -0.          0.          0.          0.          0.          0.         -0.
   0.         -0.        ]
 [-0.          0.          0.         -0.          0.         -0.          0.         -0.         -0.         -0.          0.          0.         -0.
  -0.         -0.          0.          0.          0.          0.          0.         -0.         -0.         -0.         -0.         -0.          0.
  -0.          0.        ]
 [ 0.         -0.         -0.          0.         -0.          0.         -0.          0.          0.          0.         -0.         -0.          0.
   0.          0.         -0.         -0.         -0.         -0.         -0.          0.          0.          0.          0.          0.         -0.
   0.         -0.        ]
 [-0.          0.          0.         -0.          0.         -0.          0.         -0.         -0.         -0.          0.          0.         -0.
  -0.         -0.          0.          0.          0.          0.          0.         -0.         -0.         -0.         -0.         -0.          0.
  -0.          0.        ]
 [ 0.07016571 -0.05727165 -0.00743041  0.         -0.          0.         -0.          0.00840814  0.00040104  0.         -0.         -0.          0.
   0.          0.         -0.         -0.         -0.00034397 -0.00300551 -0.00732468  0.00113644  0.          0.          0.          0.         -0.00334153
   0.00168869 -0.00082972]
 [ 0.00334666 -0.00273166 -0.0003544   0.         -0.          0.         -0.          0.00040104  0.00001913  0.         -0.         -0.          0.
   0.          0.         -0.         -0.         -0.00001641 -0.00014335 -0.00034936  0.0000542   0.          0.          0.          0.         -0.00015938
   0.00008054 -0.00003957]
 [ 0.         -0.         -0.          0.         -0.          0.         -0.          0.          0.          0.         -0.         -0.          0.
   0.          0.         -0.         -0.         -0.         -0.         -0.          0.          0.          0.          0.          0.         -0.
   0.         -0.        ]
 [-0.          0.          0.         -0.          0.         -0.          0.         -0.         -0.         -0.          0.          0.         -0.
  -0.         -0.          0.          0.          0.          0.          0.         -0.         -0.         -0.         -0.         -0.          0.
  -0.          0.        ]
 [-0.          0.          0.         -0.          0.         -0.          0.         -0.         -0.         -0.          0.          0.         -0.
  -0.         -0.          0.          0.          0.          0.          0.         -0.         -0.         -0.         -0.         -0.          0.
  -0.          0.        ]
 [ 0.         -0.         -0.          0.         -0.          0.         -0.          0.          0.          0.         -0.         -0.          0.
   0.          0.         -0.         -0.         -0.         -0.         -0.          0.          0.          0.          0.          0.         -0.
   0.         -0.        ]
 [ 0.         -0.         -0.          0.         -0.          0.         -0.          0.          0.          0.         -0.         -0.          0.
   0.          0.         -0.         -0.         -0.         -0.         -0.          0.          0.          0.          0.          0.         -0.
   0.         -0.        ]
 [ 0.         -0.         -0.          0.         -0.          0.         -0.          0.          0.          0.         -0.         -0.          0.
   0.          0.         -0.         -0.         -0.         -0.         -0.          0.          0.          0.          0.          0.         -0.
   0.         -0.        ]
 [-0.          0.          0.         -0.          0.         -0.          0.         -0.         -0.         -0.          0.          0.         -0.
  -0.         -0.          0.          0.          0.          0.          0.         -0.         -0.         -0.         -0.         -0.          0.
  -0.          0.        ]
 [-0.          0.          0.         -0.          0.         -0.          0.         -0.         -0.         -0.          0.          0.         -0.
  -0.         -0.          0.          0.          0.          0.          0.         -0.         -0.         -0.         -0.         -0.          0.
  -0.          0.        ]
 [-0.00287046  0.00234297  0.00030398 -0.          0.         -0.          0.         -0.00034397 -0.00001641 -0.          0.          0.         -0.
  -0.         -0.          0.          0.          0.00001407  0.00012295  0.00029965 -0.00004649 -0.         -0.         -0.         -0.          0.0001367
  -0.00006908  0.00003394]
 [-0.02508095  0.02047192  0.00265602 -0.          0.         -0.          0.         -0.00300551 -0.00014335 -0.          0.          0.         -0.
  -0.         -0.          0.          0.          0.00012295  0.00107433  0.00261823 -0.00040622 -0.         -0.         -0.         -0.          0.00119444
  -0.00060363  0.00029658]
 [-0.06112426  0.04989171  0.00647294 -0.          0.         -0.          0.         -0.00732468 -0.00034936 -0.          0.          0.         -0.
  -0.         -0.          0.          0.          0.00029965  0.00261823  0.00638083 -0.00099    -0.         -0.         -0.         -0.          0.00291095
  -0.00147109  0.0007228 ]
 [ 0.00948353 -0.00774078 -0.00100429  0.         -0.          0.         -0.          0.00113644  0.0000542   0.         -0.         -0.          0.
   0.          0.         -0.         -0.         -0.00004649 -0.00040622 -0.00099     0.0001536   0.          0.          0.          0.         -0.00045164
   0.00022824 -0.00011214]
 [ 0.         -0.         -0.          0.         -0.          0.         -0.          0.          0.          0.         -0.         -0.          0.
   0.          0.         -0.         -0.         -0.         -0.         -0.          0.          0.          0.          0.          0.         -0.
   0.         -0.        ]
 [ 0.         -0.         -0.          0.         -0.          0.         -0.          0.          0.          0.         -0.         -0.          0.
   0.          0.         -0.         -0.         -0.         -0.         -0.          0.          0.          0.          0.          0.         -0.
   0.         -0.        ]
 [ 0.         -0.         -0.          0.         -0.          0.         -0.          0.          0.          0.         -0.         -0.          0.
   0.          0.         -0.         -0.         -0.         -0.         -0.          0.          0.          0.          0.          0.         -0.
   0.         -0.        ]
 [ 0.         -0.         -0.          0.         -0.          0.         -0.          0.          0.          0.         -0.         -0.          0.
   0.          0.         -0.         -0.         -0.         -0.         -0.          0.          0.          0.          0.          0.         -0.
   0.         -0.        ]
 [-0.02788503  0.02276071  0.00295297 -0.          0.         -0.          0.         -0.00334153 -0.00015938 -0.          0.          0.         -0.
  -0.         -0.          0.          0.          0.0001367   0.00119444  0.00291095 -0.00045164 -0.         -0.         -0.         -0.          0.00132798
  -0.00067111  0.00032974]
 [ 0.0140921  -0.01150245 -0.00149232  0.         -0.          0.         -0.          0.00168869  0.00008054  0.         -0.         -0.          0.
   0.          0.         -0.         -0.         -0.00006908 -0.00060363 -0.00147109  0.00022824  0.          0.          0.          0.         -0.00067111
   0.00033916 -0.00016664]
 [-0.00692396  0.00565157  0.00073323 -0.          0.         -0.          0.         -0.00082972 -0.00003957 -0.          0.          0.         -0.
  -0.         -0.          0.          0.          0.00003394  0.00029658  0.0007228  -0.00011214 -0.         -0.         -0.         -0.          0.00032974
  -0.00016664  0.00008188]] 
 [[ 0.58553126  0.47793059 -0.06200657  0.          0.         -0.          0.         -0.07016571  0.00334666 -0.         -0.          0.          0.
   0.         -0.          0.          0.          0.00287046 -0.02508095  0.06112426  0.00948353  0.         -0.         -0.         -0.          0.02788503
   0.0140921   0.00692396]
 [ 0.47793059  0.39010326 -0.05061188  0.          0.         -0.          0.         -0.05727165  0.00273166 -0.         -0.          0.          0.
   0.         -0.          0.          0.          0.00234297 -0.02047192  0.04989171  0.00774078  0.         -0.         -0.         -0.          0.02276071
   0.01150245  0.00565157]
 [-0.06200657 -0.05061188  0.00656637 -0.         -0.          0.         -0.          0.00743041 -0.0003544   0.          0.         -0.         -0.
  -0.          0.         -0.         -0.         -0.00030398  0.00265602 -0.00647294 -0.00100429 -0.          0.          0.          0.         -0.00295297
  -0.00149232 -0.00073323]
 [ 0.          0.         -0.          0.          0.         -0.          0.         -0.          0.         -0.         -0.          0.          0.
   0.         -0.          0.          0.          0.         -0.          0.          0.          0.         -0.         -0.         -0.          0.
   0.          0.        ]
 [ 0.          0.         -0.          0.          0.         -0.          0.         -0.          0.         -0.         -0.          0.          0.
   0.         -0.          0.          0.          0.         -0.          0.          0.          0.         -0.         -0.         -0.          0.
   0.          0.        ]
 [-0.         -0.          0.         -0.         -0.          0.         -0.          0.         -0.          0.          0.         -0.         -0.
  -0.          0.         -0.         -0.         -0.          0.         -0.         -0.         -0.          0.          0.          0.         -0.
  -0.         -0.        ]
 [ 0.          0.         -0.          0.          0.         -0.          0.         -0.          0.         -0.         -0.          0.          0.
   0.         -0.          0.          0.          0.         -0.          0.          0.          0.         -0.         -0.         -0.          0.
   0.          0.        ]
 [-0.07016571 -0.05727165  0.00743041 -0.         -0.          0.         -0.          0.00840814 -0.00040104  0.          0.         -0.         -0.
  -0.          0.         -0.         -0.         -0.00034397  0.00300551 -0.00732468 -0.00113644 -0.          0.          0.          0.         -0.00334153
  -0.00168869 -0.00082972]
 [ 0.00334666  0.00273166 -0.0003544   0.          0.         -0.          0.         -0.00040104  0.00001913 -0.         -0.          0.          0.
   0.         -0.          0.          0.          0.00001641 -0.00014335  0.00034936  0.0000542   0.         -0.         -0.         -0.          0.00015938
   0.00008054  0.00003957]
 [-0.         -0.          0.         -0.         -0.          0.         -0.          0.         -0.          0.          0.         -0.         -0.
  -0.          0.         -0.         -0.         -0.          0.         -0.         -0.         -0.          0.          0.          0.         -0.
  -0.         -0.        ]
 [-0.         -0.          0.         -0.         -0.          0.         -0.          0.         -0.          0.          0.         -0.         -0.
  -0.          0.         -0.         -0.         -0.          0.         -0.         -0.         -0.          0.          0.          0.         -0.
  -0.         -0.        ]
 [ 0.          0.         -0.          0.          0.         -0.          0.         -0.          0.         -0.         -0.          0.          0.
   0.         -0.          0.          0.          0.         -0.          0.          0.          0.         -0.         -0.         -0.          0.
   0.          0.        ]
 [ 0.          0.         -0.          0.          0.         -0.          0.         -0.          0.         -0.         -0.          0.          0.
   0.         -0.          0.          0.          0.         -0.          0.          0.          0.         -0.         -0.         -0.          0.
   0.          0.        ]
 [ 0.          0.         -0.          0.          0.         -0.          0.         -0.          0.         -0.         -0.          0.          0.
   0.         -0.          0.          0.          0.         -0.          0.          0.          0.         -0.         -0.         -0.          0.
   0.          0.        ]
 [-0.         -0.          0.         -0.         -0.          0.         -0.          0.         -0.          0.          0.         -0.         -0.
  -0.          0.         -0.         -0.         -0.          0.         -0.         -0.         -0.          0.          0.          0.         -0.
  -0.         -0.        ]
 [ 0.          0.         -0.          0.          0.         -0.          0.         -0.          0.         -0.         -0.          0.          0.
   0.         -0.          0.          0.          0.         -0.          0.          0.          0.         -0.         -0.         -0.          0.
   0.          0.        ]
 [ 0.          0.         -0.          0.          0.         -0.          0.         -0.          0.         -0.         -0.          0.          0.
   0.         -0.          0.          0.          0.         -0.          0.          0.          0.         -0.         -0.         -0.          0.
   0.          0.        ]
 [ 0.00287046  0.00234297 -0.00030398  0.          0.         -0.          0.         -0.00034397  0.00001641 -0.         -0.          0.          0.
   0.         -0.          0.          0.          0.00001407 -0.00012295  0.00029965  0.00004649  0.         -0.         -0.         -0.          0.0001367
   0.00006908  0.00003394]
 [-0.02508095 -0.02047192  0.00265602 -0.         -0.          0.         -0.          0.00300551 -0.00014335  0.          0.         -0.         -0.
  -0.          0.         -0.         -0.         -0.00012295  0.00107433 -0.00261823 -0.00040622 -0.          0.          0.          0.         -0.00119444
  -0.00060363 -0.00029658]
 [ 0.06112426  0.04989171 -0.00647294  0.          0.         -0.          0.         -0.00732468  0.00034936 -0.         -0.          0.          0.
   0.         -0.          0.          0.          0.00029965 -0.00261823  0.00638083  0.00099     0.         -0.         -0.         -0.          0.00291095
   0.00147109  0.0007228 ]
 [ 0.00948353  0.00774078 -0.00100429  0.          0.         -0.          0.         -0.00113644  0.0000542  -0.         -0.          0.          0.
   0.         -0.          0.          0.          0.00004649 -0.00040622  0.00099     0.0001536   0.         -0.         -0.         -0.          0.00045164
   0.00022824  0.00011214]
 [ 0.          0.         -0.          0.          0.         -0.          0.         -0.          0.         -0.         -0.          0.          0.
   0.         -0.          0.          0.          0.         -0.          0.          0.          0.         -0.         -0.         -0.          0.
   0.          0.        ]
 [-0.         -0.          0.         -0.         -0.          0.         -0.          0.         -0.          0.          0.         -0.         -0.
  -0.          0.         -0.         -0.         -0.          0.         -0.         -0.         -0.          0.          0.          0.         -0.
  -0.         -0.        ]
 [-0.         -0.          0.         -0.         -0.          0.         -0.          0.         -0.          0.          0.         -0.         -0.
  -0.          0.         -0.         -0.         -0.          0.         -0.         -0.         -0.          0.          0.          0.         -0.
  -0.         -0.        ]
 [-0.         -0.          0.         -0.         -0.          0.         -0.          0.         -0.          0.          0.         -0.         -0.
  -0.          0.         -0.         -0.         -0.          0.         -0.         -0.         -0.          0.          0.          0.         -0.
  -0.         -0.        ]
 [ 0.02788503  0.02276071 -0.00295297  0.          0.         -0.          0.         -0.00334153  0.00015938 -0.         -0.          0.          0.
   0.         -0.          0.          0.          0.0001367  -0.00119444  0.00291095  0.00045164  0.         -0.         -0.         -0.          0.00132798
   0.00067111  0.00032974]
 [ 0.0140921   0.01150245 -0.00149232  0.          0.         -0.          0.         -0.00168869  0.00008054 -0.         -0.          0.          0.
   0.         -0.          0.          0.          0.00006908 -0.00060363  0.00147109  0.00022824  0.         -0.         -0.         -0.          0.00067111
   0.00033916  0.00016664]
 [ 0.00692396  0.00565157 -0.00073323  0.          0.         -0.          0.         -0.00082972  0.00003957 -0.         -0.          0.          0.
   0.         -0.          0.          0.          0.00003394 -0.00029658  0.0007228   0.00011214  0.         -0.         -0.         -0.          0.00032974
[...]
 [ 0.51937066 -0.11739227  0.         ...  0.          0.          0.        ]]
Hsp + Hph =  -1.2260004085583027
Feff (mod,ortho)
[[-0.21712424  0.30715848  0.15488733 ...  0.          0.          0.        ]
 [ 0.30715848 -0.03666976 -0.06534725 ...  0.          0.          0.        ]
 [ 0.15488733 -0.06534725  1.4064126  ...  0.          0.          0.        ]
 ...
 [ 0.          0.          0.         ...  3.17733051 -0.01068265  0.04493644]
 [ 0.          0.          0.         ... -0.01068265  1.83041499 -0.01898562]
 [ 0.          0.          0.         ...  0.04493644 -0.01898562  1.61209214]]
E(SUHF) =     -1.00550990
e_a, e_b
[-0.49912221  0.0619027   0.36840356  0.50353516  0.66251018  0.72955664  0.72955664  0.84323972  0.84323972  1.02404579  2.47905757  2.61809378  3.41918126
  3.42882973  3.42882973  3.42955253  3.42955253  3.48410545  3.48510517  3.48510517  3.48558856  3.48558856  3.81525344  3.83979081  3.83979081  3.94184709
  3.94184709  4.14506218] [-0.49912221  0.0619027   0.36840356  0.50353516  0.66251018  0.72955664  0.72955664  0.84323972  0.84323972  1.02404579  2.47905757  2.61809378  3.41918126
  3.42882973  3.42882973  3.42955253  3.42955253  3.48410545  3.48510517  3.48510517  3.48558856  3.48558856  3.81525344  3.83979081  3.83979081  3.94184709
  3.94184709  4.14506218]
P_a, P_b
[[ 0.57982623 -0.47838164 -0.06714536 -0.          0.          0.          0.          0.07276579  0.00417747 -0.         -0.          0.         -0.
  -0.          0.          0.         -0.         -0.00323893 -0.0135366  -0.05826457  0.01067441  0.          0.          0.         -0.         -0.02853336
   0.01889389 -0.0091874 ]
 [-0.47838164  0.39468548  0.05539781  0.         -0.         -0.         -0.         -0.06003491 -0.0034466   0.          0.         -0.          0.
   0.         -0.         -0.          0.          0.00267226  0.01116828  0.04807078 -0.00880685 -0.         -0.         -0.          0.          0.02354125
  -0.01558827  0.00758   ]
 [-0.06714536  0.05539781  0.0077756   0.         -0.         -0.         -0.         -0.00842646 -0.00048376  0.          0.         -0.          0.
   0.         -0.         -0.          0.          0.00037508  0.00156757  0.00674719 -0.00123612 -0.         -0.         -0.          0.          0.00330424
  -0.00218796  0.00106392]
 [-0.          0.          0.          0.         -0.         -0.         -0.         -0.         -0.          0.          0.         -0.          0.
   0.         -0.         -0.          0.          0.          0.          0.         -0.         -0.         -0.         -0.          0.          0.
  -0.          0.        ]
 [ 0.         -0.         -0.         -0.          0.          0.          0.          0.          0.         -0.         -0.          0.         -0.
  -0.          0.          0.         -0.         -0.         -0.         -0.          0.          0.          0.          0.         -0.         -0.
   0.         -0.        ]
 [ 0.         -0.         -0.         -0.          0.          0.          0.          0.          0.         -0.         -0.          0.         -0.
  -0.          0.          0.         -0.         -0.         -0.         -0.          0.          0.          0.          0.         -0.         -0.
   0.         -0.        ]
 [ 0.         -0.         -0.         -0.          0.          0.          0.          0.          0.         -0.         -0.          0.         -0.
  -0.          0.          0.         -0.         -0.         -0.         -0.          0.          0.          0.          0.         -0.         -0.
   0.         -0.        ]
 [ 0.07276579 -0.06003491 -0.00842646 -0.          0.          0.          0.          0.00913181  0.00052426 -0.         -0.          0.         -0.
  -0.          0.          0.         -0.         -0.00040647 -0.00169879 -0.00731196  0.00133959  0.          0.          0.         -0.         -0.00358082
   0.0023711  -0.00115298]
 [ 0.00417747 -0.0034466  -0.00048376 -0.          0.          0.          0.          0.00052426  0.0000301  -0.         -0.          0.         -0.
  -0.          0.          0.         -0.         -0.00002334 -0.00009753 -0.00041978  0.00007691  0.          0.          0.         -0.         -0.00020557
   0.00013612 -0.00006619]
 [-0.          0.          0.          0.         -0.         -0.         -0.         -0.         -0.          0.          0.         -0.          0.
   0.         -0.         -0.          0.          0.          0.          0.         -0.         -0.         -0.         -0.          0.          0.
  -0.          0.        ]
 [-0.          0.          0.          0.         -0.         -0.         -0.         -0.         -0.          0.          0.         -0.          0.
   0.         -0.         -0.          0.          0.          0.          0.         -0.         -0.         -0.         -0.          0.          0.
  -0.          0.        ]
 [ 0.         -0.         -0.         -0.          0.          0.          0.          0.          0.         -0.         -0.          0.         -0.
  -0.          0.          0.         -0.         -0.         -0.         -0.          0.          0.          0.          0.         -0.         -0.
   0.         -0.        ]
 [-0.          0.          0.          0.         -0.         -0.         -0.         -0.         -0.          0.          0.         -0.          0.
   0.         -0.         -0.          0.          0.          0.          0.         -0.         -0.         -0.         -0.          0.          0.
  -0.          0.        ]
 [-0.          0.          0.          0.         -0.         -0.         -0.         -0.         -0.          0.          0.         -0.          0.
   0.         -0.         -0.          0.          0.          0.          0.         -0.         -0.         -0.         -0.          0.          0.
  -0.          0.        ]
 [ 0.         -0.         -0.         -0.          0.          0.          0.          0.          0.         -0.         -0.          0.         -0.
  -0.          0.          0.         -0.         -0.         -0.         -0.          0.          0.          0.          0.         -0.         -0.
   0.         -0.        ]
 [ 0.         -0.         -0.         -0.          0.          0.          0.          0.          0.         -0.         -0.          0.         -0.
  -0.          0.          0.         -0.         -0.         -0.         -0.          0.          0.          0.          0.         -0.         -0.
   0.         -0.        ]
 [-0.          0.          0.          0.         -0.         -0.         -0.         -0.         -0.          0.          0.         -0.          0.
   0.         -0.         -0.          0.          0.          0.          0.         -0.         -0.         -0.         -0.          0.          0.
  -0.          0.        ]
 [-0.00323893  0.00267226  0.00037508  0.         -0.         -0.         -0.         -0.00040647 -0.00002334  0.          0.         -0.          0.
   0.         -0.         -0.          0.          0.00001809  0.00007562  0.00032547 -0.00005963 -0.         -0.         -0.          0.          0.00015939
  -0.00010554  0.00005132]
 [-0.0135366   0.01116828  0.00156757  0.         -0.         -0.         -0.         -0.00169879 -0.00009753  0.          0.         -0.          0.
   0.         -0.         -0.          0.          0.00007562  0.00031602  0.00136024 -0.0002492  -0.         -0.         -0.          0.          0.00066614
  -0.0004411   0.00021449]
 [-0.05826457  0.04807078  0.00674719  0.         -0.         -0.         -0.         -0.00731196 -0.00041978  0.          0.         -0.          0.
   0.         -0.         -0.          0.          0.00032547  0.00136024  0.00585479 -0.00107263 -0.         -0.         -0.          0.          0.00286721
  -0.00189858  0.00092321]
 [ 0.01067441 -0.00880685 -0.00123612 -0.          0.          0.          0.          0.00133959  0.00007691 -0.         -0.          0.         -0.
  -0.          0.          0.         -0.         -0.00005963 -0.0002492  -0.00107263  0.00019651  0.          0.          0.         -0.         -0.00052529
   0.00034783 -0.00016914]
 [ 0.         -0.         -0.         -0.          0.          0.          0.          0.          0.         -0.         -0.          0.         -0.
  -0.          0.          0.         -0.         -0.         -0.         -0.          0.          0.          0.          0.         -0.         -0.
   0.         -0.        ]
 [ 0.         -0.         -0.         -0.          0.          0.          0.          0.          0.         -0.         -0.          0.         -0.
  -0.          0.          0.         -0.         -0.         -0.         -0.          0.          0.          0.          0.         -0.         -0.
   0.         -0.        ]
 [ 0.         -0.         -0.         -0.          0.          0.          0.          0.          0.         -0.         -0.          0.         -0.
  -0.          0.          0.         -0.         -0.         -0.         -0.          0.          0.          0.          0.         -0.         -0.
   0.         -0.        ]
 [-0.          0.          0.          0.         -0.         -0.         -0.         -0.         -0.          0.          0.         -0.          0.
   0.         -0.         -0.          0.          0.          0.          0.         -0.         -0.         -0.         -0.          0.          0.
  -0.          0.        ]
 [-0.02853336  0.02354125  0.00330424  0.         -0.         -0.         -0.         -0.00358082 -0.00020557  0.          0.         -0.          0.
   0.         -0.         -0.          0.          0.00015939  0.00066614  0.00286721 -0.00052529 -0.         -0.         -0.          0.          0.00140413
  -0.00092977  0.00045211]
 [ 0.01889389 -0.01558827 -0.00218796 -0.          0.          0.          0.          0.0023711   0.00013612 -0.         -0.          0.         -0.
  -0.          0.          0.         -0.         -0.00010554 -0.0004411  -0.00189858  0.00034783  0.          0.          0.         -0.         -0.00092977
   0.00061567 -0.00029938]
 [-0.0091874   0.00758     0.00106392  0.         -0.         -0.         -0.         -0.00115298 -0.00006619  0.          0.         -0.          0.
   0.         -0.         -0.          0.          0.00005132  0.00021449  0.00092321 -0.00016914 -0.         -0.         -0.          0.          0.00045211
  -0.00029938  0.00014558]] 
 [[ 0.57982623  0.47838164 -0.06714536  0.          0.         -0.          0.         -0.07276579  0.00417747 -0.         -0.         -0.          0.
   0.         -0.          0.          0.          0.00323893 -0.0135366   0.05826457  0.01067441  0.          0.         -0.         -0.          0.02853336
   0.01889389  0.0091874 ]
 [ 0.47838164  0.39468548 -0.05539781  0.          0.         -0.          0.         -0.06003491  0.0034466  -0.         -0.         -0.          0.
   0.         -0.          0.          0.          0.00267226 -0.01116828  0.04807078  0.00880685  0.          0.         -0.         -0.          0.02354125
   0.01558827  0.00758   ]
 [-0.06714536 -0.05539781  0.0077756  -0.         -0.          0.         -0.          0.00842646 -0.00048376  0.          0.          0.         -0.
  -0.          0.         -0.         -0.         -0.00037508  0.00156757 -0.00674719 -0.00123612 -0.         -0.          0.          0.         -0.00330424
  -0.00218796 -0.00106392]
 [ 0.          0.         -0.          0.          0.         -0.          0.         -0.          0.         -0.         -0.         -0.          0.
   0.         -0.          0.          0.          0.         -0.          0.          0.          0.          0.         -0.         -0.          0.
   0.          0.        ]
 [ 0.          0.         -0.          0.          0.         -0.          0.         -0.          0.         -0.         -0.         -0.          0.
   0.         -0.          0.          0.          0.         -0.          0.          0.          0.          0.         -0.         -0.          0.
   0.          0.        ]
 [-0.         -0.          0.         -0.         -0.          0.         -0.          0.         -0.          0.          0.          0.         -0.
  -0.          0.         -0.         -0.         -0.          0.         -0.         -0.         -0.         -0.          0.          0.         -0.
  -0.         -0.        ]
 [ 0.          0.         -0.          0.          0.         -0.          0.         -0.          0.         -0.         -0.         -0.          0.
   0.         -0.          0.          0.          0.         -0.          0.          0.          0.          0.         -0.         -0.          0.
   0.          0.        ]
 [-0.07276579 -0.06003491  0.00842646 -0.         -0.          0.         -0.          0.00913181 -0.00052426  0.          0.          0.         -0.
  -0.          0.         -0.         -0.         -0.00040647  0.00169879 -0.00731196 -0.00133959 -0.         -0.          0.          0.         -0.00358082
  -0.0023711  -0.00115298]
 [ 0.00417747  0.0034466  -0.00048376  0.          0.         -0.          0.         -0.00052426  0.0000301  -0.         -0.         -0.          0.
   0.         -0.          0.          0.          0.00002334 -0.00009753  0.00041978  0.00007691  0.          0.         -0.         -0.          0.00020557
   0.00013612  0.00006619]
 [-0.         -0.          0.         -0.         -0.          0.         -0.          0.         -0.          0.          0.          0.         -0.
  -0.          0.         -0.         -0.         -0.          0.         -0.         -0.         -0.         -0.          0.          0.         -0.
  -0.         -0.        ]
 [-0.         -0.          0.         -0.         -0.          0.         -0.          0.         -0.          0.          0.          0.         -0.
  -0.          0.         -0.         -0.         -0.          0.         -0.         -0.         -0.         -0.          0.          0.         -0.
  -0.         -0.        ]
 [-0.         -0.          0.         -0.         -0.          0.         -0.          0.         -0.          0.          0.          0.         -0.
  -0.          0.         -0.         -0.         -0.          0.         -0.         -0.         -0.         -0.          0.          0.         -0.
  -0.         -0.        ]
 [ 0.          0.         -0.          0.          0.         -0.          0.         -0.          0.         -0.         -0.         -0.          0.
   0.         -0.          0.          0.          0.         -0.          0.          0.          0.          0.         -0.         -0.          0.
   0.          0.        ]
 [ 0.          0.         -0.          0.          0.         -0.          0.         -0.          0.         -0.         -0.         -0.          0.
   0.         -0.          0.          0.          0.         -0.          0.          0.          0.          0.         -0.         -0.          0.
   0.          0.        ]
 [-0.         -0.          0.         -0.         -0.          0.         -0.          0.         -0.          0.          0.          0.         -0.
  -0.          0.         -0.         -0.         -0.          0.         -0.         -0.         -0.         -0.          0.          0.         -0.
  -0.         -0.        ]
 [ 0.          0.         -0.          0.          0.         -0.          0.         -0.          0.         -0.         -0.         -0.          0.
   0.         -0.          0.          0.          0.         -0.          0.          0.          0.          0.         -0.         -0.          0.
   0.          0.        ]
 [ 0.          0.         -0.          0.          0.         -0.          0.         -0.          0.         -0.         -0.         -0.          0.
   0.         -0.          0.          0.          0.         -0.          0.          0.          0.          0.         -0.         -0.          0.
   0.          0.        ]
 [ 0.00323893  0.00267226 -0.00037508  0.          0.         -0.          0.         -0.00040647  0.00002334 -0.         -0.         -0.          0.
   0.         -0.          0.          0.          0.00001809 -0.00007562  0.00032547  0.00005963  0.          0.         -0.         -0.          0.00015939
   0.00010554  0.00005132]
 [-0.0135366  -0.01116828  0.00156757 -0.         -0.          0.         -0.          0.00169879 -0.00009753  0.          0.          0.         -0.
  -0.          0.         -0.         -0.         -0.00007562  0.00031602 -0.00136024 -0.0002492  -0.         -0.          0.          0.         -0.00066614
  -0.0004411  -0.00021449]
 [ 0.05826457  0.04807078 -0.00674719  0.          0.         -0.          0.         -0.00731196  0.00041978 -0.         -0.         -0.          0.
   0.         -0.          0.          0.          0.00032547 -0.00136024  0.00585479  0.00107263  0.          0.         -0.         -0.          0.00286721
   0.00189858  0.00092321]
 [ 0.01067441  0.00880685 -0.00123612  0.          0.         -0.          0.         -0.00133959  0.00007691 -0.         -0.         -0.          0.
   0.         -0.          0.          0.          0.00005963 -0.0002492   0.00107263  0.00019651  0.          0.         -0.         -0.          0.00052529
   0.00034783  0.00016914]
 [ 0.          0.         -0.          0.          0.         -0.          0.         -0.          0.         -0.         -0.         -0.          0.
   0.         -0.          0.          0.          0.         -0.          0.          0.          0.          0.         -0.         -0.          0.
   0.          0.        ]
 [ 0.          0.         -0.          0.          0.         -0.          0.         -0.          0.         -0.         -0.         -0.          0.
   0.         -0.          0.          0.          0.         -0.          0.          0.          0.          0.         -0.         -0.          0.
   0.          0.        ]
 [-0.         -0.          0.         -0.         -0.          0.         -0.          0.         -0.          0.          0.          0.         -0.
  -0.          0.         -0.         -0.         -0.          0.         -0.         -0.         -0.         -0.          0.          0.         -0.
  -0.         -0.        ]
 [-0.         -0.          0.         -0.         -0.          0.         -0.          0.         -0.          0.          0.          0.         -0.
  -0.          0.         -0.         -0.         -0.          0.         -0.         -0.         -0.         -0.          0.          0.         -0.
  -0.         -0.        ]
 [ 0.02853336  0.02354125 -0.00330424  0.          0.         -0.          0.         -0.00358082  0.00020557 -0.         -0.         -0.          0.
   0.         -0.          0.          0.          0.00015939 -0.00066614  0.00286721  0.00052529  0.          0.         -0.         -0.          0.00140413
   0.00092977  0.00045211]
 [ 0.01889389  0.01558827 -0.00218796  0.          0.         -0.          0.         -0.0023711   0.00013612 -0.         -0.         -0.          0.
   0.         -0.          0.          0.          0.00010554 -0.0004411   0.00189858  0.00034783  0.          0.         -0.         -0.          0.00092977
   0.00061567  0.00029938]
 [ 0.0091874   0.00758    -0.00106392  0.          0.         -0.          0.         -0.00115298  0.00006619 -0.         -0.         -0.          0.
   0.         -0.          0.          0.          0.00005132 -0.00021449  0.00092321  0.00016914  0.          0.         -0.         -0.          0.00045211
   0.00029938  0.00014558]]

***************
SUHF converged at cycle 8
Final E(SUHF) =     -1.00550990, delta E = -3.20756e-09
