#INFO: **** input file is /share/home/srwang/ExSCF/test/pytest/scan_h2/scan_suhf.py ****
#import phf
from pyscf import lib
#import scipy
import numpy as np
import sys, os, contextlib

from pyphf import util, sudft

#xyz = 'h2.xyz' #sys.argv[1]
fch = 'test_uhf.fchk' #sys.argv[2]
#bas = '../h2.bas'
bas = 'cc-pvtz'

lib.num_threads(8)

for r in np.arange(0.5, 2.55, 0.1):
    output = 'suhf/suhf_%.1f_diis.out' % r
    os.system("echo '\n' > %s" % output)
    with open(output, 'w', encoding='utf-8') as f:
        with contextlib.redirect_stdout(f):
            xyz = '''H 0.0 0.0 0.0; H 0.0 0.0 %f'''%r
            mf = util.guess_from_fchk(xyz, bas, fch)
            #mf = util.guess(xyz, bas)
            #f.flush()
            mf2 = util.SUHF(mf)
            #mf2.cut_no = False
            mf2.debug = False
            #mf2.max_cycle = 50
            mf2.diis_on = True
            #mf2.output = 'sudft_%.1f.out'%r
            mf2.kernel()
            
            #mf3 = sudft.SUDFT(mf2)
            #mf3.suxc = 'TPSS'
            #mf3.kernel()
                    
#INFO: ******************** input file end ********************


System: uname_result(system='Linux', node='xcluster', release='3.10.0-693.el7.x86_64', version='#1 SMP Thu Jul 6 19:56:57 EDT 2017', machine='x86_64', processor='x86_64')  Threads 8
Python 3.7.4 (default, Aug 13 2019, 20:35:49) 
[GCC 7.3.0]
numpy 1.17.2  scipy 1.4.1
Date: Mon Nov 23 19:28:12 2020
PySCF version 1.7.5
PySCF path  /share/home/srwang/pyscf-1.7.5/pyscf

[CONFIG] conf_file None
[INPUT] verbose = 4
[INPUT] num. atoms = 2
[INPUT] num. electrons = 2
[INPUT] charge = 0
[INPUT] spin (= nelec alpha-beta = 2S) = 0
[INPUT] symmetry False subgroup None
[INPUT] Mole.unit = angstrom
[INPUT]  1 H      0.000000000000   0.000000000000   0.000000000000 AA    0.000000000000   0.000000000000   0.000000000000 Bohr
[INPUT]  2 H      0.000000000000   0.000000000000   1.900000000000 AA    0.000000000000   0.000000000000   3.590479636674 Bohr

nuclear repulsion = 0.278514321536842
number of shells = 12
number of NR pGTOs = 32
number of NR cGTOs = 28
basis = cc-pvtz
ecp = {}
CPU time:       784.35


******** <class 'pyscf.scf.uhf.UHF'> ********
method = UHF
initial guess = minao
damping factor = 0
level_shift factor = 0
DIIS = <class 'pyscf.scf.diis.CDIIS'>
diis_start_cycle = 1
diis_space = 8
SCF conv_tol = 1e-09
SCF conv_tol_grad = None
SCF max_cycles = 1
direct_scf = True
direct_scf_tol = 1e-13
chkfile to save SCF result = /share/home/srwang/ExSCF/test/pytest/scan_h2/tmpfk0ftzk6
max_memory 4000 MB (current use 122 MB)
number electrons alpha = 1  beta = 1
Set gradient conv threshold to 3.16228e-05
init E= -0.656273041701841
  alpha nocc = 1  HOMO = -0.26503152075914  LUMO = -0.0905188469787924
  beta  nocc = 1  HOMO = -0.263499508515099  LUMO = -0.0900736322131255
cycle= 1 E= -0.937637203283124  delta_E= -0.281  |g|= 0.0348  |ddm|= 0.412
SCF not converged.
SCF energy = -0.937637203283124 after 1 cycles  <S^2> = 2.846439e-07  2S+1 = 1.0000006


******** <class 'pyscf.scf.uhf.UHF'> ********
method = UHF
initial guess = minao
damping factor = 0
level_shift factor = 0
DIIS = <class 'pyscf.scf.diis.CDIIS'>
diis_start_cycle = 1
diis_space = 8
SCF conv_tol = 1e-09
SCF conv_tol_grad = None
SCF max_cycles = 1
direct_scf = True
direct_scf_tol = 1e-13
chkfile to save SCF result = /share/home/srwang/ExSCF/test/pytest/scan_h2/tmpfk0ftzk6
max_memory 4000 MB (current use 125 MB)
number electrons alpha = 1  beta = 1
Set gradient conv threshold to 3.16228e-05
init E= -0.916238026774223
  alpha nocc = 1  HOMO = -0.4897069143452  LUMO = -0.00575716270591493
  beta  nocc = 1  HOMO = -0.489706914345199  LUMO = -0.00575716270591798
cycle= 1 E= -0.99905178044455  delta_E= -0.0828  |g|= 0.0419  |ddm|= 0.0844
SCF not converged.
SCF energy = -0.99905178044455 after 1 cycles  <S^2> = 0.69324917  2S+1 = 1.9424203

******** <class 'pyphf.util.SUHF'> ********
max_cycle = 70
verbose: normal
DIIS: <class 'pyscf.scf.diis.CDIIS'>
diis_start_cyc = 40
SVD: S^(-1/2)
[[-0.16524896  0.29579184  0.09453099  0.          0.          0.          0.          0.18640501 -0.01931014  0.         -0.          0.         -0.
   0.          0.          0.         -0.          0.07906917 -0.67643474  0.63350368 -0.03042819 -0.         -0.          0.         -0.          0.47888884
  -0.83402284  0.72702009]
 [-0.2439197   0.31664476  0.08489429 -0.         -0.          0.          0.          0.12009544  0.00500539 -0.          0.          0.          0.
  -0.         -0.         -0.          0.          0.00691365 -0.05179692 -0.23221988 -0.00553014  0.          0.         -0.         -0.         -0.52309661
   1.6652921  -1.61315437]
 [-0.26797786  0.1930611   0.07798175  0.         -0.         -0.          0.          0.01152201 -0.0153427  -0.         -0.         -0.         -0.
   0.          0.         -0.         -0.         -0.01693526  0.48330935 -0.58150842  0.12183762 -0.          0.          0.          0.         -0.39891883
  -0.97844088  1.70563345]
 [ 0.          0.         -0.         -0.03761242 -0.37141003  0.00663732  0.41219174 -0.          0.          0.03135732  0.02782538 -0.         -0.
  -0.          0.          0.03699926 -0.0250028   0.          0.         -0.          0.          0.01217216 -0.8028661  -0.24463279 -0.77237999 -0.
  -0.          0.        ]
 [ 0.          0.          0.         -0.37141003  0.03761242  0.41219174 -0.00663732 -0.         -0.          0.02782538 -0.03135732  0.          0.
   0.         -0.          0.0250028   0.03699926  0.          0.          0.         -0.         -0.8028661  -0.01217216  0.77237999 -0.24463279 -0.
  -0.         -0.        ]
 [-0.05144146 -0.10973719 -0.32010679 -0.          0.          0.          0.          0.45195305 -0.10083971 -0.          0.          0.         -0.
   0.          0.          0.          0.          0.15796354 -0.09367566 -0.39295506  0.81790809 -0.          0.          0.          0.          0.73687261
   0.06406142 -0.14392006]
 [-0.         -0.         -0.         -0.04021717 -0.39713106  0.00621445  0.38593084 -0.          0.          0.0021106   0.00187287  0.         -0.
   0.          0.          0.00082203 -0.0005555  -0.         -0.          0.         -0.         -0.01142468  0.7535631   0.26230681  0.82818221  0.
   0.         -0.        ]
 [-0.         -0.         -0.         -0.39713106  0.04021717  0.38593084 -0.00621445 -0.          0.          0.00187287 -0.0021106  -0.          0.
  -0.         -0.          0.0005555   0.00082203  0.         -0.         -0.          0.          0.7535631   0.01142468 -0.82818221  0.26230681  0.
   0.          0.        ]
 [-0.10343613 -0.14833603 -0.38410694  0.         -0.         -0.          0.          0.31435889 -0.01809272  0.         -0.         -0.          0.
  -0.         -0.         -0.         -0.          0.00138193  0.00128501  0.30118921 -0.68017053  0.         -0.         -0.         -0.         -1.2159317
  -0.0822041   0.33227406]
 [ 0.          0.          0.          0.         -0.          0.         -0.          0.          0.         -0.          0.          0.70671848 -0.
   0.          0.70749572 -0.         -0.          0.          0.         -0.         -0.          0.         -0.          0.          0.          0.
   0.          0.        ]
 [-0.         -0.         -0.         -0.02380783  0.002411   -0.02643707  0.0004257   0.         -0.         -0.46532602  0.52439079  0.          0.
  -0.          0.          0.39793858  0.58887133 -0.          0.          0.         -0.         -0.04497649 -0.00068188 -0.04737316  0.01500431 -0.
   0.          0.        ]
 [-0.01920883 -0.00676793 -0.05354953  0.         -0.         -0.         -0.         -0.1237721   0.68407865 -0.         -0.         -0.          0.
  -0.          0.          0.          0.          0.70452538 -0.02165028  0.00471698  0.10449224 -0.          0.          0.          0.         -0.22103292
  -0.05040329  0.00685313]
 [-0.         -0.         -0.         -0.002411   -0.02380783 -0.0004257  -0.02643707  0.         -0.         -0.52439079 -0.46532602 -0.         -0.
   0.          0.          0.58887133 -0.39793858 -0.         -0.         -0.          0.          0.00068188 -0.04497649  0.01500431  0.04737316  0.
   0.         -0.        ]
 [ 0.          0.          0.          0.         -0.         -0.          0.          0.          0.         -0.         -0.          0.          0.70671848
  -0.70749572  0.          0.         -0.          0.          0.          0.          0.          0.         -0.         -0.          0.          0.
   0.          0.        ]
 [-0.16524896 -0.29579184  0.09453099 -0.         -0.         -0.          0.         -0.18640501 -0.01931014 -0.         -0.         -0.          0.
  -0.         -0.         -0.         -0.         -0.07906917 -0.67643474 -0.63350368 -0.03042819  0.          0.         -0.          0.         -0.47888884
  -0.83402284 -0.72702009]
 [-0.2439197  -0.31664476  0.08489429 -0.          0.          0.          0.         -0.12009544  0.00500539  0.          0.          0.         -0.
   0.          0.          0.          0.         -0.00691365 -0.05179692  0.23221988 -0.00553014 -0.         -0.          0.         -0.          0.52309661
   1.6652921   1.61315437]
 [-0.26797786 -0.1930611   0.07798175  0.          0.          0.         -0.         -0.01152201 -0.0153427   0.          0.          0.          0.
  -0.         -0.          0.          0.          0.01693526  0.48330935  0.58150842  0.12183762  0.         -0.         -0.         -0.          0.39891883
  -0.97844088 -1.70563345]
 [-0.         -0.         -0.         -0.03761242 -0.37141003 -0.00663732 -0.41219174  0.          0.          0.03135732  0.02782538  0.          0.
  -0.         -0.         -0.03699926  0.0250028   0.         -0.         -0.          0.          0.01217216 -0.8028661   0.24463279  0.77237999  0.
   0.         -0.        ]
 [-0.         -0.         -0.         -0.37141003  0.03761242 -0.41219174  0.00663732  0.          0.          0.02782538 -0.03135732 -0.         -0.
   0.         -0.         -0.0250028  -0.03699926 -0.          0.          0.         -0.         -0.8028661  -0.01217216 -0.77237999  0.24463279  0.
   0.          0.        ]
 [ 0.05144146 -0.10973719  0.32010679  0.         -0.         -0.          0.          0.45195305  0.10083971  0.         -0.         -0.          0.
  -0.         -0.         -0.         -0.          0.15796354  0.09367566 -0.39295506 -0.81790809  0.         -0.         -0.         -0.          0.73687261
  -0.06406142 -0.14392006]
 [-0.         -0.         -0.         -0.04021717 -0.39713106 -0.00621445 -0.38593084  0.         -0.          0.0021106   0.00187287  0.          0.
  -0.          0.         -0.00082203  0.0005555   0.          0.          0.         -0.         -0.01142468  0.7535631  -0.26230681 -0.82818221  0.
   0.          0.        ]
 [-0.         -0.         -0.         -0.39713106  0.04021717 -0.38593084  0.00621445  0.         -0.          0.00187287 -0.0021106   0.         -0.
   0.          0.         -0.0005555  -0.00082203  0.         -0.         -0.          0.          0.7535631   0.01142468  0.82818221 -0.26230681 -0.
  -0.         -0.        ]
 [ 0.10343613 -0.14833603  0.38410694  0.         -0.          0.          0.          0.31435889  0.01809272 -0.          0.          0.         -0.
   0.          0.          0.          0.          0.00138193 -0.00128501  0.30118921  0.68017053 -0.          0.          0.          0.         -1.2159317
   0.0822041   0.33227406]
 [-0.         -0.          0.          0.         -0.          0.         -0.          0.          0.         -0.          0.          0.70671848 -0.
  -0.         -0.70749572 -0.         -0.          0.         -0.         -0.          0.         -0.          0.          0.          0.          0.
   0.         -0.        ]
 [ 0.          0.          0.          0.02380783 -0.002411   -0.02643707  0.0004257   0.          0.          0.46532602 -0.52439079  0.          0.
   0.         -0.          0.39793858  0.58887133 -0.         -0.         -0.          0.          0.04497649  0.00068188 -0.04737316  0.01500431  0.
   0.          0.        ]
 [-0.01920883  0.00676793 -0.05354953 -0.         -0.          0.          0.          0.1237721   0.68407865 -0.         -0.          0.         -0.
   0.          0.         -0.          0.         -0.70452538 -0.02165028 -0.00471698  0.10449224 -0.          0.          0.          0.          0.22103292
  -0.05040329 -0.00685313]
 [ 0.          0.          0.          0.002411    0.02380783 -0.0004257  -0.02643707  0.          0.          0.52439079  0.46532602 -0.         -0.
  -0.          0.          0.58887133 -0.39793858 -0.         -0.         -0.         -0.         -0.00068188  0.04497649  0.01500431  0.04737316 -0.
   0.         -0.        ]
 [ 0.          0.          0.          0.         -0.          0.         -0.          0.          0.         -0.          0.          0.          0.70671848
   0.70749572 -0.          0.         -0.          0.          0.          0.         -0.         -0.          0.         -0.          0.         -0.
  -0.         -0.        ]]
C (ortho)
[[-0.86478023 -0.44734117  0.00042091  0.15534028 -0.14599476  0.          0.          0.          0.          0.0191307   0.02974321  0.01731455 -0.02053557
  -0.          0.         -0.         -0.         -0.          0.         -0.         -0.         -0.00331238 -0.         -0.          0.         -0.
   0.06780579 -0.00387829]
 [ 0.45113284 -0.78871721 -0.06153647  0.2953432   0.04349169  0.         -0.          0.          0.         -0.20739578 -0.01473321  0.13808899 -0.00730323
  -0.         -0.          0.          0.         -0.         -0.          0.          0.         -0.11696398 -0.         -0.         -0.         -0.
  -0.00641577  0.07365275]
 [ 0.16769975  0.06305874  0.11293844  0.10657428 -0.87943672  0.          0.         -0.         -0.          0.04689776 -0.02222371 -0.01098266 -0.01887129
  -0.          0.         -0.         -0.         -0.          0.         -0.         -0.         -0.02196045 -0.         -0.          0.         -0.
   0.40789629 -0.01861714]
 [-0.          0.          0.         -0.         -0.          0.07876011 -0.84926382  0.10396506 -0.13362059 -0.         -0.          0.         -0.
   0.05925498  0.01684753 -0.          0.         -0.         -0.         -0.01773667 -0.01077876  0.         -0.40932887  0.24158135 -0.11618421  0.01576105
  -0.          0.        ]
 [-0.          0.          0.          0.          0.         -0.84926382 -0.07876011 -0.13362059 -0.10396506 -0.         -0.         -0.         -0.
  -0.01684753  0.05925498 -0.         -0.         -0.         -0.          0.01077876 -0.01773667  0.         -0.24158135 -0.40932887 -0.01576105 -0.11618421
  -0.         -0.        ]
 [ 0.          0.          0.          0.          0.         -0.03034096  0.16933202  0.56913775 -0.61579373  0.          0.         -0.          0.
   0.00473934  0.00092223 -0.         -0.          0.         -0.          0.08840116  0.04393549 -0.          0.08849755 -0.06291215 -0.48379907  0.10801249
   0.         -0.        ]
 [ 0.         -0.          0.          0.          0.          0.16933202  0.03034096 -0.61579373 -0.56913775  0.          0.          0.          0.
  -0.00092223  0.00473934  0.          0.          0.          0.         -0.04393549  0.08840116  0.          0.06291215  0.08849755 -0.10801249 -0.48379907
   0.          0.        ]
 [ 0.10875386 -0.1116339  -0.16780398  0.23904735  0.06581229  0.         -0.          0.          0.          0.78220144  0.00655317  0.02789251  0.00483612
   0.          0.         -0.          0.          0.          0.         -0.         -0.          0.24124058  0.          0.          0.          0.
   0.00165641 -0.4638903 ]
 [-0.00833741 -0.0101322  -0.03657319 -0.02724059 -0.02031364  0.          0.         -0.         -0.         -0.00444694  0.20340623  0.06297276  0.97440906
   0.          0.         -0.         -0.         -0.          0.          0.         -0.         -0.03438276 -0.         -0.          0.          0.
   0.03442871 -0.01164345]
 [-0.          0.         -0.          0.          0.         -0.00865525 -0.01134755 -0.00036477 -0.00439207  0.         -0.          0.          0.
  -0.51675853 -0.8434166   0.         -0.         -0.         -0.          0.0285698   0.09911342  0.         -0.10096648 -0.02161595 -0.00755086 -0.00526899
  -0.          0.        ]
 [ 0.          0.          0.          0.         -0.         -0.01134755  0.00865525 -0.00439207  0.00036477  0.          0.          0.          0.
   0.8434166  -0.51675853  0.          0.          0.         -0.         -0.09911342  0.0285698   0.          0.02161595 -0.10096648  0.00526899 -0.00755086
   0.          0.        ]
 [-0.          0.          0.          0.         -0.         -0.          0.         -0.          0.         -0.         -0.         -0.          0.
  -0.          0.          0.82793444  0.00534077 -0.03096118  0.55994415  0.         -0.          0.         -0.         -0.          0.         -0.
   0.         -0.        ]
 [-0.         -0.         -0.         -0.         -0.          0.         -0.         -0.          0.         -0.          0.         -0.          0.
  -0.          0.         -0.00534077  0.82793444  0.55994415  0.03096118  0.         -0.         -0.         -0.          0.          0.         -0.
  -0.          0.        ]
 [-0.         -0.         -0.         -0.         -0.          0.         -0.         -0.          0.          0.          0.         -0.          0.
  -0.          0.          0.00361748 -0.5607878   0.82668889  0.04571039 -0.          0.         -0.         -0.          0.         -0.          0.
  -0.          0.        ]
 [-0.          0.          0.          0.         -0.          0.         -0.          0.          0.          0.         -0.         -0.          0.
  -0.          0.          0.5607878   0.00361748  0.04571039 -0.82668889  0.          0.          0.         -0.          0.          0.          0.
   0.          0.        ]
 [-0.          0.         -0.          0.         -0.         -0.00237156 -0.00238238  0.00484126  0.022236   -0.          0.          0.          0.
   0.04380406  0.0985689  -0.          0.          0.          0.          0.14581902  0.97053638  0.         -0.06223252 -0.02218367  0.10505708  0.09607372
  -0.          0.        ]
 [ 0.          0.          0.          0.         -0.          0.00238238 -0.00237156 -0.022236    0.00484126 -0.          0.          0.         -0.
   0.0985689  -0.04380406 -0.         -0.         -0.         -0.          0.97053638 -0.14581902  0.         -0.02218367  0.06223252  0.09607372 -0.10505708
  -0.         -0.        ]
 [ 0.01009515  0.00175722 -0.04017226  0.05145254  0.00039177  0.          0.          0.          0.         -0.07722143 -0.05340027  0.26758185  0.02635575
   0.          0.         -0.          0.          0.          0.         -0.         -0.          0.87328437  0.          0.          0.          0.
   0.07298514  0.38284702]
 [ 0.00700856  0.14208003  0.62821895  0.43284419  0.18207727  0.         -0.          0.          0.         -0.00407859  0.5701827   0.13690884 -0.0911649
  -0.          0.         -0.          0.          0.          0.         -0.         -0.         -0.00823766 -0.         -0.          0.         -0.
   0.11095388 -0.00634332]
 [-0.07599786  0.32044166 -0.40896746  0.464953    0.00975583  0.         -0.          0.          0.          0.06191884 -0.12097596  0.55946457 -0.01829182
   0.          0.          0.         -0.         -0.         -0.          0.         -0.         -0.33095041 -0.         -0.          0.          0.
  -0.01104231  0.25798486]
 [ 0.00929063  0.01744163  0.15978788  0.13752844 -0.37785643 -0.          0.         -0.         -0.          0.02936062  0.01637052  0.00312721  0.03299925
   0.         -0.          0.         -0.         -0.         -0.         -0.          0.          0.06021055  0.          0.         -0.          0.
  -0.8973575   0.03582169]
 [-0.          0.         -0.         -0.          0.         -0.09996404  0.47233697 -0.07213884  0.07331607  0.         -0.         -0.         -0.
   0.07744324  0.01257147 -0.          0.         -0.         -0.         -0.0339914  -0.01558855  0.         -0.671031    0.50933669 -0.19146014  0.04907497
   0.          0.        ]
 [ 0.         -0.          0.         -0.         -0.          0.47233697  0.09996404  0.07331607  0.07213884  0.         -0.         -0.         -0.
  -0.01257147  0.07744324 -0.          0.         -0.         -0.          0.01558855 -0.0339914   0.         -0.50933669 -0.671031   -0.04907497 -0.19146014
  -0.         -0.        ]
 [-0.         -0.          0.         -0.         -0.          0.04709241 -0.08617542 -0.44451118  0.24394744 -0.          0.          0.          0.
  -0.00079294  0.00010419 -0.         -0.          0.         -0.          0.11960091  0.01666103 -0.          0.11418197 -0.15661452 -0.70680244  0.42607232
   0.         -0.        ]
 [ 0.         -0.          0.          0.          0.          0.08617542  0.04709241 -0.24394744 -0.44451118 -0.         -0.         -0.         -0.
   0.00010419  0.00079294 -0.         -0.         -0.         -0.          0.01666103 -0.11960091  0.         -0.15661452 -0.11418197  0.42607232  0.70680244
  -0.         -0.        ]
 [-0.0429276   0.0959541  -0.04619744  0.04255322 -0.03047782  0.          0.          0.          0.         -0.50948115 -0.08643196  0.35321673 -0.00985498
   0.          0.         -0.          0.          0.          0.         -0.         -0.          0.16840217  0.          0.          0.         -0.
  -0.0234886  -0.75050946]
 [ 0.02743096 -0.06849538 -0.45157742 -0.34233927 -0.14667487 -0.          0.         -0.         -0.         -0.00536986  0.7634112   0.1610822  -0.19731034
   0.         -0.          0.          0.          0.         -0.          0.          0.          0.00674869  0.         -0.         -0.          0.
  -0.06458603  0.00168168]
 [ 0.002437   -0.15554467  0.39855545 -0.52468491 -0.01325889 -0.          0.          0.         -0.          0.26886258 -0.1544575   0.64938699 -0.01465351
   0.         -0.          0.          0.          0.         -0.          0.          0.         -0.14898063 -0.          0.          0.         -0.
  -0.0077895   0.03413385]]
[[-0.86478023 -0.44734117  0.00042091  0.15534028  0.14599476 -0.         -0.         -0.         -0.         -0.0191307   0.02974321  0.01731455 -0.02053557
   0.          0.          0.          0.          0.         -0.         -0.          0.          0.00331238  0.          0.          0.          0.
  -0.06780579  0.00387829]
 [-0.45113284  0.78871721  0.06153647 -0.2953432   0.04349169  0.         -0.         -0.          0.         -0.20739578  0.01473321 -0.13808899  0.00730323
   0.          0.          0.          0.         -0.          0.          0.          0.         -0.11696398  0.          0.         -0.          0.
  -0.00641577  0.07365275]
 [ 0.16769975  0.06305874  0.11293844  0.10657428  0.87943672 -0.         -0.         -0.         -0.         -0.04689776 -0.02222371 -0.01098266 -0.01887129
   0.         -0.         -0.          0.          0.         -0.         -0.         -0.          0.02196045 -0.          0.          0.          0.
  -0.40789629  0.01861714]
 [ 0.          0.         -0.          0.          0.          0.44315414 -0.72874316 -0.15886426  0.05852644  0.         -0.          0.          0.
  -0.06138352 -0.00520145  0.          0.          0.          0.          0.02058941  0.0026168  -0.          0.08471209 -0.46769171 -0.0816548  -0.0841408
  -0.          0.        ]
 [ 0.         -0.         -0.         -0.         -0.         -0.72874316 -0.44315414 -0.05852644 -0.15886426 -0.         -0.         -0.         -0.
   0.00520145 -0.06138352  0.          0.          0.          0.         -0.0026168   0.02058941 -0.         -0.46769171 -0.08471209  0.0841408  -0.0816548
  -0.          0.        ]
 [-0.         -0.          0.         -0.         -0.          0.10151432 -0.13888394  0.75943818 -0.3554903  -0.          0.         -0.         -0.
   0.00482823 -0.0000014   0.         -0.          0.          0.          0.09863185  0.00410474 -0.          0.02833446 -0.10481848  0.37412268  0.32520832
   0.         -0.        ]
 [ 0.          0.          0.          0.          0.         -0.13888394 -0.10151432  0.3554903   0.75943818  0.          0.          0.          0.
   0.0000014   0.00482823 -0.         -0.          0.         -0.         -0.00410474  0.09863185  0.         -0.10481848 -0.02833446 -0.32520832  0.37412268
   0.         -0.        ]
 [-0.10875386  0.1116339   0.16780398 -0.23904735  0.06581229 -0.          0.         -0.         -0.          0.78220144 -0.00655317 -0.02789251 -0.00483612
  -0.         -0.         -0.         -0.          0.         -0.         -0.         -0.          0.24124058 -0.         -0.          0.         -0.
   0.00165641 -0.4638903 ]
 [-0.00833741 -0.0101322  -0.03657319 -0.02724059  0.02031364 -0.          0.          0.         -0.          0.00444694  0.20340623  0.06297276  0.97440906
  -0.          0.          0.         -0.         -0.          0.          0.          0.          0.03438276 -0.          0.          0.          0.
  -0.03442871  0.01164345]
 [ 0.         -0.          0.         -0.         -0.         -0.00280346 -0.0139936  -0.0040744  -0.00168006  0.         -0.         -0.          0.
   0.66855402  0.72899002 -0.         -0.         -0.          0.         -0.06647393 -0.07887281  0.         -0.05527494 -0.08721331 -0.00024235 -0.0092043
   0.          0.        ]
 [ 0.         -0.         -0.          0.          0.         -0.0139936   0.00280346  0.00168006 -0.0040744  -0.         -0.         -0.         -0.
  -0.72899002  0.66855402  0.          0.          0.         -0.          0.07887281 -0.06647393 -0.         -0.08721331  0.05527494  0.0092043  -0.00024235
  -0.          0.        ]
 [ 0.         -0.          0.         -0.         -0.         -0.          0.         -0.          0.         -0.          0.          0.          0.
   0.          0.         -0.01916282  0.82772987  0.56079323 -0.00264578  0.         -0.         -0.          0.         -0.         -0.         -0.
   0.         -0.        ]
 [ 0.         -0.         -0.         -0.         -0.          0.          0.         -0.          0.          0.         -0.          0.         -0.
   0.         -0.          0.82772987  0.01916282  0.00264578  0.56079323  0.         -0.          0.          0.         -0.         -0.          0.
   0.         -0.        ]
 [ 0.         -0.         -0.          0.          0.          0.          0.         -0.          0.         -0.         -0.          0.         -0.
   0.         -0.          0.56064924  0.01297962 -0.00390617 -0.82794245 -0.          0.         -0.          0.         -0.          0.         -0.
  -0.         -0.        ]
 [ 0.         -0.          0.          0.         -0.          0.         -0.          0.          0.          0.         -0.          0.          0.
   0.         -0.          0.01297962 -0.56064924  0.82794245 -0.00390617 -0.          0.         -0.          0.          0.          0.         -0.
   0.          0.        ]
 [ 0.         -0.          0.         -0.          0.          0.00108686  0.003181   -0.01971921 -0.01135916 -0.          0.         -0.         -0.
   0.06185052  0.08836932  0.         -0.         -0.          0.          0.52860512  0.82691032  0.          0.04238064  0.05068416  0.01494772 -0.14157583
  -0.          0.        ]
 [-0.         -0.          0.          0.          0.         -0.003181    0.00108686 -0.01135916  0.01971921 -0.          0.         -0.         -0.
   0.08836932 -0.06185052 -0.         -0.          0.         -0.          0.82691032 -0.52860512  0.         -0.05068416  0.04238064 -0.14157583 -0.01494772
  -0.         -0.        ]
 [-0.01009515 -0.00175722  0.04017226 -0.05145254  0.00039177  0.         -0.         -0.         -0.         -0.07722143  0.05340027 -0.26758185 -0.02635575
  -0.         -0.         -0.         -0.         -0.         -0.         -0.         -0.          0.87328437 -0.         -0.          0.          0.
   0.07298514  0.38284702]
 [ 0.00700856  0.14208003  0.62821895  0.43284419 -0.18207727 -0.         -0.         -0.         -0.          0.00407859  0.5701827   0.13690884 -0.0911649
   0.         -0.          0.          0.          0.         -0.         -0.         -0.          0.00823766 -0.         -0.          0.          0.
  -0.11095388  0.00634332]
 [ 0.07599786 -0.32044166  0.40896746 -0.464953    0.00975583  0.          0.         -0.          0.          0.06191884  0.12097596 -0.55946457  0.01829182
  -0.         -0.          0.         -0.         -0.          0.         -0.         -0.         -0.33095041 -0.          0.         -0.         -0.
  -0.01104231  0.25798486]
 [ 0.00929063  0.01744163  0.15978788  0.13752844  0.37785643 -0.         -0.         -0.         -0.         -0.02936062  0.01637052  0.00312721  0.03299925
  -0.          0.          0.         -0.         -0.          0.          0.          0.         -0.06021055  0.         -0.         -0.         -0.
   0.8973575  -0.03582169]
 [ 0.         -0.          0.         -0.         -0.         -0.29694374  0.38068286  0.0917464  -0.04649576 -0.         -0.          0.          0.
  -0.07841793  0.0024749  -0.         -0.          0.          0.          0.03739344  0.00038636 -0.          0.24514895 -0.80598291 -0.15315024 -0.12494135
  -0.          0.        ]
 [-0.          0.          0.          0.          0.          0.38068286  0.29694374  0.04649576  0.0917464   0.         -0.          0.          0.
  -0.0024749  -0.07841793 -0.          0.          0.          0.         -0.00038636  0.03739344 -0.         -0.80598291 -0.24514895  0.12494135 -0.15315024
   0.          0.        ]
 [-0.          0.         -0.          0.          0.         -0.08010883  0.05680205 -0.36730789  0.34955037  0.          0.         -0.          0.
  -0.00075837  0.00025395  0.          0.          0.          0.          0.11601162 -0.03351526 -0.          0.10732375 -0.16139159  0.76245895  0.31585387
   0.         -0.        ]
 [-0.          0.          0.          0.          0.         -0.05680205 -0.08010883  0.34955037  0.36730789  0.         -0.          0.          0.
   0.00025395  0.00075837  0.          0.         -0.          0.         -0.03351526 -0.11601162  0.          0.16139159  0.10732375  0.31585387 -0.76245895
  -0.          0.        ]
 [ 0.0429276  -0.0959541   0.04619744 -0.04255322 -0.03047782  0.          0.          0.          0.         -0.50948115  0.08643196 -0.35321673  0.00985498
  -0.         -0.         -0.          0.          0.         -0.         -0.         -0.          0.16840217 -0.         -0.          0.         -0.
  -0.0234886  -0.75050946]
 [ 0.02743096 -0.06849538 -0.45157742 -0.34233927  0.14667487  0.          0.          0.          0.          0.00536986  0.7634112   0.1610822  -0.19731034
   0.         -0.         -0.          0.          0.         -0.         -0.         -0.         -0.00674869 -0.         -0.         -0.         -0.
   0.06458603 -0.00168168]
 [-0.002437    0.15554467 -0.39855545  0.52468491 -0.01325889 -0.          0.          0.         -0.          0.26886258  0.1544575  -0.64938699  0.01465351
  -0.          0.         -0.          0.          0.         -0.          0.          0.         -0.14898063  0.         -0.         -0.         -0.
  -0.0077895   0.03413385]]
grids:  [0.06237655 0.31939555 0.74529195 1.28265786 1.85893479 2.39630071 2.8221971  3.07921611] 
weights:  [0.15900941 0.34931531 0.49276925 0.56970235 0.56970235 0.49276925 0.34931531 0.15900941]
S = 0.0, Sz = 0.0
Wigner small d:  1
value : [1. 1. 1. 1. 1. 1. 1. 1.]
**** Start Cycle 1 ****
dm (ortho)
[[[ 0.74784484 -0.39013076 -0.14502343 ...  0.03712294 -0.02372175 -0.00210747]
  [-0.39013076  0.20352084  0.07565487 ... -0.01936605  0.01237501  0.00109941]
  [-0.14502343  0.07565487  0.02812321 ... -0.00719895  0.00460016  0.00040868]
  ...
  [ 0.03712294 -0.01936605 -0.00719895 ...  0.00184278 -0.00117755 -0.00010461]
  [-0.02372175  0.01237501  0.00460016 ... -0.00117755  0.00075246  0.00006685]
  [-0.00210747  0.00109941  0.00040868 ... -0.00010461  0.00006685  0.00000594]]

 [[ 0.74784484  0.39013076 -0.14502343 ... -0.03712294 -0.02372175  0.00210747]
  [ 0.39013076  0.20352084 -0.07565487 ... -0.01936605 -0.01237501  0.00109941]
  [-0.14502343 -0.07565487  0.02812321 ...  0.00719895  0.00460016 -0.00040868]
  ...
  [-0.03712294 -0.01936605  0.00719895 ...  0.00184278  0.00117755 -0.00010461]
  [-0.02372175 -0.01237501  0.00460016 ...  0.00117755  0.00075246 -0.00006685]
  [ 0.00210747  0.00109941 -0.00040868 ... -0.00010461 -0.00006685  0.00000594]]]
Fock (ortho)
 (array([[-0.27054134,  0.2411094 ,  0.2774014 ,  0.        , -0.        , -0.        ,  0.        ,  0.09450344, -0.04275242,  0.        , -0.        ,
        -0.        , -0.        , -0.        , -0.        , -0.        , -0.        ,  0.01781001,  0.10808745,  0.01680941, -0.19048021,  0.        ,
        -0.        , -0.        , -0.        , -0.00984323,  0.05773726, -0.0094635 ],
       [ 0.2411094 ,  0.14667924, -0.08432863,  0.        ,  0.        , -0.        , -0.        , -0.42122017,  0.00214839,  0.        ,  0.        ,
         0.        , -0.        , -0.        ,  0.        ,  0.        ,  0.        , -0.12575305,  0.08656811,  0.50685553,  0.00364347,  0.        ,
        -0.        , -0.        , -0.        , -0.04662771, -0.00904218,  0.17335508],
       [ 0.2774014 , -0.08432863,  1.21213444,  0.        , -0.        , -0.        ,  0.        ,  0.02396854, -0.00522361,  0.        , -0.        ,
        -0.        ,  0.        ,  0.        , -0.        , -0.        , -0.        ,  0.00660088,  0.08650153, -0.01339   , -1.2247307 ,  0.        ,
        -0.        , -0.        , -0.        , -0.00038709, -0.08944872,  0.0004541 ],
       [ 0.        ,  0.        ,  0.        ,  1.47577408,  0.        ,  0.05657083,  0.00481011, -0.        , -0.        , -0.00669444,  0.00616291,
         0.        ,  0.        , -0.        ,  0.        ,  0.00263231,  0.0031558 ,  0.        ,  0.        ,  0.        ,  0.        ,  1.33959337,
         0.15620887,  0.00489312, -0.00211308,  0.        ,  0.        ,  0.        ],
       [-0.        ,  0.        , -0.        ,  0.        ,  1.47577408, -0.00481011,  0.05657083, -0.        , -0.        , -0.00616291, -0.00669444,
        -0.        , -0.        ,  0.        ,  0.        ,  0.0031558 , -0.00263231, -0.        , -0.        ,  0.        , -0.        , -0.15620887,
         1.33959337, -0.00211308, -0.00489312, -0.        ,  0.        , -0.        ],
       [-0.        , -0.        , -0.        ,  0.05657083, -0.00481011,  1.69755719, -0.        ,  0.        ,  0.        , -0.00277132,  0.0030236 ,
         0.        ,  0.        , -0.        ,  0.        ,  0.01157899,  0.01655375, -0.        , -0.        , -0.        , -0.        ,  0.00957658,
         0.00029947,  1.29472965, -0.43313189, -0.        , -0.        , -0.        ],
       [ 0.        , -0.        ,  0.        ,  0.00481011,  0.05657083, -0.        ,  1.69755719,  0.        ,  0.        , -0.0030236 , -0.00277132,
        -0.        , -0.        ,  0.        ,  0.        ,  0.01655375, -0.01157899, -0.        ,  0.        , -0.        ,  0.        , -0.00029947,
         0.00957658, -0.43313189, -1.29472965,  0.        , -0.        ,  0.        ],
       [ 0.09450344, -0.42122017,  0.02396854, -0.        , -0.        ,  0.        ,  0.        ,  1.94981024,  0.0141185 , -0.        ,  0.        ,
         0.        , -0.        , -0.        , -0.        , -0.        ,  0.        , -0.06502609,  0.04204218, -0.64918029, -0.01283741, -0.        ,
         0.        ,  0.        ,  0.        ,  1.26270826,  0.00057629,  0.01051954],
       [-0.04275242,  0.00214839, -0.00522361, -0.        , -0.        ,  0.        ,  0.        ,  0.0141185 ,  3.25233497,  0.        ,  0.        ,
        -0.        , -0.        , -0.        ,  0.        ,  0.        , -0.        , -0.01992106,  0.01276615, -0.00034675, -0.01786846, -0.        ,
        -0.        ,  0.        ,  0.        ,  0.00209496, -0.22462989,  0.0001063 ],
       [ 0.        ,  0.        ,  0.        , -0.00669444, -0.00616291, -0.00277132, -0.0030236 , -0.        ,  0.        ,  3.3688662 ,  0.        ,
        -0.        , -0.        , -0.        ,  0.        ,  0.02279818,  0.00301572, -0.        ,  0.        , -0.        , -0.        ,  0.03954368,
         0.04594758, -0.00049088,  0.001102  , -0.        , -0.        , -0.        ],
       [-0.        ,  0.        , -0.        ,  0.00616291, -0.00669444,  0.0030236 , -0.00277132,  0.        ,  0.        ,  0.        ,  3.3688662 ,
         0.        ,  0.        ,  0.        , -0.        ,  0.00301572, -0.02279818, -0.        , -0.        ,  0.        , -0.        , -0.04594758,
         0.03954368,  0.001102  ,  0.00049088, -0.        ,  0.        ,  0.        ],
       [-0.        ,  0.        , -0.        ,  0.        , -0.        ,  0.        , -0.        ,  0.        , -0.        , -0.        ,  0.        ,
         3.4434577 ,  0.        , -0.        , -0.02368227,  0.        ,  0.        , -0.        , -0.        , -0.        , -0.        ,  0.        ,
        -0.        , -0.        ,  0.        ,  0.        ,  0.        ,  0.        ],
       [-0.        , -0.        ,  0.        ,  0.        , -0.        ,  0.        , -0.        , -0.        , -0.        , -0.        ,  0.        ,
         0.        ,  3.4434577 ,  0.02368227, -0.        , -0.        ,  0.        ,  0.        , -0.        ,  0.        , -0.        ,  0.        ,
        -0.        , -0.        , -0.        ,  0.        ,  0.        ,  0.        ],
       [-0.        , -0.        ,  0.        , -0.        ,  0.        , -0.        ,  0.        , -0.        , -0.        , -0.        ,  0.        ,
        -0.        ,  0.02368227,  3.45945258,  0.        , -0.        ,  0.        ,  0.        , -0.        , -0.        , -0.        ,  0.        ,
        -0.        ,  0.        , -0.        ,  0.        ,  0.        ,  0.        ],
       [-0.        ,  0.        , -0.        ,  0.        ,  0.        ,  0.        ,  0.        , -0.        ,  0.        ,  0.        , -0.        ,
        -0.02368227, -0.        ,  0.        ,  3.45945258,  0.        , -0.        ,  0.        , -0.        , -0.        , -0.        ,  0.        ,
        -0.        ,  0.        ,  0.        , -0.        ,  0.        ,  0.        ],
       [-0.        ,  0.        , -0.        ,  0.00263231,  0.0031558 ,  0.01157899,  0.01655375, -0.        ,  0.        ,  0.02279818,  0.00301572,
         0.        , -0.        , -0.        ,  0.        ,  3.53623803, -0.        , -0.        , -0.        , -0.        , -0.        ,  0.00121382,
         0.00185626, -0.02483676,  0.08398152, -0.        ,  0.        ,  0.        ],
       [-0.        ,  0.        , -0.        ,  0.0031558 , -0.00263231,  0.01655375, -0.01157899,  0.        , -0.        ,  0.00301572, -0.02279818,
         0.        ,  0.        ,  0.        , -0.        , -0.        ,  3.53623803, -0.        , -0.        , -0.        , -0.        ,  0.00185626,
        -0.00121382, -0.08398152, -0.02483676,  0.        ,  0.        ,  0.        ],
       [ 0.01781001, -0.12575305,  0.00660088,  0.        , -0.        , -0.        , -0.        , -0.06502609, -0.01992106, -0.        , -0.        ,
        -0.        ,  0.        ,  0.        ,  0.        , -0.        , -0.        ,  3.67532545,  0.01260223, -0.19777569, -0.00695994, -0.        ,
        -0.        ,  0.        ,  0.        , -0.4441453 ,  0.00202918,  0.01390109],
       [ 0.10808745,  0.08656811,  0.08650153,  0.        , -0.        , -0.        ,  0.        ,  0.04204218,  0.01276615,  0.        , -0.        ,
        -0.        , -0.        , -0.        , -0.        , -0.        , -0.        ,  0.01260223,  1.1849097 ,  0.04390044, -0.36933237,  0.        ,
        -0.        , -0.        , -0.        ,  0.01563076,  0.96074498,  0.01030859],
       [ 0.01680941,  0.50685553, -0.01339   ,  0.        ,  0.        , -0.        , -0.        , -0.64918029, -0.00034675, -0.        ,  0.        ,
        -0.        ,  0.        , -0.        , -0.        , -0.        , -0.        , -0.19777569,  0.04390044,  1.73120704,  0.01306954, -0.        ,
         0.        ,  0.        ,  0.        , -0.54061763,  0.01740926,  1.07286715],
       [-0.19048021,  0.00364347, -1.2247307 ,  0.        , -0.        , -0.        ,  0.        , -0.01283741, -0.01786846, -0.        , -0.        ,
        -0.        , -0.        , -0.        , -0.        , -0.        , -0.        , -0.00695994, -0.36933237,  0.01306954,  3.34576481, -0.        ,
         0.        ,  0.        ,  0.        , -0.0122621 ,  0.23197192,  0.00132539],
       [ 0.        ,  0.        ,  0.        ,  1.33959337, -0.15620887,  0.00957658, -0.00029947, -0.        , -0.        ,  0.03954368, -0.04594758,
         0.        ,  0.        ,  0.        ,  0.        ,  0.00121382,  0.00185626, -0.        ,  0.        , -0.        , -0.        ,  3.07625179,
        -0.        ,  0.01905516, -0.00571891,  0.        , -0.        ,  0.        ],
       [-0.        , -0.        , -0.        ,  0.15620887,  1.33959337,  0.00029947,  0.00957658,  0.        , -0.        ,  0.04594758,  0.03954368,
        -0.        , -0.        , -0.        , -0.        ,  0.00185626, -0.00121382, -0.        , -0.        ,  0.        ,  0.        , -0.        ,
         3.07625179, -0.00571891, -0.01905516,  0.        ,  0.        , -0.        ],
       [-0.        , -0.        , -0.        ,  0.00489312, -0.00211308,  1.29472965, -0.43313189,  0.        ,  0.        , -0.00049088,  0.001102  ,
        -0.        , -0.        ,  0.        ,  0.        , -0.02483676, -0.08398152,  0.        , -0.        ,  0.        ,  0.        ,  0.01905516,
        -0.00571891,  3.12810184, -0.        , -0.        ,  0.        , -0.        ],
       [-0.        , -0.        , -0.        , -0.00211308, -0.00489312, -0.43313189, -1.29472965,  0.        ,  0.        ,  0.001102  ,  0.00049088,
         0.        , -0.        , -0.        ,  0.        ,  0.08398152, -0.02483676,  0.        , -0.        ,  0.        ,  0.        , -0.00571891,
        -0.01905516, -0.        ,  3.12810184,  0.        ,  0.        , -0.        ],
       [-0.00984323, -0.04662771, -0.00038709,  0.        , -0.        , -0.        ,  0.        ,  1.26270826,  0.00209496, -0.        , -0.        ,
         0.        ,  0.        ,  0.        , -0.        , -0.        ,  0.        , -0.4441453 ,  0.01563076, -0.54061763, -0.0122621 ,  0.        ,
         0.        , -0.        ,  0.        ,  3.28024903,  0.00913894,  0.25492135],
       [ 0.05773726, -0.00904218, -0.08944872,  0.        ,  0.        , -0.        , -0.        ,  0.00057629, -0.22462989, -0.        ,  0.        ,
         0.        ,  0.        ,  0.        ,  0.        ,  0.        ,  0.        ,  0.00202918,  0.96074498,  0.01740926,  0.23197192, -0.        ,
         0.        ,  0.        ,  0.        ,  0.00913894,  1.77445987,  0.01475228],
       [-0.0094635 ,  0.17335508,  0.0004541 ,  0.        , -0.        , -0.        ,  0.        ,  0.01051954,  0.0001063 , -0.        ,  0.        ,
         0.        ,  0.        ,  0.        ,  0.        ,  0.        ,  0.        ,  0.01390109,  0.01030859,  1.07286715,  0.00132539,  0.        ,
        -0.        , -0.        , -0.        ,  0.25492135,  0.01475228,  1.5228052 ]]), array([[-0.27054134, -0.2411094 ,  0.2774014 ,  0.        , -0.        , -0.        ,  0.        , -0.09450344, -0.04275242,  0.        , -0.        ,
        -0.        ,  0.        ,  0.        , -0.        , -0.        , -0.        , -0.01781001,  0.10808745, -0.01680941, -0.19048021,  0.        ,
        -0.        , -0.        , -0.        ,  0.00984323,  0.05773726,  0.0094635 ],
       [-0.2411094 ,  0.14667924,  0.08432863,  0.        ,  0.        , -0.        , -0.        , -0.42122017, -0.00214839,  0.        ,  0.        ,
         0.        ,  0.        ,  0.        ,  0.        ,  0.        , -0.        , -0.12575305, -0.08656811,  0.50685553, -0.00364347,  0.        ,
        -0.        , -0.        , -0.        , -0.04662771,  0.00904218,  0.17335508],
       [ 0.2774014 ,  0.08432863,  1.21213444,  0.        , -0.        , -0.        ,  0.        , -0.02396854, -0.00522361,  0.        , -0.        ,
        -0.        , -0.        , -0.        , -0.        , -0.        , -0.        , -0.00660088,  0.08650153,  0.01339   , -1.2247307 ,  0.        ,
        -0.        , -0.        , -0.        ,  0.00038709, -0.08944872, -0.0004541 ],
       [ 0.        ,  0.        ,  0.        ,  1.47577408,  0.        , -0.05657083, -0.00481011, -0.        ,  0.        , -0.00669444,  0.00616291,
         0.        ,  0.        , -0.        ,  0.        , -0.00263231, -0.0031558 ,  0.        ,  0.        ,  0.        ,  0.        ,  1.33959337,
         0.15620887, -0.00489312,  0.00211308,  0.        ,  0.        ,  0.        ],
       [-0.        ,  0.        , -0.        ,  0.        ,  1.47577408,  0.00481011, -0.05657083,  0.        , -0.        , -0.00616291, -0.00669444,
         0.        , -0.        ,  0.        ,  0.        , -0.0031558 ,  0.00263231, -0.        , -0.        ,  0.        , -0.        , -0.15620887,
         1.33959337,  0.00211308,  0.00489312, -0.        ,  0.        , -0.        ],
       [-0.        , -0.        , -0.        , -0.05657083,  0.00481011,  1.69755719, -0.        ,  0.        , -0.        ,  0.00277132, -0.0030236 ,
         0.        ,  0.        ,  0.        ,  0.        ,  0.01157899,  0.01655375, -0.        , -0.        , -0.        , -0.        , -0.00957658,
        -0.00029947,  1.29472965, -0.43313189, -0.        , -0.        , -0.        ],
       [ 0.        , -0.        ,  0.        , -0.00481011, -0.05657083, -0.        ,  1.69755719,  0.        ,  0.        ,  0.0030236 ,  0.00277132,
        -0.        , -0.        ,  0.        ,  0.        ,  0.01655375, -0.01157899, -0.        ,  0.        , -0.        ,  0.        ,  0.00029947,
        -0.00957658, -0.43313189, -1.29472965,  0.        , -0.        ,  0.        ],
       [-0.09450344, -0.42122017, -0.02396854, -0.        ,  0.        ,  0.        ,  0.        ,  1.94981024, -0.0141185 , -0.        ,  0.        ,
         0.        ,  0.        ,  0.        , -0.        , -0.        ,  0.        , -0.06502609, -0.04204218, -0.64918029,  0.01283741, -0.        ,
         0.        ,  0.        ,  0.        ,  1.26270826, -0.00057629,  0.01051954],
       [-0.04275242, -0.00214839, -0.00522361,  0.        , -0.        , -0.        ,  0.        , -0.0141185 ,  3.25233497,  0.        ,  0.        ,
        -0.        ,  0.        ,  0.        ,  0.        ,  0.        , -0.        ,  0.01992106,  0.01276615,  0.00034675, -0.01786846, -0.        ,
        -0.        ,  0.        ,  0.        , -0.00209496, -0.22462989, -0.0001063 ],
       [ 0.        ,  0.        ,  0.        , -0.00669444, -0.00616291,  0.00277132,  0.0030236 , -0.        ,  0.        ,  3.3688662 ,  0.        ,
        -0.        , -0.        ,  0.        , -0.        , -0.02279818, -0.00301572, -0.        ,  0.        , -0.        , -0.        ,  0.03954368,
         0.04594758,  0.00049088, -0.001102  , -0.        , -0.        , -0.        ],
       [-0.        ,  0.        , -0.        ,  0.00616291, -0.00669444, -0.0030236 ,  0.00277132,  0.        ,  0.        ,  0.        ,  3.3688662 ,
         0.        ,  0.        ,  0.        , -0.        , -0.00301572,  0.02279818, -0.        , -0.        ,  0.        , -0.        , -0.04594758,
         0.03954368, -0.001102  , -0.00049088, -0.        ,  0.        ,  0.        ],
       [-0.        ,  0.        , -0.        ,  0.        ,  0.        ,  0.        , -0.        ,  0.        , -0.        , -0.        ,  0.        ,
         3.4434577 , -0.        ,  0.        ,  0.02368227,  0.        ,  0.        , -0.        , -0.        , -0.        , -0.        ,  0.        ,
        -0.        , -0.        ,  0.        ,  0.        ,  0.        ,  0.        ],
       [ 0.        ,  0.        , -0.        ,  0.        , -0.        ,  0.        , -0.        ,  0.        ,  0.        , -0.        ,  0.        ,
        -0.        ,  3.4434577 , -0.02368227,  0.        , -0.        ,  0.        ,  0.        ,  0.        ,  0.        ,  0.        ,  0.        ,
        -0.        , -0.        , -0.        , -0.        , -0.        , -0.        ],
       [ 0.        ,  0.        , -0.        , -0.        ,  0.        ,  0.        ,  0.        ,  0.        ,  0.        ,  0.        ,  0.        ,
         0.        , -0.02368227,  3.45945258, -0.        , -0.        , -0.        ,  0.        ,  0.        ,  0.        ,  0.        ,  0.        ,
        -0.        ,  0.        , -0.        , -0.        , -0.        , -0.        ],
       [-0.        ,  0.        , -0.        ,  0.        ,  0.        ,  0.        ,  0.        , -0.        ,  0.        , -0.        , -0.        ,
         0.02368227,  0.        , -0.        ,  3.45945258,  0.        , -0.        ,  0.        , -0.        , -0.        , -0.        ,  0.        ,
        -0.        ,  0.        ,  0.        , -0.        ,  0.        ,  0.        ],
       [-0.        ,  0.        , -0.        , -0.00263231, -0.0031558 ,  0.01157899,  0.01655375, -0.        ,  0.        , -0.02279818, -0.00301572,
         0.        , -0.        , -0.        ,  0.        ,  3.53623803,  0.        , -0.        , -0.        , -0.        , -0.        , -0.00121382,
        -0.00185626, -0.02483676,  0.08398152, -0.        ,  0.        ,  0.        ],
       [-0.        , -0.        , -0.        , -0.0031558 ,  0.00263231,  0.01655375, -0.01157899,  0.        , -0.        , -0.00301572,  0.02279818,
         0.        ,  0.        , -0.        , -0.        ,  0.        ,  3.53623803, -0.        , -0.        , -0.        , -0.        , -0.00185626,
         0.00121382, -0.08398152, -0.02483676,  0.        ,  0.        ,  0.        ],
       [-0.01781001, -0.12575305, -0.00660088,  0.        , -0.        , -0.        , -0.        , -0.06502609,  0.01992106, -0.        , -0.        ,
        -0.        ,  0.        ,  0.        ,  0.        , -0.        , -0.        ,  3.67532545, -0.01260223, -0.19777569,  0.00695994, -0.        ,
        -0.        ,  0.        ,  0.        , -0.4441453 , -0.00202918,  0.01390109],
       [ 0.10808745, -0.08656811,  0.08650153,  0.        , -0.        , -0.        ,  0.        , -0.04204218,  0.01276615,  0.        , -0.        ,
        -0.        ,  0.        ,  0.        , -0.        , -0.        , -0.        , -0.01260223,  1.1849097 , -0.04390044, -0.36933237,  0.        ,
        -0.        , -0.        , -0.        , -0.01563076,  0.96074498, -0.01030859],
       [-0.01680941,  0.50685553,  0.01339   ,  0.        ,  0.        , -0.        , -0.        , -0.64918029,  0.00034675, -0.        ,  0.        ,
        -0.        ,  0.        ,  0.        , -0.        , -0.        , -0.        , -0.19777569, -0.04390044,  1.73120704, -0.01306954, -0.        ,
         0.        ,  0.        ,  0.        , -0.54061763, -0.01740926,  1.07286715],
       [-0.19048021, -0.00364347, -1.2247307 ,  0.        , -0.        , -0.        ,  0.        ,  0.01283741, -0.01786846, -0.        , -0.        ,
        -0.        ,  0.        ,  0.        , -0.        , -0.        , -0.        ,  0.00695994, -0.36933237, -0.01306954,  3.34576481, -0.        ,
         0.        ,  0.        ,  0.        ,  0.0122621 ,  0.23197192, -0.00132539],
       [ 0.        ,  0.        ,  0.        ,  1.33959337, -0.15620887, -0.00957658,  0.00029947, -0.        , -0.        ,  0.03954368, -0.04594758,
         0.        ,  0.        ,  0.        ,  0.        , -0.00121382, -0.00185626, -0.        ,  0.        , -0.        , -0.        ,  3.07625179,
        -0.        , -0.01905516,  0.00571891,  0.        , -0.        ,  0.        ],
       [-0.        , -0.        , -0.        ,  0.15620887,  1.33959337, -0.00029947, -0.00957658,  0.        , -0.        ,  0.04594758,  0.03954368,
        -0.        , -0.        , -0.        , -0.        , -0.00185626,  0.00121382, -0.        , -0.        ,  0.        ,  0.        , -0.        ,
         3.07625179,  0.00571891,  0.01905516,  0.        ,  0.        , -0.        ],
       [-0.        , -0.        , -0.        , -0.00489312,  0.00211308,  1.29472965, -0.43313189,  0.        ,  0.        ,  0.00049088, -0.001102  ,
        -0.        , -0.        ,  0.        ,  0.        , -0.02483676, -0.08398152,  0.        , -0.        ,  0.        ,  0.        , -0.01905516,
         0.00571891,  3.12810184, -0.        , -0.        ,  0.        , -0.        ],
       [-0.        , -0.        , -0.        ,  0.00211308,  0.00489312, -0.43313189, -1.29472965,  0.        ,  0.        , -0.001102  , -0.00049088,
         0.        , -0.        , -0.        ,  0.        ,  0.08398152, -0.02483676,  0.        , -0.        ,  0.        ,  0.        ,  0.00571891,
         0.01905516, -0.        ,  3.12810184,  0.        ,  0.        , -0.        ],
       [ 0.00984323, -0.04662771,  0.00038709,  0.        , -0.        , -0.        ,  0.        ,  1.26270826, -0.00209496, -0.        , -0.        ,
         0.        , -0.        , -0.        , -0.        , -0.        ,  0.        , -0.4441453 , -0.01563076, -0.54061763,  0.0122621 ,  0.        ,
         0.        , -0.        ,  0.        ,  3.28024903, -0.00913894,  0.25492135],
       [ 0.05773726,  0.00904218, -0.08944872,  0.        ,  0.        , -0.        , -0.        , -0.00057629, -0.22462989, -0.        ,  0.        ,
         0.        , -0.        , -0.        ,  0.        ,  0.        ,  0.        , -0.00202918,  0.96074498, -0.01740926,  0.23197192, -0.        ,
         0.        ,  0.        ,  0.        , -0.00913894,  1.77445987, -0.01475228],
       [ 0.0094635 ,  0.17335508, -0.0004541 ,  0.        , -0.        , -0.        ,  0.        ,  0.01051954, -0.0001063 , -0.        ,  0.        ,
         0.        , -0.        , -0.        ,  0.        ,  0.        ,  0.        ,  0.01390109, -0.01030859,  1.07286715, -0.00132539,  0.        ,
        -0.        , -0.        , -0.        ,  0.25492135, -0.01475228,  1.5228052 ]]))
E(UHF) =    -1.277566
NO eigenvalue
[-1. -0. -0. -0. -0. -0. -0. -0. -0. -0. -0. -0. -0. -0. -0. -0.  0.  0.  0.  0.  0.  0.  0.  0.  0.  0.  0.  0.] [-1. -0. -0. -0. -0. -0. -0. -0. -0. -0. -0. -0. -0.  0.  0.  0.  0.  0.  0.  0.  0.  0.  0.  0.  0.  0.  0.  0.]
NO vec
[[ 0.86478023  0.          0.49487129 ...  0.          0.          0.        ]
 [-0.45113284  0.          0.75640039 ...  0.          0.          0.        ]
 [-0.16769975  0.          0.27883407 ...  0.          0.          0.        ]
 ...
 [ 0.         -0.0429276   0.         ... -0.08771395 -0.30866095 -0.17847064]
 [ 0.         -0.02743096  0.         ... -0.77970292 -0.11845325 -0.15830926]
 [ 0.          0.002437    0.         ... -0.01402646  0.03741344  0.01503651]]
dm(NO)
[[ 1.  0. -0. ...  0.  0.  0.]
 [ 0.  1.  0. ...  0. -0.  0.]
 [-0.  0. -0. ...  0.  0.  0.]
 ...
 [ 0.  0.  0. ... -0. -0. -0.]
 [ 0.  0.  0. ... -0. -0. -0.]
 [ 0. -0.  0. ... -0. -0.  0.]]
D(g) (NO)
[[ 0.99951369  0.01727085 -0.         ... -0.00071841 -0.00337913 -0.00415512]
 [-0.01727085  0.99951369 -0.02366153 ...  0.          0.          0.        ]
 [-0.          0.02366153  0.99951369 ...  0.00071084  0.00765145 -0.0048351 ]
 ...
 [ 0.00071841  0.         -0.00071084 ...  0.99951369  0.         -0.        ]
 [ 0.00337913  0.         -0.00765145 ...  0.          0.99951369 -0.        ]
 [ 0.00415512  0.          0.0048351  ...  0.         -0.          0.99951369]]
...
N(g) (NO)
[[ 1.00018792 -0.0172825 ]
 [ 0.0172825   1.00018792]]
...
P(g) (NO)
[[ 1.          0.         -0.         ...  0.         -0.          0.        ]
 [-0.          1.          0.         ...  0.         -0.          0.        ]
 [ 0.00040893  0.02366598 -0.         ...  0.         -0.          0.        ]
 ...
 [ 0.00071855 -0.00001242 -0.         ... -0.          0.         -0.        ]
 [ 0.00337976 -0.0000584  -0.         ... -0.          0.         -0.        ]
 [ 0.0041559  -0.00007181 -0.         ... -0.          0.         -0.        ]]
...
Pg_ortho
[[ 0.74802465 -0.39022456 -0.1450583  ... -0.00051656 -0.00033009  0.00002933]
 [-0.38980406  0.20335041  0.07559151 ... -0.00093854 -0.00059973  0.00005328]
 [-0.1450583   0.07567306  0.02812997 ...  0.00010017  0.00006401 -0.00000569]
 ...
 [-0.0017991   0.00093854  0.00034888 ...  0.00184124  0.00117656 -0.00010453]
 [ 0.00033009 -0.0001722  -0.00006401 ...  0.00117783  0.00075264 -0.00006687]
 [ 0.00010213 -0.00005328 -0.00001981 ... -0.00010453 -0.00006679  0.00000593]]
G(g) (NO)
[[ 0.3206683  -0.00210709  0.09386283 ... -0.00015369  0.00050836 -0.0004549 ]
 [ 0.00210709  0.3206683  -0.00113866 ...  0.01007335 -0.00844933 -0.03378193]
 [ 0.09375158 -0.01278714  0.79509863 ... -0.00039731  0.00164373 -0.00072086]
 ...
 [-0.00170724  0.01007578  0.0006065  ...  0.8498691   0.01556274 -0.07845814]
 [ 0.0005194  -0.00844595  0.00026081 ...  0.01556097  0.78406827 -0.02790174]
 [-0.00250962 -0.03374697 -0.00123179 ... -0.07845292 -0.02790396  0.91776422]]
...
C(NO)
[[-1.          0.          0.         ...  0.          0.          0.        ]
 [ 0.         -1.          0.         ... -0.         -0.          0.        ]
 [ 0.          0.         -0.91115555 ...  0.          0.          0.        ]
 ...
 [ 0.         -0.          0.         ...  0.         -0.51596394  0.12502116]
 [ 0.         -0.          0.         ...  0.         -0.30380761  0.16487184]
 [ 0.          0.          0.         ... -0.          0.10468548 -0.24039099]]
detC 0.9999999999999999
detNg [1.00067457 1.0178432  1.10119263 1.33000831 1.80220503 2.50850074 3.08374307 3.25282656]
xg [0.99932589 0.98246959 0.90810633 0.751875   0.55487582 0.39864449 0.32428123 0.30742494]
ciS 1.3067508260008092
[[-0.799099    0.         -0.06745795 ...  0.          0.          0.        ]
 [ 0.         -0.799099    0.         ... -0.0107392   0.01130949  0.02410754]
 [-0.06745795  0.         -0.56161286 ...  0.          0.          0.        ]
 ...
 [ 0.         -0.0107392   0.         ...  1.87040686  0.45152176 -0.17258754]
 [ 0.          0.01130949  0.         ...  0.45152176  1.02022261  0.11612301]
 [ 0.          0.02410754  0.         ... -0.17258754  0.11612301  0.59044814]]
ciH -1.6801395838374147
S2 = -0.000000
X(g)
[[ 2.          0.          0.00040893 ... -0.00071855 -0.00337976 -0.0041559 ]
 [-0.          2.         -0.02366598 ... -0.00001242 -0.0000584  -0.00007181]
 [ 0.00040893  0.02366598  0.         ...  0.          0.          0.        ]
 ...
 [ 0.00071855 -0.00001242  0.         ...  0.          0.          0.        ]
 [ 0.00337976 -0.0000584   0.         ...  0.          0.          0.        ]
 [ 0.0041559  -0.00007181  0.         ...  0.          0.          0.        ]]
X(g) int
[[ 2.          0.          0.32160444 ... -0.01384682 -0.06512993 -0.0800866 ]
 [-0.          2.         -0.45605692 ... -0.00976457 -0.04592864 -0.05647586]
 [ 0.32160444  0.45605692  0.         ...  0.          0.          0.        ]
 ...
 [ 0.01384682 -0.00976457  0.         ...  0.          0.          0.        ]
 [ 0.06512993 -0.04592864  0.         ...  0.          0.          0.        ]
 [ 0.0800866  -0.05647586  0.         ...  0.          0.          0.        ]]
Hsp + Hph =  -1.2857382986925883
Feff (mod,ortho)
[[-0.25261809  0.2538467   0.27240515 ...  0.          0.          0.        ]
 [ 0.2538467   0.12851212 -0.08600545 ...  0.          0.          0.        ]
 [ 0.27240515 -0.08600545  1.21339818 ...  0.          0.          0.        ]
 ...
 [ 0.          0.          0.         ...  3.28034818 -0.00904021  0.25483619]
 [ 0.          0.          0.         ... -0.00904021  1.77454556 -0.0148087 ]
 [ 0.          0.          0.         ...  0.25483619 -0.0148087   1.52281455]]
E(SUHF) =     -1.00722398
e_a, e_b
[-0.48301395  0.05613878  0.36620579  0.47660983  0.69752983  0.69752983  0.69939701  0.87954352  0.87954352  1.19568508  2.43917385  2.64485467  3.29637148
  3.36174938  3.36174938  3.42645896  3.42645896  3.47645132  3.47645132  3.53018103  3.53018103  3.66139238  3.84033699  3.84033699  3.97344837  3.97344837
  3.98297427  4.46934945] [-0.48301395  0.05613878  0.36620579  0.47660983  0.69752983  0.69752983  0.69939701  0.87954352  0.87954352  1.19568508  2.43917385  2.64485467  3.29637148
  3.36174938  3.36174938  3.42645896  3.42645896  3.47645132  3.47645132  3.53018103  3.53018103  3.66139238  3.84033699  3.84033699  3.97344837  3.97344837
  3.98297427  4.46934945]
P_a, P_b
[[ 0.67739443 -0.42685296 -0.13572079  0.          0.         -0.         -0.         -0.1058849   0.00704428  0.         -0.          0.          0.
   0.          0.          0.         -0.         -0.01032039 -0.01353322  0.06607304 -0.00991803  0.         -0.         -0.         -0.          0.04001241
  -0.01703047  0.00130182]
 [-0.42685296  0.2689769   0.08552303 -0.         -0.          0.          0.          0.06672226 -0.00443888 -0.          0.         -0.         -0.
  -0.         -0.         -0.          0.          0.00650329  0.00852782 -0.04163523  0.00624974 -0.          0.          0.          0.         -0.0252134
   0.01073157 -0.00082033]
 [-0.13572079  0.08552303  0.02719263 -0.         -0.          0.          0.          0.02121479 -0.00141137 -0.          0.         -0.         -0.
  -0.         -0.         -0.          0.          0.00206776  0.00271148 -0.0132382   0.00198715 -0.          0.          0.          0.         -0.00801677
   0.00341218 -0.00026083]
 [ 0.         -0.         -0.          0.          0.         -0.         -0.         -0.          0.          0.         -0.          0.          0.
   0.          0.          0.         -0.         -0.         -0.          0.         -0.          0.         -0.         -0.         -0.          0.
  -0.          0.        ]
 [ 0.         -0.         -0.          0.          0.         -0.         -0.         -0.          0.          0.         -0.          0.          0.
   0.          0.          0.         -0.         -0.         -0.          0.         -0.          0.         -0.         -0.         -0.          0.
  -0.          0.        ]
 [-0.          0.          0.         -0.         -0.          0.          0.          0.         -0.         -0.          0.         -0.         -0.
  -0.         -0.         -0.          0.          0.          0.         -0.          0.         -0.          0.          0.          0.         -0.
   0.         -0.        ]
 [-0.          0.          0.         -0.         -0.          0.          0.          0.         -0.         -0.          0.         -0.         -0.
  -0.         -0.         -0.          0.          0.          0.         -0.          0.         -0.          0.          0.          0.         -0.
   0.         -0.        ]
 [-0.1058849   0.06672226  0.02121479 -0.         -0.          0.          0.          0.01655109 -0.00110111 -0.          0.         -0.         -0.
  -0.         -0.         -0.          0.          0.0016132   0.00211541 -0.01032801  0.00155031 -0.          0.          0.          0.         -0.00625442
   0.00266207 -0.00020349]
 [ 0.00704428 -0.00443888 -0.00141137  0.          0.         -0.         -0.         -0.00110111  0.00007325  0.         -0.          0.          0.
   0.          0.          0.         -0.         -0.00010732 -0.00014073  0.0006871  -0.00010314  0.         -0.         -0.         -0.          0.00041609
  -0.0001771   0.00001354]
 [ 0.         -0.         -0.          0.          0.         -0.         -0.         -0.          0.          0.         -0.          0.          0.
   0.          0.          0.         -0.         -0.         -0.          0.         -0.          0.         -0.         -0.         -0.          0.
  -0.          0.        ]
 [-0.          0.          0.         -0.         -0.          0.          0.          0.         -0.         -0.          0.         -0.         -0.
  -0.         -0.         -0.          0.          0.          0.         -0.          0.         -0.          0.          0.          0.         -0.
   0.         -0.        ]
 [ 0.         -0.         -0.          0.          0.         -0.         -0.         -0.          0.          0.         -0.          0.          0.
   0.          0.          0.         -0.         -0.         -0.          0.         -0.          0.         -0.         -0.         -0.          0.
  -0.          0.        ]
 [ 0.         -0.         -0.          0.          0.         -0.         -0.         -0.          0.          0.         -0.          0.          0.
   0.          0.          0.         -0.         -0.         -0.          0.         -0.          0.         -0.         -0.         -0.          0.
  -0.          0.        ]
 [ 0.         -0.         -0.          0.          0.         -0.         -0.         -0.          0.          0.         -0.          0.          0.
   0.          0.          0.         -0.         -0.         -0.          0.         -0.          0.         -0.         -0.         -0.          0.
  -0.          0.        ]
 [ 0.         -0.         -0.          0.          0.         -0.         -0.         -0.          0.          0.         -0.          0.          0.
   0.          0.          0.         -0.         -0.         -0.          0.         -0.          0.         -0.         -0.         -0.          0.
  -0.          0.        ]
 [ 0.         -0.         -0.          0.          0.         -0.         -0.         -0.          0.          0.         -0.          0.          0.
   0.          0.          0.         -0.         -0.         -0.          0.         -0.          0.         -0.         -0.         -0.          0.
  -0.          0.        ]
 [-0.          0.          0.         -0.         -0.          0.          0.          0.         -0.         -0.          0.         -0.         -0.
  -0.         -0.         -0.          0.          0.          0.         -0.          0.         -0.          0.          0.          0.         -0.
   0.         -0.        ]
 [-0.01032039  0.00650329  0.00206776 -0.         -0.          0.          0.          0.0016132  -0.00010732 -0.          0.         -0.         -0.
  -0.         -0.         -0.          0.          0.00015724  0.00020618 -0.00100665  0.00015111 -0.          0.          0.          0.         -0.00060961
   0.00025947 -0.00001983]
 [-0.01353322  0.00852782  0.00271148 -0.         -0.          0.          0.          0.00211541 -0.00014073 -0.          0.         -0.         -0.
  -0.         -0.         -0.          0.          0.00020618  0.00027037 -0.00132003  0.00019815 -0.          0.          0.          0.         -0.00079938
   0.00034024 -0.00002601]
 [ 0.06607304 -0.04163523 -0.0132382   0.          0.         -0.         -0.         -0.01032801  0.0006871   0.         -0.          0.          0.
   0.          0.          0.         -0.         -0.00100665 -0.00132003  0.00644476 -0.0009674   0.         -0.         -0.         -0.          0.00390281
  -0.00166115  0.00012698]
 [-0.00991803  0.00624974  0.00198715 -0.         -0.          0.          0.          0.00155031 -0.00010314 -0.          0.         -0.         -0.
  -0.         -0.         -0.          0.          0.00015111  0.00019815 -0.0009674   0.00014521 -0.          0.          0.          0.         -0.00058584
   0.00024935 -0.00001906]
 [ 0.         -0.         -0.          0.          0.         -0.         -0.         -0.          0.          0.         -0.          0.          0.
   0.          0.          0.         -0.         -0.         -0.          0.         -0.          0.         -0.         -0.         -0.          0.
  -0.          0.        ]
 [-0.          0.          0.         -0.         -0.          0.          0.          0.         -0.         -0.          0.         -0.         -0.
  -0.         -0.         -0.          0.          0.          0.         -0.          0.         -0.          0.          0.          0.         -0.
   0.         -0.        ]
 [-0.          0.          0.         -0.         -0.          0.          0.          0.         -0.         -0.          0.         -0.         -0.
  -0.         -0.         -0.          0.          0.          0.         -0.          0.         -0.          0.          0.          0.         -0.
   0.         -0.        ]
 [-0.          0.          0.         -0.         -0.          0.          0.          0.         -0.         -0.          0.         -0.         -0.
  -0.         -0.         -0.          0.          0.          0.         -0.          0.         -0.          0.          0.          0.         -0.
   0.         -0.        ]
 [ 0.04001241 -0.0252134  -0.00801677  0.          0.         -0.         -0.         -0.00625442  0.00041609  0.         -0.          0.          0.
   0.          0.          0.         -0.         -0.00060961 -0.00079938  0.00390281 -0.00058584  0.         -0.         -0.         -0.          0.00236346
  -0.00100596  0.0000769 ]
 [-0.01703047  0.01073157  0.00341218 -0.         -0.          0.          0.          0.00266207 -0.0001771  -0.          0.         -0.         -0.
  -0.         -0.         -0.          0.          0.00025947  0.00034024 -0.00166115  0.00024935 -0.          0.          0.          0.         -0.00100596
   0.00042817 -0.00003273]
 [ 0.00130182 -0.00082033 -0.00026083  0.          0.         -0.         -0.         -0.00020349  0.00001354  0.         -0.          0.          0.
   0.          0.          0.         -0.         -0.00001983 -0.00002601  0.00012698 -0.00001906  0.         -0.         -0.         -0.          0.0000769
  -0.00003273  0.0000025 ]] 
 [[ 0.67739443  0.42685296 -0.13572079 -0.         -0.         -0.          0.          0.1058849   0.00704428 -0.         -0.         -0.         -0.
  -0.          0.         -0.          0.          0.01032039 -0.01353322 -0.06607304 -0.00991803  0.          0.          0.          0.         -0.04001241
  -0.01703047 -0.00130182]
 [ 0.42685296  0.2689769  -0.08552303 -0.         -0.         -0.          0.          0.06672226  0.00443888 -0.         -0.         -0.         -0.
  -0.          0.         -0.          0.          0.00650329 -0.00852782 -0.04163523 -0.00624974  0.          0.          0.          0.         -0.0252134
  -0.01073157 -0.00082033]
 [-0.13572079 -0.08552303  0.02719263  0.          0.          0.         -0.         -0.02121479 -0.00141137  0.          0.          0.          0.
   0.         -0.          0.         -0.         -0.00206776  0.00271148  0.0132382   0.00198715 -0.         -0.         -0.         -0.          0.00801677
   0.00341218  0.00026083]
 [-0.         -0.          0.          0.          0.          0.         -0.         -0.         -0.          0.          0.          0.          0.
   0.         -0.          0.         -0.         -0.          0.          0.          0.         -0.         -0.         -0.         -0.          0.
   0.          0.        ]
 [-0.         -0.          0.          0.          0.          0.         -0.         -0.         -0.          0.          0.          0.          0.
   0.         -0.          0.         -0.         -0.          0.          0.          0.         -0.         -0.         -0.         -0.          0.
   0.          0.        ]
 [-0.         -0.          0.          0.          0.          0.         -0.         -0.         -0.          0.          0.          0.          0.
   0.         -0.          0.         -0.         -0.          0.          0.          0.         -0.         -0.         -0.         -0.          0.
   0.          0.        ]
 [ 0.          0.         -0.         -0.         -0.         -0.          0.          0.          0.         -0.         -0.         -0.         -0.
  -0.          0.         -0.          0.          0.         -0.         -0.         -0.          0.          0.          0.          0.         -0.
  -0.         -0.        ]
 [ 0.1058849   0.06672226 -0.02121479 -0.         -0.         -0.          0.          0.01655109  0.00110111 -0.         -0.         -0.         -0.
  -0.          0.         -0.          0.          0.0016132  -0.00211541 -0.01032801 -0.00155031  0.          0.          0.          0.         -0.00625442
  -0.00266207 -0.00020349]
 [ 0.00704428  0.00443888 -0.00141137 -0.         -0.         -0.          0.          0.00110111  0.00007325 -0.         -0.         -0.         -0.
  -0.          0.         -0.          0.          0.00010732 -0.00014073 -0.0006871  -0.00010314  0.          0.          0.          0.         -0.00041609
  -0.0001771  -0.00001354]
 [-0.         -0.          0.          0.          0.          0.         -0.         -0.         -0.          0.          0.          0.          0.
   0.         -0.          0.         -0.         -0.          0.          0.          0.         -0.         -0.         -0.         -0.          0.
   0.          0.        ]
 [-0.         -0.          0.          0.          0.          0.         -0.         -0.         -0.          0.          0.          0.          0.
   0.         -0.          0.         -0.         -0.          0.          0.          0.         -0.         -0.         -0.         -0.          0.
   0.          0.        ]
 [-0.         -0.          0.          0.          0.          0.         -0.         -0.         -0.          0.          0.          0.          0.
   0.         -0.          0.         -0.         -0.          0.          0.          0.         -0.         -0.         -0.         -0.          0.
   0.          0.        ]
 [-0.         -0.          0.          0.          0.          0.         -0.         -0.         -0.          0.          0.          0.          0.
   0.         -0.          0.         -0.         -0.          0.          0.          0.         -0.         -0.         -0.         -0.          0.
   0.          0.        ]
 [-0.         -0.          0.          0.          0.          0.         -0.         -0.         -0.          0.          0.          0.          0.
   0.         -0.          0.         -0.         -0.          0.          0.          0.         -0.         -0.         -0.         -0.          0.
   0.          0.        ]
 [ 0.          0.         -0.         -0.         -0.         -0.          0.          0.          0.         -0.         -0.         -0.         -0.
  -0.          0.         -0.          0.          0.         -0.         -0.         -0.          0.          0.          0.          0.         -0.
  -0.         -0.        ]
 [-0.         -0.          0.          0.          0.          0.         -0.         -0.         -0.          0.          0.          0.          0.
   0.         -0.          0.         -0.         -0.          0.          0.          0.         -0.         -0.         -0.         -0.          0.
   0.          0.        ]
 [ 0.          0.         -0.         -0.         -0.         -0.          0.          0.          0.         -0.         -0.         -0.         -0.
  -0.          0.         -0.          0.          0.         -0.         -0.         -0.          0.          0.          0.          0.         -0.
  -0.         -0.        ]
 [ 0.01032039  0.00650329 -0.00206776 -0.         -0.         -0.          0.          0.0016132   0.00010732 -0.         -0.         -0.         -0.
  -0.          0.         -0.          0.          0.00015724 -0.00020618 -0.00100665 -0.00015111  0.          0.          0.          0.         -0.00060961
  -0.00025947 -0.00001983]
 [-0.01353322 -0.00852782  0.00271148  0.          0.          0.         -0.         -0.00211541 -0.00014073  0.          0.          0.          0.
   0.         -0.          0.         -0.         -0.00020618  0.00027037  0.00132003  0.00019815 -0.         -0.         -0.         -0.          0.00079938
   0.00034024  0.00002601]
 [-0.06607304 -0.04163523  0.0132382   0.          0.          0.         -0.         -0.01032801 -0.0006871   0.          0.          0.          0.
   0.         -0.          0.         -0.         -0.00100665  0.00132003  0.00644476  0.0009674  -0.         -0.         -0.         -0.          0.00390281
   0.00166115  0.00012698]
 [-0.00991803 -0.00624974  0.00198715  0.          0.          0.         -0.         -0.00155031 -0.00010314  0.          0.          0.          0.
   0.         -0.          0.         -0.         -0.00015111  0.00019815  0.0009674   0.00014521 -0.         -0.         -0.         -0.          0.00058584
   0.00024935  0.00001906]
 [ 0.          0.         -0.         -0.         -0.         -0.          0.          0.          0.         -0.         -0.         -0.         -0.
  -0.          0.         -0.          0.          0.         -0.         -0.         -0.          0.          0.          0.          0.         -0.
  -0.         -0.        ]
 [ 0.          0.         -0.         -0.         -0.         -0.          0.          0.          0.         -0.         -0.         -0.         -0.
  -0.          0.         -0.          0.          0.         -0.         -0.         -0.          0.          0.          0.          0.         -0.
  -0.         -0.        ]
 [ 0.          0.         -0.         -0.         -0.         -0.          0.          0.          0.         -0.         -0.         -0.         -0.
  -0.          0.         -0.          0.          0.         -0.         -0.         -0.          0.          0.          0.          0.         -0.
  -0.         -0.        ]
 [ 0.          0.         -0.         -0.         -0.         -0.          0.          0.          0.         -0.         -0.         -0.         -0.
  -0.          0.         -0.          0.          0.         -0.         -0.         -0.          0.          0.          0.          0.         -0.
  -0.         -0.        ]
 [-0.04001241 -0.0252134   0.00801677  0.          0.          0.         -0.         -0.00625442 -0.00041609  0.          0.          0.          0.
   0.         -0.          0.         -0.         -0.00060961  0.00079938  0.00390281  0.00058584 -0.         -0.         -0.         -0.          0.00236346
   0.00100596  0.0000769 ]
 [-0.01703047 -0.01073157  0.00341218  0.          0.          0.         -0.         -0.00266207 -0.0001771   0.          0.          0.          0.
   0.         -0.          0.         -0.         -0.00025947  0.00034024  0.00166115  0.00024935 -0.         -0.         -0.         -0.          0.00100596
   0.00042817  0.00003273]
 [-0.00130182 -0.00082033  0.00026083  0.          0.          0.         -0.         -0.00020349 -0.00001354  0.          0.          0.          0.
   0.         -0.          0.         -0.         -0.00001983  0.00002601  0.00012698  0.00001906 -0.         -0.         -0.         -0.          0.0000769
[...]
 [ 0.0461905  -0.01998202  0.         ...  0.          0.          0.        ]]
Hsp + Hph =  -1.3013432591893732
Feff (mod,ortho)
[[-0.23075729  0.2774201   0.27740484 ...  0.          0.          0.        ]
 [ 0.2774201   0.12300399 -0.09850555 ...  0.          0.          0.        ]
 [ 0.27740484 -0.09850555  1.21828575 ...  0.          0.          0.        ]
 ...
 [ 0.          0.          0.         ...  3.28304075 -0.01065434  0.25454356]
 [ 0.          0.          0.         ... -0.01065434  1.77940324 -0.01726611]
 [ 0.          0.          0.         ...  0.25454356 -0.01726611  1.52718128]]
E(SUHF) =     -1.02282894
e_a, e_b
[-0.4985056   0.07140223  0.36151563  0.48980398  0.69904421  0.69904421  0.70265951  0.88468742  0.88468742  1.19961956  2.44381453  2.65947262  3.30386221
  3.36869506  3.36869506  3.43057872  3.43057872  3.48747131  3.48747131  3.53632131  3.53632131  3.66538496  3.84732203  3.84732203  3.98836128  3.98836128
  3.99245709  4.48065705] [-0.4985056   0.07140223  0.36151563  0.48980398  0.69904421  0.69904421  0.70265951  0.88468742  0.88468742  1.19961956  2.44381453  2.65947262  3.30386221
  3.36869506  3.36869506  3.43057872  3.43057872  3.48747131  3.48747131  3.53632131  3.53632131  3.66538496  3.84732203  3.84732203  3.98836128  3.98836128
  3.99245709  4.48065705]
P_a, P_b
[[ 0.64056376 -0.43889569 -0.13488294  0.          0.         -0.         -0.         -0.11622301  0.00676012  0.         -0.          0.          0.
   0.         -0.          0.         -0.         -0.01207408 -0.00162346  0.05821338 -0.01065409 -0.         -0.          0.         -0.          0.0414757
  -0.0206528   0.0082468 ]
 [-0.43889569  0.30071859  0.09241788 -0.         -0.          0.          0.          0.07963263 -0.00463184 -0.          0.         -0.         -0.
  -0.          0.         -0.          0.          0.00827281  0.00111234 -0.03988612  0.00729987  0.          0.         -0.          0.         -0.02841794
   0.0141507  -0.00565047]
 [-0.13488294  0.09241788  0.02840218 -0.         -0.          0.          0.          0.02447298 -0.00142347 -0.          0.         -0.         -0.
  -0.          0.         -0.          0.          0.00254243  0.00034185 -0.01225794  0.00224342  0.          0.         -0.          0.         -0.0087335
   0.00434884 -0.00173652]
 [ 0.         -0.         -0.          0.          0.         -0.         -0.         -0.          0.          0.         -0.          0.          0.
   0.         -0.          0.         -0.         -0.         -0.          0.         -0.         -0.         -0.          0.         -0.          0.
  -0.          0.        ]
 [ 0.         -0.         -0.          0.          0.         -0.         -0.         -0.          0.          0.         -0.          0.          0.
   0.         -0.          0.         -0.         -0.         -0.          0.         -0.         -0.         -0.          0.         -0.          0.
  -0.          0.        ]
 [-0.          0.          0.         -0.         -0.          0.          0.          0.         -0.         -0.          0.         -0.         -0.
  -0.          0.         -0.          0.          0.          0.         -0.          0.          0.          0.         -0.          0.         -0.
   0.         -0.        ]
 [-0.          0.          0.         -0.         -0.          0.          0.          0.         -0.         -0.          0.         -0.         -0.
  -0.          0.         -0.          0.          0.          0.         -0.          0.          0.          0.         -0.          0.         -0.
   0.         -0.        ]
 [-0.11622301  0.07963263  0.02447298 -0.         -0.          0.          0.          0.02108734 -0.00122655 -0.          0.         -0.         -0.
  -0.          0.         -0.          0.          0.0021907   0.00029456 -0.01056216  0.00193306  0.          0.         -0.          0.         -0.00752529
   0.00374722 -0.00149629]
 [ 0.00676012 -0.00463184 -0.00142347  0.          0.         -0.         -0.         -0.00122655  0.00007134  0.         -0.          0.          0.
   0.         -0.          0.         -0.         -0.00012742 -0.00001713  0.00061435 -0.00011244 -0.         -0.          0.         -0.          0.00043771
  -0.00021796  0.00008703]
 [ 0.         -0.         -0.          0.          0.         -0.         -0.         -0.          0.          0.         -0.          0.          0.
   0.         -0.          0.         -0.         -0.         -0.          0.         -0.         -0.         -0.          0.         -0.          0.
  -0.          0.        ]
 [-0.          0.          0.         -0.         -0.          0.          0.          0.         -0.         -0.          0.         -0.         -0.
  -0.          0.         -0.          0.          0.          0.         -0.          0.          0.          0.         -0.          0.         -0.
   0.         -0.        ]
 [ 0.         -0.         -0.          0.          0.         -0.         -0.         -0.          0.          0.         -0.          0.          0.
   0.         -0.          0.         -0.         -0.         -0.          0.         -0.         -0.         -0.          0.         -0.          0.
  -0.          0.        ]
 [ 0.         -0.         -0.          0.          0.         -0.         -0.         -0.          0.          0.         -0.          0.          0.
   0.         -0.          0.         -0.         -0.         -0.          0.         -0.         -0.         -0.          0.         -0.          0.
  -0.          0.        ]
 [ 0.         -0.         -0.          0.          0.         -0.         -0.         -0.          0.          0.         -0.          0.          0.
   0.         -0.          0.         -0.         -0.         -0.          0.         -0.         -0.         -0.          0.         -0.          0.
  -0.          0.        ]
 [-0.          0.          0.         -0.         -0.          0.          0.          0.         -0.         -0.          0.         -0.         -0.
  -0.          0.         -0.          0.          0.          0.         -0.          0.          0.          0.         -0.          0.         -0.
   0.         -0.        ]
 [ 0.         -0.         -0.          0.          0.         -0.         -0.         -0.          0.          0.         -0.          0.          0.
   0.         -0.          0.         -0.         -0.         -0.          0.         -0.         -0.         -0.          0.         -0.          0.
  -0.          0.        ]
 [-0.          0.          0.         -0.         -0.          0.          0.          0.         -0.         -0.          0.         -0.         -0.
  -0.          0.         -0.          0.          0.          0.         -0.          0.          0.          0.         -0.          0.         -0.
   0.         -0.        ]
 [-0.01207408  0.00827281  0.00254243 -0.         -0.          0.          0.          0.0021907  -0.00012742 -0.          0.         -0.         -0.
  -0.          0.         -0.          0.          0.00022759  0.0000306  -0.00109727  0.00020082  0.          0.         -0.          0.         -0.00078178
   0.00038929 -0.00015545]
 [-0.00162346  0.00111234  0.00034185 -0.         -0.          0.          0.          0.00029456 -0.00001713 -0.          0.         -0.         -0.
  -0.          0.         -0.          0.          0.0000306   0.00000411 -0.00014754  0.000027    0.          0.         -0.          0.         -0.00010512
   0.00005234 -0.0000209 ]
 [ 0.05821338 -0.03988612 -0.01225794  0.          0.         -0.         -0.         -0.01056216  0.00061435  0.         -0.          0.          0.
   0.         -0.          0.         -0.         -0.00109727 -0.00014754  0.00529034 -0.00096823 -0.         -0.          0.         -0.          0.00376924
  -0.00187689  0.00074946]
 [-0.01065409  0.00729987  0.00224342 -0.         -0.          0.          0.          0.00193306 -0.00011244 -0.          0.         -0.         -0.
  -0.          0.         -0.          0.          0.00020082  0.000027   -0.00096823  0.0001772   0.          0.         -0.          0.         -0.00068984
   0.0003435  -0.00013716]
 [-0.          0.          0.         -0.         -0.          0.          0.          0.         -0.         -0.          0.         -0.         -0.
  -0.          0.         -0.          0.          0.          0.         -0.          0.          0.          0.         -0.          0.         -0.
   0.         -0.        ]
 [-0.          0.          0.         -0.         -0.          0.          0.          0.         -0.         -0.          0.         -0.         -0.
  -0.          0.         -0.          0.          0.          0.         -0.          0.          0.          0.         -0.          0.         -0.
   0.         -0.        ]
 [ 0.         -0.         -0.          0.          0.         -0.         -0.         -0.          0.          0.         -0.          0.          0.
   0.         -0.          0.         -0.         -0.         -0.          0.         -0.         -0.         -0.          0.         -0.          0.
  -0.          0.        ]
 [-0.          0.          0.         -0.         -0.          0.          0.          0.         -0.         -0.          0.         -0.         -0.
  -0.          0.         -0.          0.          0.          0.         -0.          0.          0.          0.         -0.          0.         -0.
   0.         -0.        ]
 [ 0.0414757  -0.02841794 -0.0087335   0.          0.         -0.         -0.         -0.00752529  0.00043771  0.         -0.          0.          0.
   0.         -0.          0.         -0.         -0.00078178 -0.00010512  0.00376924 -0.00068984 -0.         -0.          0.         -0.          0.0026855
  -0.00133724  0.00053397]
 [-0.0206528   0.0141507   0.00434884 -0.         -0.          0.          0.          0.00374722 -0.00021796 -0.          0.         -0.         -0.
  -0.          0.         -0.          0.          0.00038929  0.00005234 -0.00187689  0.0003435   0.          0.         -0.          0.         -0.00133724
   0.00066588 -0.00026589]
 [ 0.0082468  -0.00565047 -0.00173652  0.          0.         -0.         -0.         -0.00149629  0.00008703  0.         -0.          0.          0.
   0.         -0.          0.         -0.         -0.00015545 -0.0000209   0.00074946 -0.00013716 -0.         -0.          0.         -0.          0.00053397
  -0.00026589  0.00010617]] 
 [[ 0.64056376  0.43889569 -0.13488294 -0.         -0.         -0.          0.          0.11622301  0.00676012 -0.         -0.          0.         -0.
  -0.          0.         -0.          0.          0.01207408 -0.00162346 -0.05821338 -0.01065409  0.          0.          0.          0.         -0.0414757
  -0.0206528  -0.0082468 ]
 [ 0.43889569  0.30071859 -0.09241788 -0.         -0.         -0.          0.          0.07963263  0.00463184 -0.         -0.          0.         -0.
  -0.          0.         -0.          0.          0.00827281 -0.00111234 -0.03988612 -0.00729987  0.          0.          0.          0.         -0.02841794
  -0.0141507  -0.00565047]
 [-0.13488294 -0.09241788  0.02840218  0.          0.          0.         -0.         -0.02447298 -0.00142347  0.          0.         -0.          0.
   0.         -0.          0.         -0.         -0.00254243  0.00034185  0.01225794  0.00224342 -0.         -0.         -0.         -0.          0.0087335
   0.00434884  0.00173652]
 [-0.         -0.          0.          0.          0.          0.         -0.         -0.         -0.          0.          0.         -0.          0.
   0.         -0.          0.         -0.         -0.          0.          0.          0.         -0.         -0.         -0.         -0.          0.
   0.          0.        ]
 [-0.         -0.          0.          0.          0.          0.         -0.         -0.         -0.          0.          0.         -0.          0.
   0.         -0.          0.         -0.         -0.          0.          0.          0.         -0.         -0.         -0.         -0.          0.
   0.          0.        ]
 [-0.         -0.          0.          0.          0.          0.         -0.         -0.         -0.          0.          0.         -0.          0.
   0.         -0.          0.         -0.         -0.          0.          0.          0.         -0.         -0.         -0.         -0.          0.
   0.          0.        ]
 [ 0.          0.         -0.         -0.         -0.         -0.          0.          0.          0.         -0.         -0.          0.         -0.
  -0.          0.         -0.          0.          0.         -0.         -0.         -0.          0.          0.          0.          0.         -0.
  -0.         -0.        ]
 [ 0.11622301  0.07963263 -0.02447298 -0.         -0.         -0.          0.          0.02108734  0.00122655 -0.         -0.          0.         -0.
  -0.          0.         -0.          0.          0.0021907  -0.00029456 -0.01056216 -0.00193306  0.          0.          0.          0.         -0.00752529
  -0.00374722 -0.00149629]
 [ 0.00676012  0.00463184 -0.00142347 -0.         -0.         -0.          0.          0.00122655  0.00007134 -0.         -0.          0.         -0.
  -0.          0.         -0.          0.          0.00012742 -0.00001713 -0.00061435 -0.00011244  0.          0.          0.          0.         -0.00043771
  -0.00021796 -0.00008703]
 [-0.         -0.          0.          0.          0.          0.         -0.         -0.         -0.          0.          0.         -0.          0.
   0.         -0.          0.         -0.         -0.          0.          0.          0.         -0.         -0.         -0.         -0.          0.
   0.          0.        ]
 [-0.         -0.          0.          0.          0.          0.         -0.         -0.         -0.          0.          0.         -0.          0.
   0.         -0.          0.         -0.         -0.          0.          0.          0.         -0.         -0.         -0.         -0.          0.
   0.          0.        ]
 [ 0.          0.         -0.         -0.         -0.         -0.          0.          0.          0.         -0.         -0.          0.         -0.
  -0.          0.         -0.          0.          0.         -0.         -0.         -0.          0.          0.          0.          0.         -0.
  -0.         -0.        ]
 [-0.         -0.          0.          0.          0.          0.         -0.         -0.         -0.          0.          0.         -0.          0.
   0.         -0.          0.         -0.         -0.          0.          0.          0.         -0.         -0.         -0.         -0.          0.
   0.          0.        ]
 [-0.         -0.          0.          0.          0.          0.         -0.         -0.         -0.          0.          0.         -0.          0.
   0.         -0.          0.         -0.         -0.          0.          0.          0.         -0.         -0.         -0.         -0.          0.
   0.          0.        ]
 [ 0.          0.         -0.         -0.         -0.         -0.          0.          0.          0.         -0.         -0.          0.         -0.
  -0.          0.         -0.          0.          0.         -0.         -0.         -0.          0.          0.          0.          0.         -0.
  -0.         -0.        ]
 [-0.         -0.          0.          0.          0.          0.         -0.         -0.         -0.          0.          0.         -0.          0.
   0.         -0.          0.         -0.         -0.          0.          0.          0.         -0.         -0.         -0.         -0.          0.
   0.          0.        ]
 [ 0.          0.         -0.         -0.         -0.         -0.          0.          0.          0.         -0.         -0.          0.         -0.
  -0.          0.         -0.          0.          0.         -0.         -0.         -0.          0.          0.          0.          0.         -0.
  -0.         -0.        ]
 [ 0.01207408  0.00827281 -0.00254243 -0.         -0.         -0.          0.          0.0021907   0.00012742 -0.         -0.          0.         -0.
  -0.          0.         -0.          0.          0.00022759 -0.0000306  -0.00109727 -0.00020082  0.          0.          0.          0.         -0.00078178
  -0.00038929 -0.00015545]
 [-0.00162346 -0.00111234  0.00034185  0.          0.          0.         -0.         -0.00029456 -0.00001713  0.          0.         -0.          0.
   0.         -0.          0.         -0.         -0.0000306   0.00000411  0.00014754  0.000027   -0.         -0.         -0.         -0.          0.00010512
   0.00005234  0.0000209 ]
 [-0.05821338 -0.03988612  0.01225794  0.          0.          0.         -0.         -0.01056216 -0.00061435  0.          0.         -0.          0.
   0.         -0.          0.         -0.         -0.00109727  0.00014754  0.00529034  0.00096823 -0.         -0.         -0.         -0.          0.00376924
   0.00187689  0.00074946]
 [-0.01065409 -0.00729987  0.00224342  0.          0.          0.         -0.         -0.00193306 -0.00011244  0.          0.         -0.          0.
   0.         -0.          0.         -0.         -0.00020082  0.000027    0.00096823  0.0001772  -0.         -0.         -0.         -0.          0.00068984
   0.0003435   0.00013716]
 [ 0.          0.         -0.         -0.         -0.         -0.          0.          0.          0.         -0.         -0.          0.         -0.
  -0.          0.         -0.          0.          0.         -0.         -0.         -0.          0.          0.          0.          0.         -0.
  -0.         -0.        ]
 [ 0.          0.         -0.         -0.         -0.         -0.          0.          0.          0.         -0.         -0.          0.         -0.
  -0.          0.         -0.          0.          0.         -0.         -0.         -0.          0.          0.          0.          0.         -0.
  -0.         -0.        ]
 [ 0.          0.         -0.         -0.         -0.         -0.          0.          0.          0.         -0.         -0.          0.         -0.
  -0.          0.         -0.          0.          0.         -0.         -0.         -0.          0.          0.          0.          0.         -0.
  -0.         -0.        ]
 [ 0.          0.         -0.         -0.         -0.         -0.          0.          0.          0.         -0.         -0.          0.         -0.
  -0.          0.         -0.          0.          0.         -0.         -0.         -0.          0.          0.          0.          0.         -0.
  -0.         -0.        ]
 [-0.0414757  -0.02841794  0.0087335   0.          0.          0.         -0.         -0.00752529 -0.00043771  0.          0.         -0.          0.
   0.         -0.          0.         -0.         -0.00078178  0.00010512  0.00376924  0.00068984 -0.         -0.         -0.         -0.          0.0026855
   0.00133724  0.00053397]
 [-0.0206528  -0.0141507   0.00434884  0.          0.          0.         -0.         -0.00374722 -0.00021796  0.          0.         -0.          0.
   0.         -0.          0.         -0.         -0.00038929  0.00005234  0.00187689  0.0003435  -0.         -0.         -0.         -0.          0.00133724
   0.00066588  0.00026589]
 [-0.0082468  -0.00565047  0.00173652  0.          0.          0.         -0.         -0.00149629 -0.00008703  0.          0.         -0.          0.
   0.         -0.          0.         -0.         -0.00015545  0.0000209   0.00074946  0.00013716 -0.         -0.         -0.         -0.          0.00053397
   0.00026589  0.00010617]]

***************
SUHF converged at cycle 11
Final E(SUHF) =     -1.02282894, delta E = -3.45126e-09
