#INFO: **** input file is /share/home/srwang/ExSCF/test/pytest/scan_h2/scan_suhf.py ****
#import phf
from pyscf import lib
#import scipy
import numpy as np
import sys, os, contextlib

from pyphf import util, sudft

#xyz = 'h2.xyz' #sys.argv[1]
fch = 'test_uhf.fchk' #sys.argv[2]
#bas = '../h2.bas'
bas = 'cc-pvtz'

lib.num_threads(8)

for r in np.arange(0.5, 2.55, 0.1):
    output = 'suhf/suhf_%.1f_diis.out' % r
    os.system("echo '\n' > %s" % output)
    with open(output, 'w', encoding='utf-8') as f:
        with contextlib.redirect_stdout(f):
            xyz = '''H 0.0 0.0 0.0; H 0.0 0.0 %f'''%r
            mf = util.guess_from_fchk(xyz, bas, fch)
            #mf = util.guess(xyz, bas)
            #f.flush()
            mf2 = util.SUHF(mf)
            #mf2.cut_no = False
            mf2.debug = False
            #mf2.max_cycle = 50
            mf2.diis_on = True
            #mf2.output = 'sudft_%.1f.out'%r
            mf2.kernel()
            
            #mf3 = sudft.SUDFT(mf2)
            #mf3.suxc = 'TPSS'
            #mf3.kernel()
                    
#INFO: ******************** input file end ********************


System: uname_result(system='Linux', node='xcluster', release='3.10.0-693.el7.x86_64', version='#1 SMP Thu Jul 6 19:56:57 EDT 2017', machine='x86_64', processor='x86_64')  Threads 8
Python 3.7.4 (default, Aug 13 2019, 20:35:49) 
[GCC 7.3.0]
numpy 1.17.2  scipy 1.4.1
Date: Mon Nov 23 19:27:16 2020
PySCF version 1.7.5
PySCF path  /share/home/srwang/pyscf-1.7.5/pyscf

[CONFIG] conf_file None
[INPUT] verbose = 4
[INPUT] num. atoms = 2
[INPUT] num. electrons = 2
[INPUT] charge = 0
[INPUT] spin (= nelec alpha-beta = 2S) = 0
[INPUT] symmetry False subgroup None
[INPUT] Mole.unit = angstrom
[INPUT]  1 H      0.000000000000   0.000000000000   0.000000000000 AA    0.000000000000   0.000000000000   0.000000000000 Bohr
[INPUT]  2 H      0.000000000000   0.000000000000   0.900000000000 AA    0.000000000000   0.000000000000   1.700753512109 Bohr

nuclear repulsion = 0.5879746788
number of shells = 12
number of NR pGTOs = 32
number of NR cGTOs = 28
basis = cc-pvtz
ecp = {}
CPU time:       342.38


******** <class 'pyscf.scf.uhf.UHF'> ********
method = UHF
initial guess = minao
damping factor = 0
level_shift factor = 0
DIIS = <class 'pyscf.scf.diis.CDIIS'>
diis_start_cycle = 1
diis_space = 8
SCF conv_tol = 1e-09
SCF conv_tol_grad = None
SCF max_cycles = 1
direct_scf = True
direct_scf_tol = 1e-13
chkfile to save SCF result = /share/home/srwang/ExSCF/test/pytest/scan_h2/tmp20na_hr7
max_memory 4000 MB (current use 121 MB)
number electrons alpha = 1  beta = 1
Set gradient conv threshold to 3.16228e-05
init E= -0.777606275655003
  alpha nocc = 1  HOMO = -0.484832052038408  LUMO = 0.101893589509569
  beta  nocc = 1  HOMO = -0.482896344390349  LUMO = 0.10237926444757
cycle= 1 E= -1.11785381548896  delta_E= -0.34  |g|= 0.0309  |ddm|= 0.326
SCF not converged.
SCF energy = -1.11785381548896 after 1 cycles  <S^2> = 6.3128942e-07  2S+1 = 1.0000013


******** <class 'pyscf.scf.uhf.UHF'> ********
method = UHF
initial guess = minao
damping factor = 0
level_shift factor = 0
DIIS = <class 'pyscf.scf.diis.CDIIS'>
diis_start_cycle = 1
diis_space = 8
SCF conv_tol = 1e-09
SCF conv_tol_grad = None
SCF max_cycles = 1
direct_scf = True
direct_scf_tol = 1e-13
chkfile to save SCF result = /share/home/srwang/ExSCF/test/pytest/scan_h2/tmp20na_hr7
max_memory 4000 MB (current use 125 MB)
number electrons alpha = 1  beta = 1
Set gradient conv threshold to 3.16228e-05
init E= -1.19390694018613
  alpha nocc = 1  HOMO = -0.524641677616422  LUMO = 0.201639194594112
  beta  nocc = 1  HOMO = -0.524641677616422  LUMO = 0.201639194594111
cycle= 1 E= -1.10198639790229  delta_E= 0.0919  |g|= 0.0704  |ddm|= 0.117
SCF not converged.
SCF energy = -1.10198639790229 after 1 cycles  <S^2> = 0.16310881  2S+1 = 1.2854708

******** <class 'pyphf.util.SUHF'> ********
max_cycle = 70
verbose: normal
DIIS: <class 'pyscf.scf.diis.CDIIS'>
diis_start_cyc = 40
SVD: S^(-1/2)
[[-0.14964621  0.         -0.         -0.26424587  0.03380482 -0.         -0.         -0.         -0.         -0.13693896  0.          0.         -0.21455659
   0.          0.         -0.48405346 -0.         -0.          0.75714798  0.          0.         -0.66802072  0.81235055  0.          0.         -0.96842464
   0.33813793 -0.05983575]
 [-0.21165559 -0.          0.         -0.20126086 -0.08918098 -0.          0.          0.         -0.          0.02101152  0.          0.          0.00565436
   0.          0.         -0.12015454  0.          0.         -0.30840663 -0.         -0.         -0.16278234 -0.06271643  0.          0.          1.54092909
  -0.41791593  9.63155515]
 [-0.19586605  0.         -0.         -0.07680316 -0.2150504   0.         -0.         -0.          0.          0.03265694  0.          0.          0.10496721
   0.          0.          0.45004172 -0.          0.         -0.37863707 -0.         -0.          0.2468693   0.16266475  0.         -0.         -0.86298461
   2.92999062 -0.36290037]
 [ 0.          0.11525255  0.23192564  0.         -0.          0.44607209 -0.04332389 -0.10924026  0.03097939  0.          0.         -0.         -0.
  -0.          0.         -0.          0.51126645 -0.67462731  0.         -0.66713153 -0.39853224 -0.          0.         -0.3080158   0.11965336 -0.
  -0.          0.        ]
 [ 0.         -0.23192564  0.11525255 -0.         -0.          0.04332389  0.44607209  0.03097939  0.10924026 -0.         -0.         -0.          0.
  -0.         -0.         -0.          0.67462731  0.51126645 -0.         -0.39853224  0.66713153 -0.         -0.         -0.11965336 -0.3080158   0.
   0.         -0.        ]
 [-0.07488524  0.         -0.          0.15337288  0.37095    -0.         -0.         -0.          0.         -0.28991102 -0.         -0.          0.07609533
  -0.         -0.          0.38940989  0.          0.         -0.45099683 -0.         -0.         -0.7606183   1.24423837  0.         -0.          0.05466912
  -0.42384389  0.59603679]
 [ 0.          0.14262126  0.28700039  0.         -0.          0.28212813 -0.02740115 -0.2306521   0.06541051  0.          0.         -0.         -0.
   0.         -0.          0.         -0.37990227  0.50128939 -0.          0.27437241  0.16390509  0.         -0.          1.36155624 -0.52891695  0.
  -0.         -0.        ]
 [ 0.         -0.28700039  0.14262126  0.          0.          0.02740115  0.28212813  0.06541051  0.2306521  -0.         -0.         -0.          0.
   0.         -0.         -0.         -0.50128939 -0.37990227  0.          0.16390509 -0.27437241  0.          0.          0.52891695  1.36155624 -0.
  -0.         -0.        ]
 [-0.10308907  0.          0.          0.30515777  0.23987289  0.          0.         -0.         -0.         -0.12657649  0.          0.          0.23859148
   0.          0.         -0.2598517  -0.         -0.          0.54638578  0.          0.          1.15444285 -0.19325415 -0.         -0.         -0.20675898
   0.99087656  5.50015117]
 [ 0.          0.         -0.          0.          0.          0.         -0.         -0.         -0.         -0.         -0.64065644 -0.02165076  0.
  -0.1434104  -0.78603481  0.         -0.         -0.         -0.          0.         -0.         -0.         -0.         -0.          0.          0.
   0.          0.        ]
 [ 0.         -0.16580911  0.08239677  0.          0.         -0.02974858 -0.30629778 -0.15655206 -0.55203759  0.          0.          0.         -0.
   0.          0.          0.         -0.07594951 -0.05755836 -0.         -0.42942484  0.71884485  0.          0.          0.3129253   0.8055431  -0.
  -0.         -0.        ]
 [-0.03523066 -0.         -0.          0.09999545  0.09738702 -0.          0.          0.          0.          0.53644124 -0.         -0.         -0.56607798
  -0.         -0.          0.20854186  0.         -0.          0.11359851  0.          0.          0.68167592  0.82675422  0.         -0.          0.1426286
  -0.07093893  1.24947736]
 [ 0.          0.08239677  0.16580911  0.         -0.         -0.30629778  0.02974858  0.55203759 -0.15655206 -0.         -0.          0.          0.
  -0.         -0.          0.         -0.05755836  0.07594951  0.         -0.71884485 -0.42942484  0.         -0.          0.8055431  -0.3129253   0.
  -0.          0.        ]
 [ 0.         -0.          0.          0.          0.          0.          0.         -0.          0.          0.         -0.02165076  0.64065644  0.
  -0.78603481  0.1434104   0.         -0.          0.          0.         -0.          0.          0.          0.          0.          0.          0.
   0.          0.        ]
 [-0.14964621 -0.          0.          0.26424587  0.03380482 -0.          0.          0.         -0.          0.13693896 -0.         -0.         -0.21455659
   0.         -0.         -0.48405346  0.          0.         -0.75714798 -0.         -0.         -0.66802072 -0.81235055 -0.          0.         -0.96842464
  -0.33813793  0.05983575]
 [-0.21165559 -0.         -0.          0.20126086 -0.08918098  0.          0.          0.         -0.         -0.02101152  0.          0.          0.00565436
   0.          0.         -0.12015454  0.         -0.          0.30840663  0.          0.         -0.16278234  0.06271643  0.          0.          1.54092909
   0.41791593 -9.63155515]
 [-0.19586605  0.         -0.          0.07680316 -0.2150504  -0.         -0.         -0.          0.         -0.03265694 -0.         -0.          0.10496721
  -0.         -0.          0.45004172 -0.         -0.          0.37863707  0.          0.          0.2468693  -0.16266475 -0.         -0.         -0.86298461
  -2.92999062  0.36290037]
 [ 0.          0.11525255  0.23192564  0.         -0.         -0.44607209  0.04332389 -0.10924026  0.03097939  0.          0.         -0.          0.
  -0.          0.         -0.          0.51126645 -0.67462731 -0.          0.66713153  0.39853224  0.         -0.          0.3080158  -0.11965336 -0.
   0.          0.        ]
 [ 0.         -0.23192564  0.11525255  0.          0.         -0.04332389 -0.44607209  0.03097939  0.10924026  0.         -0.         -0.         -0.
  -0.         -0.         -0.          0.67462731  0.51126645  0.          0.39853224 -0.66713153  0.          0.          0.11965336  0.3080158  -0.
  -0.         -0.        ]
 [ 0.07488524  0.         -0.          0.15337288 -0.37095    -0.         -0.         -0.         -0.         -0.28991102 -0.         -0.         -0.07609533
  -0.         -0.         -0.38940989 -0.          0.         -0.45099683  0.         -0.          0.7606183   1.24423837  0.         -0.         -0.05466912
  -0.42384389  0.59603679]
 [ 0.          0.14262126  0.28700039  0.         -0.         -0.28212813  0.02740115 -0.2306521   0.06541051  0.          0.         -0.          0.
   0.         -0.          0.         -0.37990227  0.50128939  0.         -0.27437241 -0.16390509 -0.          0.         -1.36155624  0.52891695 -0.
   0.         -0.        ]
 [ 0.         -0.28700039  0.14262126  0.          0.         -0.02740115 -0.28212813  0.06541051  0.2306521   0.         -0.         -0.         -0.
   0.          0.         -0.         -0.50128939 -0.37990227 -0.         -0.16390509  0.27437241 -0.         -0.         -0.52891695 -1.36155624  0.
   0.          0.        ]
 [ 0.10308907 -0.         -0.          0.30515777 -0.23987289 -0.         -0.          0.          0.         -0.12657649  0.          0.         -0.23859148
   0.          0.          0.2598517  -0.         -0.          0.54638578  0.          0.         -1.15444285 -0.19325415  0.          0.          0.20675898
   0.99087656  5.50015117]
 [-0.         -0.          0.          0.          0.          0.          0.         -0.         -0.         -0.         -0.64065644 -0.02165076  0.
   0.1434104   0.78603481 -0.          0.          0.          0.         -0.         -0.          0.          0.         -0.         -0.         -0.
  -0.         -0.        ]
 [ 0.          0.16580911 -0.08239677 -0.         -0.         -0.02974858 -0.30629778  0.15655206  0.55203759  0.         -0.         -0.         -0.
   0.          0.         -0.          0.07594951  0.05755836 -0.         -0.42942484  0.71884485  0.          0.          0.3129253   0.8055431  -0.
  -0.         -0.        ]
 [-0.03523066 -0.         -0.         -0.09999545  0.09738702 -0.          0.         -0.          0.         -0.53644124 -0.         -0.         -0.56607798
  -0.         -0.          0.20854186 -0.         -0.         -0.11359851  0.         -0.          0.68167592 -0.82675422 -0.         -0.          0.1426286
   0.07093893 -1.24947736]
 [-0.         -0.08239677 -0.16580911 -0.          0.         -0.30629778  0.02974858 -0.55203759  0.15655206  0.          0.         -0.          0.
   0.         -0.         -0.          0.05755836 -0.07594951  0.         -0.71884485 -0.42942484  0.         -0.          0.8055431  -0.3129253   0.
  -0.          0.        ]
 [ 0.         -0.          0.          0.          0.          0.          0.         -0.          0.          0.         -0.02165076  0.64065644  0.
   0.78603481 -0.1434104   0.         -0.          0.         -0.          0.         -0.         -0.         -0.          0.         -0.         -0.
  -0.         -0.        ]]
C (ortho)
[[-0.95749463 -0.16483554  0.03319148  0.12455447 -0.          0.         -0.15262508 -0.          0.          0.01608467  0.00931987  0.04439963  0.
   0.          0.          0.         -0.11092758 -0.          0.         -0.          0.         -0.          0.         -0.00312656  0.          0.
  -0.03854737  0.00242258]
 [ 0.         -0.          0.         -0.         -0.79293671  0.30500767  0.          0.03634554 -0.03726562  0.         -0.          0.         -0.
  -0.         -0.46554284  0.21642293  0.          0.         -0.         -0.05058595  0.03707283 -0.04396697  0.07776624 -0.          0.00101315  0.00528216
  -0.          0.        ]
 [-0.         -0.          0.         -0.          0.30500767  0.79293671  0.          0.03726562  0.03634554 -0.         -0.         -0.         -0.
  -0.          0.21642293  0.46554284  0.          0.         -0.          0.03707283  0.05058595  0.07776624  0.04396697  0.         -0.00528216  0.00101315
   0.         -0.        ]
 [-0.20078907  0.65553672  0.02826883 -0.70338467  0.          0.         -0.03709845  0.         -0.         -0.03533176  0.1137951  -0.1108105  -0.
  -0.         -0.          0.         -0.00791884 -0.          0.          0.          0.          0.         -0.         -0.03062507 -0.         -0.
  -0.0021696   0.07448494]
 [-0.19033822 -0.05813529 -0.44541068 -0.05118391  0.         -0.          0.63115944  0.         -0.         -0.01737997 -0.14066757 -0.18649941  0.
   0.         -0.         -0.          0.54141064  0.         -0.          0.         -0.          0.         -0.          0.01624239 -0.         -0.
   0.1128561  -0.00465823]
 [-0.         -0.         -0.         -0.          0.00014026  0.04949491  0.         -0.6827063  -0.2955285   0.         -0.          0.         -0.
   0.          0.00062552  0.00882197 -0.          0.         -0.          0.13265499  0.48293924 -0.28042695 -0.33849443 -0.          0.00108139 -0.00066879
  -0.         -0.        ]
 [-0.         -0.         -0.          0.          0.04949491 -0.00014026 -0.          0.2955285  -0.6827063  -0.          0.         -0.         -0.
  -0.          0.00882197 -0.00062552 -0.         -0.          0.          0.48293924 -0.13265499 -0.33849443  0.28042695  0.          0.00066879  0.00108139
   0.         -0.        ]
 [ 0.          0.         -0.          0.          0.13042103 -0.33593665 -0.         -0.01993707 -0.00070549 -0.          0.         -0.         -0.
  -0.         -0.21522638  0.68997854  0.         -0.          0.          0.04117619 -0.39040312 -0.13772905 -0.41743025  0.         -0.00260155  0.00346684
   0.         -0.        ]
 [-0.         -0.          0.         -0.          0.33593665  0.13042103  0.         -0.00070549  0.01993707 -0.         -0.          0.          0.
   0.         -0.68997854 -0.21522638  0.          0.          0.          0.39040312  0.04117619  0.41743025 -0.13772905  0.          0.00346684  0.00260155
   0.         -0.        ]
 [ 0.00072347 -0.11860847  0.02517375 -0.05278854 -0.         -0.         -0.01952445 -0.          0.         -0.58472036  0.24071083 -0.20726182  0.
   0.         -0.          0.         -0.02263322 -0.          0.         -0.          0.          0.          0.          0.72218441 -0.          0.
  -0.00857095 -0.1311367 ]
 [ 0.         -0.         -0.         -0.         -0.          0.          0.          0.          0.          0.         -0.          0.         -0.86787837
  -0.49631907  0.         -0.          0.         -0.00047007 -0.02131427 -0.          0.         -0.          0.          0.         -0.          0.
  -0.         -0.        ]
 [-0.         -0.          0.         -0.         -0.         -0.          0.          0.          0.          0.         -0.          0.         -0.49631907
   0.86787837 -0.          0.         -0.          0.02131427 -0.00047007 -0.         -0.         -0.          0.          0.          0.          0.
  -0.         -0.        ]
 [-0.02587252  0.02786807  0.21994376  0.00588447  0.         -0.          0.50234047  0.         -0.         -0.01344879  0.4130855   0.50360945  0.
   0.         -0.          0.         -0.02094259  0.         -0.          0.         -0.          0.          0.          0.00036316 -0.          0.
  -0.5224112   0.00173021]
 [ 0.         -0.         -0.         -0.         -0.         -0.         -0.         -0.         -0.          0.         -0.          0.          0.00640694
  -0.02033397 -0.          0.          0.          0.98136437  0.19096977 -0.         -0.         -0.         -0.          0.         -0.          0.
  -0.         -0.        ]
 [ 0.         -0.         -0.         -0.         -0.          0.          0.         -0.          0.          0.         -0.          0.         -0.02033397
  -0.00640694 -0.          0.          0.         -0.19096977  0.98136437 -0.          0.          0.         -0.          0.         -0.          0.
  -0.         -0.        ]
 [-0.04444785  0.05555391  0.70166826  0.08520387 -0.          0.         -0.07077721 -0.          0.          0.00679235  0.04609577  0.05898031  0.
   0.          0.         -0.          0.62724029  0.         -0.         -0.          0.         -0.          0.          0.01898173 -0.         -0.
   0.30147447 -0.00187528]
 [-0.          0.         -0.          0.         -0.28005267 -0.2569958  -0.         -0.00919015 -0.02624692 -0.         -0.         -0.         -0.
  -0.          0.36110797  0.28876711  0.          0.          0.          0.46309611  0.23947922  0.60670081  0.03247379 -0.         -0.00387286 -0.00107848
   0.          0.        ]
 [-0.         -0.         -0.         -0.         -0.2569958   0.28005267  0.          0.02624692 -0.00919015  0.          0.         -0.          0.
   0.          0.28876711 -0.36110797 -0.         -0.          0.          0.23947922 -0.46309611  0.03247379 -0.60670081  0.          0.00107848 -0.00387286
  -0.          0.        ]
 [-0.03470394  0.45891048 -0.07851462  0.24160265 -0.          0.          0.00306346  0.         -0.          0.13121724 -0.52395456  0.43370792  0.
   0.          0.         -0.         -0.00604112 -0.         -0.         -0.          0.          0.         -0.          0.48018923  0.         -0.
  -0.00057899 -0.11481992]
 [ 0.          0.          0.          0.          0.0064767   0.01359801 -0.         -0.19026961 -0.21667625  0.          0.          0.          0.
   0.         -0.00569147 -0.01011652 -0.         -0.         -0.         -0.15913212 -0.18523479  0.18900862  0.0883525   0.         -0.89617231  0.10098069
   0.          0.        ]
 [-0.          0.         -0.          0.         -0.01359801  0.0064767   0.         -0.21667625  0.19026961  0.         -0.          0.         -0.
  -0.          0.01011652 -0.00569147  0.         -0.          0.          0.18523479 -0.15913212 -0.0883525   0.18900862  0.          0.10098069  0.89617231
   0.         -0.        ]
 [-0.03323009  0.01545793  0.14353488  0.00709705  0.         -0.          0.44148455  0.         -0.         -0.01274277  0.108064    0.13369644 -0.
  -0.         -0.          0.         -0.48246897 -0.          0.         -0.         -0.          0.         -0.         -0.00402133  0.          0.
   0.72151313  0.00263879]
 [ 0.0149353  -0.11555758  0.01619399 -0.06952691  0.         -0.         -0.00537614  0.          0.         -0.30596332 -0.23403911  0.18749806  0.
   0.          0.          0.          0.00680307 -0.          0.         -0.          0.         -0.         -0.          0.02165622 -0.          0.
   0.00022576  0.89288271]
 [ 0.         -0.         -0.         -0.          0.00948016  0.0334033  -0.         -0.4654061  -0.37807405 -0.         -0.          0.         -0.
  -0.         -0.00213165 -0.00594111  0.         -0.         -0.         -0.26277571 -0.43661722  0.36119837  0.24989827  0.          0.41514227 -0.11945498
  -0.          0.        ]
 [ 0.          0.         -0.          0.          0.0334033  -0.00948016 -0.          0.37807405 -0.4654061   0.          0.         -0.          0.
   0.         -0.00594111  0.00213165  0.          0.         -0.         -0.43661722  0.26277571  0.24989827 -0.36119837 -0.          0.11945498  0.41514227
  -0.         -0.        ]
 [ 0.02519818 -0.03915931 -0.46642555 -0.05879751 -0.          0.         -0.35207552 -0.          0.          0.00157185  0.45079694  0.53023583  0.
   0.          0.          0.          0.25896445  0.         -0.          0.          0.         -0.          0.          0.01130649  0.         -0.
   0.31827972  0.00129845]
 [ 0.0274477  -0.54403766  0.11681235 -0.63481875 -0.         -0.         -0.00121815  0.          0.          0.26898474 -0.29328403  0.23695668  0.
   0.          0.         -0.         -0.00499609  0.         -0.          0.         -0.         -0.          0.          0.21407691 -0.          0.
  -0.00011493 -0.16204175]
 [ 0.00967649  0.00941011 -0.0115862   0.08559939  0.         -0.          0.01802634  0.          0.          0.68754405  0.3259699  -0.26921689  0.
   0.         -0.          0.         -0.01337954  0.         -0.          0.          0.         -0.          0.          0.44705048 -0.         -0.
  -0.00394239  0.37487565]]
[[-0.95749463 -0.16483554  0.03319148  0.12455447  0.         -0.          0.15262508  0.         -0.          0.01608467  0.00931987  0.04439963 -0.
  -0.         -0.         -0.          0.11092758 -0.          0.         -0.          0.          0.         -0.         -0.00312656 -0.          0.
  -0.03854737  0.00242258]
 [-0.         -0.         -0.         -0.         -0.5393388   0.65642362  0.          0.0112033  -0.05083513 -0.          0.         -0.          0.
   0.          0.22532865 -0.46129819 -0.         -0.         -0.         -0.04472868  0.04396223 -0.07232799  0.0524342   0.          0.00480912 -0.00240835
  -0.         -0.        ]
 [-0.          0.          0.          0.          0.65642362  0.5393388  -0.          0.05083513  0.0112033   0.         -0.          0.         -0.
  -0.         -0.46129819 -0.22532865 -0.          0.         -0.          0.04396223  0.04472868  0.0524342   0.07232799 -0.          0.00240835  0.00480912
  -0.          0.        ]
 [ 0.20078907 -0.65553672 -0.02826883  0.70338467  0.          0.         -0.03709845 -0.          0.          0.03533176 -0.1137951   0.1108105   0.
   0.          0.          0.         -0.00791884  0.         -0.          0.          0.         -0.         -0.          0.03062507  0.         -0.
   0.0021696  -0.07448494]
 [-0.19033822 -0.05813529 -0.44541068 -0.05118391  0.          0.         -0.63115944 -0.          0.         -0.01737997 -0.14066757 -0.18649941  0.
   0.          0.          0.         -0.54141064  0.         -0.          0.         -0.         -0.          0.          0.01624239  0.         -0.
   0.1128561  -0.00465823]
 [-0.         -0.          0.          0.         -0.02453419 -0.0429865  -0.          0.73585216 -0.10930039 -0.          0.          0.          0.
   0.          0.0060417   0.00645882  0.          0.          0.         -0.20072756 -0.45884214  0.11423531  0.42446207  0.          0.00093711  0.00085936
  -0.          0.        ]
 [-0.          0.         -0.          0.         -0.0429865   0.02453419  0.          0.10930039  0.73585216  0.         -0.          0.         -0.
   0.          0.00645882 -0.0060417  -0.         -0.          0.         -0.45884214  0.20072756  0.42446207 -0.11423531 -0.         -0.00085936  0.00093711
   0.          0.        ]
 [ 0.         -0.         -0.         -0.         -0.05223932 -0.35655873 -0.         -0.01730654  0.00992311  0.         -0.          0.         -0.
  -0.         -0.26734362 -0.67150589 -0.          0.          0.         -0.01539568 -0.39226655  0.04836528 -0.43689599 -0.          0.00404266  0.0015633
   0.          0.        ]
 [-0.          0.          0.          0.          0.35655873 -0.05223932 -0.          0.00992311  0.01730654  0.          0.          0.          0.
   0.          0.67150589 -0.26734362 -0.          0.          0.          0.39226655 -0.01539568  0.43689599  0.04836528 -0.          0.0015633  -0.00404266
   0.          0.        ]
 [-0.00072347  0.11860847 -0.02517375  0.05278854 -0.          0.         -0.01952445  0.         -0.          0.58472036 -0.24071083  0.20726182  0.
   0.          0.         -0.         -0.02263322  0.         -0.          0.         -0.         -0.          0.         -0.72218441 -0.          0.
   0.00857095  0.1311367 ]
 [-0.          0.         -0.          0.         -0.          0.         -0.         -0.         -0.         -0.         -0.         -0.         -0.81186195
  -0.58346007  0.          0.         -0.         -0.02131238  0.00054925 -0.         -0.         -0.          0.         -0.         -0.         -0.
  -0.          0.        ]
 [ 0.          0.         -0.          0.         -0.         -0.         -0.         -0.          0.         -0.         -0.         -0.         -0.58346007
   0.81186195 -0.          0.          0.          0.00054925  0.02131238 -0.          0.         -0.         -0.         -0.         -0.         -0.
  -0.          0.        ]
 [-0.02587252  0.02786807  0.21994376  0.00588447 -0.          0.         -0.50234047 -0.          0.         -0.01344879  0.4130855   0.50360945 -0.
  -0.         -0.          0.          0.02094259  0.         -0.          0.          0.         -0.         -0.          0.00036316 -0.          0.
  -0.5224112   0.00173021]
 [ 0.          0.         -0.          0.          0.          0.         -0.          0.         -0.         -0.         -0.         -0.         -0.00847664
   0.01956184  0.          0.         -0.         -0.23765876 -0.97111472 -0.         -0.          0.          0.         -0.         -0.          0.
  -0.          0.        ]
 [ 0.          0.         -0.          0.         -0.          0.         -0.         -0.         -0.         -0.         -0.         -0.          0.01956184
   0.00847664 -0.         -0.         -0.         -0.97111472  0.23765876  0.         -0.         -0.          0.         -0.         -0.         -0.
  -0.          0.        ]
 [-0.04444785  0.05555391  0.70166826  0.08520387 -0.          0.          0.07077721  0.         -0.          0.00679235  0.04609577  0.05898031 -0.
   0.         -0.          0.         -0.62724029 -0.          0.         -0.         -0.         -0.          0.          0.01898173  0.          0.
   0.30147447 -0.00187528]
 [-0.         -0.         -0.         -0.         -0.37037518 -0.08543165  0.         -0.02165849 -0.01744332  0.         -0.          0.         -0.
  -0.         -0.46235891  0.00310579 -0.          0.          0.          0.49272187  0.17039208  0.53822882  0.28186905 -0.          0.00001279  0.00402019
   0.         -0.        ]
 [-0.          0.         -0.          0.         -0.08543165  0.37037518  0.          0.01744332 -0.02165849 -0.         -0.          0.          0.
  -0.          0.00310579  0.46235891 -0.          0.          0.          0.17039208 -0.49272187  0.28186905 -0.53822882 -0.         -0.00402019  0.00001279
   0.         -0.        ]
 [ 0.03470394 -0.45891048  0.07851462 -0.24160265  0.          0.          0.00306346 -0.          0.         -0.13121724  0.52395456 -0.43370792 -0.
  -0.         -0.          0.         -0.00604112 -0.          0.          0.         -0.         -0.          0.         -0.48018923  0.         -0.
   0.00057899  0.11481992]
 [ 0.         -0.          0.         -0.         -0.01234098 -0.00863445 -0.          0.27596858  0.08362097 -0.          0.         -0.          0.
  -0.         -0.01079211 -0.00427402  0.         -0.         -0.          0.1841166   0.16042455 -0.13513758 -0.15895992 -0.         -0.3403498  -0.83515503
   0.         -0.        ]
 [ 0.         -0.         -0.         -0.          0.00863445 -0.01234098 -0.          0.08362097 -0.27596858 -0.          0.         -0.         -0.
  -0.          0.00427402 -0.01079211 -0.         -0.         -0.         -0.16042455  0.1841166   0.15895992 -0.13513758 -0.         -0.83515503  0.3403498
   0.          0.        ]
 [-0.03323009  0.01545793  0.14353488  0.00709705 -0.          0.         -0.44148455  0.          0.         -0.01274277  0.108064    0.13369644 -0.
  -0.         -0.         -0.          0.48246897 -0.          0.          0.         -0.         -0.         -0.         -0.00402133 -0.          0.
   0.72151313  0.00263879]
 [-0.0149353   0.11555758 -0.01619399  0.06952691  0.          0.         -0.00537614 -0.          0.          0.30596332  0.23403911 -0.18749806 -0.
  -0.         -0.          0.          0.00680307 -0.          0.         -0.         -0.         -0.          0.         -0.02165622 -0.         -0.
  -0.00022576 -0.89288271]
 [-0.          0.         -0.          0.         -0.02472219 -0.02438171  0.          0.59484687  0.07549855  0.          0.         -0.         -0.
  -0.         -0.00539735 -0.0032725  -0.         -0.         -0.          0.32283415  0.39428896 -0.22453771 -0.37748672 -0.          0.22761383  0.36715738
  -0.         -0.        ]
 [ 0.         -0.         -0.         -0.         -0.02438171  0.02472219  0.         -0.07549855  0.59484687 -0.         -0.         -0.          0.
   0.         -0.0032725   0.00539735 -0.          0.          0.          0.39428896 -0.32283415 -0.37748672  0.22453771  0.         -0.36715738  0.22761383
  -0.          0.        ]
 [ 0.02519818 -0.03915931 -0.46642555 -0.05879751  0.         -0.          0.35207552  0.         -0.          0.00157185  0.45079694  0.53023583 -0.
  -0.         -0.          0.         -0.25896445 -0.          0.         -0.          0.         -0.          0.          0.01130649  0.          0.
   0.31827972  0.00129845]
 [-0.0274477   0.54403766 -0.11681235  0.63481875 -0.         -0.         -0.00121815 -0.         -0.         -0.26898474  0.29328403 -0.23695668  0.
   0.         -0.          0.         -0.00499609  0.         -0.         -0.          0.          0.          0.         -0.21407691 -0.         -0.
   0.00011493  0.16204175]
 [-0.00967649 -0.00941011  0.0115862  -0.08559939  0.         -0.          0.01802634 -0.         -0.         -0.68754405 -0.3259699   0.26921689  0.
   0.         -0.         -0.         -0.01337954  0.         -0.         -0.          0.          0.          0.         -0.44705048  0.         -0.
   0.00394239 -0.37487565]]
grids:  [0.06237655 0.31939555 0.74529195 1.28265786 1.85893479 2.39630071 2.8221971  3.07921611] 
weights:  [0.15900941 0.34931531 0.49276925 0.56970235 0.56970235 0.49276925 0.34931531 0.15900941]
S = 0.0, Sz = 0.0
Wigner small d:  1
value : [1. 1. 1. 1. 1. 1. 1. 1.]
**** Start Cycle 1 ****
dm (ortho)
[[[ 0.91679596 -0.          0.         ... -0.02412713 -0.02628103 -0.00926518]
  [-0.          0.         -0.         ...  0.          0.          0.        ]
  [ 0.         -0.          0.         ... -0.         -0.         -0.        ]
  ...
  [-0.02412713  0.         -0.         ...  0.00063495  0.00069163  0.00024383]
  [-0.02628103  0.         -0.         ...  0.00069163  0.00075338  0.0002656 ]
  [-0.00926518  0.         -0.         ...  0.00024383  0.0002656   0.00009363]]

 [[ 0.91679596  0.          0.         ... -0.02412713  0.02628103  0.00926518]
  [ 0.          0.          0.         ... -0.          0.          0.        ]
  [ 0.          0.          0.         ... -0.          0.          0.        ]
  ...
  [-0.02412713 -0.         -0.         ...  0.00063495 -0.00069163 -0.00024383]
  [ 0.02628103  0.          0.         ... -0.00069163  0.00075338  0.0002656 ]
  [ 0.00926518  0.          0.         ... -0.00024383  0.0002656   0.00009363]]]
Fock (ortho)
 (array([[-0.4433061 ,  0.        , -0.        , -0.13438524, -0.45388887,  0.        , -0.        , -0.        , -0.        , -0.02145953, -0.        ,
        -0.        ,  0.07576046, -0.        , -0.        , -0.31761653, -0.        ,  0.        ,  0.01364565,  0.        , -0.        , -0.0311987 ,
         0.01799155,  0.        ,  0.        , -0.03761345,  0.00415781,  0.00635978],
       [ 0.        ,  1.39017492, -0.        ,  0.        , -0.        , -0.00855533,  0.02243101,  0.5092663 ,  0.56051528, -0.        , -0.        ,
        -0.        ,  0.        ,  0.        ,  0.        , -0.        , -0.40261856, -0.81040137, -0.        , -0.00067746,  0.00874689, -0.        ,
         0.        , -0.00041407,  0.00455414,  0.        , -0.        ,  0.        ],
       [-0.        , -0.        ,  1.39017492, -0.        ,  0.        , -0.02243101, -0.00855533,  0.56051528, -0.5092663 ,  0.        , -0.        ,
         0.        ,  0.        , -0.        ,  0.        ,  0.        ,  0.81040137, -0.40261856,  0.        ,  0.00874689,  0.00067746,  0.        ,
         0.        , -0.00455414, -0.00041407, -0.        , -0.        ,  0.        ],
       [-0.13438524,  0.        , -0.        ,  0.42650362, -0.0296502 , -0.        , -0.        ,  0.        , -0.        ,  0.00968708, -0.        ,
        -0.        , -0.03026785, -0.        , -0.        , -0.04326908,  0.        ,  0.        , -0.44411378, -0.        , -0.        , -0.01654657,
         0.34134447,  0.        , -0.        , -0.00128804, -0.05225291,  0.2161599 ],
       [-0.45388887, -0.        ,  0.        , -0.0296502 ,  1.69720487, -0.        ,  0.        ,  0.        ,  0.        ,  0.01545906,  0.        ,
         0.        , -0.42663856,  0.        ,  0.        ,  1.18861417, -0.        , -0.        , -0.00263522, -0.        ,  0.        , -0.33413362,
        -0.00939913,  0.        ,  0.        ,  0.12646945,  0.00131539, -0.00045798],
       [ 0.        , -0.00855533, -0.02243101, -0.        , -0.        ,  2.35810347, -0.        ,  0.01461929, -0.00572339,  0.        ,  0.        ,
         0.        ,  0.        ,  0.        , -0.        , -0.        , -0.0068844 ,  0.0074595 ,  0.        , -0.56251368, -0.26597088, -0.        ,
         0.        , -1.24616092,  0.34985914, -0.        , -0.        , -0.        ],
       [-0.        ,  0.02243101, -0.00855533, -0.        ,  0.        , -0.        ,  2.35810347, -0.00572339, -0.01461929,  0.        , -0.        ,
        -0.        , -0.        ,  0.        ,  0.        ,  0.        , -0.0074595 , -0.0068844 , -0.        , -0.26597088,  0.56251368, -0.        ,
        -0.        , -0.34985914, -1.24616092,  0.        ,  0.        ,  0.        ],
       [-0.        ,  0.5092663 ,  0.56051528,  0.        ,  0.        ,  0.01461929, -0.00572339,  3.18194477, -0.        , -0.        , -0.        ,
         0.        , -0.        , -0.        , -0.        ,  0.        , -0.24932064,  0.63868715,  0.        ,  0.00371376,  0.00393903,  0.        ,
        -0.        , -0.00109487,  0.00082691, -0.        ,  0.        ,  0.        ],
       [-0.        ,  0.56051528, -0.5092663 , -0.        ,  0.        , -0.00572339, -0.01461929, -0.        ,  3.18194477,  0.        , -0.        ,
        -0.        , -0.        ,  0.        ,  0.        , -0.        ,  0.63868715,  0.24932064,  0.        , -0.00393903,  0.00371376,  0.        ,
        -0.        ,  0.00082691,  0.00109487,  0.        ,  0.        ,  0.        ],
       [-0.02145953, -0.        ,  0.        ,  0.00968708,  0.01545906,  0.        ,  0.        , -0.        ,  0.        ,  3.06337225,  0.        ,
         0.        ,  0.00583936,  0.        ,  0.        , -0.00796153,  0.        , -0.        ,  0.89798612, -0.        ,  0.        , -0.00859346,
        -0.64663658, -0.        ,  0.        , -0.00624551,  0.28957034,  0.77637038],
       [-0.        , -0.        , -0.        , -0.        ,  0.        ,  0.        , -0.        , -0.        , -0.        ,  0.        ,  3.16272675,
         0.        ,  0.        , -0.0025255 , -0.01160703,  0.        , -0.        , -0.        ,  0.        , -0.        ,  0.        ,  0.        ,
        -0.        ,  0.        , -0.        , -0.        , -0.        , -0.        ],
       [-0.        , -0.        ,  0.        , -0.        ,  0.        ,  0.        , -0.        ,  0.        , -0.        ,  0.        ,  0.        ,
         3.16272675,  0.        ,  0.01160703, -0.0025255 ,  0.        , -0.        ,  0.        ,  0.        ,  0.        ,  0.        ,  0.        ,
        -0.        ,  0.        , -0.        , -0.        , -0.        , -0.        ],
       [ 0.07576046,  0.        ,  0.        , -0.03026785, -0.42663856,  0.        , -0.        , -0.        , -0.        ,  0.00583936,  0.        ,
         0.        ,  2.74467911,  0.        ,  0.        , -0.74172759,  0.        ,  0.        ,  0.01305524, -0.        ,  0.        , -1.41532678,
         0.01045135,  0.        ,  0.        ,  0.01309566,  0.00094596,  0.00033617],
       [-0.        ,  0.        , -0.        , -0.        ,  0.        ,  0.        ,  0.        , -0.        ,  0.        ,  0.        , -0.0025255 ,
         0.01160703,  0.        ,  3.90340512, -0.        ,  0.        ,  0.        ,  0.        ,  0.        ,  0.        , -0.        ,  0.        ,
        -0.        ,  0.        , -0.        , -0.        , -0.        , -0.        ],
       [-0.        ,  0.        ,  0.        , -0.        ,  0.        , -0.        ,  0.        , -0.        ,  0.        ,  0.        , -0.01160703,
        -0.0025255 ,  0.        , -0.        ,  3.90340512,  0.        ,  0.        ,  0.        ,  0.        , -0.        ,  0.        ,  0.        ,
         0.        ,  0.        , -0.        , -0.        , -0.        , -0.        ],
       [-0.31761653, -0.        ,  0.        , -0.04326908,  1.18861417, -0.        ,  0.        ,  0.        , -0.        , -0.00796153,  0.        ,
         0.        , -0.74172759,  0.        ,  0.        ,  2.04615934, -0.        , -0.        ,  0.02179977,  0.        ,  0.        ,  0.08739846,
         0.00369575, -0.        , -0.        ,  1.12274514,  0.00259835, -0.00014362],
       [-0.        , -0.40261856,  0.81040137,  0.        , -0.        , -0.0068844 , -0.0074595 , -0.24932064,  0.63868715,  0.        , -0.        ,
        -0.        ,  0.        ,  0.        ,  0.        , -0.        ,  3.35039006,  0.        ,  0.        ,  0.00688461, -0.00278016,  0.        ,
        -0.        ,  0.00508461,  0.00312978, -0.        ,  0.        ,  0.        ],
       [ 0.        , -0.81040137, -0.40261856,  0.        , -0.        ,  0.0074595 , -0.0068844 ,  0.63868715,  0.24932064, -0.        , -0.        ,
         0.        ,  0.        ,  0.        ,  0.        , -0.        ,  0.        ,  3.35039006,  0.        , -0.00278016, -0.00688461, -0.        ,
        -0.        , -0.00312978,  0.00508461, -0.        ,  0.        , -0.        ],
       [ 0.01364565, -0.        ,  0.        , -0.44411378, -0.00263522,  0.        , -0.        ,  0.        ,  0.        ,  0.89798612,  0.        ,
         0.        ,  0.01305524,  0.        ,  0.        ,  0.02179977,  0.        ,  0.        ,  2.27956466, -0.        , -0.        ,  0.00169818,
        -0.19126365, -0.        , -0.        ,  0.01272061,  1.10588557,  0.07169982],
       [ 0.        , -0.00067746,  0.00874689, -0.        , -0.        , -0.56251368, -0.26597088,  0.00371376, -0.00393903, -0.        , -0.        ,
         0.        , -0.        ,  0.        , -0.        ,  0.        ,  0.00688461, -0.00278016, -0.        ,  4.70426932,  0.        , -0.        ,
         0.        , -0.9528824 , -0.16157723, -0.        ,  0.        ,  0.        ],
       [-0.        ,  0.00874689,  0.00067746, -0.        ,  0.        , -0.26597088,  0.56251368,  0.00393903,  0.00371376,  0.        ,  0.        ,
         0.        ,  0.        , -0.        ,  0.        ,  0.        , -0.00278016, -0.00688461, -0.        ,  0.        ,  4.70426932,  0.        ,
         0.        , -0.16157723,  0.9528824 , -0.        ,  0.        , -0.        ],
       [-0.0311987 , -0.        ,  0.        , -0.01654657, -0.33413362, -0.        , -0.        ,  0.        ,  0.        , -0.00859346,  0.        ,
         0.        , -1.41532678,  0.        ,  0.        ,  0.08739846,  0.        , -0.        ,  0.00169818, -0.        ,  0.        ,  3.82787368,
         0.00672109, -0.        , -0.        ,  0.86396838,  0.00018183, -0.00158849],
       [ 0.01799155,  0.        ,  0.        ,  0.34134447, -0.00939913,  0.        , -0.        , -0.        , -0.        , -0.64663658, -0.        ,
        -0.        ,  0.01045135, -0.        ,  0.        ,  0.00369575, -0.        , -0.        , -0.19126365,  0.        ,  0.        ,  0.00672109,
         5.46642922,  0.        , -0.        ,  0.00687383, -0.71628986,  1.55494906],
       [ 0.        , -0.00041407, -0.00455414,  0.        ,  0.        , -1.24616092, -0.34985914, -0.00109487,  0.00082691, -0.        ,  0.        ,
         0.        ,  0.        ,  0.        ,  0.        , -0.        ,  0.00508461, -0.00312978, -0.        , -0.9528824 , -0.16157723, -0.        ,
         0.        ,  3.15647678,  0.        , -0.        , -0.        ,  0.        ],
       [ 0.        ,  0.00455414, -0.00041407, -0.        ,  0.        ,  0.34985914, -1.24616092,  0.00082691,  0.00109487,  0.        , -0.        ,
        -0.        ,  0.        , -0.        , -0.        , -0.        ,  0.00312978,  0.00508461, -0.        , -0.16157723,  0.9528824 , -0.        ,
        -0.        , -0.        ,  3.15647678, -0.        ,  0.        , -0.        ],
       [-0.03761345,  0.        , -0.        , -0.00128804,  0.12646945, -0.        ,  0.        , -0.        ,  0.        , -0.00624551, -0.        ,
        -0.        ,  0.01309566, -0.        , -0.        ,  1.12274514, -0.        , -0.        ,  0.01272061, -0.        , -0.        ,  0.86396838,
         0.00687383, -0.        , -0.        ,  2.16892464,  0.00386836, -0.00041776],
       [ 0.00415781, -0.        , -0.        , -0.05225291,  0.00131539, -0.        ,  0.        ,  0.        ,  0.        ,  0.28957034, -0.        ,
        -0.        ,  0.00094596, -0.        , -0.        ,  0.00259835,  0.        ,  0.        ,  1.10588557,  0.        ,  0.        ,  0.00018183,
        -0.71628986, -0.        ,  0.        ,  0.00386836,  1.11386867, -0.13576455],
       [ 0.00635978,  0.        ,  0.        ,  0.2161599 , -0.00045798, -0.        ,  0.        ,  0.        ,  0.        ,  0.77637038, -0.        ,
        -0.        ,  0.00033617, -0.        , -0.        , -0.00014362,  0.        , -0.        ,  0.07169982,  0.        , -0.        , -0.00158849,
         1.55494906,  0.        , -0.        , -0.00041776, -0.13576455,  2.89664287]]), array([[-0.4433061 , -0.        , -0.        ,  0.13438524, -0.45388887,  0.        , -0.        , -0.        , -0.        ,  0.02145953,  0.        ,
         0.        ,  0.07576046,  0.        ,  0.        , -0.31761653, -0.        ,  0.        , -0.01364565,  0.        , -0.        , -0.0311987 ,
        -0.01799155, -0.        ,  0.        , -0.03761345, -0.00415781, -0.00635978],
       [-0.        ,  1.39017492, -0.        ,  0.        , -0.        ,  0.00855533, -0.02243101,  0.5092663 ,  0.56051528, -0.        , -0.        ,
        -0.        ,  0.        ,  0.        ,  0.        , -0.        , -0.40261856, -0.81040137, -0.        ,  0.00067746, -0.00874689, -0.        ,
         0.        ,  0.00041407, -0.00455414,  0.        , -0.        ,  0.        ],
       [-0.        , -0.        ,  1.39017492,  0.        ,  0.        ,  0.02243101,  0.00855533,  0.56051528, -0.5092663 ,  0.        , -0.        ,
         0.        ,  0.        , -0.        ,  0.        ,  0.        ,  0.81040137, -0.40261856,  0.        , -0.00874689, -0.00067746,  0.        ,
         0.        ,  0.00455414,  0.00041407, -0.        , -0.        ,  0.        ],
       [ 0.13438524,  0.        ,  0.        ,  0.42650362,  0.0296502 , -0.        , -0.        ,  0.        ,  0.        ,  0.00968708, -0.        ,
        -0.        ,  0.03026785, -0.        , -0.        ,  0.04326908,  0.        ,  0.        , -0.44411378, -0.        , -0.        ,  0.01654657,
         0.34134447,  0.        , -0.        ,  0.00128804, -0.05225291,  0.2161599 ],
       [-0.45388887, -0.        ,  0.        ,  0.0296502 ,  1.69720487, -0.        ,  0.        ,  0.        ,  0.        , -0.01545906,  0.        ,
         0.        , -0.42663856,  0.        ,  0.        ,  1.18861417, -0.        , -0.        ,  0.00263522, -0.        ,  0.        , -0.33413362,
         0.00939913,  0.        ,  0.        ,  0.12646945, -0.00131539,  0.00045798],
       [ 0.        ,  0.00855533,  0.02243101, -0.        , -0.        ,  2.35810347, -0.        , -0.01461929,  0.00572339,  0.        ,  0.        ,
         0.        ,  0.        ,  0.        , -0.        , -0.        ,  0.0068844 , -0.0074595 ,  0.        , -0.56251368, -0.26597088, -0.        ,
         0.        , -1.24616092,  0.34985914, -0.        , -0.        , -0.        ],
       [-0.        , -0.02243101,  0.00855533, -0.        ,  0.        , -0.        ,  2.35810347,  0.00572339,  0.01461929,  0.        , -0.        ,
        -0.        , -0.        ,  0.        ,  0.        ,  0.        ,  0.0074595 ,  0.0068844 , -0.        , -0.26597088,  0.56251368, -0.        ,
        -0.        , -0.34985914, -1.24616092,  0.        ,  0.        ,  0.        ],
       [-0.        ,  0.5092663 ,  0.56051528,  0.        ,  0.        , -0.01461929,  0.00572339,  3.18194477, -0.        , -0.        , -0.        ,
         0.        , -0.        , -0.        , -0.        ,  0.        , -0.24932064,  0.63868715,  0.        , -0.00371376, -0.00393903,  0.        ,
        -0.        ,  0.00109487, -0.00082691, -0.        ,  0.        ,  0.        ],
       [-0.        ,  0.56051528, -0.5092663 ,  0.        ,  0.        ,  0.00572339,  0.01461929, -0.        ,  3.18194477,  0.        , -0.        ,
        -0.        , -0.        ,  0.        ,  0.        , -0.        ,  0.63868715,  0.24932064,  0.        ,  0.00393903, -0.00371376, -0.        ,
        -0.        , -0.00082691, -0.00109487,  0.        , -0.        ,  0.        ],
       [ 0.02145953, -0.        ,  0.        ,  0.00968708, -0.01545906,  0.        ,  0.        , -0.        ,  0.        ,  3.06337225,  0.        ,
         0.        , -0.00583936,  0.        ,  0.        ,  0.00796153,  0.        , -0.        ,  0.89798612, -0.        ,  0.        ,  0.00859346,
        -0.64663658, -0.        ,  0.        ,  0.00624551,  0.28957034,  0.77637038],
       [ 0.        , -0.        , -0.        , -0.        ,  0.        ,  0.        , -0.        , -0.        , -0.        ,  0.        ,  3.16272675,
         0.        ,  0.        ,  0.0025255 ,  0.01160703,  0.        , -0.        , -0.        ,  0.        , -0.        ,  0.        ,  0.        ,
        -0.        ,  0.        , -0.        , -0.        , -0.        , -0.        ],
       [ 0.        , -0.        ,  0.        , -0.        ,  0.        ,  0.        , -0.        ,  0.        , -0.        ,  0.        ,  0.        ,
         3.16272675,  0.        , -0.01160703,  0.0025255 ,  0.        , -0.        ,  0.        ,  0.        ,  0.        ,  0.        ,  0.        ,
        -0.        ,  0.        , -0.        , -0.        , -0.        , -0.        ],
       [ 0.07576046,  0.        ,  0.        ,  0.03026785, -0.42663856,  0.        , -0.        , -0.        , -0.        , -0.00583936,  0.        ,
         0.        ,  2.74467911,  0.        ,  0.        , -0.74172759,  0.        ,  0.        , -0.01305524, -0.        ,  0.        , -1.41532678,
        -0.01045135,  0.        ,  0.        ,  0.01309566, -0.00094596, -0.00033617],
       [ 0.        ,  0.        , -0.        , -0.        ,  0.        ,  0.        ,  0.        , -0.        ,  0.        ,  0.        ,  0.0025255 ,
        -0.01160703,  0.        ,  3.90340512, -0.        ,  0.        ,  0.        ,  0.        ,  0.        ,  0.        , -0.        ,  0.        ,
        -0.        ,  0.        , -0.        , -0.        , -0.        , -0.        ],
       [ 0.        ,  0.        ,  0.        , -0.        ,  0.        , -0.        ,  0.        , -0.        ,  0.        ,  0.        ,  0.01160703,
         0.0025255 ,  0.        , -0.        ,  3.90340512,  0.        ,  0.        ,  0.        ,  0.        , -0.        ,  0.        ,  0.        ,
         0.        ,  0.        , -0.        , -0.        , -0.        , -0.        ],
       [-0.31761653, -0.        ,  0.        ,  0.04326908,  1.18861417, -0.        ,  0.        ,  0.        , -0.        ,  0.00796153,  0.        ,
         0.        , -0.74172759,  0.        ,  0.        ,  2.04615934, -0.        , -0.        , -0.02179977,  0.        , -0.        ,  0.08739846,
        -0.00369575, -0.        , -0.        ,  1.12274514, -0.00259835,  0.00014362],
       [-0.        , -0.40261856,  0.81040137,  0.        , -0.        ,  0.0068844 ,  0.0074595 , -0.24932064,  0.63868715,  0.        , -0.        ,
        -0.        ,  0.        ,  0.        ,  0.        , -0.        ,  3.35039006,  0.        ,  0.        , -0.00688461,  0.00278016,  0.        ,
        -0.        , -0.00508461, -0.00312978, -0.        ,  0.        ,  0.        ],
       [ 0.        , -0.81040137, -0.40261856,  0.        , -0.        , -0.0074595 ,  0.0068844 ,  0.63868715,  0.24932064, -0.        , -0.        ,
         0.        ,  0.        ,  0.        ,  0.        , -0.        ,  0.        ,  3.35039006,  0.        ,  0.00278016,  0.00688461, -0.        ,
        -0.        ,  0.00312978, -0.00508461, -0.        ,  0.        , -0.        ],
       [-0.01364565, -0.        ,  0.        , -0.44411378,  0.00263522,  0.        , -0.        ,  0.        ,  0.        ,  0.89798612,  0.        ,
         0.        , -0.01305524,  0.        ,  0.        , -0.02179977,  0.        ,  0.        ,  2.27956466, -0.        , -0.        , -0.00169818,
        -0.19126365, -0.        ,  0.        , -0.01272061,  1.10588557,  0.07169982],
       [ 0.        ,  0.00067746, -0.00874689, -0.        , -0.        , -0.56251368, -0.26597088, -0.00371376,  0.00393903, -0.        , -0.        ,
         0.        , -0.        ,  0.        , -0.        ,  0.        , -0.00688461,  0.00278016, -0.        ,  4.70426932, -0.        , -0.        ,
         0.        , -0.9528824 , -0.16157723, -0.        ,  0.        ,  0.        ],
       [-0.        , -0.00874689, -0.00067746, -0.        ,  0.        , -0.26597088,  0.56251368, -0.00393903, -0.00371376,  0.        ,  0.        ,
         0.        ,  0.        , -0.        ,  0.        , -0.        ,  0.00278016,  0.00688461, -0.        ,  0.        ,  4.70426932,  0.        ,
         0.        , -0.16157723,  0.9528824 , -0.        ,  0.        , -0.        ],
       [-0.0311987 , -0.        ,  0.        ,  0.01654657, -0.33413362, -0.        , -0.        ,  0.        , -0.        ,  0.00859346,  0.        ,
         0.        , -1.41532678,  0.        ,  0.        ,  0.08739846,  0.        , -0.        , -0.00169818, -0.        ,  0.        ,  3.82787368,
        -0.00672109, -0.        , -0.        ,  0.86396838, -0.00018183,  0.00158849],
       [-0.01799155,  0.        ,  0.        ,  0.34134447,  0.00939913,  0.        , -0.        , -0.        , -0.        , -0.64663658, -0.        ,
        -0.        , -0.01045135, -0.        ,  0.        , -0.00369575, -0.        , -0.        , -0.19126365,  0.        ,  0.        , -0.00672109,
         5.46642922,  0.        , -0.        , -0.00687383, -0.71628986,  1.55494906],
       [-0.        ,  0.00041407,  0.00455414,  0.        ,  0.        , -1.24616092, -0.34985914,  0.00109487, -0.00082691, -0.        ,  0.        ,
         0.        ,  0.        ,  0.        ,  0.        , -0.        , -0.00508461,  0.00312978, -0.        , -0.9528824 , -0.16157723, -0.        ,
         0.        ,  3.15647678,  0.        , -0.        , -0.        ,  0.        ],
       [ 0.        , -0.00455414,  0.00041407, -0.        ,  0.        ,  0.34985914, -1.24616092, -0.00082691, -0.00109487,  0.        , -0.        ,
        -0.        ,  0.        , -0.        , -0.        , -0.        , -0.00312978, -0.00508461,  0.        , -0.16157723,  0.9528824 , -0.        ,
        -0.        , -0.        ,  3.15647678, -0.        ,  0.        , -0.        ],
       [-0.03761345,  0.        , -0.        ,  0.00128804,  0.12646945, -0.        ,  0.        , -0.        ,  0.        ,  0.00624551, -0.        ,
        -0.        ,  0.01309566, -0.        , -0.        ,  1.12274514, -0.        , -0.        , -0.01272061, -0.        , -0.        ,  0.86396838,
        -0.00687383, -0.        , -0.        ,  2.16892464, -0.00386836,  0.00041776],
       [-0.00415781, -0.        , -0.        , -0.05225291, -0.00131539, -0.        ,  0.        ,  0.        , -0.        ,  0.28957034, -0.        ,
        -0.        , -0.00094596, -0.        , -0.        , -0.00259835,  0.        ,  0.        ,  1.10588557,  0.        ,  0.        , -0.00018183,
        -0.71628986, -0.        ,  0.        , -0.00386836,  1.11386867, -0.13576455],
       [-0.00635978,  0.        ,  0.        ,  0.2161599 ,  0.00045798, -0.        ,  0.        ,  0.        ,  0.        ,  0.77637038, -0.        ,
        -0.        , -0.00033617, -0.        , -0.        ,  0.00014362,  0.        , -0.        ,  0.07169982,  0.        , -0.        ,  0.00158849,
         1.55494906,  0.        , -0.        ,  0.00041776, -0.13576455,  2.89664287]]))
E(UHF) =    -1.689961
NO eigenvalue
[-1. -0. -0. -0. -0. -0. -0. -0. -0. -0. -0. -0. -0. -0. -0.  0.  0.  0.  0.  0.  0.  0.  0.  0.  0.  0.  0.  0.] [-1. -0. -0. -0. -0. -0. -0. -0. -0. -0. -0. -0. -0. -0.  0.  0.  0.  0.  0.  0.  0.  0.  0.  0.  0.  0.  0.  0.]
NO vec
[[ 0.95749463  0.          0.28140051 ...  0.          0.          0.        ]
 [ 0.          0.          0.12792377 ...  0.          0.          0.        ]
 [ 0.          0.         -0.         ...  0.          0.          0.        ]
 ...
 [ 0.         -0.02519818  0.         ...  0.47919879 -0.10291367 -0.05703172]
 [ 0.          0.0274477   0.         ...  0.12466622  0.02119413  0.05908583]
 [ 0.          0.00967649  0.         ... -0.25083754 -0.18038471  0.02719365]]
dm(NO)
[[ 1.  0. -0. ...  0.  0.  0.]
 [ 0.  1.  0. ...  0.  0. -0.]
 [-0.  0.  0. ...  0.  0.  0.]
 ...
 [ 0.  0.  0. ...  0. -0.  0.]
 [ 0.  0.  0. ...  0. -0.  0.]
 [ 0. -0.  0. ...  0.  0.  0.]]
D(g) (NO)
[[ 0.99951369  0.02852696 -0.         ...  0.00338662 -0.00214666 -0.00845064]
 [-0.02852696  0.99951369 -0.00730575 ...  0.          0.          0.        ]
 [-0.          0.00730575  0.99951369 ... -0.01052705  0.00941565 -0.0070572 ]
 ...
 [-0.00338662 -0.          0.01052705 ...  0.99951369  0.         -0.        ]
 [ 0.00214666  0.         -0.00941565 ...  0.          0.99951369  0.        ]
 [ 0.00845064 -0.          0.0070572  ... -0.          0.          0.99951369]]
...
N(g) (NO)
[[ 0.99967224 -0.02853148]
 [ 0.02853148  0.99967224]]
...
P(g) (NO)
[[ 1.         -0.         -0.         ... -0.         -0.         -0.        ]
 [-0.          1.          0.         ...  0.          0.         -0.        ]
 [ 0.00020844  0.00730336 -0.         ...  0.          0.         -0.        ]
 ...
 [-0.00338551  0.00009663  0.         ...  0.          0.         -0.        ]
 [ 0.00214596 -0.00006125 -0.         ... -0.         -0.          0.        ]
 [ 0.00844787 -0.00024111 -0.         ... -0.         -0.          0.        ]]
...
Pg_ortho
[[ 0.91686544 -0.          0.         ... -0.00006407  0.00006979  0.0000246 ]
 [-0.          0.         -0.         ...  0.         -0.         -0.        ]
 [ 0.         -0.          0.         ...  0.         -0.         -0.        ]
 ...
 [ 0.00006407 -0.          0.         ...  0.000635   -0.00069168 -0.00024385]
 [ 0.00156873 -0.          0.         ... -0.00069045  0.00075209  0.00026514]
 [ 0.00055304 -0.          0.         ... -0.00024341  0.00026514  0.00009347]]
G(g) (NO)
[[ 0.56347103 -0.00079075  0.11193811 ...  0.0001861  -0.00016682 -0.00103345]
 [ 0.00079075  0.56347103 -0.00083314 ... -0.01718697  0.04826405 -0.11458414]
 [ 0.11185089 -0.00387823  1.11257728 ... -0.00006622 -0.00037286  0.00070605]
 ...
 [ 0.00143663 -0.01721651 -0.00046153 ...  1.06500676  0.01103198  0.15826614]
 [-0.0007051   0.04827938 -0.00000781 ...  0.01103019  1.05556143 -0.06541069]
 [-0.00480876 -0.11448119 -0.00049509 ...  0.15825693 -0.0653976   1.10934203]]
...
C(NO)
[[-1.          0.         -0.         ...  0.          0.          0.        ]
 [ 0.         -1.          0.         ...  0.         -0.         -0.        ]
 [ 0.          0.         -0.49960064 ...  0.          0.          0.        ]
 ...
 [ 0.         -0.          0.         ...  0.00016462  0.34944715 -0.30630503]
 [ 0.         -0.          0.         ...  0.00140934 -0.32334364 -0.40749376]
 [ 0.          0.          0.         ...  0.00065931  0.1002671   0.04620991]]
detC 0.999999999999999
detNg [1.00015863 1.00414167 1.02209869 1.0619987  1.11698091 1.16480596 1.18903834 1.19467205]
xg [0.99984139 0.99587542 0.97837911 0.94162074 0.89527045 0.85851209 0.84101578 0.8370498 ]
ciS 1.8368911948338116
[[-1.12670477  0.         -0.14625317 ...  0.          0.          0.        ]
 [ 0.         -1.12670477  0.         ...  0.01660821 -0.0527408   0.15362658]
 [-0.14625317  0.          0.28650402 ...  0.          0.          0.        ]
 ...
 [ 0.          0.01660821  0.         ...  1.89335716  0.23172266  0.52768317]
 [ 0.         -0.0527408   0.         ...  0.23172266  1.53727842 -0.31783113]
 [ 0.          0.15362658  0.         ...  0.52768317 -0.31783113  0.00632264]]
ciH -3.1524309945384053
S2 = -0.000000
X(g)
[[ 2.         -0.          0.00020844 ...  0.00338551 -0.00214596 -0.00844787]
 [-0.          2.         -0.00730336 ...  0.00009663 -0.00006125 -0.00024111]
 [ 0.00020844  0.00730336  0.         ...  0.          0.          0.        ]
 ...
 [-0.00338551  0.00009663  0.         ...  0.          0.          0.        ]
 [ 0.00214596 -0.00006125  0.         ...  0.          0.          0.        ]
 [ 0.00844787 -0.00024111  0.         ...  0.          0.          0.        ]]
X(g) int
[[ 2.          0.          0.11667968 ...  0.04643574 -0.02943399 -0.11587116]
 [ 0.          2.         -0.10017298 ...  0.05408751 -0.03428418 -0.13496463]
 [ 0.11667968  0.10017298  0.         ...  0.          0.          0.        ]
 ...
 [-0.04643574  0.05408751  0.         ...  0.          0.          0.        ]
 [ 0.02943399 -0.03428418  0.         ...  0.          0.          0.        ]
 [ 0.11587116 -0.13496463  0.         ...  0.          0.          0.        ]]
Hsp + Hph =  -1.7161773127360513
Feff (mod,ortho)
[[-0.42014355 -0.         -0.         ...  0.          0.          0.        ]
 [-0.          1.39017492 -0.         ...  0.          0.          0.        ]
 [-0.         -0.          1.39017492 ...  0.          0.          0.        ]
 ...
 [ 0.          0.          0.         ...  2.16892125 -0.0038245   0.00047738]
 [ 0.          0.          0.         ... -0.0038245   1.11377714 -0.13584492]
 [ 0.          0.          0.         ...  0.00047738 -0.13584492  2.89659758]]
E(SUHF) =     -1.12820263
e_a, e_b
[-0.56434278  0.13989521  0.31530763  0.57630654  0.66632857  0.66632857  1.03829625  1.08020269  1.08020269  1.48824242  2.43153832  2.48379364  3.1625363
  3.1625363   3.27897164  3.27897164  3.54929371  3.90359557  3.90359557  3.95554871  3.95554871  3.99171814  3.99171814  4.21183676  5.16858957  5.16858957
  5.21842334  6.3993258 ] [-0.56434278  0.13989521  0.31530763  0.57630654  0.66632857  0.66632857  1.03829625  1.08020269  1.08020269  1.48824242  2.43153832  2.48379364  3.1625363
  3.1625363   3.27897164  3.27897164  3.54929371  3.90359557  3.90359557  3.95554871  3.95554871  3.99171814  3.99171814  4.21183676  5.16858957  5.16858957
  5.21842334  6.3993258 ]
P_a, P_b
[[ 0.90989049  0.          0.          0.2143456   0.16642476 -0.          0.         -0.          0.          0.00048449 -0.          0.          0.0292147
  -0.         -0.          0.05717078  0.         -0.          0.03392397  0.          0.          0.0337086  -0.01571497 -0.         -0.         -0.02947551
  -0.02671602 -0.01047356]
 [ 0.          0.          0.          0.          0.         -0.          0.         -0.          0.          0.         -0.          0.          0.
  -0.         -0.          0.          0.         -0.          0.          0.          0.          0.         -0.         -0.         -0.         -0.
  -0.         -0.        ]
 [ 0.          0.          0.          0.          0.         -0.          0.         -0.          0.          0.         -0.          0.          0.
  -0.         -0.          0.          0.         -0.          0.          0.          0.          0.         -0.         -0.         -0.         -0.
  -0.         -0.        ]
 [ 0.2143456   0.          0.          0.05049403  0.03920518 -0.          0.         -0.          0.          0.00011413 -0.          0.          0.00688219
  -0.         -0.          0.01346789  0.         -0.          0.00799157  0.          0.          0.00794083 -0.00370202 -0.         -0.         -0.00694363
  -0.00629357 -0.00246729]
 [ 0.16642476  0.          0.          0.03920518  0.03044015 -0.          0.         -0.          0.          0.00008862 -0.          0.          0.00534356
  -0.         -0.          0.0104569   0.         -0.          0.00620491  0.          0.          0.00616552 -0.00287437 -0.         -0.         -0.00539126
  -0.00488653 -0.00191568]
 [-0.         -0.         -0.         -0.         -0.          0.         -0.          0.         -0.         -0.          0.         -0.         -0.
   0.          0.         -0.         -0.          0.         -0.         -0.         -0.         -0.          0.          0.          0.          0.
   0.          0.        ]
 [ 0.          0.          0.          0.          0.         -0.          0.         -0.          0.          0.         -0.          0.          0.
  -0.         -0.          0.          0.         -0.          0.          0.          0.          0.         -0.         -0.         -0.         -0.
  -0.         -0.        ]
 [-0.         -0.         -0.         -0.         -0.          0.         -0.          0.         -0.         -0.          0.         -0.         -0.
   0.          0.         -0.         -0.          0.         -0.         -0.         -0.         -0.          0.          0.          0.          0.
   0.          0.        ]
 [ 0.          0.          0.          0.          0.         -0.          0.         -0.          0.          0.         -0.          0.          0.
  -0.         -0.          0.          0.         -0.          0.          0.          0.          0.         -0.         -0.         -0.         -0.
  -0.         -0.        ]
 [ 0.00048449  0.          0.          0.00011413  0.00008862 -0.          0.         -0.          0.          0.00000026 -0.          0.          0.00001556
  -0.         -0.          0.00003044  0.         -0.          0.00001806  0.          0.          0.00001795 -0.00000837 -0.         -0.         -0.00001569
  -0.00001423 -0.00000558]
 [-0.         -0.         -0.         -0.         -0.          0.         -0.          0.         -0.         -0.          0.         -0.         -0.
   0.          0.         -0.         -0.          0.         -0.         -0.         -0.         -0.          0.          0.          0.          0.
   0.          0.        ]
 [ 0.          0.          0.          0.          0.         -0.          0.         -0.          0.          0.         -0.          0.          0.
  -0.         -0.          0.          0.         -0.          0.          0.          0.          0.         -0.         -0.         -0.         -0.
  -0.         -0.        ]
 [ 0.0292147   0.          0.          0.00688219  0.00534356 -0.          0.         -0.          0.          0.00001556 -0.          0.          0.00093802
  -0.         -0.          0.00183564  0.         -0.          0.00108923  0.          0.          0.00108231 -0.00050458 -0.         -0.         -0.0009464
  -0.0008578  -0.00033628]
 [-0.         -0.         -0.         -0.         -0.          0.         -0.          0.         -0.         -0.          0.         -0.         -0.
   0.          0.         -0.         -0.          0.         -0.         -0.         -0.         -0.          0.          0.          0.          0.
   0.          0.        ]
 [-0.         -0.         -0.         -0.         -0.          0.         -0.          0.         -0.         -0.          0.         -0.         -0.
   0.          0.         -0.         -0.          0.         -0.         -0.         -0.         -0.          0.          0.          0.          0.
   0.          0.        ]
 [ 0.05717078  0.          0.          0.01346789  0.0104569  -0.          0.         -0.          0.          0.00003044 -0.          0.          0.00183564
  -0.         -0.          0.00359219  0.         -0.          0.00213153  0.          0.          0.002118   -0.00098741 -0.         -0.         -0.00185202
  -0.00167864 -0.00065808]
 [ 0.          0.          0.          0.          0.         -0.          0.         -0.          0.          0.         -0.          0.          0.
  -0.         -0.          0.          0.         -0.          0.          0.          0.          0.         -0.         -0.         -0.         -0.
  -0.         -0.        ]
 [-0.         -0.         -0.         -0.         -0.          0.         -0.          0.         -0.         -0.          0.         -0.         -0.
   0.          0.         -0.         -0.          0.         -0.         -0.         -0.         -0.          0.          0.          0.          0.
   0.          0.        ]
 [ 0.03392397  0.          0.          0.00799157  0.00620491 -0.          0.         -0.          0.          0.00001806 -0.          0.          0.00108923
  -0.         -0.          0.00213153  0.         -0.          0.00126481  0.          0.          0.00125678 -0.00058591 -0.         -0.         -0.00109895
  -0.00099607 -0.00039049]
 [ 0.          0.          0.          0.          0.         -0.          0.         -0.          0.          0.         -0.          0.          0.
  -0.         -0.          0.          0.         -0.          0.          0.          0.          0.         -0.         -0.         -0.         -0.
  -0.         -0.        ]
 [ 0.          0.          0.          0.          0.         -0.          0.         -0.          0.          0.         -0.          0.          0.
  -0.         -0.          0.          0.         -0.          0.          0.          0.          0.         -0.         -0.         -0.         -0.
  -0.         -0.        ]
 [ 0.0337086   0.          0.          0.00794083  0.00616552 -0.          0.         -0.          0.          0.00001795 -0.          0.          0.00108231
  -0.         -0.          0.002118    0.         -0.          0.00125678  0.          0.          0.0012488  -0.00058219 -0.         -0.         -0.00109198
  -0.00098974 -0.00038801]
 [-0.01571497 -0.         -0.         -0.00370202 -0.00287437  0.         -0.          0.         -0.         -0.00000837  0.         -0.         -0.00050458
   0.          0.         -0.00098741 -0.          0.         -0.00058591 -0.         -0.         -0.00058219  0.00027142  0.          0.          0.00050908
   0.00046142  0.00018089]
 [-0.         -0.         -0.         -0.         -0.          0.         -0.          0.         -0.         -0.          0.         -0.         -0.
   0.          0.         -0.         -0.          0.         -0.         -0.         -0.         -0.          0.          0.          0.          0.
   0.          0.        ]
 [-0.         -0.         -0.         -0.         -0.          0.         -0.          0.         -0.         -0.          0.         -0.         -0.
   0.          0.         -0.         -0.          0.         -0.         -0.         -0.         -0.          0.          0.          0.          0.
   0.          0.        ]
 [-0.02947551 -0.         -0.         -0.00694363 -0.00539126  0.         -0.          0.         -0.         -0.00001569  0.         -0.         -0.0009464
   0.          0.         -0.00185202 -0.          0.         -0.00109895 -0.         -0.         -0.00109198  0.00050908  0.          0.          0.00095485
   0.00086545  0.00033929]
 [-0.02671602 -0.         -0.         -0.00629357 -0.00488653  0.         -0.          0.         -0.         -0.00001423  0.         -0.         -0.0008578
   0.          0.         -0.00167864 -0.          0.         -0.00099607 -0.         -0.         -0.00098974  0.00046142  0.          0.          0.00086545
   0.00078443  0.00030752]
 [-0.01047356 -0.         -0.         -0.00246729 -0.00191568  0.         -0.          0.         -0.         -0.00000558  0.         -0.         -0.00033628
   0.          0.         -0.00065808 -0.          0.         -0.00039049 -0.         -0.         -0.00038801  0.00018089  0.          0.          0.00033929
   0.00030752  0.00012056]] 
 [[ 0.90989049  0.          0.         -0.2143456   0.16642476  0.          0.         -0.          0.         -0.00048449  0.         -0.          0.0292147
  -0.         -0.          0.05717078 -0.          0.         -0.03392397 -0.         -0.          0.0337086   0.01571497  0.         -0.         -0.02947551
   0.02671602  0.01047356]
 [ 0.          0.          0.         -0.          0.          0.          0.         -0.          0.         -0.          0.         -0.          0.
  -0.         -0.          0.         -0.          0.         -0.         -0.         -0.          0.          0.          0.         -0.         -0.
   0.          0.        ]
 [ 0.          0.          0.         -0.          0.          0.          0.         -0.          0.         -0.          0.         -0.          0.
  -0.         -0.          0.         -0.          0.         -0.         -0.         -0.          0.          0.          0.         -0.         -0.
   0.          0.        ]
 [-0.2143456  -0.         -0.          0.05049403 -0.03920518 -0.         -0.          0.         -0.          0.00011413 -0.          0.         -0.00688219
   0.          0.         -0.01346789  0.         -0.          0.00799157  0.          0.         -0.00794083 -0.00370202 -0.          0.          0.00694363
  -0.00629357 -0.00246729]
 [ 0.16642476  0.          0.         -0.03920518  0.03044015  0.          0.         -0.          0.         -0.00008862  0.         -0.          0.00534356
  -0.         -0.          0.0104569  -0.          0.         -0.00620491 -0.         -0.          0.00616552  0.00287437  0.         -0.         -0.00539126
   0.00488653  0.00191568]
 [ 0.          0.          0.         -0.          0.          0.          0.         -0.          0.         -0.          0.         -0.          0.
  -0.         -0.          0.         -0.          0.         -0.         -0.         -0.          0.          0.          0.         -0.         -0.
   0.          0.        ]
 [ 0.          0.          0.         -0.          0.          0.          0.         -0.          0.         -0.          0.         -0.          0.
  -0.         -0.          0.         -0.          0.         -0.         -0.         -0.          0.          0.          0.         -0.         -0.
   0.          0.        ]
 [-0.         -0.         -0.          0.         -0.         -0.         -0.          0.         -0.          0.         -0.          0.         -0.
   0.          0.         -0.          0.         -0.          0.          0.          0.         -0.         -0.         -0.          0.          0.
  -0.         -0.        ]
 [ 0.          0.          0.         -0.          0.          0.          0.         -0.          0.         -0.          0.         -0.          0.
  -0.         -0.          0.         -0.          0.         -0.         -0.         -0.          0.          0.          0.         -0.         -0.
   0.          0.        ]
 [-0.00048449 -0.         -0.          0.00011413 -0.00008862 -0.         -0.          0.         -0.          0.00000026 -0.          0.         -0.00001556
   0.          0.         -0.00003044  0.         -0.          0.00001806  0.          0.         -0.00001795 -0.00000837 -0.          0.          0.00001569
  -0.00001423 -0.00000558]
 [ 0.          0.          0.         -0.          0.          0.          0.         -0.          0.         -0.          0.         -0.          0.
  -0.         -0.          0.         -0.          0.         -0.         -0.         -0.          0.          0.          0.         -0.         -0.
   0.          0.        ]
 [-0.         -0.         -0.          0.         -0.         -0.         -0.          0.         -0.          0.         -0.          0.         -0.
   0.          0.         -0.          0.         -0.          0.          0.          0.         -0.         -0.         -0.          0.          0.
  -0.         -0.        ]
 [ 0.0292147   0.          0.         -0.00688219  0.00534356  0.          0.         -0.          0.         -0.00001556  0.         -0.          0.00093802
  -0.         -0.          0.00183564 -0.          0.         -0.00108923 -0.         -0.          0.00108231  0.00050458  0.         -0.         -0.0009464
   0.0008578   0.00033628]
 [-0.         -0.         -0.          0.         -0.         -0.         -0.          0.         -0.          0.         -0.          0.         -0.
   0.          0.         -0.          0.         -0.          0.          0.          0.         -0.         -0.         -0.          0.          0.
  -0.         -0.        ]
 [-0.         -0.         -0.          0.         -0.         -0.         -0.          0.         -0.          0.         -0.          0.         -0.
   0.          0.         -0.          0.         -0.          0.          0.          0.         -0.         -0.         -0.          0.          0.
  -0.         -0.        ]
 [ 0.05717078  0.          0.         -0.01346789  0.0104569   0.          0.         -0.          0.         -0.00003044  0.         -0.          0.00183564
  -0.         -0.          0.00359219 -0.          0.         -0.00213153 -0.         -0.          0.002118    0.00098741  0.         -0.         -0.00185202
   0.00167864  0.00065808]
 [-0.         -0.         -0.          0.         -0.         -0.         -0.          0.         -0.          0.         -0.          0.         -0.
   0.          0.         -0.          0.         -0.          0.          0.          0.         -0.         -0.         -0.          0.          0.
  -0.         -0.        ]
 [ 0.          0.          0.         -0.          0.          0.          0.         -0.          0.         -0.          0.         -0.          0.
  -0.         -0.          0.         -0.          0.         -0.         -0.         -0.          0.          0.          0.         -0.         -0.
   0.          0.        ]
 [-0.03392397 -0.         -0.          0.00799157 -0.00620491 -0.         -0.          0.         -0.          0.00001806 -0.          0.         -0.00108923
   0.          0.         -0.00213153  0.         -0.          0.00126481  0.          0.         -0.00125678 -0.00058591 -0.          0.          0.00109895
  -0.00099607 -0.00039049]
 [-0.         -0.         -0.          0.         -0.         -0.         -0.          0.         -0.          0.         -0.          0.         -0.
   0.          0.         -0.          0.         -0.          0.          0.          0.         -0.         -0.         -0.          0.          0.
  -0.         -0.        ]
 [-0.         -0.         -0.          0.         -0.         -0.         -0.          0.         -0.          0.         -0.          0.         -0.
   0.          0.         -0.          0.         -0.          0.          0.          0.         -0.         -0.         -0.          0.          0.
  -0.         -0.        ]
 [ 0.0337086   0.          0.         -0.00794083  0.00616552  0.          0.         -0.          0.         -0.00001795  0.         -0.          0.00108231
  -0.         -0.          0.002118   -0.          0.         -0.00125678 -0.         -0.          0.0012488   0.00058219  0.         -0.         -0.00109198
   0.00098974  0.00038801]
 [ 0.01571497  0.          0.         -0.00370202  0.00287437  0.          0.         -0.          0.         -0.00000837  0.         -0.          0.00050458
  -0.         -0.          0.00098741 -0.          0.         -0.00058591 -0.         -0.          0.00058219  0.00027142  0.         -0.         -0.00050908
   0.00046142  0.00018089]
 [ 0.          0.          0.         -0.          0.          0.          0.         -0.          0.         -0.          0.         -0.          0.
  -0.         -0.          0.         -0.          0.         -0.         -0.         -0.          0.          0.          0.         -0.         -0.
   0.          0.        ]
 [-0.         -0.         -0.          0.         -0.         -0.         -0.          0.         -0.          0.         -0.          0.         -0.
   0.          0.         -0.          0.         -0.          0.          0.          0.         -0.         -0.         -0.          0.          0.
  -0.         -0.        ]
 [-0.02947551 -0.         -0.          0.00694363 -0.00539126 -0.         -0.          0.         -0.          0.00001569 -0.          0.         -0.0009464
   0.          0.         -0.00185202  0.         -0.          0.00109895  0.          0.         -0.00109198 -0.00050908 -0.          0.          0.00095485
  -0.00086545 -0.00033929]
 [ 0.02671602  0.          0.         -0.00629357  0.00488653  0.          0.         -0.          0.         -0.00001423  0.         -0.          0.0008578
  -0.         -0.          0.00167864 -0.          0.         -0.00099607 -0.         -0.          0.00098974  0.00046142  0.         -0.         -0.00086545
   0.00078443  0.00030752]
 [ 0.01047356  0.          0.         -0.00246729  0.00191568  0.          0.         -0.          0.         -0.00000558  0.         -0.          0.00033628
[...]
 [-0.          1.41414249 -0.         ...  0.          0.          0.        ]
 [ 0.         -0.          1.41414249 ...  0.          0.          0.        ]
 ...
 [ 0.          0.          0.         ...  2.18400513 -0.00723028  0.00073202]
 [ 0.          0.          0.         ... -0.00723028  1.11921047 -0.13640713]
 [ 0.          0.          0.         ...  0.00073202 -0.13640713  2.90529591]]
E(SUHF) =     -1.14207549
e_a, e_b
[-0.55102376  0.15321906  0.31748917  0.59095619  0.68101686  0.68101686  1.05185992  1.09185077  1.09185077  1.49733854  2.42403893  2.53300877  3.18233834
  3.18233834  3.30214885  3.30214885  3.57731337  3.92419452  3.92419452  3.96593808  3.96593808  4.03356104  4.03356104  4.23747833  5.19244949  5.19244949
  5.24480094  6.42982407] [-0.55102376  0.15321906  0.31748917  0.59095619  0.68101686  0.68101686  1.05185992  1.09185077  1.09185077  1.49733854  2.42403893  2.53300877  3.18233834
  3.18233834  3.30214885  3.30214885  3.57731337  3.92419452  3.92419452  3.96593808  3.96593808  4.03356104  4.03356104  4.23747833  5.19244949  5.19244949
  5.24480094  6.42982407]
P_a, P_b
[[ 0.84011906  0.         -0.          0.32028878  0.15207465 -0.          0.          0.          0.          0.02622284 -0.         -0.          0.03253149
  -0.         -0.          0.06199356  0.         -0.          0.00068675 -0.         -0.          0.03428363 -0.02274501 -0.         -0.         -0.03110954
  -0.00515955 -0.01818487]
 [ 0.          0.          0.          0.          0.          0.          0.          0.          0.          0.          0.          0.          0.
   0.          0.          0.          0.          0.          0.          0.          0.          0.          0.          0.          0.          0.
   0.          0.        ]
 [-0.          0.          0.         -0.         -0.          0.         -0.         -0.         -0.         -0.          0.          0.         -0.
   0.          0.         -0.         -0.          0.         -0.          0.          0.         -0.          0.          0.          0.          0.
   0.          0.        ]
 [ 0.32028878  0.         -0.          0.12210758  0.05797726 -0.          0.          0.          0.          0.00999725 -0.         -0.          0.01240237
  -0.         -0.          0.02363456  0.         -0.          0.00026182 -0.         -0.          0.01307036 -0.00867136 -0.         -0.         -0.01186027
  -0.00196704 -0.00693284]
 [ 0.15207465  0.         -0.          0.05797726  0.02752788 -0.          0.          0.          0.          0.00474674 -0.         -0.          0.00588871
  -0.         -0.          0.0112218   0.         -0.          0.00012431 -0.         -0.          0.00620587 -0.0041172  -0.         -0.         -0.00563131
  -0.00093396 -0.00329175]
 [-0.          0.          0.         -0.         -0.          0.         -0.         -0.         -0.         -0.          0.          0.         -0.
   0.          0.         -0.         -0.          0.         -0.          0.          0.         -0.          0.          0.          0.          0.
   0.          0.        ]
 [ 0.          0.         -0.          0.          0.         -0.          0.          0.          0.          0.         -0.         -0.          0.
  -0.         -0.          0.          0.         -0.          0.         -0.         -0.          0.         -0.         -0.         -0.         -0.
  -0.         -0.        ]
 [ 0.          0.         -0.          0.          0.         -0.          0.          0.          0.          0.         -0.         -0.          0.
  -0.         -0.          0.          0.         -0.          0.         -0.         -0.          0.         -0.         -0.         -0.         -0.
  -0.         -0.        ]
 [ 0.          0.         -0.          0.          0.         -0.          0.          0.          0.          0.         -0.         -0.          0.
  -0.         -0.          0.          0.         -0.          0.         -0.         -0.          0.         -0.         -0.         -0.         -0.
  -0.         -0.        ]
 [ 0.02622284  0.         -0.          0.00999725  0.00474674 -0.          0.          0.          0.          0.0008185  -0.         -0.          0.00101541
  -0.         -0.          0.00193502  0.         -0.          0.00002144 -0.         -0.          0.0010701  -0.00070995 -0.         -0.         -0.00097103
  -0.00016105 -0.00056761]
 [-0.          0.          0.         -0.         -0.          0.         -0.         -0.         -0.         -0.          0.          0.         -0.
   0.          0.         -0.         -0.          0.         -0.          0.          0.         -0.          0.          0.          0.          0.
   0.          0.        ]
 [-0.          0.          0.         -0.         -0.          0.         -0.         -0.         -0.         -0.          0.          0.         -0.
   0.          0.         -0.         -0.          0.         -0.          0.          0.         -0.          0.          0.          0.          0.
   0.          0.        ]
 [ 0.03253149  0.         -0.          0.01240237  0.00588871 -0.          0.          0.          0.          0.00101541 -0.         -0.          0.0012597
  -0.         -0.          0.00240054  0.         -0.          0.00002659 -0.         -0.          0.00132755 -0.00088074 -0.         -0.         -0.00120464
  -0.00019979 -0.00070416]
 [-0.          0.          0.         -0.         -0.          0.         -0.         -0.         -0.         -0.          0.          0.         -0.
   0.          0.         -0.         -0.          0.         -0.          0.          0.         -0.          0.          0.          0.          0.
   0.          0.        ]
 [-0.          0.          0.         -0.         -0.          0.         -0.         -0.         -0.         -0.          0.          0.         -0.
   0.          0.         -0.         -0.          0.         -0.          0.          0.         -0.          0.          0.          0.          0.
   0.          0.        ]
 [ 0.06199356  0.         -0.          0.02363456  0.0112218  -0.          0.          0.          0.          0.00193502 -0.         -0.          0.00240054
  -0.         -0.          0.00457459  0.         -0.          0.00005068 -0.         -0.          0.00252984 -0.00167839 -0.         -0.         -0.00229562
  -0.00038073 -0.00134189]
 [ 0.          0.         -0.          0.          0.         -0.          0.          0.          0.          0.         -0.         -0.          0.
  -0.         -0.          0.          0.         -0.          0.         -0.         -0.          0.         -0.         -0.         -0.         -0.
  -0.         -0.        ]
 [-0.          0.          0.         -0.         -0.          0.         -0.         -0.         -0.         -0.          0.          0.         -0.
   0.          0.         -0.         -0.          0.         -0.          0.          0.         -0.          0.          0.          0.          0.
   0.          0.        ]
 [ 0.00068675  0.         -0.          0.00026182  0.00012431 -0.          0.          0.          0.          0.00002144 -0.         -0.          0.00002659
  -0.         -0.          0.00005068  0.         -0.          0.00000056 -0.         -0.          0.00002802 -0.00001859 -0.         -0.         -0.00002543
  -0.00000422 -0.00001487]
 [-0.          0.          0.         -0.         -0.          0.         -0.         -0.         -0.         -0.          0.          0.         -0.
   0.          0.         -0.         -0.          0.         -0.          0.          0.         -0.          0.          0.          0.          0.
   0.          0.        ]
 [-0.          0.          0.         -0.         -0.          0.         -0.         -0.         -0.         -0.          0.          0.         -0.
   0.          0.         -0.         -0.          0.         -0.          0.          0.         -0.          0.          0.          0.          0.
   0.          0.        ]
 [ 0.03428363  0.         -0.          0.01307036  0.00620587 -0.          0.          0.          0.          0.0010701  -0.         -0.          0.00132755
  -0.         -0.          0.00252984  0.         -0.          0.00002802 -0.         -0.          0.00139905 -0.00092818 -0.         -0.         -0.00126952
  -0.00021055 -0.00074209]
 [-0.02274501  0.          0.         -0.00867136 -0.0041172   0.         -0.         -0.         -0.         -0.00070995  0.          0.         -0.00088074
   0.          0.         -0.00167839 -0.          0.         -0.00001859  0.          0.         -0.00092818  0.00061579  0.          0.          0.00084225
   0.00013969  0.00049233]
 [-0.          0.          0.         -0.         -0.          0.         -0.         -0.         -0.         -0.          0.          0.         -0.
   0.          0.         -0.         -0.          0.         -0.          0.          0.         -0.          0.          0.          0.          0.
   0.          0.        ]
 [-0.          0.          0.         -0.         -0.          0.         -0.         -0.         -0.         -0.          0.          0.         -0.
   0.          0.         -0.         -0.          0.         -0.          0.          0.         -0.          0.          0.          0.          0.
   0.          0.        ]
 [-0.03110954  0.          0.         -0.01186027 -0.00563131  0.         -0.         -0.         -0.         -0.00097103  0.          0.         -0.00120464
   0.          0.         -0.00229562 -0.          0.         -0.00002543  0.          0.         -0.00126952  0.00084225  0.          0.          0.00115198
   0.00019106  0.00067338]
 [-0.00515955  0.          0.         -0.00196704 -0.00093396  0.         -0.         -0.         -0.         -0.00016105  0.          0.         -0.00019979
   0.          0.         -0.00038073 -0.          0.         -0.00000422  0.          0.         -0.00021055  0.00013969  0.          0.          0.00019106
   0.00003169  0.00011168]
 [-0.01818487  0.          0.         -0.00693284 -0.00329175  0.         -0.         -0.         -0.         -0.00056761  0.          0.         -0.00070416
   0.          0.         -0.00134189 -0.          0.         -0.00001487  0.          0.         -0.00074209  0.00049233  0.          0.          0.00067338
   0.00011168  0.00039362]] 
 [[ 0.84011906  0.         -0.         -0.32028878  0.15207465  0.         -0.         -0.          0.         -0.02622284  0.          0.          0.03253149
   0.          0.          0.06199356  0.         -0.         -0.00068675  0.          0.          0.03428363  0.02274501  0.         -0.         -0.03110954
   0.00515955  0.01818487]
 [ 0.          0.          0.          0.          0.          0.          0.          0.          0.          0.          0.          0.          0.
   0.          0.          0.          0.          0.          0.          0.          0.          0.          0.          0.          0.          0.
   0.          0.        ]
 [-0.          0.          0.          0.         -0.         -0.          0.          0.         -0.          0.         -0.         -0.         -0.
  -0.         -0.         -0.         -0.          0.          0.         -0.         -0.         -0.         -0.         -0.          0.          0.
  -0.         -0.        ]
 [-0.32028878  0.          0.          0.12210758 -0.05797726 -0.          0.          0.         -0.          0.00999725 -0.         -0.         -0.01240237
  -0.         -0.         -0.02363456 -0.          0.          0.00026182 -0.         -0.         -0.01307036 -0.00867136 -0.          0.          0.01186027
  -0.00196704 -0.00693284]
 [ 0.15207465  0.         -0.         -0.05797726  0.02752788  0.         -0.         -0.          0.         -0.00474674  0.          0.          0.00588871
   0.          0.          0.0112218   0.         -0.         -0.00012431  0.          0.          0.00620587  0.0041172   0.         -0.         -0.00563131
   0.00093396  0.00329175]
 [ 0.          0.         -0.         -0.          0.          0.         -0.         -0.          0.         -0.          0.          0.          0.
   0.          0.          0.          0.         -0.         -0.          0.          0.          0.          0.          0.         -0.         -0.
   0.          0.        ]
 [-0.          0.          0.          0.         -0.         -0.          0.          0.         -0.          0.         -0.         -0.         -0.
  -0.         -0.         -0.         -0.          0.          0.         -0.         -0.         -0.         -0.         -0.          0.          0.
  -0.         -0.        ]
 [-0.          0.          0.          0.         -0.         -0.          0.          0.         -0.          0.         -0.         -0.         -0.
  -0.         -0.         -0.         -0.          0.          0.         -0.         -0.         -0.         -0.         -0.          0.          0.
  -0.         -0.        ]
 [ 0.          0.         -0.         -0.          0.          0.         -0.         -0.          0.         -0.          0.          0.          0.
   0.          0.          0.          0.         -0.         -0.          0.          0.          0.          0.          0.         -0.         -0.
   0.          0.        ]
 [-0.02622284  0.          0.          0.00999725 -0.00474674 -0.          0.          0.         -0.          0.0008185  -0.         -0.         -0.00101541
  -0.         -0.         -0.00193502 -0.          0.          0.00002144 -0.         -0.         -0.0010701  -0.00070995 -0.          0.          0.00097103
  -0.00016105 -0.00056761]
 [ 0.          0.         -0.         -0.          0.          0.         -0.         -0.          0.         -0.          0.          0.          0.
   0.          0.          0.          0.         -0.         -0.          0.          0.          0.          0.          0.         -0.         -0.
   0.          0.        ]
 [ 0.          0.         -0.         -0.          0.          0.         -0.         -0.          0.         -0.          0.          0.          0.
   0.          0.          0.          0.         -0.         -0.          0.          0.          0.          0.          0.         -0.         -0.
   0.          0.        ]
 [ 0.03253149  0.         -0.         -0.01240237  0.00588871  0.         -0.         -0.          0.         -0.00101541  0.          0.          0.0012597
   0.          0.          0.00240054  0.         -0.         -0.00002659  0.          0.          0.00132755  0.00088074  0.         -0.         -0.00120464
   0.00019979  0.00070416]
 [ 0.          0.         -0.         -0.          0.          0.         -0.         -0.          0.         -0.          0.          0.          0.
   0.          0.          0.          0.         -0.         -0.          0.          0.          0.          0.          0.         -0.         -0.
   0.          0.        ]
 [ 0.          0.         -0.         -0.          0.          0.         -0.         -0.          0.         -0.          0.          0.          0.
   0.          0.          0.          0.         -0.         -0.          0.          0.          0.          0.          0.         -0.         -0.
   0.          0.        ]
 [ 0.06199356  0.         -0.         -0.02363456  0.0112218   0.         -0.         -0.          0.         -0.00193502  0.          0.          0.00240054
   0.          0.          0.00457459  0.         -0.         -0.00005068  0.          0.          0.00252984  0.00167839  0.         -0.         -0.00229562
   0.00038073  0.00134189]
 [ 0.          0.         -0.         -0.          0.          0.         -0.         -0.          0.         -0.          0.          0.          0.
   0.          0.          0.          0.         -0.         -0.          0.          0.          0.          0.          0.         -0.         -0.
   0.          0.        ]
 [-0.          0.          0.          0.         -0.         -0.          0.          0.         -0.          0.         -0.         -0.         -0.
  -0.         -0.         -0.         -0.          0.          0.         -0.         -0.         -0.         -0.         -0.          0.          0.
  -0.         -0.        ]
 [-0.00068675  0.          0.          0.00026182 -0.00012431 -0.          0.          0.         -0.          0.00002144 -0.         -0.         -0.00002659
  -0.         -0.         -0.00005068 -0.          0.          0.00000056 -0.         -0.         -0.00002802 -0.00001859 -0.          0.          0.00002543
  -0.00000422 -0.00001487]
 [ 0.          0.         -0.         -0.          0.          0.         -0.         -0.          0.         -0.          0.          0.          0.
   0.          0.          0.          0.         -0.         -0.          0.          0.          0.          0.          0.         -0.         -0.
   0.          0.        ]
 [ 0.          0.         -0.         -0.          0.          0.         -0.         -0.          0.         -0.          0.          0.          0.
   0.          0.          0.          0.         -0.         -0.          0.          0.          0.          0.          0.         -0.         -0.
   0.          0.        ]
 [ 0.03428363  0.         -0.         -0.01307036  0.00620587  0.         -0.         -0.          0.         -0.0010701   0.          0.          0.00132755
   0.          0.          0.00252984  0.         -0.         -0.00002802  0.          0.          0.00139905  0.00092818  0.         -0.         -0.00126952
   0.00021055  0.00074209]
 [ 0.02274501  0.         -0.         -0.00867136  0.0041172   0.         -0.         -0.          0.         -0.00070995  0.          0.          0.00088074
   0.          0.          0.00167839  0.         -0.         -0.00001859  0.          0.          0.00092818  0.00061579  0.         -0.         -0.00084225
   0.00013969  0.00049233]
 [ 0.          0.         -0.         -0.          0.          0.         -0.         -0.          0.         -0.          0.          0.          0.
   0.          0.          0.          0.         -0.         -0.          0.          0.          0.          0.          0.         -0.         -0.
   0.          0.        ]
 [-0.          0.          0.          0.         -0.         -0.          0.          0.         -0.          0.         -0.         -0.         -0.
  -0.         -0.         -0.         -0.          0.          0.         -0.         -0.         -0.         -0.         -0.          0.          0.
  -0.         -0.        ]
 [-0.03110954  0.          0.          0.01186027 -0.00563131 -0.          0.          0.         -0.          0.00097103 -0.         -0.         -0.00120464
  -0.         -0.         -0.00229562 -0.          0.          0.00002543 -0.         -0.         -0.00126952 -0.00084225 -0.          0.          0.00115198
  -0.00019106 -0.00067338]
 [ 0.00515955  0.         -0.         -0.00196704  0.00093396  0.         -0.         -0.          0.         -0.00016105  0.          0.          0.00019979
   0.          0.          0.00038073  0.         -0.         -0.00000422  0.          0.          0.00021055  0.00013969  0.         -0.         -0.00019106
   0.00003169  0.00011168]
 [ 0.01818487  0.         -0.         -0.00693284  0.00329175  0.         -0.         -0.          0.         -0.00056761  0.          0.          0.00070416
   0.          0.          0.00134189  0.         -0.         -0.00001487  0.          0.          0.00074209  0.00049233  0.         -0.         -0.00067338
   0.00011168  0.00039362]]

***************
SUHF converged at cycle 39
Final E(SUHF) =     -1.14207549, delta E = -8.41871e-09
