#INFO: **** input file is /share/home/srwang/ExSCF/test/pytest/scan_h2/scan_suhf.py ****
#import phf
from pyscf import lib
#import scipy
import numpy as np
import sys, os, contextlib

from pyphf import util, sudft

#xyz = 'h2.xyz' #sys.argv[1]
fch = 'test_uhf.fchk' #sys.argv[2]
#bas = '../h2.bas'
bas = 'cc-pvtz'

lib.num_threads(8)

for r in np.arange(0.5, 2.55, 0.1):
    output = 'suhf/suhf_%.1f_diis.out' % r
    os.system("echo '\n' > %s" % output)
    with open(output, 'w', encoding='utf-8') as f:
        with contextlib.redirect_stdout(f):
            xyz = '''H 0.0 0.0 0.0; H 0.0 0.0 %f'''%r
            mf = util.guess_from_fchk(xyz, bas, fch)
            #mf = util.guess(xyz, bas)
            #f.flush()
            mf2 = util.SUHF(mf)
            #mf2.cut_no = False
            mf2.debug = False
            #mf2.max_cycle = 50
            mf2.diis_on = True
            #mf2.output = 'sudft_%.1f.out'%r
            mf2.kernel()
            
            #mf3 = sudft.SUDFT(mf2)
            #mf3.suxc = 'TPSS'
            #mf3.kernel()
                    
#INFO: ******************** input file end ********************


System: uname_result(system='Linux', node='xcluster', release='3.10.0-693.el7.x86_64', version='#1 SMP Thu Jul 6 19:56:57 EDT 2017', machine='x86_64', processor='x86_64')  Threads 8
Python 3.7.4 (default, Aug 13 2019, 20:35:49) 
[GCC 7.3.0]
numpy 1.17.2  scipy 1.4.1
Date: Mon Nov 23 19:28:20 2020
PySCF version 1.7.5
PySCF path  /share/home/srwang/pyscf-1.7.5/pyscf

[CONFIG] conf_file None
[INPUT] verbose = 4
[INPUT] num. atoms = 2
[INPUT] num. electrons = 2
[INPUT] charge = 0
[INPUT] spin (= nelec alpha-beta = 2S) = 0
[INPUT] symmetry False subgroup None
[INPUT] Mole.unit = angstrom
[INPUT]  1 H      0.000000000000   0.000000000000   0.000000000000 AA    0.000000000000   0.000000000000   0.000000000000 Bohr
[INPUT]  2 H      0.000000000000   0.000000000000   2.200000000000 AA    0.000000000000   0.000000000000   4.157397474043 Bohr

nuclear repulsion = 0.240535095872727
number of shells = 12
number of NR pGTOs = 32
number of NR cGTOs = 28
basis = cc-pvtz
ecp = {}
CPU time:       849.94


******** <class 'pyscf.scf.uhf.UHF'> ********
method = UHF
initial guess = minao
damping factor = 0
level_shift factor = 0
DIIS = <class 'pyscf.scf.diis.CDIIS'>
diis_start_cycle = 1
diis_space = 8
SCF conv_tol = 1e-09
SCF conv_tol_grad = None
SCF max_cycles = 1
direct_scf = True
direct_scf_tol = 1e-13
chkfile to save SCF result = /share/home/srwang/ExSCF/test/pytest/scan_h2/tmpc1fyk8dg
max_memory 4000 MB (current use 125 MB)
number electrons alpha = 1  beta = 1
Set gradient conv threshold to 3.16228e-05
init E= -0.649551796991941
  alpha nocc = 1  HOMO = -0.239049388508466  LUMO = -0.120735847604367
  beta  nocc = 1  HOMO = -0.237686741456873  LUMO = -0.12049573486578
cycle= 1 E= -0.899190039010813  delta_E= -0.25  |g|= 0.0329  |ddm|= 0.447
SCF not converged.
SCF energy = -0.899190039010813 after 1 cycles  <S^2> = 2.0907434e-07  2S+1 = 1.0000004


******** <class 'pyscf.scf.uhf.UHF'> ********
method = UHF
initial guess = minao
damping factor = 0
level_shift factor = 0
DIIS = <class 'pyscf.scf.diis.CDIIS'>
diis_start_cycle = 1
diis_space = 8
SCF conv_tol = 1e-09
SCF conv_tol_grad = None
SCF max_cycles = 1
direct_scf = True
direct_scf_tol = 1e-13
chkfile to save SCF result = /share/home/srwang/ExSCF/test/pytest/scan_h2/tmpc1fyk8dg
max_memory 4000 MB (current use 125 MB)
number electrons alpha = 1  beta = 1
Set gradient conv threshold to 3.16228e-05
init E= -0.871385452304214
  alpha nocc = 1  HOMO = -0.491511711852851  LUMO = -0.0355362423483185
  beta  nocc = 1  HOMO = -0.491511711852851  LUMO = -0.0355362423483176
cycle= 1 E= -0.993445926443812  delta_E= -0.122  |g|= 0.0518  |ddm|= 0.12
SCF not converged.
SCF energy = -0.993445926443812 after 1 cycles  <S^2> = 0.80309565  2S+1 = 2.052409

******** <class 'pyphf.util.SUHF'> ********
max_cycle = 70
verbose: normal
DIIS: <class 'pyscf.scf.diis.CDIIS'>
diis_start_cyc = 40
SVD: S^(-1/2)
[[-0.18462144  0.29104131 -0.08144124  0.          0.          0.         -0.         -0.12903284 -0.0312537  -0.         -0.         -0.         -0.
  -0.          0.         -0.         -0.          0.04026794  0.65925407  0.65350977  0.10537483  0.          0.          0.          0.         -0.40001314
   0.84938511 -0.74209296]
 [-0.25817761  0.32162579 -0.06976794  0.         -0.         -0.         -0.         -0.09444553 -0.00501076  0.          0.          0.          0.
   0.         -0.          0.          0.          0.0071401   0.04430046 -0.20061654 -0.02121993 -0.         -0.          0.         -0.          0.33512315
  -1.6747108   1.64482218]
 [-0.2798212   0.21267876 -0.03740664 -0.          0.          0.         -0.         -0.00720527  0.00641794  0.         -0.          0.         -0.
   0.          0.         -0.          0.         -0.01616186 -0.48945575 -0.59561333 -0.1284228  -0.         -0.         -0.         -0.          0.26228873
   0.99011981 -1.57863096]
 [ 0.          0.         -0.          0.35727365  0.1441702  -0.02005087 -0.40098159  0.          0.         -0.0003102   0.01435321 -0.          0.
  -0.         -0.          0.01454798 -0.00031591  0.          0.         -0.          0.         -0.12232985  0.79313916  0.69537818  0.41450333 -0.
  -0.          0.        ]
 [ 0.          0.          0.          0.1441702  -0.35727365 -0.40098159  0.02005087  0.          0.          0.01435321  0.0003102   0.          0.
  -0.         -0.         -0.00031591 -0.01454798 -0.          0.         -0.          0.          0.79313916  0.12232985 -0.41450333  0.69537818  0.
  -0.          0.        ]
 [-0.03865343 -0.0756908   0.34627668  0.          0.          0.          0.         -0.43007749 -0.0609045   0.         -0.          0.         -0.
   0.          0.         -0.          0.          0.06560296  0.13836697 -0.3365432  -0.79110405  0.         -0.         -0.         -0.         -0.7601111
  -0.01616229  0.15012765]
 [ 0.          0.          0.          0.36759708  0.148336   -0.01949014 -0.38976807  0.          0.         -0.00000439  0.00020319 -0.          0.
  -0.         -0.          0.00011789 -0.00000256  0.         -0.          0.         -0.          0.11894355 -0.77118369 -0.71568639 -0.42660872  0.
   0.         -0.        ]
 [ 0.          0.          0.          0.148336   -0.36759708 -0.38976807  0.01949014  0.         -0.          0.00020319  0.00000439 -0.         -0.
   0.          0.         -0.00000256 -0.00011789  0.         -0.          0.         -0.         -0.77118369 -0.11894355  0.42660872 -0.71568639 -0.
   0.         -0.        ]
 [-0.07555883 -0.10528112  0.39463553  0.          0.         -0.         -0.         -0.35422246 -0.00286124 -0.          0.         -0.          0.
  -0.         -0.          0.         -0.         -0.00028096 -0.02718811  0.23379118  0.70424258 -0.          0.          0.          0.          0.98697296
  -0.0138409  -0.32171963]
 [ 0.          0.         -0.          0.          0.          0.         -0.         -0.          0.         -0.         -0.          0.70706865  0.
   0.70714492  0.          0.         -0.          0.         -0.          0.          0.         -0.         -0.          0.         -0.         -0.
   0.          0.        ]
 [ 0.          0.          0.          0.00297313 -0.00736782  0.00831071 -0.00041557  0.         -0.         -0.70614056 -0.01526081 -0.         -0.
   0.          0.         -0.01536244 -0.70745169 -0.          0.         -0.         -0.          0.01589966  0.00245229  0.00845272 -0.01418043 -0.
   0.          0.        ]
 [-0.01118954 -0.00799273  0.02792884 -0.         -0.         -0.          0.          0.04797288  0.70049824 -0.          0.         -0.         -0.
  -0.          0.          0.         -0.          0.70599523  0.046134   -0.01751481 -0.06017938  0.          0.          0.          0.          0.09645505
   0.01538387 -0.0245249 ]
 [-0.         -0.          0.          0.00736782  0.00297313  0.00041557  0.00831071  0.          0.          0.01526081 -0.70614056 -0.         -0.
  -0.          0.          0.70745169 -0.01536244  0.          0.         -0.         -0.         -0.00245229  0.01589966 -0.01418043 -0.00845272  0.
   0.         -0.        ]
 [ 0.          0.          0.          0.         -0.          0.         -0.          0.          0.         -0.         -0.          0.          0.70706865
   0.         -0.70714492 -0.          0.          0.          0.          0.         -0.          0.          0.          0.         -0.         -0.
  -0.         -0.        ]
 [-0.18462144 -0.29104131 -0.08144124 -0.         -0.          0.          0.          0.12903284 -0.0312537   0.          0.          0.          0.
   0.         -0.          0.          0.         -0.04026794  0.65925407 -0.65350977  0.10537483 -0.         -0.         -0.         -0.          0.40001314
   0.84938511  0.74209296]
 [-0.25817761 -0.32162579 -0.06976794 -0.          0.         -0.         -0.          0.09444553 -0.00501076 -0.         -0.         -0.         -0.
  -0.          0.         -0.         -0.         -0.0071401   0.04430046  0.20061654 -0.02121993  0.         -0.         -0.         -0.         -0.33512315
  -1.6747108  -1.64482218]
 [-0.2798212  -0.21267876 -0.03740664  0.         -0.         -0.          0.          0.00720527  0.00641794  0.         -0.         -0.          0.
  -0.         -0.         -0.         -0.          0.01616186 -0.48945575  0.59561333 -0.1284228   0.          0.          0.          0.         -0.26228873
   0.99011981  1.57863096]
 [-0.         -0.          0.          0.35727365  0.1441702   0.02005087  0.40098159  0.         -0.         -0.0003102   0.01435321  0.          0.
   0.         -0.         -0.01454798  0.00031591  0.          0.         -0.         -0.         -0.12232985  0.79313916 -0.69537818 -0.41450333  0.
   0.         -0.        ]
 [ 0.          0.          0.          0.1441702  -0.35727365  0.40098159 -0.02005087  0.          0.          0.01435321  0.0003102   0.          0.
  -0.         -0.          0.00031591  0.01454798  0.          0.         -0.          0.          0.79313916  0.12232985  0.41450333 -0.69537818 -0.
   0.         -0.        ]
 [ 0.03865343 -0.0756908  -0.34627668  0.          0.         -0.         -0.         -0.43007749  0.0609045  -0.          0.          0.          0.
   0.         -0.         -0.          0.          0.06560296 -0.13836697 -0.3365432   0.79110405 -0.         -0.         -0.         -0.         -0.7601111
   0.01616229  0.15012765]
 [-0.         -0.          0.          0.36759708  0.148336    0.01949014  0.38976807  0.          0.         -0.00000439  0.00020319 -0.         -0.
   0.         -0.         -0.00011789  0.00000256  0.         -0.          0.         -0.          0.11894355 -0.77118369  0.71568639  0.42660872 -0.
  -0.         -0.        ]
 [ 0.          0.          0.          0.148336   -0.36759708  0.38976807 -0.01949014  0.          0.          0.00020319  0.00000439  0.          0.
  -0.         -0.          0.00000256  0.00011789  0.         -0.          0.         -0.         -0.77118369 -0.11894355 -0.42660872  0.71568639 -0.
  -0.          0.        ]
 [ 0.07555883 -0.10528112 -0.39463553  0.          0.          0.         -0.         -0.35422246  0.00286124  0.         -0.         -0.         -0.
  -0.          0.          0.         -0.         -0.00028096  0.02718811  0.23379118 -0.70424258  0.          0.          0.          0.          0.98697296
   0.0138409  -0.32171963]
 [ 0.          0.         -0.          0.         -0.         -0.          0.         -0.         -0.         -0.         -0.          0.70706865  0.
  -0.70714492  0.         -0.          0.         -0.          0.          0.         -0.          0.         -0.          0.         -0.          0.
   0.         -0.        ]
 [-0.         -0.         -0.         -0.00297313  0.00736782  0.00831071 -0.00041557 -0.         -0.          0.70614056  0.01526081  0.          0.
  -0.         -0.         -0.01536244 -0.70745169 -0.         -0.          0.         -0.         -0.01589966 -0.00245229  0.00845272 -0.01418043 -0.
   0.         -0.        ]
 [-0.01118954  0.00799273  0.02792884  0.          0.          0.         -0.         -0.04797288  0.70049824  0.          0.         -0.          0.
  -0.         -0.          0.         -0.         -0.70599523  0.046134    0.01751481 -0.06017938 -0.         -0.          0.         -0.         -0.09645505
   0.01538387  0.0245249 ]
 [ 0.          0.         -0.         -0.00736782 -0.00297313  0.00041557  0.00831071 -0.         -0.         -0.01526081  0.70614056 -0.          0.
  -0.         -0.          0.70745169 -0.01536244 -0.         -0.          0.         -0.          0.00245229 -0.01589966 -0.01418043 -0.00845272  0.
   0.         -0.        ]
 [ 0.          0.          0.         -0.          0.         -0.          0.          0.          0.          0.          0.         -0.          0.70706865
   0.          0.70714492  0.         -0.          0.          0.          0.         -0.         -0.         -0.         -0.         -0.         -0.
  -0.         -0.        ]]
C (ortho)
[[-0.84183249 -0.5046467  -0.01168403  0.14862314 -0.09358494 -0.         -0.         -0.          0.          0.01219102  0.04307253  0.02811149 -0.00301564
   0.          0.          0.         -0.         -0.         -0.          0.         -0.          0.00188278 -0.         -0.         -0.0532869   0.
   0.          0.0044735 ]
 [ 0.51189019 -0.77907159 -0.06470547  0.26327053  0.02302946 -0.         -0.          0.          0.         -0.17796765 -0.02769308  0.12640621 -0.00859498
   0.          0.          0.         -0.          0.         -0.          0.         -0.          0.05542386  0.         -0.         -0.00092133 -0.
   0.         -0.07364047]
 [-0.10947114 -0.03150038 -0.00408325 -0.00522826  0.87820982  0.          0.         -0.         -0.         -0.06065746 -0.01004861  0.00057832 -0.08219893
   0.         -0.         -0.          0.          0.         -0.         -0.          0.         -0.02802723  0.          0.          0.45083525 -0.
  -0.         -0.03394189]
 [ 0.         -0.         -0.          0.         -0.          0.51387363  0.64027558  0.04118576  0.26166057  0.          0.          0.         -0.
  -0.03644636 -0.01495496 -0.         -0.          0.         -0.          0.01244881  0.02114631 -0.          0.44265515  0.17356818 -0.          0.16299228
  -0.03206937  0.        ]
 [ 0.         -0.          0.          0.         -0.         -0.64027558  0.51387363 -0.26166057  0.04118576  0.          0.          0.          0.
  -0.01495496  0.03644636  0.         -0.         -0.          0.         -0.02114631  0.01244881 -0.          0.17356818 -0.44265515 -0.         -0.03206937
  -0.16299228  0.        ]
 [-0.         -0.          0.          0.          0.         -0.26184189  0.06485629  0.78675958  0.22401196  0.          0.          0.          0.
  -0.00062974 -0.01426104 -0.          0.         -0.          0.         -0.03963246  0.00391891 -0.         -0.00939811 -0.15690856  0.          0.28263778
   0.38945846  0.        ]
 [-0.          0.         -0.         -0.          0.         -0.06485629 -0.26184189 -0.22401196  0.78675958 -0.         -0.         -0.          0.
  -0.01426104  0.00062974  0.         -0.         -0.          0.         -0.00391891 -0.03963246  0.         -0.15690856  0.00939811  0.          0.38945846
  -0.28263778 -0.        ]
 [-0.09415922  0.07982906  0.19246891 -0.21395344 -0.06973536  0.          0.          0.          0.         -0.80406897  0.00718009 -0.04272598 -0.01469613
  -0.          0.          0.         -0.         -0.          0.          0.         -0.          0.14531563  0.         -0.         -0.01966233  0.
   0.         -0.47639773]
 [-0.00601998  0.00133481  0.01031888  0.00825799  0.02360413  0.          0.          0.         -0.         -0.00456337  0.12542794  0.0539298   0.97270035
  -0.         -0.          0.         -0.         -0.         -0.         -0.          0.          0.12145419  0.          0.          0.14018568 -0.
  -0.          0.00442932]
 [ 0.         -0.          0.         -0.          0.         -0.00842175  0.00273842 -0.0033612  -0.00070173 -0.          0.         -0.         -0.
   0.02483985 -0.90496417 -0.         -0.         -0.          0.          0.41184695 -0.07075231  0.          0.00086855 -0.07393393 -0.         -0.00821048
  -0.01320691  0.        ]
 [ 0.          0.         -0.         -0.          0.         -0.00273842 -0.00842175  0.00070173 -0.0033612  -0.          0.          0.         -0.
  -0.90496417 -0.02483985  0.         -0.         -0.         -0.          0.07075231  0.41184695  0.         -0.07393393 -0.00086855  0.         -0.01320691
   0.00821048 -0.        ]
 [ 0.         -0.          0.         -0.         -0.         -0.          0.          0.         -0.          0.          0.         -0.         -0.
  -0.         -0.          0.72666285  0.00129079  0.67475291 -0.1291044   0.         -0.          0.          0.         -0.          0.         -0.
   0.          0.        ]
 [-0.         -0.          0.          0.          0.         -0.         -0.         -0.          0.         -0.          0.         -0.          0.
  -0.         -0.         -0.00129079  0.72666285  0.1291044   0.67475291  0.          0.          0.         -0.         -0.         -0.          0.
  -0.         -0.        ]
 [ 0.         -0.          0.         -0.         -0.          0.          0.          0.         -0.          0.          0.         -0.         -0.
  -0.          0.          0.68699196  0.00122032 -0.71371705  0.13655963 -0.         -0.          0.          0.          0.          0.         -0.
   0.          0.        ]
 [-0.         -0.          0.          0.          0.          0.          0.          0.         -0.         -0.          0.         -0.          0.
   0.          0.          0.00122032 -0.68699196  0.13655963  0.71371705  0.         -0.         -0.          0.          0.         -0.         -0.
   0.         -0.        ]
 [-0.          0.         -0.         -0.          0.         -0.00083874 -0.00301819 -0.00285644  0.01122721 -0.          0.          0.         -0.
   0.41953402 -0.0066621   0.         -0.         -0.         -0.          0.11450411  0.89809825  0.         -0.03233074  0.00102111  0.          0.04570603
  -0.03123757 -0.        ]
 [-0.         -0.          0.         -0.          0.          0.00301819 -0.00083874 -0.01122721 -0.00285644 -0.          0.         -0.         -0.
  -0.0066621  -0.41953402 -0.          0.          0.          0.         -0.89809825  0.11450411  0.          0.00102111  0.03233074 -0.         -0.03123757
  -0.04570603 -0.        ]
 [ 0.00475907  0.0063856  -0.04064818  0.03945994 -0.00242282  0.          0.          0.          0.         -0.06547083 -0.03519364  0.11204471  0.12637994
  -0.         -0.          0.          0.         -0.          0.         -0.          0.         -0.95309276 -0.         -0.         -0.05655157 -0.
  -0.         -0.22602329]
 [-0.02133887 -0.16312757 -0.57334028 -0.52919042 -0.09663745  0.          0.          0.         -0.          0.00564752 -0.53204669 -0.20178562  0.06969875
  -0.         -0.         -0.         -0.          0.         -0.         -0.          0.         -0.00051024  0.          0.          0.16131779 -0.
  -0.         -0.01136041]
 [-0.0761448   0.28161803 -0.49649229  0.43679467 -0.00493513  0.         -0.         -0.         -0.         -0.01399291 -0.19412484  0.55812741 -0.02510285
   0.          0.          0.          0.         -0.          0.         -0.         -0.          0.18437167 -0.         -0.         -0.01168292  0.
   0.         -0.3056611 ]
 [-0.00893757 -0.01920423 -0.12483091 -0.12870262  0.45001765 -0.          0.          0.         -0.         -0.04000276 -0.05380283 -0.0172251   0.11613743
   0.          0.          0.         -0.         -0.          0.          0.         -0.          0.05437137 -0.         -0.         -0.86047953  0.
   0.          0.05681084]
 [-0.          0.         -0.          0.          0.         -0.43231657  0.20659666 -0.16128427 -0.01202091 -0.         -0.          0.         -0.
   0.00783576 -0.04890854 -0.          0.          0.         -0.          0.03412561 -0.01061438 -0.         -0.11637869  0.80731998  0.          0.11303335
   0.24989264 -0.        ]
 [-0.          0.         -0.         -0.          0.         -0.20659666 -0.43231657  0.01202091 -0.16128427  0.         -0.          0.         -0.
  -0.04890854 -0.00783576  0.         -0.          0.         -0.          0.01061438  0.03412561 -0.          0.80731998  0.11637869 -0.          0.24989264
  -0.11303335 -0.        ]
 [-0.          0.         -0.         -0.          0.          0.03718435 -0.14887195 -0.33524958  0.34924216  0.         -0.          0.         -0.
   0.01091807 -0.00642206 -0.          0.          0.          0.         -0.01786653  0.04358763 -0.          0.23755602 -0.14479697 -0.         -0.35797105
   0.73086952  0.        ]
 [-0.          0.         -0.          0.          0.         -0.14887195 -0.03718435  0.34924216  0.33524958  0.         -0.          0.         -0.
   0.00642206  0.01091807 -0.          0.          0.         -0.          0.04358763  0.01786653  0.          0.14479697  0.23755602 -0.         -0.73086952
  -0.35797105 -0.        ]
 [ 0.03752276 -0.07031813  0.02979854 -0.00993294  0.03753897  0.         -0.         -0.         -0.          0.49571766  0.12363603 -0.33222786  0.00133026
   0.          0.         -0.         -0.          0.         -0.          0.         -0.          0.10799337 -0.         -0.         -0.05052766  0.
   0.         -0.77822684]
 [-0.02514332  0.07174808  0.40252381  0.40808932  0.02593886  0.         -0.          0.         -0.          0.00292752 -0.76247937 -0.2649195   0.10835993
  -0.         -0.          0.         -0.         -0.         -0.         -0.          0.          0.0130013  -0.         -0.         -0.03878027  0.
   0.          0.00209295]
 [ 0.00207534  0.12079364 -0.45070743  0.45512537 -0.00848126 -0.         -0.          0.          0.         -0.25708544  0.24482858 -0.65792469  0.01034008
  -0.         -0.          0.          0.         -0.          0.         -0.          0.         -0.05571843  0.          0.          0.00535058 -0.
  -0.          0.1136549 ]]
[[-0.84183249 -0.5046467  -0.01168403  0.14862314  0.09358494  0.          0.          0.         -0.         -0.01219102  0.04307253  0.02811149 -0.00301564
  -0.          0.          0.          0.          0.          0.          0.          0.          0.00188278  0.          0.          0.0532869  -0.
  -0.         -0.0044735 ]
 [-0.51189019  0.77907159  0.06470547 -0.26327053  0.02302946 -0.          0.         -0.         -0.         -0.17796765  0.02769308 -0.12640621  0.00859498
   0.          0.          0.         -0.         -0.          0.          0.         -0.         -0.05542386 -0.         -0.         -0.00092133 -0.
   0.         -0.07364047]
 [-0.10947114 -0.03150038 -0.00408325 -0.00522826 -0.87820982  0.         -0.          0.         -0.          0.06065746 -0.01004861  0.00057832 -0.08219893
   0.          0.          0.         -0.         -0.          0.          0.         -0.         -0.02802723 -0.         -0.         -0.45083525 -0.
   0.          0.03394189]
 [-0.          0.          0.         -0.          0.          0.76965948  0.28573275  0.01274345  0.26457537  0.          0.         -0.         -0.
   0.02606873  0.02953658 -0.          0.          0.         -0.         -0.02435422 -0.00300181  0.          0.32343459  0.34851049 -0.          0.15858845
  -0.04944323  0.        ]
 [-0.          0.          0.          0.          0.          0.28573275 -0.76965948 -0.26457537  0.01274345  0.          0.         -0.         -0.
  -0.02953658  0.02606873  0.         -0.          0.         -0.         -0.00300181  0.02435422 -0.          0.34851049 -0.32343459 -0.         -0.04944323
  -0.15858845 -0.        ]
 [-0.          0.          0.          0.          0.          0.02102824  0.26893369 -0.75803179 -0.30750577  0.         -0.          0.         -0.
  -0.01368048  0.00407656 -0.         -0.          0.          0.         -0.01218217 -0.03791681 -0.         -0.05964419  0.1454345  -0.         -0.32295225
  -0.35674059 -0.        ]
 [ 0.         -0.          0.         -0.          0.          0.26893369 -0.02102824  0.30750577 -0.75803179 -0.         -0.          0.          0.
  -0.00407656 -0.01368048 -0.         -0.          0.          0.         -0.03791681  0.01218217  0.          0.1454345   0.05964419  0.         -0.35674059
   0.32295225  0.        ]
 [ 0.09415922 -0.07982906 -0.19246891  0.21395344 -0.06973536  0.          0.         -0.          0.         -0.80406897 -0.00718009  0.04272598  0.01469613
   0.          0.         -0.         -0.         -0.          0.          0.          0.         -0.14531563  0.          0.         -0.01966233  0.
   0.         -0.47639773]
 [-0.00601998  0.00133481  0.01031888  0.00825799 -0.02360413 -0.          0.          0.          0.          0.00456337  0.12542794  0.0539298   0.97270035
  -0.         -0.          0.          0.          0.          0.         -0.         -0.          0.12145419 -0.         -0.         -0.14018568 -0.
   0.         -0.00442932]
 [-0.          0.         -0.          0.          0.         -0.00005722 -0.00885559 -0.00326599 -0.00105992  0.         -0.          0.          0.
   0.84689614 -0.31991263  0.         -0.          0.         -0.         -0.09904651 -0.4059724   0.          0.03287562 -0.0662282   0.         -0.00958558
  -0.01224545  0.        ]
 [ 0.         -0.         -0.          0.          0.         -0.00885559  0.00005722  0.00105992 -0.00326599  0.          0.         -0.          0.
   0.31991263  0.84689614 -0.         -0.          0.         -0.         -0.4059724   0.09904651  0.         -0.0662282  -0.03287562  0.         -0.01224545
   0.00958558  0.        ]
 [-0.          0.         -0.          0.         -0.         -0.         -0.         -0.          0.         -0.         -0.          0.         -0.
   0.         -0.          0.00776509  0.72662251  0.68699297  0.00030123 -0.         -0.         -0.          0.         -0.         -0.          0.
  -0.          0.        ]
 [ 0.         -0.         -0.         -0.          0.         -0.         -0.          0.         -0.          0.         -0.          0.         -0.
   0.          0.          0.72662251 -0.00776509 -0.00030123  0.68699297  0.          0.          0.         -0.         -0.          0.         -0.
   0.          0.        ]
 [-0.          0.         -0.          0.         -0.         -0.          0.          0.          0.         -0.         -0.          0.         -0.
  -0.         -0.         -0.00734117 -0.68695381  0.72666393  0.00031863 -0.          0.         -0.         -0.          0.         -0.          0.
  -0.          0.        ]
 [ 0.         -0.         -0.          0.          0.          0.          0.          0.          0.         -0.         -0.          0.         -0.
  -0.         -0.          0.68695381 -0.00734117  0.00031863 -0.72666393 -0.          0.         -0.         -0.          0.         -0.          0.
  -0.          0.        ]
 [ 0.          0.          0.         -0.          0.          0.00312868 -0.00015588  0.0040499  -0.01085393 -0.          0.         -0.          0.
   0.13113418  0.39856869  0.         -0.          0.         -0.          0.8694509  -0.25248127  0.          0.0295692   0.0131142   0.         -0.0420745
   0.03598004  0.        ]
 [ 0.          0.         -0.          0.          0.         -0.00015588 -0.00312868  0.01085393  0.0040499   0.         -0.          0.         -0.
  -0.39856869  0.13113418  0.         -0.          0.          0.         -0.25248127 -0.8694509  -0.          0.0131142  -0.0295692   0.          0.03598004
   0.0420745   0.        ]
 [-0.00475907 -0.0063856   0.04064818 -0.03945994 -0.00242282  0.          0.         -0.         -0.         -0.06547083  0.03519364 -0.11204471 -0.12637994
  -0.         -0.         -0.          0.          0.         -0.         -0.          0.          0.95309276 -0.          0.         -0.05655157 -0.
   0.         -0.22602329]
 [-0.02133887 -0.16312757 -0.57334028 -0.52919042  0.09663745  0.          0.         -0.          0.         -0.00564752 -0.53204669 -0.20178562  0.06969875
  -0.          0.         -0.         -0.         -0.          0.          0.          0.         -0.00051024  0.         -0.         -0.16131779  0.
   0.          0.01136041]
 [ 0.0761448  -0.28161803  0.49649229 -0.43679467 -0.00493513 -0.          0.          0.          0.         -0.01399291  0.19412484 -0.55812741  0.02510285
   0.         -0.          0.          0.          0.          0.         -0.         -0.         -0.18437167 -0.         -0.         -0.01168292 -0.
   0.         -0.3056611 ]
 [-0.00893757 -0.01920423 -0.12483091 -0.12870262 -0.45001765  0.         -0.         -0.         -0.          0.04000276 -0.05380283 -0.0172251   0.11613743
  -0.         -0.          0.          0.          0.         -0.         -0.         -0.          0.05437137  0.          0.          0.86047953  0.
  -0.         -0.05681084]
 [-0.         -0.          0.          0.          0.          0.05971807 -0.47540882 -0.15904907 -0.02933448  0.         -0.         -0.          0.
   0.04364323 -0.02342462 -0.          0.          0.          0.         -0.00384789 -0.0355305   0.         -0.45528325  0.67677671  0.          0.13929844
   0.23626006  0.        ]
 [ 0.         -0.         -0.         -0.          0.         -0.47540882 -0.05971807  0.02933448 -0.15904907  0.          0.         -0.          0.
   0.02342462  0.04364323 -0.          0.          0.         -0.         -0.0355305   0.00384789 -0.          0.67677671  0.45528325 -0.          0.23626006
  -0.13929844 -0.        ]
 [ 0.         -0.          0.         -0.          0.          0.12954869 -0.08223545  0.37093873 -0.31107367 -0.          0.         -0.         -0.
  -0.00249124  0.01241937  0.         -0.         -0.          0.          0.03287257 -0.03374149 -0.         -0.27686156  0.02732588 -0.          0.2771447
  -0.76518256 -0.        ]
 [ 0.         -0.          0.         -0.         -0.          0.08223545  0.12954869 -0.31107367 -0.37093873  0.          0.         -0.          0.
   0.01241937  0.00249124  0.          0.         -0.         -0.          0.03374149  0.03287257  0.         -0.02732588 -0.27686156  0.          0.76518256
   0.2771447  -0.        ]
 [-0.03752276  0.07031813 -0.02979854  0.00993294  0.03753897  0.         -0.          0.          0.          0.49571766 -0.12363603  0.33222786 -0.00133026
   0.         -0.          0.         -0.         -0.          0.          0.         -0.         -0.10799337 -0.          0.         -0.05052766 -0.
   0.         -0.77822684]
 [-0.02514332  0.07174808  0.40252381  0.40808932 -0.02593886 -0.         -0.         -0.          0.         -0.00292752 -0.76247937 -0.2649195   0.10835993
  -0.          0.          0.          0.          0.          0.         -0.          0.          0.0130013   0.         -0.          0.03878027 -0.
  -0.         -0.00209295]
 [-0.00207534 -0.12079364  0.45070743 -0.45512537 -0.00848126 -0.         -0.         -0.         -0.         -0.25708544 -0.24482858  0.65792469 -0.01034008
  -0.          0.         -0.          0.          0.         -0.         -0.          0.          0.05571843  0.          0.          0.00535058  0.
  -0.          0.1136549 ]]
grids:  [0.06237655 0.31939555 0.74529195 1.28265786 1.85893479 2.39630071 2.8221971  3.07921611] 
weights:  [0.15900941 0.34931531 0.49276925 0.56970235 0.56970235 0.49276925 0.34931531 0.15900941]
S = 0.0, Sz = 0.0
Wigner small d:  1
value : [1. 1. 1. 1. 1. 1. 1. 1.]
**** Start Cycle 1 ****
dm (ortho)
[[[ 0.70868194 -0.4309258   0.09215636 ... -0.03158788  0.02116647 -0.00174709]
  [-0.4309258   0.26203157 -0.0560372  ...  0.01920753 -0.01287062  0.00106235]
  [ 0.09215636 -0.0560372   0.01198393 ... -0.00410766  0.00275247 -0.00022719]
  ...
  [-0.03158788  0.01920753 -0.00410766 ...  0.00140796 -0.00094345  0.00007787]
  [ 0.02116647 -0.01287062  0.00275247 ... -0.00094345  0.00063219 -0.00005218]
  [-0.00174709  0.00106235 -0.00022719 ...  0.00007787 -0.00005218  0.00000431]]

 [[ 0.70868194  0.4309258   0.09215636 ...  0.03158788  0.02116647  0.00174709]
  [ 0.4309258   0.26203157  0.0560372  ...  0.01920753  0.01287062  0.00106235]
  [ 0.09215636  0.0560372   0.01198393 ...  0.00410766  0.00275247  0.00022719]
  ...
  [ 0.03158788  0.01920753  0.00410766 ...  0.00140796  0.00094345  0.00007787]
  [ 0.02116647  0.01287062  0.00275247 ...  0.00094345  0.00063219  0.00005218]
  [ 0.00174709  0.00106235  0.00022719 ...  0.00007787  0.00005218  0.00000431]]]
Fock (ortho)
 (array([[-0.25693977,  0.27051533, -0.19443677,  0.        ,  0.        , -0.        , -0.        , -0.08063259, -0.02493031, -0.        , -0.        ,
        -0.        , -0.        , -0.        , -0.        , -0.        , -0.        ,  0.01030748, -0.15364729,  0.02584094,  0.12644133, -0.        ,
         0.        ,  0.        ,  0.        ,  0.00367982, -0.07463075,  0.01075358],
       [ 0.27051533,  0.03641079,  0.06948927, -0.        , -0.        , -0.        , -0.        ,  0.30701675,  0.00725707, -0.        , -0.        ,
        -0.        , -0.        , -0.        , -0.        , -0.        , -0.        , -0.06124038, -0.09001799,  0.42047252, -0.00728429,  0.        ,
         0.        ,  0.        ,  0.        ,  0.03923159,  0.01022578, -0.16481085],
       [-0.19443677,  0.06948927,  1.32167098, -0.        , -0.        , -0.        ,  0.        ,  0.04083112, -0.02795632,  0.        , -0.        ,
        -0.        , -0.        , -0.        , -0.        , -0.        ,  0.        , -0.00392554,  0.2192464 ,  0.01474318, -1.28215146,  0.        ,
         0.        , -0.        ,  0.        ,  0.00051627, -0.07051665,  0.00015754],
       [ 0.        , -0.        , -0.        ,  1.53695371, -0.        ,  0.02553608,  0.05516863, -0.        , -0.        ,  0.00189676,  0.00500974,
         0.        ,  0.        ,  0.        , -0.        , -0.00169409,  0.00072677, -0.        ,  0.        , -0.        , -0.        ,  0.31040852,
         1.32264788, -0.00406789, -0.00535419, -0.        , -0.        , -0.        ],
       [ 0.        , -0.        , -0.        , -0.        ,  1.53695371, -0.05516863,  0.02553608,  0.        ,  0.        , -0.00500974,  0.00189676,
        -0.        , -0.        ,  0.        ,  0.        , -0.00072677, -0.00169409, -0.        , -0.        , -0.        , -0.        , -1.32264788,
         0.31040852, -0.00535419,  0.00406789, -0.        ,  0.        , -0.        ],
       [-0.        , -0.        , -0.        ,  0.02553608, -0.05516863,  1.63564911, -0.        ,  0.        ,  0.        ,  0.00105319,  0.00007551,
        -0.        , -0.        ,  0.        , -0.        , -0.00040078,  0.01418248, -0.        , -0.        ,  0.        ,  0.        ,  0.0084867 ,
         0.00174679,  0.6350358 , -1.19756366, -0.        ,  0.        , -0.        ],
       [-0.        , -0.        ,  0.        ,  0.05516863,  0.02553608, -0.        ,  1.63564911, -0.        , -0.        , -0.00007551,  0.00105319,
         0.        , -0.        ,  0.        ,  0.        , -0.01418248, -0.00040078,  0.        , -0.        ,  0.        ,  0.        , -0.00174679,
         0.0084867 , -1.19756366, -0.6350358 ,  0.        ,  0.        ,  0.        ],
       [-0.08063259,  0.30701675,  0.04083112, -0.        ,  0.        ,  0.        , -0.        ,  1.78915857, -0.00892258, -0.        ,  0.        ,
        -0.        ,  0.        , -0.        ,  0.        ,  0.        , -0.        ,  0.00426891,  0.03557395,  0.57588419, -0.01047344,  0.        ,
         0.        ,  0.        ,  0.        ,  1.24202633, -0.00041746, -0.03556751],
       [-0.02493031,  0.00725707, -0.02795632, -0.        ,  0.        ,  0.        , -0.        , -0.00892258,  3.37736546, -0.        ,  0.        ,
         0.        , -0.        , -0.        , -0.        ,  0.        , -0.        , -0.02379403,  0.11712979,  0.00205677, -0.06918068, -0.        ,
         0.        ,  0.        ,  0.        , -0.00203658,  0.07166167, -0.00029357],
       [-0.        , -0.        ,  0.        ,  0.00189676, -0.00500974,  0.00105319, -0.00007551, -0.        , -0.        ,  3.4342295 ,  0.        ,
        -0.        ,  0.        ,  0.        ,  0.        , -0.00108449, -0.02501872,  0.        ,  0.        ,  0.        ,  0.        , -0.03766059,
        -0.00497808,  0.00020409, -0.00032615,  0.        , -0.        , -0.        ],
       [-0.        , -0.        , -0.        ,  0.00500974,  0.00189676,  0.00007551,  0.00105319,  0.        ,  0.        ,  0.        ,  3.4342295 ,
        -0.        ,  0.        , -0.        , -0.        ,  0.02501872, -0.00108449,  0.        , -0.        ,  0.        ,  0.        ,  0.00497808,
        -0.03766059, -0.00032615, -0.00020409,  0.        ,  0.        , -0.        ],
       [-0.        , -0.        , -0.        ,  0.        , -0.        , -0.        ,  0.        , -0.        ,  0.        , -0.        , -0.        ,
         3.44915389, -0.        , -0.0252159 , -0.        , -0.        , -0.        ,  0.        , -0.        ,  0.        ,  0.        , -0.        ,
        -0.        ,  0.        ,  0.        , -0.        ,  0.        ,  0.        ],
       [-0.        , -0.        , -0.        ,  0.        , -0.        , -0.        , -0.        ,  0.        , -0.        ,  0.        ,  0.        ,
        -0.        ,  3.44915389, -0.        ,  0.0252159 ,  0.        , -0.        ,  0.        ,  0.        , -0.        ,  0.        , -0.        ,
        -0.        , -0.        , -0.        , -0.        , -0.        , -0.        ],
       [-0.        , -0.        , -0.        ,  0.        ,  0.        ,  0.        ,  0.        , -0.        , -0.        ,  0.        , -0.        ,
        -0.0252159 , -0.        ,  3.45139368, -0.        , -0.        ,  0.        , -0.        , -0.        ,  0.        ,  0.        ,  0.        ,
         0.        ,  0.        ,  0.        , -0.        ,  0.        ,  0.        ],
       [-0.        , -0.        , -0.        , -0.        ,  0.        , -0.        ,  0.        ,  0.        , -0.        ,  0.        , -0.        ,
        -0.        ,  0.0252159 , -0.        ,  3.45139368, -0.        ,  0.        ,  0.        ,  0.        , -0.        ,  0.        ,  0.        ,
         0.        ,  0.        ,  0.        , -0.        , -0.        , -0.        ],
       [-0.        , -0.        , -0.        , -0.00169409, -0.00072677, -0.00040078, -0.01418248,  0.        ,  0.        , -0.00108449,  0.02501872,
        -0.        ,  0.        , -0.        , -0.        ,  3.46691316,  0.        , -0.        , -0.        ,  0.        ,  0.        ,  0.00012143,
        -0.00068782, -0.03546968, -0.02011232,  0.        ,  0.        , -0.        ],
       [-0.        , -0.        ,  0.        ,  0.00072677, -0.00169409,  0.01418248, -0.00040078, -0.        , -0.        , -0.02501872, -0.00108449,
        -0.        , -0.        ,  0.        ,  0.        ,  0.        ,  3.46691316, -0.        ,  0.        ,  0.        ,  0.        ,  0.00068782,
         0.00012143, -0.02011232,  0.03546968,  0.        , -0.        , -0.        ],
       [ 0.01030748, -0.06124038, -0.00392554, -0.        , -0.        , -0.        ,  0.        ,  0.00426891, -0.02379403,  0.        ,  0.        ,
         0.        ,  0.        , -0.        ,  0.        , -0.        , -0.        ,  3.50795802, -0.00812463, -0.13389147,  0.00285622,  0.        ,
         0.        ,  0.        ,  0.        ,  0.252896  , -0.00076842, -0.09853832],
       [-0.15364729, -0.09001799,  0.2192464 ,  0.        , -0.        , -0.        , -0.        ,  0.03557395,  0.11712979,  0.        , -0.        ,
        -0.        ,  0.        , -0.        ,  0.        , -0.        ,  0.        , -0.00812463,  1.19381693, -0.04901664, -0.40030902,  0.        ,
         0.        ,  0.        ,  0.        ,  0.02000542,  0.95245084,  0.01117267],
       [ 0.02584094,  0.42047252,  0.01474318, -0.        , -0.        ,  0.        ,  0.        ,  0.57588419,  0.00205677,  0.        ,  0.        ,
         0.        , -0.        ,  0.        , -0.        ,  0.        ,  0.        , -0.13389147, -0.04901664,  1.60718583, -0.01641429, -0.        ,
        -0.        , -0.        , -0.        ,  0.5206078 , -0.01841487, -1.07832517],
       [ 0.12644133, -0.00728429, -1.28215146, -0.        , -0.        ,  0.        ,  0.        , -0.01047344, -0.06918068,  0.        ,  0.        ,
         0.        ,  0.        ,  0.        ,  0.        ,  0.        ,  0.        ,  0.00285622, -0.40030902, -0.01641429,  3.07333836, -0.        ,
        -0.        ,  0.        , -0.        , -0.01427355,  0.25070716,  0.00323092],
       [-0.        ,  0.        ,  0.        ,  0.31040852, -1.32264788,  0.0084867 , -0.00174679,  0.        , -0.        , -0.03766059,  0.00497808,
        -0.        , -0.        ,  0.        ,  0.        ,  0.00012143,  0.00068782,  0.        ,  0.        , -0.        , -0.        ,  3.04276407,
         0.        ,  0.01374044, -0.01662919,  0.        , -0.        ,  0.        ],
       [ 0.        ,  0.        ,  0.        ,  1.32264788,  0.31040852,  0.00174679,  0.0084867 ,  0.        ,  0.        , -0.00497808, -0.03766059,
        -0.        , -0.        ,  0.        ,  0.        , -0.00068782,  0.00012143,  0.        ,  0.        , -0.        , -0.        ,  0.        ,
         3.04276407, -0.01662919, -0.01374044, -0.        , -0.        , -0.        ],
       [ 0.        ,  0.        , -0.        , -0.00406789, -0.00535419,  0.6350358 , -1.19756366,  0.        ,  0.        ,  0.00020409, -0.00032615,
         0.        , -0.        ,  0.        ,  0.        , -0.03546968, -0.02011232,  0.        ,  0.        , -0.        ,  0.        ,  0.01374044,
        -0.01662919,  3.11957503, -0.        , -0.        , -0.        , -0.        ],
       [ 0.        ,  0.        ,  0.        , -0.00535419,  0.00406789, -1.19756366, -0.6350358 ,  0.        ,  0.        , -0.00032615, -0.00020409,
         0.        , -0.        ,  0.        ,  0.        , -0.02011232,  0.03546968,  0.        ,  0.        , -0.        , -0.        , -0.01662919,
        -0.01374044,  0.        ,  3.11957503,  0.        , -0.        , -0.        ],
       [ 0.00367982,  0.03923159,  0.00051627, -0.        , -0.        , -0.        ,  0.        ,  1.24202633, -0.00203658,  0.        ,  0.        ,
        -0.        , -0.        , -0.        , -0.        ,  0.        ,  0.        ,  0.252896  ,  0.02000542,  0.5206078 , -0.01427355,  0.        ,
        -0.        , -0.        ,  0.        ,  3.2064153 ,  0.01013758,  0.10406285],
       [-0.07463075,  0.01022578, -0.07051665, -0.        ,  0.        ,  0.        ,  0.        , -0.00041746,  0.07166167, -0.        ,  0.        ,
         0.        , -0.        ,  0.        , -0.        ,  0.        , -0.        , -0.00076842,  0.95245084, -0.01841487,  0.25070716, -0.        ,
        -0.        , -0.        , -0.        ,  0.01013758,  1.79215172,  0.0163951 ],
       [ 0.01075358, -0.16481085,  0.00015754, -0.        , -0.        , -0.        ,  0.        , -0.03556751, -0.00029357, -0.        , -0.        ,
         0.        , -0.        ,  0.        , -0.        , -0.        , -0.        , -0.09853832,  0.01117267, -1.07832517,  0.00323092,  0.        ,
        -0.        , -0.        , -0.        ,  0.10406285,  0.0163951 ,  1.57422527]]), array([[-0.25693977, -0.27051533, -0.19443677, -0.        , -0.        , -0.        ,  0.        ,  0.08063259, -0.02493031, -0.        ,  0.        ,
         0.        ,  0.        ,  0.        ,  0.        ,  0.        ,  0.        , -0.01030748, -0.15364729, -0.02584094,  0.12644133, -0.        ,
         0.        , -0.        , -0.        , -0.00367982, -0.07463075, -0.01075358],
       [-0.27051533,  0.03641079, -0.06948927, -0.        , -0.        , -0.        ,  0.        ,  0.30701675, -0.00725707, -0.        ,  0.        ,
        -0.        ,  0.        , -0.        ,  0.        ,  0.        , -0.        , -0.06124038,  0.09001799,  0.42047252,  0.00728429,  0.        ,
         0.        ,  0.        ,  0.        ,  0.03923159, -0.01022578, -0.16481085],
       [-0.19443677, -0.06948927,  1.32167098, -0.        , -0.        , -0.        ,  0.        , -0.04083112, -0.02795632,  0.        , -0.        ,
         0.        ,  0.        , -0.        ,  0.        ,  0.        ,  0.        ,  0.00392554,  0.2192464 , -0.01474318, -1.28215146,  0.        ,
         0.        , -0.        ,  0.        , -0.00051627, -0.07051665, -0.00015754],
       [-0.        , -0.        , -0.        ,  1.53695371, -0.        , -0.02553608, -0.05516863, -0.        , -0.        ,  0.00189676,  0.00500974,
         0.        ,  0.        , -0.        , -0.        ,  0.00169409, -0.00072677, -0.        ,  0.        , -0.        , -0.        ,  0.31040852,
         1.32264788,  0.00406789,  0.00535419, -0.        , -0.        , -0.        ],
       [-0.        , -0.        , -0.        , -0.        ,  1.53695371,  0.05516863, -0.02553608,  0.        ,  0.        , -0.00500974,  0.00189676,
        -0.        , -0.        ,  0.        ,  0.        ,  0.00072677,  0.00169409, -0.        , -0.        , -0.        , -0.        , -1.32264788,
         0.31040852,  0.00535419, -0.00406789, -0.        ,  0.        , -0.        ],
       [-0.        , -0.        , -0.        , -0.02553608,  0.05516863,  1.63564911, -0.        ,  0.        ,  0.        , -0.00105319, -0.00007551,
        -0.        , -0.        ,  0.        ,  0.        , -0.00040078,  0.01418248, -0.        , -0.        ,  0.        ,  0.        , -0.0084867 ,
        -0.00174679,  0.6350358 , -1.19756366, -0.        ,  0.        , -0.        ],
       [ 0.        ,  0.        ,  0.        , -0.05516863, -0.02553608, -0.        ,  1.63564911, -0.        , -0.        ,  0.00007551, -0.00105319,
         0.        , -0.        ,  0.        ,  0.        , -0.01418248, -0.00040078,  0.        , -0.        ,  0.        ,  0.        ,  0.00174679,
        -0.0084867 , -1.19756366, -0.6350358 ,  0.        ,  0.        ,  0.        ],
       [ 0.08063259,  0.30701675, -0.04083112, -0.        ,  0.        ,  0.        , -0.        ,  1.78915857,  0.00892258, -0.        ,  0.        ,
        -0.        , -0.        , -0.        , -0.        ,  0.        , -0.        ,  0.00426891, -0.03557395,  0.57588419,  0.01047344,  0.        ,
         0.        ,  0.        ,  0.        ,  1.24202633,  0.00041746, -0.03556751],
       [-0.02493031, -0.00725707, -0.02795632, -0.        ,  0.        ,  0.        , -0.        ,  0.00892258,  3.37736546, -0.        ,  0.        ,
         0.        ,  0.        , -0.        ,  0.        ,  0.        , -0.        ,  0.02379403,  0.11712979, -0.00205677, -0.06918068, -0.        ,
         0.        ,  0.        ,  0.        ,  0.00203658,  0.07166167,  0.00029357],
       [-0.        , -0.        ,  0.        ,  0.00189676, -0.00500974, -0.00105319,  0.00007551, -0.        , -0.        ,  3.4342295 , -0.        ,
         0.        , -0.        , -0.        ,  0.        ,  0.00108449,  0.02501872,  0.        ,  0.        ,  0.        ,  0.        , -0.03766059,
        -0.00497808, -0.00020409,  0.00032615,  0.        , -0.        , -0.        ],
       [ 0.        ,  0.        , -0.        ,  0.00500974,  0.00189676, -0.00007551, -0.00105319,  0.        ,  0.        , -0.        ,  3.4342295 ,
         0.        , -0.        ,  0.        ,  0.        , -0.02501872,  0.00108449,  0.        , -0.        ,  0.        ,  0.        ,  0.00497808,
        -0.03766059,  0.00032615,  0.00020409,  0.        ,  0.        , -0.        ],
       [ 0.        , -0.        ,  0.        ,  0.        , -0.        , -0.        ,  0.        , -0.        ,  0.        ,  0.        ,  0.        ,
         3.44915389,  0.        ,  0.0252159 ,  0.        ,  0.        ,  0.        ,  0.        , -0.        ,  0.        ,  0.        , -0.        ,
        -0.        ,  0.        ,  0.        , -0.        ,  0.        ,  0.        ],
       [ 0.        ,  0.        ,  0.        ,  0.        , -0.        , -0.        , -0.        , -0.        ,  0.        , -0.        , -0.        ,
         0.        ,  3.44915389,  0.        , -0.0252159 , -0.        ,  0.        ,  0.        , -0.        ,  0.        , -0.        , -0.        ,
        -0.        , -0.        , -0.        ,  0.        ,  0.        ,  0.        ],
       [ 0.        , -0.        , -0.        , -0.        ,  0.        ,  0.        ,  0.        , -0.        , -0.        , -0.        ,  0.        ,
         0.0252159 ,  0.        ,  3.45139368,  0.        ,  0.        , -0.        , -0.        , -0.        ,  0.        ,  0.        ,  0.        ,
         0.        ,  0.        ,  0.        , -0.        ,  0.        ,  0.        ],
       [ 0.        ,  0.        ,  0.        , -0.        ,  0.        ,  0.        ,  0.        , -0.        ,  0.        ,  0.        ,  0.        ,
         0.        , -0.0252159 ,  0.        ,  3.45139368,  0.        , -0.        ,  0.        , -0.        ,  0.        , -0.        ,  0.        ,
         0.        ,  0.        ,  0.        ,  0.        ,  0.        ,  0.        ],
       [ 0.        ,  0.        ,  0.        ,  0.00169409,  0.00072677, -0.00040078, -0.01418248,  0.        ,  0.        ,  0.00108449, -0.02501872,
         0.        , -0.        ,  0.        ,  0.        ,  3.46691316, -0.        ,  0.        , -0.        ,  0.        ,  0.        , -0.00012143,
         0.00068782, -0.03546968, -0.02011232,  0.        ,  0.        , -0.        ],
       [ 0.        , -0.        ,  0.        , -0.00072677,  0.00169409,  0.01418248, -0.00040078, -0.        , -0.        ,  0.02501872,  0.00108449,
         0.        ,  0.        , -0.        , -0.        , -0.        ,  3.46691316, -0.        , -0.        ,  0.        ,  0.        , -0.00068782,
        -0.00012143, -0.02011232,  0.03546968,  0.        , -0.        , -0.        ],
       [-0.01030748, -0.06124038,  0.00392554, -0.        , -0.        , -0.        ,  0.        ,  0.00426891,  0.02379403,  0.        ,  0.        ,
         0.        ,  0.        , -0.        ,  0.        ,  0.        , -0.        ,  3.50795802,  0.00812463, -0.13389147, -0.00285622,  0.        ,
         0.        ,  0.        ,  0.        ,  0.252896  ,  0.00076842, -0.09853832],
       [-0.15364729,  0.09001799,  0.2192464 ,  0.        , -0.        , -0.        , -0.        , -0.03557395,  0.11712979,  0.        , -0.        ,
        -0.        , -0.        , -0.        , -0.        , -0.        , -0.        ,  0.00812463,  1.19381693,  0.04901664, -0.40030902,  0.        ,
         0.        ,  0.        ,  0.        , -0.02000542,  0.95245084, -0.01117267],
       [-0.02584094,  0.42047252, -0.01474318, -0.        , -0.        ,  0.        ,  0.        ,  0.57588419, -0.00205677,  0.        ,  0.        ,
         0.        ,  0.        ,  0.        ,  0.        ,  0.        ,  0.        , -0.13389147,  0.04901664,  1.60718583,  0.01641429, -0.        ,
        -0.        , -0.        , -0.        ,  0.5206078 ,  0.01841487, -1.07832517],
       [ 0.12644133,  0.00728429, -1.28215146, -0.        , -0.        ,  0.        ,  0.        ,  0.01047344, -0.06918068,  0.        ,  0.        ,
         0.        , -0.        ,  0.        , -0.        ,  0.        ,  0.        , -0.00285622, -0.40030902,  0.01641429,  3.07333836, -0.        ,
        -0.        ,  0.        , -0.        ,  0.01427355,  0.25070716, -0.00323092],
       [-0.        ,  0.        ,  0.        ,  0.31040852, -1.32264788, -0.0084867 ,  0.00174679,  0.        , -0.        , -0.03766059,  0.00497808,
        -0.        , -0.        ,  0.        ,  0.        , -0.00012143, -0.00068782,  0.        ,  0.        , -0.        , -0.        ,  3.04276407,
         0.        , -0.01374044,  0.01662919,  0.        , -0.        ,  0.        ],
       [ 0.        ,  0.        ,  0.        ,  1.32264788,  0.31040852, -0.00174679, -0.0084867 ,  0.        ,  0.        , -0.00497808, -0.03766059,
        -0.        , -0.        ,  0.        ,  0.        ,  0.00068782, -0.00012143,  0.        ,  0.        , -0.        , -0.        ,  0.        ,
         3.04276407,  0.01662919,  0.01374044, -0.        , -0.        , -0.        ],
       [-0.        ,  0.        , -0.        ,  0.00406789,  0.00535419,  0.6350358 , -1.19756366,  0.        ,  0.        , -0.00020409,  0.00032615,
         0.        , -0.        ,  0.        ,  0.        , -0.03546968, -0.02011232,  0.        ,  0.        , -0.        ,  0.        , -0.01374044,
         0.01662919,  3.11957503, -0.        , -0.        , -0.        , -0.        ],
       [-0.        ,  0.        ,  0.        ,  0.00535419, -0.00406789, -1.19756366, -0.6350358 ,  0.        ,  0.        ,  0.00032615,  0.00020409,
         0.        , -0.        ,  0.        ,  0.        , -0.02011232,  0.03546968,  0.        ,  0.        , -0.        , -0.        ,  0.01662919,
         0.01374044,  0.        ,  3.11957503,  0.        , -0.        , -0.        ],
       [-0.00367982,  0.03923159, -0.00051627, -0.        , -0.        , -0.        ,  0.        ,  1.24202633,  0.00203658,  0.        ,  0.        ,
        -0.        ,  0.        , -0.        ,  0.        ,  0.        ,  0.        ,  0.252896  , -0.02000542,  0.5206078 ,  0.01427355,  0.        ,
        -0.        , -0.        ,  0.        ,  3.2064153 , -0.01013758,  0.10406285],
       [-0.07463075, -0.01022578, -0.07051665, -0.        ,  0.        ,  0.        ,  0.        ,  0.00041746,  0.07166167, -0.        ,  0.        ,
         0.        ,  0.        ,  0.        ,  0.        ,  0.        , -0.        ,  0.00076842,  0.95245084,  0.01841487,  0.25070716, -0.        ,
        -0.        , -0.        , -0.        , -0.01013758,  1.79215172, -0.0163951 ],
       [-0.01075358, -0.16481085, -0.00015754, -0.        , -0.        , -0.        ,  0.        , -0.03556751,  0.00029357, -0.        , -0.        ,
         0.        ,  0.        ,  0.        ,  0.        , -0.        , -0.        , -0.09853832, -0.01117267, -1.07832517, -0.00323092,  0.        ,
        -0.        , -0.        , -0.        ,  0.10406285, -0.0163951 ,  1.57422527]]))
E(UHF) =    -1.233981
NO eigenvalue
[-1. -0. -0. -0. -0. -0. -0. -0. -0. -0. -0. -0. -0. -0. -0. -0.  0.  0.  0.  0.  0.  0.  0.  0.  0.  0.  0.  0.] [-1. -0. -0. -0. -0. -0. -0. -0. -0. -0. -0. -0. -0. -0. -0. -0.  0.  0.  0.  0.  0.  0.  0.  0.  0.  0.  0.  0.]
NO vec
[[ 0.84183249  0.         -0.06762941 ...  0.          0.          0.        ]
 [-0.51189019  0.         -0.1473892  ...  0.          0.          0.        ]
 [ 0.10947114  0.          0.01997221 ...  0.          0.          0.        ]
 ...
 [ 0.          0.03752276  0.         ...  0.1209932   0.39875755  0.40115007]
 [ 0.          0.02514332  0.         ... -0.24052742  0.34607221  0.16998367]
 [ 0.          0.00207534  0.         ...  0.05310742  0.04028969  0.02239184]]
dm(NO)
[[ 1.  0.  0. ...  0.  0.  0.]
 [ 0.  1.  0. ... -0. -0.  0.]
 [ 0.  0.  0. ...  0.  0.  0.]
 ...
 [ 0.  0.  0. ...  0. -0. -0.]
 [ 0. -0.  0. ... -0. -0. -0.]
 [ 0.  0.  0. ... -0.  0. -0.]]
D(g) (NO)
[[ 0.99951369  0.01383721  0.         ... -0.0033148  -0.00407059 -0.0191274 ]
 [-0.01383721  0.99951369  0.00298334 ... -0.         -0.          0.        ]
 [-0.         -0.00298334  0.99951369 ... -0.00916494  0.01668526  0.00743463]
 ...
 [ 0.0033148  -0.          0.00916494 ...  0.99951369 -0.         -0.        ]
 [ 0.00407059 -0.         -0.01668526 ... -0.          0.99951369 -0.        ]
 [ 0.0191274   0.         -0.00743463 ... -0.         -0.          0.99951369]]
...
N(g) (NO)
[[ 1.00029484 -0.01384803]
 [ 0.01384803  1.00029484]]
...
P(g) (NO)
[[ 1.          0.          0.         ... -0.         -0.          0.        ]
 [-0.          1.         -0.         ... -0.         -0.          0.        ]
 [-0.00004131 -0.00298422 -0.         ...  0.          0.         -0.        ]
 ...
 [ 0.00331578 -0.0000459   0.         ...  0.          0.         -0.        ]
 [ 0.00407179 -0.00005637  0.         ...  0.          0.         -0.        ]
 [ 0.01913304 -0.00026488  0.         ...  0.          0.         -0.        ]]
...
Pg_ortho
[[ 0.70885218 -0.43102931  0.0921785  ...  0.00054809  0.00036726  0.00003031]
 [-0.43065714  0.26186821 -0.05600227 ...  0.00086499  0.00057961  0.00004784]
 [ 0.0921785  -0.05605066  0.01198681 ...  0.00007127  0.00004776  0.00000394]
 ...
 [ 0.00142252 -0.00086499  0.00018498 ...  0.00140708  0.00094286  0.00007782]
 [-0.00036726  0.00022332 -0.00004776 ...  0.00094367  0.00063234  0.00005219]
 [ 0.00007868 -0.00004784  0.00001023 ...  0.00007782  0.00005215  0.0000043 ]]
G(g) (NO)
[[ 0.27159127 -0.00201797 -0.01754431 ... -0.00045596  0.00018638 -0.00047299]
 [ 0.00201797  0.27159127  0.00048446 ...  0.02377384  0.00106454 -0.05417531]
 [-0.01752662  0.00580853  0.89858877 ...  0.00279026 -0.00163299 -0.0006735 ]
 ...
 [ 0.00028896  0.02378391  0.0010059  ...  0.88979119  0.00885357 -0.07115603]
 [-0.00128103  0.00106736  0.00037124 ...  0.00885299  0.89225282 -0.07155205]
 [-0.01109543 -0.05410964 -0.00126167 ... -0.07115352 -0.07155008  0.83155987]]
...
C(NO)
[[-1.          0.          0.         ...  0.          0.          0.        ]
 [ 0.         -1.          0.         ... -0.         -0.         -0.        ]
 [-0.          0.         -0.10452786 ...  0.          0.          0.        ]
 ...
 [ 0.          0.          0.         ... -0.         -0.          0.00294275]
 [ 0.          0.          0.         ... -0.         -0.         -0.64454244]
 [ 0.         -0.          0.         ... -0.          0.          0.02230675]]
detC 0.9999999999999993
detNg [1.00078153 1.0207291  1.11913702 1.40339219 2.0646433  3.29642741 4.60378707 5.05854568]
xg [0.99921908 0.97969187 0.89354563 0.71255919 0.48434516 0.30335872 0.21721248 0.19768528]
ciS 1.1969043517512763
[[-0.75277218  0.          0.00479822 ...  0.          0.          0.        ]
 [ 0.         -0.75277218  0.         ... -0.02247961  0.00118195  0.03014451]
 [ 0.00479822  0.          0.7939758  ...  0.          0.          0.        ]
 ...
 [ 0.         -0.02247961  0.         ...  1.44098444 -0.00031506 -0.238349  ]
 [ 0.          0.00118195  0.         ... -0.00031506  1.76057355  0.10470115]
 [ 0.          0.03014451  0.         ... -0.238349    0.10470115  0.08433754]]
ciH -1.4781477758156634
S2 = 0.000000
X(g)
[[ 2.          0.         -0.00004131 ... -0.00331578 -0.00407179 -0.01913304]
 [-0.          2.          0.00298422 ... -0.0000459  -0.00005637 -0.00026488]
 [-0.00004131 -0.00298422  0.         ...  0.          0.          0.        ]
 ...
 [ 0.00331578 -0.0000459   0.         ...  0.          0.          0.        ]
 [ 0.00407179 -0.00005637  0.         ...  0.          0.          0.        ]
 [ 0.01913304 -0.00026488  0.         ...  0.          0.          0.        ]]
X(g) int
[[ 2.          0.         -0.03546906 ... -0.06975371 -0.08565769 -0.40249959]
 [-0.          2.          0.06277864 ... -0.03940988 -0.0483954  -0.22740668]
 [-0.03546906 -0.06277864  0.         ...  0.          0.          0.        ]
 ...
 [ 0.06975371 -0.03940988  0.         ...  0.          0.          0.        ]
 [ 0.08565769 -0.0483954   0.         ...  0.          0.          0.        ]
 [ 0.40249959 -0.22740668  0.         ...  0.          0.          0.        ]]
Hsp + Hph =  -1.2349756884523644
Feff (mod,ortho)
[[-0.23563462  0.28138413 -0.19092068 ...  0.          0.          0.        ]
 [ 0.28138413  0.01531541  0.07044927 ...  0.          0.          0.        ]
 [-0.19092068  0.07044927  1.32222517 ...  0.          0.          0.        ]
 ...
 [ 0.          0.          0.         ...  3.20651288 -0.0100284   0.10399753]
 [ 0.          0.          0.         ... -0.0100284   1.79225423 -0.01643644]
 [ 0.          0.          0.         ...  0.10399753 -0.01643644  1.57421775]]
E(SUHF) =     -0.99444059
e_a, e_b
[-0.48714447  0.05246189  0.37076255  0.49058196  0.65382745  0.71916383  0.71916383  0.84884125  0.84884125  1.08832667  2.4578647   2.61390542  3.38446663
  3.41920969  3.41920969  3.42503303  3.42503303  3.47551454  3.47551454  3.47852358  3.47852358  3.50580002  3.8302894   3.8302894   3.85292821  3.94005684
  3.94005684  4.23897644] [-0.48714447  0.05246189  0.37076255  0.49058196  0.65382745  0.71916383  0.71916383  0.84884125  0.84884125  1.08832667  2.4578647   2.61390542  3.38446663
  3.41920969  3.41920969  3.42503303  3.42503303  3.47551454  3.47551454  3.47852358  3.47852358  3.50580002  3.8302894   3.8302894   3.85292821  3.94005684
  3.94005684  4.23897644]
P_a, P_b
[[ 0.61970161 -0.46315197  0.08610923 -0.         -0.         -0.          0.          0.08772914  0.00472154 -0.          0.         -0.          0.
  -0.          0.          0.         -0.         -0.00480216  0.02145058  0.06380492  0.01005824  0.          0.          0.          0.         -0.03359773
   0.01484939 -0.00485252]
 [-0.46315197  0.34615006 -0.06435623  0.          0.          0.         -0.         -0.06556692 -0.00352878  0.         -0.          0.         -0.
   0.         -0.         -0.          0.          0.00358903 -0.01603171 -0.04768646 -0.00751732 -0.         -0.         -0.         -0.          0.02511024
  -0.01109812  0.00362667]
 [ 0.08610923 -0.06435623  0.01196511 -0.         -0.         -0.          0.          0.0121902   0.00065607 -0.          0.         -0.          0.
  -0.          0.          0.         -0.         -0.00066727  0.00298062  0.00886587  0.00139762  0.          0.          0.          0.         -0.0046685
   0.00206336 -0.00067427]
 [-0.          0.         -0.          0.          0.          0.         -0.         -0.         -0.          0.         -0.          0.         -0.
   0.         -0.         -0.          0.          0.         -0.         -0.         -0.         -0.         -0.         -0.         -0.          0.
  -0.          0.        ]
 [-0.          0.         -0.          0.          0.          0.         -0.         -0.         -0.          0.         -0.          0.         -0.
   0.         -0.         -0.          0.          0.         -0.         -0.         -0.         -0.         -0.         -0.         -0.          0.
  -0.          0.        ]
 [-0.          0.         -0.          0.          0.          0.         -0.         -0.         -0.          0.         -0.          0.         -0.
   0.         -0.         -0.          0.          0.         -0.         -0.         -0.         -0.         -0.         -0.         -0.          0.
  -0.          0.        ]
 [ 0.         -0.          0.         -0.         -0.         -0.          0.          0.          0.         -0.          0.         -0.          0.
  -0.          0.          0.         -0.         -0.          0.          0.          0.          0.          0.          0.          0.         -0.
   0.         -0.        ]
 [ 0.08772914 -0.06556692  0.0121902  -0.         -0.         -0.          0.          0.01241953  0.00066841 -0.          0.         -0.          0.
  -0.          0.          0.         -0.         -0.00067983  0.00303669  0.00903266  0.00142391  0.          0.          0.          0.         -0.00475632
   0.00210218 -0.00068696]
 [ 0.00472154 -0.00352878  0.00065607 -0.         -0.         -0.          0.          0.00066841  0.00003597 -0.          0.         -0.          0.
  -0.          0.          0.         -0.         -0.00003659  0.00016343  0.00048613  0.00007663  0.          0.          0.          0.         -0.00025598
   0.00011314 -0.00003697]
 [-0.          0.         -0.          0.          0.          0.         -0.         -0.         -0.          0.         -0.          0.         -0.
   0.         -0.         -0.          0.          0.         -0.         -0.         -0.         -0.         -0.         -0.         -0.          0.
  -0.          0.        ]
 [ 0.         -0.          0.         -0.         -0.         -0.          0.          0.          0.         -0.          0.         -0.          0.
  -0.          0.          0.         -0.         -0.          0.          0.          0.          0.          0.          0.          0.         -0.
   0.         -0.        ]
 [-0.          0.         -0.          0.          0.          0.         -0.         -0.         -0.          0.         -0.          0.         -0.
   0.         -0.         -0.          0.          0.         -0.         -0.         -0.         -0.         -0.         -0.         -0.          0.
  -0.          0.        ]
 [ 0.         -0.          0.         -0.         -0.         -0.          0.          0.          0.         -0.          0.         -0.          0.
  -0.          0.          0.         -0.         -0.          0.          0.          0.          0.          0.          0.          0.         -0.
   0.         -0.        ]
 [-0.          0.         -0.          0.          0.          0.         -0.         -0.         -0.          0.         -0.          0.         -0.
   0.         -0.         -0.          0.          0.         -0.         -0.         -0.         -0.         -0.         -0.         -0.          0.
  -0.          0.        ]
 [ 0.         -0.          0.         -0.         -0.         -0.          0.          0.          0.         -0.          0.         -0.          0.
  -0.          0.          0.         -0.         -0.          0.          0.          0.          0.          0.          0.          0.         -0.
   0.         -0.        ]
 [ 0.         -0.          0.         -0.         -0.         -0.          0.          0.          0.         -0.          0.         -0.          0.
  -0.          0.          0.         -0.         -0.          0.          0.          0.          0.          0.          0.          0.         -0.
   0.         -0.        ]
 [-0.          0.         -0.          0.          0.          0.         -0.         -0.         -0.          0.         -0.          0.         -0.
   0.         -0.         -0.          0.          0.         -0.         -0.         -0.         -0.         -0.         -0.         -0.          0.
  -0.          0.        ]
 [-0.00480216  0.00358903 -0.00066727  0.          0.          0.         -0.         -0.00067983 -0.00003659  0.         -0.          0.         -0.
   0.         -0.         -0.          0.          0.00003721 -0.00016622 -0.00049443 -0.00007794 -0.         -0.         -0.         -0.          0.00026035
  -0.00011507  0.0000376 ]
 [ 0.02145058 -0.01603171  0.00298062 -0.         -0.         -0.          0.          0.00303669  0.00016343 -0.          0.         -0.          0.
  -0.          0.          0.         -0.         -0.00016622  0.0007425   0.00220857  0.00034816  0.          0.          0.          0.         -0.00116296
   0.000514   -0.00016797]
 [ 0.06380492 -0.04768646  0.00886587 -0.         -0.         -0.          0.          0.00903266  0.00048613 -0.          0.         -0.          0.
  -0.          0.          0.         -0.         -0.00049443  0.00220857  0.0065694   0.0010356   0.          0.          0.          0.         -0.00345925
   0.0015289  -0.00049962]
 [ 0.01005824 -0.00751732  0.00139762 -0.         -0.         -0.          0.          0.00142391  0.00007663 -0.          0.         -0.          0.
  -0.          0.          0.         -0.         -0.00007794  0.00034816  0.0010356   0.00016325  0.          0.          0.          0.         -0.00054532
   0.00024102 -0.00007876]
 [ 0.         -0.          0.         -0.         -0.         -0.          0.          0.          0.         -0.          0.         -0.          0.
  -0.          0.          0.         -0.         -0.          0.          0.          0.          0.          0.          0.          0.         -0.
   0.         -0.        ]
 [ 0.         -0.          0.         -0.         -0.         -0.          0.          0.          0.         -0.          0.         -0.          0.
  -0.          0.          0.         -0.         -0.          0.          0.          0.          0.          0.          0.          0.         -0.
   0.         -0.        ]
 [ 0.         -0.          0.         -0.         -0.         -0.          0.          0.          0.         -0.          0.         -0.          0.
  -0.          0.          0.         -0.         -0.          0.          0.          0.          0.          0.          0.          0.         -0.
   0.         -0.        ]
 [ 0.         -0.          0.         -0.         -0.         -0.          0.          0.          0.         -0.          0.         -0.          0.
  -0.          0.          0.         -0.         -0.          0.          0.          0.          0.          0.          0.          0.         -0.
   0.         -0.        ]
 [-0.03359773  0.02511024 -0.0046685   0.          0.          0.         -0.         -0.00475632 -0.00025598  0.         -0.          0.         -0.
   0.         -0.         -0.          0.          0.00026035 -0.00116296 -0.00345925 -0.00054532 -0.         -0.         -0.         -0.          0.00182153
  -0.00080507  0.00026308]
 [ 0.01484939 -0.01109812  0.00206336 -0.         -0.         -0.          0.          0.00210218  0.00011314 -0.          0.         -0.          0.
  -0.          0.          0.         -0.         -0.00011507  0.000514    0.0015289   0.00024102  0.          0.          0.          0.         -0.00080507
   0.00035582 -0.00011628]
 [-0.00485252  0.00362667 -0.00067427  0.          0.          0.         -0.         -0.00068696 -0.00003697  0.         -0.          0.         -0.
   0.         -0.         -0.          0.          0.0000376  -0.00016797 -0.00049962 -0.00007876 -0.         -0.         -0.         -0.          0.00026308
  -0.00011628  0.000038  ]] 
 [[ 0.61970161  0.46315197  0.08610923  0.          0.          0.         -0.         -0.08772914  0.00472154  0.         -0.          0.         -0.
   0.         -0.         -0.          0.          0.00480216  0.02145058 -0.06380492  0.01005824 -0.         -0.          0.         -0.          0.03359773
   0.01484939  0.00485252]
 [ 0.46315197  0.34615006  0.06435623  0.          0.          0.         -0.         -0.06556692  0.00352878  0.         -0.          0.         -0.
   0.         -0.         -0.          0.          0.00358903  0.01603171 -0.04768646  0.00751732 -0.         -0.          0.         -0.          0.02511024
   0.01109812  0.00362667]
 [ 0.08610923  0.06435623  0.01196511  0.          0.          0.         -0.         -0.0121902   0.00065607  0.         -0.          0.         -0.
   0.         -0.         -0.          0.          0.00066727  0.00298062 -0.00886587  0.00139762 -0.         -0.          0.         -0.          0.0046685
   0.00206336  0.00067427]
 [ 0.          0.          0.          0.          0.          0.         -0.         -0.          0.          0.         -0.          0.         -0.
   0.         -0.         -0.          0.          0.          0.         -0.          0.         -0.         -0.          0.         -0.          0.
   0.          0.        ]
 [ 0.          0.          0.          0.          0.          0.         -0.         -0.          0.          0.         -0.          0.         -0.
   0.         -0.         -0.          0.          0.          0.         -0.          0.         -0.         -0.          0.         -0.          0.
   0.          0.        ]
 [ 0.          0.          0.          0.          0.          0.         -0.         -0.          0.          0.         -0.          0.         -0.
   0.         -0.         -0.          0.          0.          0.         -0.          0.         -0.         -0.          0.         -0.          0.
   0.          0.        ]
 [-0.         -0.         -0.         -0.         -0.         -0.          0.          0.         -0.         -0.          0.         -0.          0.
  -0.          0.          0.         -0.         -0.         -0.          0.         -0.          0.          0.         -0.          0.         -0.
  -0.         -0.        ]
 [-0.08772914 -0.06556692 -0.0121902  -0.         -0.         -0.          0.          0.01241953 -0.00066841 -0.          0.         -0.          0.
  -0.          0.          0.         -0.         -0.00067983 -0.00303669  0.00903266 -0.00142391  0.          0.         -0.          0.         -0.00475632
  -0.00210218 -0.00068696]
 [ 0.00472154  0.00352878  0.00065607  0.          0.          0.         -0.         -0.00066841  0.00003597  0.         -0.          0.         -0.
   0.         -0.         -0.          0.          0.00003659  0.00016343 -0.00048613  0.00007663 -0.         -0.          0.         -0.          0.00025598
   0.00011314  0.00003697]
 [ 0.          0.          0.          0.          0.          0.         -0.         -0.          0.          0.         -0.          0.         -0.
   0.         -0.         -0.          0.          0.          0.         -0.          0.         -0.         -0.          0.         -0.          0.
   0.          0.        ]
 [-0.         -0.         -0.         -0.         -0.         -0.          0.          0.         -0.         -0.          0.         -0.          0.
  -0.          0.          0.         -0.         -0.         -0.          0.         -0.          0.          0.         -0.          0.         -0.
  -0.         -0.        ]
 [ 0.          0.          0.          0.          0.          0.         -0.         -0.          0.          0.         -0.          0.         -0.
   0.         -0.         -0.          0.          0.          0.         -0.          0.         -0.         -0.          0.         -0.          0.
   0.          0.        ]
 [-0.         -0.         -0.         -0.         -0.         -0.          0.          0.         -0.         -0.          0.         -0.          0.
  -0.          0.          0.         -0.         -0.         -0.          0.         -0.          0.          0.         -0.          0.         -0.
  -0.         -0.        ]
 [ 0.          0.          0.          0.          0.          0.         -0.         -0.          0.          0.         -0.          0.         -0.
   0.         -0.         -0.          0.          0.          0.         -0.          0.         -0.         -0.          0.         -0.          0.
   0.          0.        ]
 [-0.         -0.         -0.         -0.         -0.         -0.          0.          0.         -0.         -0.          0.         -0.          0.
  -0.          0.          0.         -0.         -0.         -0.          0.         -0.          0.          0.         -0.          0.         -0.
  -0.         -0.        ]
 [-0.         -0.         -0.         -0.         -0.         -0.          0.          0.         -0.         -0.          0.         -0.          0.
  -0.          0.          0.         -0.         -0.         -0.          0.         -0.          0.          0.         -0.          0.         -0.
  -0.         -0.        ]
 [ 0.          0.          0.          0.          0.          0.         -0.         -0.          0.          0.         -0.          0.         -0.
   0.         -0.         -0.          0.          0.          0.         -0.          0.         -0.         -0.          0.         -0.          0.
   0.          0.        ]
 [ 0.00480216  0.00358903  0.00066727  0.          0.          0.         -0.         -0.00067983  0.00003659  0.         -0.          0.         -0.
   0.         -0.         -0.          0.          0.00003721  0.00016622 -0.00049443  0.00007794 -0.         -0.          0.         -0.          0.00026035
   0.00011507  0.0000376 ]
 [ 0.02145058  0.01603171  0.00298062  0.          0.          0.         -0.         -0.00303669  0.00016343  0.         -0.          0.         -0.
   0.         -0.         -0.          0.          0.00016622  0.0007425  -0.00220857  0.00034816 -0.         -0.          0.         -0.          0.00116296
   0.000514    0.00016797]
 [-0.06380492 -0.04768646 -0.00886587 -0.         -0.         -0.          0.          0.00903266 -0.00048613 -0.          0.         -0.          0.
  -0.          0.          0.         -0.         -0.00049443 -0.00220857  0.0065694  -0.0010356   0.          0.         -0.          0.         -0.00345925
  -0.0015289  -0.00049962]
 [ 0.01005824  0.00751732  0.00139762  0.          0.          0.         -0.         -0.00142391  0.00007663  0.         -0.          0.         -0.
   0.         -0.         -0.          0.          0.00007794  0.00034816 -0.0010356   0.00016325 -0.         -0.          0.         -0.          0.00054532
   0.00024102  0.00007876]
 [-0.         -0.         -0.         -0.         -0.         -0.          0.          0.         -0.         -0.          0.         -0.          0.
  -0.          0.          0.         -0.         -0.         -0.          0.         -0.          0.          0.         -0.          0.         -0.
  -0.         -0.        ]
 [-0.         -0.         -0.         -0.         -0.         -0.          0.          0.         -0.         -0.          0.         -0.          0.
  -0.          0.          0.         -0.         -0.         -0.          0.         -0.          0.          0.         -0.          0.         -0.
  -0.         -0.        ]
 [ 0.          0.          0.          0.          0.          0.         -0.         -0.          0.          0.         -0.          0.         -0.
   0.         -0.         -0.          0.          0.          0.         -0.          0.         -0.         -0.          0.         -0.          0.
   0.          0.        ]
 [-0.         -0.         -0.         -0.         -0.         -0.          0.          0.         -0.         -0.          0.         -0.          0.
  -0.          0.          0.         -0.         -0.         -0.          0.         -0.          0.          0.         -0.          0.         -0.
  -0.         -0.        ]
 [ 0.03359773  0.02511024  0.0046685   0.          0.          0.         -0.         -0.00475632  0.00025598  0.         -0.          0.         -0.
   0.         -0.         -0.          0.          0.00026035  0.00116296 -0.00345925  0.00054532 -0.         -0.          0.         -0.          0.00182153
   0.00080507  0.00026308]
 [ 0.01484939  0.01109812  0.00206336  0.          0.          0.         -0.         -0.00210218  0.00011314  0.         -0.          0.         -0.
   0.         -0.         -0.          0.          0.00011507  0.000514   -0.0015289   0.00024102 -0.         -0.          0.         -0.          0.00080507
   0.00035582  0.00011628]
 [ 0.00485252  0.00362667  0.00067427  0.          0.          0.         -0.         -0.00068696  0.00003697  0.         -0.          0.         -0.
   0.         -0.         -0.          0.          0.0000376   0.00016797 -0.00049962  0.00007876 -0.         -0.          0.         -0.          0.00026308
[...]
 [-0.70831737  0.21025462  0.         ...  0.          0.          0.        ]]
Hsp + Hph =  -1.25057966381755
Feff (mod,ortho)
[[-0.22519774  0.29712512 -0.19745829 ...  0.          0.          0.        ]
 [ 0.29712512  0.01652731  0.07976676 ...  0.          0.          0.        ]
 [-0.19745829  0.07976676  1.32801984 ...  0.          0.          0.        ]
 ...
 [ 0.          0.          0.         ...  3.20903107 -0.01118317  0.10370903]
 [ 0.          0.          0.         ... -0.01118317  1.79647756 -0.01829951]
 [ 0.          0.          0.         ...  0.10370903 -0.01829951  1.57854209]]
E(SUHF) =     -1.01004457
e_a, e_b
[-0.49876445  0.06464911  0.3672668   0.50067726  0.65689552  0.72031187  0.72031187  0.85418918  0.85418918  1.09146918  2.46171471  2.62856539  3.39184783
  3.42412715  3.42412715  3.42987842  3.42987842  3.48558095  3.48558095  3.48711975  3.48711975  3.51107068  3.83704249  3.83704249  3.86082866  3.95386657
  3.95386657  4.25009664] [-0.49876445  0.06464911  0.3672668   0.50067726  0.65689552  0.72031187  0.72031187  0.85418918  0.85418918  1.09146918  2.46171471  2.62856539  3.39184783
  3.42412715  3.42412715  3.42987842  3.42987842  3.48558095  3.48558095  3.48711975  3.48711975  3.51107068  3.83704249  3.83704249  3.86082866  3.95386657
  3.95386657  4.25009664]
P_a, P_b
[[ 0.60208121 -0.46637897  0.09007419 -0.         -0.          0.          0.          0.09231768  0.00537995 -0.         -0.         -0.          0.
  -0.          0.         -0.         -0.         -0.00543311  0.00934984  0.05946537  0.0109576   0.          0.         -0.          0.         -0.0344722
   0.01931248 -0.00841337]
 [-0.46637897  0.36126246 -0.06977249  0.          0.         -0.         -0.         -0.07151033 -0.00416737  0.          0.          0.         -0.
   0.         -0.          0.          0.          0.00420855 -0.00724249 -0.04606255 -0.00848789 -0.         -0.          0.         -0.          0.02670256
  -0.01495967  0.0065171 ]
 [ 0.09007419 -0.06977249  0.01347552 -0.         -0.          0.          0.          0.01381116  0.00080487 -0.         -0.         -0.          0.
  -0.          0.         -0.         -0.         -0.00081282  0.00139878  0.0088963   0.00163931  0.          0.         -0.          0.         -0.0051572
   0.00288924 -0.00125868]
 [-0.          0.         -0.          0.          0.         -0.         -0.         -0.         -0.          0.          0.          0.         -0.
   0.         -0.          0.          0.          0.         -0.         -0.         -0.         -0.         -0.          0.         -0.          0.
  -0.          0.        ]
 [-0.          0.         -0.          0.          0.         -0.         -0.         -0.         -0.          0.          0.          0.         -0.
   0.         -0.          0.          0.          0.         -0.         -0.         -0.         -0.         -0.          0.         -0.          0.
  -0.          0.        ]
 [ 0.         -0.          0.         -0.         -0.          0.          0.          0.          0.         -0.         -0.         -0.          0.
  -0.          0.         -0.         -0.         -0.          0.          0.          0.          0.          0.         -0.          0.         -0.
   0.         -0.        ]
 [ 0.         -0.          0.         -0.         -0.          0.          0.          0.          0.         -0.         -0.         -0.          0.
  -0.          0.         -0.         -0.         -0.          0.          0.          0.          0.          0.         -0.          0.         -0.
   0.         -0.        ]
 [ 0.09231768 -0.07151033  0.01381116 -0.         -0.          0.          0.          0.01415516  0.00082491 -0.         -0.         -0.          0.
  -0.          0.         -0.         -0.         -0.00083306  0.00143362  0.00911788  0.00168014  0.          0.         -0.          0.         -0.00528565
   0.0029612  -0.00129003]
 [ 0.00537995 -0.00416737  0.00080487 -0.         -0.          0.          0.          0.00082491  0.00004807 -0.         -0.         -0.          0.
  -0.          0.         -0.         -0.         -0.00004855  0.00008355  0.00053136  0.00009791  0.          0.         -0.          0.         -0.00030803
   0.00017257 -0.00007518]
 [-0.          0.         -0.          0.          0.         -0.         -0.         -0.         -0.          0.          0.          0.         -0.
   0.         -0.          0.          0.          0.         -0.         -0.         -0.         -0.         -0.          0.         -0.          0.
  -0.          0.        ]
 [-0.          0.         -0.          0.          0.         -0.         -0.         -0.         -0.          0.          0.          0.         -0.
   0.         -0.          0.          0.          0.         -0.         -0.         -0.         -0.         -0.          0.         -0.          0.
  -0.          0.        ]
 [-0.          0.         -0.          0.          0.         -0.         -0.         -0.         -0.          0.          0.          0.         -0.
   0.         -0.          0.          0.          0.         -0.         -0.         -0.         -0.         -0.          0.         -0.          0.
  -0.          0.        ]
 [ 0.         -0.          0.         -0.         -0.          0.          0.          0.          0.         -0.         -0.         -0.          0.
  -0.          0.         -0.         -0.         -0.          0.          0.          0.          0.          0.         -0.          0.         -0.
   0.         -0.        ]
 [-0.          0.         -0.          0.          0.         -0.         -0.         -0.         -0.          0.          0.          0.         -0.
   0.         -0.          0.          0.          0.         -0.         -0.         -0.         -0.         -0.          0.         -0.          0.
  -0.          0.        ]
 [ 0.         -0.          0.         -0.         -0.          0.          0.          0.          0.         -0.         -0.         -0.          0.
  -0.          0.         -0.         -0.         -0.          0.          0.          0.          0.          0.         -0.          0.         -0.
   0.         -0.        ]
 [-0.          0.         -0.          0.          0.         -0.         -0.         -0.         -0.          0.          0.          0.         -0.
   0.         -0.          0.          0.          0.         -0.         -0.         -0.         -0.         -0.          0.         -0.          0.
  -0.          0.        ]
 [-0.          0.         -0.          0.          0.         -0.         -0.         -0.         -0.          0.          0.          0.         -0.
   0.         -0.          0.          0.          0.         -0.         -0.         -0.         -0.         -0.          0.         -0.          0.
  -0.          0.        ]
 [-0.00543311  0.00420855 -0.00081282  0.          0.         -0.         -0.         -0.00083306 -0.00004855  0.          0.          0.         -0.
   0.         -0.          0.          0.          0.00004903 -0.00008437 -0.00053661 -0.00009888 -0.         -0.          0.         -0.          0.00031107
  -0.00017427  0.00007592]
 [ 0.00934984 -0.00724249  0.00139878 -0.         -0.          0.          0.          0.00143362  0.00008355 -0.         -0.         -0.          0.
  -0.          0.         -0.         -0.         -0.00008437  0.0001452   0.00092345  0.00017016  0.          0.         -0.          0.         -0.00053533
   0.00029991 -0.00013065]
 [ 0.05946537 -0.04606255  0.0088963  -0.         -0.          0.          0.          0.00911788  0.00053136 -0.         -0.         -0.          0.
  -0.          0.         -0.         -0.         -0.00053661  0.00092345  0.00587318  0.00108224  0.          0.         -0.          0.         -0.00340469
   0.00190742 -0.00083096]
 [ 0.0109576  -0.00848789  0.00163931 -0.         -0.          0.          0.          0.00168014  0.00009791 -0.         -0.         -0.          0.
  -0.          0.         -0.         -0.         -0.00009888  0.00017016  0.00108224  0.00019942  0.          0.         -0.          0.         -0.00062738
   0.00035148 -0.00015312]
 [ 0.         -0.          0.         -0.         -0.          0.          0.          0.          0.         -0.         -0.         -0.          0.
  -0.          0.         -0.         -0.         -0.          0.          0.          0.          0.          0.         -0.          0.         -0.
   0.         -0.        ]
 [ 0.         -0.          0.         -0.         -0.          0.          0.          0.          0.         -0.         -0.         -0.          0.
  -0.          0.         -0.         -0.         -0.          0.          0.          0.          0.          0.         -0.          0.         -0.
   0.         -0.        ]
 [-0.          0.         -0.          0.          0.         -0.         -0.         -0.         -0.          0.          0.          0.         -0.
   0.         -0.          0.          0.          0.         -0.         -0.         -0.         -0.         -0.          0.         -0.          0.
  -0.          0.        ]
 [ 0.         -0.          0.         -0.         -0.          0.          0.          0.          0.         -0.         -0.         -0.          0.
  -0.          0.         -0.         -0.         -0.          0.          0.          0.          0.          0.         -0.          0.         -0.
   0.         -0.        ]
 [-0.0344722   0.02670256 -0.0051572   0.          0.         -0.         -0.         -0.00528565 -0.00030803  0.          0.          0.         -0.
   0.         -0.          0.          0.          0.00031107 -0.00053533 -0.00340469 -0.00062738 -0.         -0.          0.         -0.          0.00197371
  -0.00110574  0.00048171]
 [ 0.01931248 -0.01495967  0.00288924 -0.         -0.          0.          0.          0.0029612   0.00017257 -0.         -0.         -0.          0.
  -0.          0.         -0.         -0.         -0.00017427  0.00029991  0.00190742  0.00035148  0.          0.         -0.          0.         -0.00110574
   0.00061947 -0.00026987]
 [-0.00841337  0.0065171  -0.00125868  0.          0.         -0.         -0.         -0.00129003 -0.00007518  0.          0.          0.         -0.
   0.         -0.          0.          0.          0.00007592 -0.00013065 -0.00083096 -0.00015312 -0.         -0.          0.         -0.          0.00048171
  -0.00026987  0.00011757]] 
 [[ 0.60208121  0.46637897  0.09007419  0.          0.          0.         -0.         -0.09231768  0.00537995  0.          0.          0.         -0.
   0.         -0.          0.          0.          0.00543311  0.00934984 -0.05946537  0.0109576  -0.          0.          0.         -0.          0.0344722
   0.01931248  0.00841337]
 [ 0.46637897  0.36126246  0.06977249  0.          0.          0.         -0.         -0.07151033  0.00416737  0.          0.          0.         -0.
   0.         -0.          0.          0.          0.00420855  0.00724249 -0.04606255  0.00848789 -0.          0.          0.         -0.          0.02670256
   0.01495967  0.0065171 ]
 [ 0.09007419  0.06977249  0.01347552  0.          0.          0.         -0.         -0.01381116  0.00080487  0.          0.          0.         -0.
   0.         -0.          0.          0.          0.00081282  0.00139878 -0.0088963   0.00163931 -0.          0.          0.         -0.          0.0051572
   0.00288924  0.00125868]
 [ 0.          0.          0.          0.          0.          0.         -0.         -0.          0.          0.          0.          0.         -0.
   0.         -0.          0.          0.          0.          0.         -0.          0.         -0.          0.          0.         -0.          0.
   0.          0.        ]
 [ 0.          0.          0.          0.          0.          0.         -0.         -0.          0.          0.          0.          0.         -0.
   0.         -0.          0.          0.          0.          0.         -0.          0.         -0.          0.          0.         -0.          0.
   0.          0.        ]
 [ 0.          0.          0.          0.          0.          0.         -0.         -0.          0.          0.          0.          0.         -0.
   0.         -0.          0.          0.          0.          0.         -0.          0.         -0.          0.          0.         -0.          0.
   0.          0.        ]
 [-0.         -0.         -0.         -0.         -0.         -0.          0.          0.         -0.         -0.         -0.         -0.          0.
  -0.          0.         -0.         -0.         -0.         -0.          0.         -0.          0.         -0.         -0.          0.         -0.
  -0.         -0.        ]
 [-0.09231768 -0.07151033 -0.01381116 -0.         -0.         -0.          0.          0.01415516 -0.00082491 -0.         -0.         -0.          0.
  -0.          0.         -0.         -0.         -0.00083306 -0.00143362  0.00911788 -0.00168014  0.         -0.         -0.          0.         -0.00528565
  -0.0029612  -0.00129003]
 [ 0.00537995  0.00416737  0.00080487  0.          0.          0.         -0.         -0.00082491  0.00004807  0.          0.          0.         -0.
   0.         -0.          0.          0.          0.00004855  0.00008355 -0.00053136  0.00009791 -0.          0.          0.         -0.          0.00030803
   0.00017257  0.00007518]
 [ 0.          0.          0.          0.          0.          0.         -0.         -0.          0.          0.          0.          0.         -0.
   0.         -0.          0.          0.          0.          0.         -0.          0.         -0.          0.          0.         -0.          0.
   0.          0.        ]
 [ 0.          0.          0.          0.          0.          0.         -0.         -0.          0.          0.          0.          0.         -0.
   0.         -0.          0.          0.          0.          0.         -0.          0.         -0.          0.          0.         -0.          0.
   0.          0.        ]
 [ 0.          0.          0.          0.          0.          0.         -0.         -0.          0.          0.          0.          0.         -0.
   0.         -0.          0.          0.          0.          0.         -0.          0.         -0.          0.          0.         -0.          0.
   0.          0.        ]
 [-0.         -0.         -0.         -0.         -0.         -0.          0.          0.         -0.         -0.         -0.         -0.          0.
  -0.          0.         -0.         -0.         -0.         -0.          0.         -0.          0.         -0.         -0.          0.         -0.
  -0.         -0.        ]
 [ 0.          0.          0.          0.          0.          0.         -0.         -0.          0.          0.          0.          0.         -0.
   0.         -0.          0.          0.          0.          0.         -0.          0.         -0.          0.          0.         -0.          0.
   0.          0.        ]
 [-0.         -0.         -0.         -0.         -0.         -0.          0.          0.         -0.         -0.         -0.         -0.          0.
  -0.          0.         -0.         -0.         -0.         -0.          0.         -0.          0.         -0.         -0.          0.         -0.
  -0.         -0.        ]
 [ 0.          0.          0.          0.          0.          0.         -0.         -0.          0.          0.          0.          0.         -0.
   0.         -0.          0.          0.          0.          0.         -0.          0.         -0.          0.          0.         -0.          0.
   0.          0.        ]
 [ 0.          0.          0.          0.          0.          0.         -0.         -0.          0.          0.          0.          0.         -0.
   0.         -0.          0.          0.          0.          0.         -0.          0.         -0.          0.          0.         -0.          0.
   0.          0.        ]
 [ 0.00543311  0.00420855  0.00081282  0.          0.          0.         -0.         -0.00083306  0.00004855  0.          0.          0.         -0.
   0.         -0.          0.          0.          0.00004903  0.00008437 -0.00053661  0.00009888 -0.          0.          0.         -0.          0.00031107
   0.00017427  0.00007592]
 [ 0.00934984  0.00724249  0.00139878  0.          0.          0.         -0.         -0.00143362  0.00008355  0.          0.          0.         -0.
   0.         -0.          0.          0.          0.00008437  0.0001452  -0.00092345  0.00017016 -0.          0.          0.         -0.          0.00053533
   0.00029991  0.00013065]
 [-0.05946537 -0.04606255 -0.0088963  -0.         -0.         -0.          0.          0.00911788 -0.00053136 -0.         -0.         -0.          0.
  -0.          0.         -0.         -0.         -0.00053661 -0.00092345  0.00587318 -0.00108224  0.         -0.         -0.          0.         -0.00340469
  -0.00190742 -0.00083096]
 [ 0.0109576   0.00848789  0.00163931  0.          0.          0.         -0.         -0.00168014  0.00009791  0.          0.          0.         -0.
   0.         -0.          0.          0.          0.00009888  0.00017016 -0.00108224  0.00019942 -0.          0.          0.         -0.          0.00062738
   0.00035148  0.00015312]
 [-0.         -0.         -0.         -0.         -0.         -0.          0.          0.         -0.         -0.         -0.         -0.          0.
  -0.          0.         -0.         -0.         -0.         -0.          0.         -0.          0.         -0.         -0.          0.         -0.
  -0.         -0.        ]
 [ 0.          0.          0.          0.          0.          0.         -0.         -0.          0.          0.          0.          0.         -0.
   0.         -0.          0.          0.          0.          0.         -0.          0.         -0.          0.          0.         -0.          0.
   0.          0.        ]
 [ 0.          0.          0.          0.          0.          0.         -0.         -0.          0.          0.          0.          0.         -0.
   0.         -0.          0.          0.          0.          0.         -0.          0.         -0.          0.          0.         -0.          0.
   0.          0.        ]
 [-0.         -0.         -0.         -0.         -0.         -0.          0.          0.         -0.         -0.         -0.         -0.          0.
  -0.          0.         -0.         -0.         -0.         -0.          0.         -0.          0.         -0.         -0.          0.         -0.
  -0.         -0.        ]
 [ 0.0344722   0.02670256  0.0051572   0.          0.          0.         -0.         -0.00528565  0.00030803  0.          0.          0.         -0.
   0.         -0.          0.          0.          0.00031107  0.00053533 -0.00340469  0.00062738 -0.          0.          0.         -0.          0.00197371
   0.00110574  0.00048171]
 [ 0.01931248  0.01495967  0.00288924  0.          0.          0.         -0.         -0.0029612   0.00017257  0.          0.          0.         -0.
   0.         -0.          0.          0.          0.00017427  0.00029991 -0.00190742  0.00035148 -0.          0.          0.         -0.          0.00110574
   0.00061947  0.00026987]
 [ 0.00841337  0.0065171   0.00125868  0.          0.          0.         -0.         -0.00129003  0.00007518  0.          0.          0.         -0.
   0.         -0.          0.          0.          0.00007592  0.00013065 -0.00083096  0.00015312 -0.          0.          0.         -0.          0.00048171
   0.00026987  0.00011757]]

***************
SUHF converged at cycle 9
Final E(SUHF) =     -1.01004457, delta E = -2.15691e-09
