#INFO: **** input file is /share/home/srwang/ExSCF/test/pytest/scan_h2/scan_suhf.py ****
#import phf
from pyscf import lib
#import scipy
import numpy as np
import sys, os, contextlib

from pyphf import util, sudft

#xyz = 'h2.xyz' #sys.argv[1]
fch = 'test_uhf.fchk' #sys.argv[2]
#bas = '../h2.bas'
bas = 'cc-pvtz'

lib.num_threads(8)

for r in np.arange(0.5, 2.55, 0.1):
    output = 'suhf/suhf_%.1f_diis.out' % r
    os.system("echo '\n' > %s" % output)
    with open(output, 'w', encoding='utf-8') as f:
        with contextlib.redirect_stdout(f):
            xyz = '''H 0.0 0.0 0.0; H 0.0 0.0 %f'''%r
            mf = util.guess_from_fchk(xyz, bas, fch)
            #mf = util.guess(xyz, bas)
            #f.flush()
            mf2 = util.SUHF(mf)
            #mf2.cut_no = False
            mf2.debug = False
            #mf2.max_cycle = 50
            mf2.diis_on = True
            #mf2.output = 'sudft_%.1f.out'%r
            mf2.kernel()
            
            #mf3 = sudft.SUDFT(mf2)
            #mf3.suxc = 'TPSS'
            #mf3.kernel()
                    
#INFO: ******************** input file end ********************


System: uname_result(system='Linux', node='xcluster', release='3.10.0-693.el7.x86_64', version='#1 SMP Thu Jul 6 19:56:57 EDT 2017', machine='x86_64', processor='x86_64')  Threads 8
Python 3.7.4 (default, Aug 13 2019, 20:35:49) 
[GCC 7.3.0]
numpy 1.17.2  scipy 1.4.1
Date: Mon Nov 23 19:26:45 2020
PySCF version 1.7.5
PySCF path  /share/home/srwang/pyscf-1.7.5/pyscf

[CONFIG] conf_file None
[INPUT] verbose = 4
[INPUT] num. atoms = 2
[INPUT] num. electrons = 2
[INPUT] charge = 0
[INPUT] spin (= nelec alpha-beta = 2S) = 0
[INPUT] symmetry False subgroup None
[INPUT] Mole.unit = angstrom
[INPUT]  1 H      0.000000000000   0.000000000000   0.000000000000 AA    0.000000000000   0.000000000000   0.000000000000 Bohr
[INPUT]  2 H      0.000000000000   0.000000000000   0.600000000000 AA    0.000000000000   0.000000000000   1.133835674739 Bohr

nuclear repulsion = 0.8819620182
number of shells = 12
number of NR pGTOs = 32
number of NR cGTOs = 28
basis = cc-pvtz
ecp = {}
CPU time:        91.99


******** <class 'pyscf.scf.uhf.UHF'> ********
method = UHF
initial guess = minao
damping factor = 0
level_shift factor = 0
DIIS = <class 'pyscf.scf.diis.CDIIS'>
diis_start_cycle = 1
diis_space = 8
SCF conv_tol = 1e-09
SCF conv_tol_grad = None
SCF max_cycles = 1
direct_scf = True
direct_scf_tol = 1e-13
chkfile to save SCF result = /share/home/srwang/ExSCF/test/pytest/scan_h2/tmpyiuob065
max_memory 4000 MB (current use 121 MB)
number electrons alpha = 1  beta = 1
Set gradient conv threshold to 3.16228e-05
init E= -0.824483430223516
  alpha nocc = 1  HOMO = -0.626172106841112  LUMO = 0.160075943594781
  beta  nocc = 1  HOMO = -0.632544006922479  LUMO = 0.16010219312332
cycle= 1 E= -1.11430937471772  delta_E= -0.29  |g|= 0.034  |ddm|= 0.335
SCF not converged.
SCF energy = -1.11430937471772 after 1 cycles  <S^2> = 1.4992137e-05  2S+1 = 1.00003


******** <class 'pyscf.scf.uhf.UHF'> ********
method = UHF
initial guess = minao
damping factor = 0
level_shift factor = 0
DIIS = <class 'pyscf.scf.diis.CDIIS'>
diis_start_cycle = 1
diis_space = 8
SCF conv_tol = 1e-09
SCF conv_tol_grad = None
SCF max_cycles = 1
direct_scf = True
direct_scf_tol = 1e-13
chkfile to save SCF result = /share/home/srwang/ExSCF/test/pytest/scan_h2/tmpyiuob065
max_memory 4000 MB (current use 125 MB)
number electrons alpha = 1  beta = 1
Set gradient conv threshold to 3.16228e-05
init E= -1.23222988216284
  alpha nocc = 1  HOMO = -0.59263360852823  LUMO = 0.265872353182883
  beta  nocc = 1  HOMO = -0.592633608528229  LUMO = 0.265872353182887
cycle= 1 E= -1.09744886655862  delta_E= 0.135  |g|= 0.111  |ddm|= 0.221
SCF not converged.
SCF energy = -1.09744886655862 after 1 cycles  <S^2> = 0.061191246  2S+1 = 1.1156904

******** <class 'pyphf.util.SUHF'> ********
max_cycle = 70
verbose: normal
DIIS: <class 'pyscf.scf.diis.CDIIS'>
diis_start_cyc = 40
SVD: S^(-1/2)
[[ -0.16172498  -0.          -0.           0.18704936   0.13821028  -0.           0.          -0.           0.          -0.29442532   0.           0.
    0.1247611   -0.24118215  -0.          -0.          -0.          -0.           0.57124907   0.           0.          -0.39674981   1.82897118   0.
   -0.          -2.45238557   1.05017275  -0.85308179]
 [ -0.21180984  -0.          -0.           0.11076278  -0.07156394  -0.           0.          -0.          -0.           0.0242586    0.          -0.
   -0.08508021  -0.26678884  -0.          -0.          -0.           0.          -0.25377131  -0.          -0.           1.30675858  -0.86317394  -0.
    0.           0.01876075  -0.01971839 -26.09850684]
 [ -0.18829006  -0.          -0.           0.03601768  -0.23816697   0.          -0.           0.           0.           0.21360961  -0.           0.
   -0.05128129   0.44223464  -0.           0.           0.           0.          -0.22600206  -0.           0.          -0.82118166   0.18167624   0.
    0.          -1.45080286  -3.76658174   2.17041538]
 [  0.           0.24803707   0.08427159   0.          -0.           0.           0.          -0.23583959  -0.26603275  -0.          -0.00115174   0.07205147
    0.           0.           0.           0.           0.07660515  -0.82531888  -0.          -1.20945054   0.12174428  -0.           0.          -1.3484517
    0.11488952  -0.          -0.           0.        ]
 [  0.          -0.08427159   0.24803707  -0.           0.           0.           0.          -0.26603275   0.23583959   0.           0.07205147   0.00115174
    0.          -0.           0.           0.           0.82531888   0.07660515  -0.          -0.12174428  -1.20945054  -0.          -0.          -0.11488952
   -1.3484517   -0.          -0.          -0.        ]
 [ -0.06112501   0.           0.          -0.19752799   0.40559858   0.           0.           0.          -0.           0.09522895  -0.           0.
    0.10753258   0.55544583  -0.           0.           0.           0.          -0.72220166  -0.           0.           0.40814802  -0.10374241   0.
    0.          -1.87338429   1.43416618  -0.00640498]
 [  0.           0.2736215    0.09296401   0.           0.           0.           0.          -0.11614749  -0.13101717   0.           0.00577209  -0.36109408
    0.           0.          -0.          -0.          -0.04908374   0.52881217   0.           1.25067528  -0.125894     0.           0.          -2.03668831
    0.17352801  -0.          -0.          -0.        ]
 [ -0.          -0.09296401   0.2736215   -0.           0.           0.           0.          -0.13101717   0.11614749  -0.          -0.36109408  -0.00577209
    0.           0.          -0.          -0.          -0.52881217  -0.04908374   0.           0.125894     1.25067528   0.          -0.          -0.17352801
   -2.03668831  -0.          -0.          -0.        ]
 [ -0.07077055   0.           0.          -0.30293134   0.20178165  -0.           0.           0.           0.           0.09467724  -0.           0.
    0.25146963  -0.40475694  -0.          -0.           0.          -0.           0.57510221   0.          -0.          -1.118985    -1.60447442  -0.
    0.          -0.11065243  -0.92737144  -9.51359824]
 [  0.          -0.           0.           0.           0.          -0.00000001  -0.57602589  -0.          -0.           0.          -0.          -0.
    0.           0.           1.00697781   0.00000011  -0.          -0.           0.          -0.          -0.           0.           0.           0.
    0.           0.          -0.           0.        ]
 [ -0.          -0.04731768   0.13927041  -0.          -0.          -0.          -0.           0.3283149   -0.29105307   0.           0.58111171   0.00928907
    0.           0.          -0.          -0.          -0.4309264   -0.0399981    0.          -0.0484099   -0.48092096  -0.          -0.          -0.16234269
   -1.90540685  -0.          -0.          -0.        ]
 [ -0.02025571   0.           0.          -0.13942977  -0.07020483  -0.           0.          -0.          -0.          -0.50672506  -0.          -0.
   -0.61215765   0.34254676  -0.          -0.           0.           0.           0.28001085   0.           0.          -0.18545338  -1.34671354  -0.
    0.          -0.75541818   0.40327416  -0.63764031]
 [  0.           0.13927041   0.04731768   0.           0.          -0.          -0.           0.29105307   0.3283149   -0.          -0.00928907   0.58111171
   -0.           0.           0.          -0.          -0.0399981    0.4309264    0.          -0.48092096   0.0484099   -0.           0.          -1.90540685
    0.16234269  -0.          -0.           0.        ]
 [  0.           0.          -0.           0.           0.          -0.57602589   0.00000001  -0.          -0.           0.          -0.           0.
    0.          -0.           0.00000011  -1.00697781   0.          -0.           0.          -0.          -0.           0.           0.          -0.
    0.           0.           0.           0.        ]
 [ -0.16172498   0.           0.          -0.18704936   0.13821028   0.          -0.          -0.          -0.          -0.29442532   0.          -0.
   -0.1247611   -0.24118215   0.           0.          -0.           0.          -0.57124907   0.           0.          -0.39674981   1.82897118   0.
   -0.           2.45238557  -1.05017275   0.85308179]
 [ -0.21180984   0.           0.          -0.11076278  -0.07156394   0.           0.          -0.           0.           0.0242586   -0.           0.
    0.08508021  -0.26678884   0.           0.          -0.          -0.           0.25377131  -0.          -0.           1.30675858  -0.86317394  -0.
   -0.          -0.01876075   0.01971839  26.09850684]
 [ -0.18829006   0.           0.          -0.03601768  -0.23816697  -0.           0.           0.           0.           0.21360961   0.           0.
    0.05128129   0.44223464   0.          -0.           0.          -0.           0.22600206   0.           0.          -0.82118166   0.18167624  -0.
   -0.           1.45080286   3.76658174  -2.17041538]
 [  0.           0.24803707   0.08427159   0.           0.          -0.          -0.           0.23583959   0.26603275  -0.          -0.00115174   0.07205147
   -0.           0.          -0.           0.           0.07660515  -0.82531888  -0.           1.20945054  -0.12174428   0.          -0.           1.3484517
   -0.11488952   0.          -0.          -0.        ]
 [ -0.          -0.08427159   0.24803707  -0.          -0.          -0.          -0.           0.26603275  -0.23583959   0.           0.07205147   0.00115174
   -0.          -0.           0.           0.           0.82531888   0.07660515  -0.           0.12174428   1.20945054   0.           0.           0.11488952
    1.3484517    0.          -0.           0.        ]
 [  0.06112501   0.           0.          -0.19752799  -0.40559858   0.           0.          -0.          -0.          -0.09522895   0.           0.
    0.10753258  -0.55544583  -0.           0.          -0.           0.          -0.72220166   0.           0.          -0.40814802   0.10374241   0.
    0.          -1.87338429   1.43416618  -0.00640498]
 [  0.           0.2736215    0.09296401   0.           0.          -0.          -0.           0.11614749   0.13101717   0.           0.00577209  -0.36109408
    0.           0.           0.          -0.          -0.04908374   0.52881217   0.          -1.25067528   0.125894    -0.          -0.           2.03668831
   -0.17352801   0.           0.          -0.        ]
 [ -0.          -0.09296401   0.2736215   -0.          -0.          -0.          -0.           0.13101717  -0.11614749  -0.          -0.36109408  -0.00577209
   -0.           0.          -0.          -0.          -0.52881217  -0.04908374  -0.          -0.125894    -1.25067528  -0.           0.           0.17352801
    2.03668831   0.           0.           0.        ]
 [  0.07077055   0.           0.          -0.30293134  -0.20178165  -0.          -0.           0.           0.          -0.09467724  -0.           0.
    0.25146963   0.40475694   0.          -0.           0.          -0.           0.57510221  -0.          -0.           1.118985     1.60447442   0.
   -0.          -0.11065243  -0.92737144  -9.51359824]
 [  0.          -0.           0.           0.          -0.          -0.00000001  -0.57602589  -0.          -0.           0.          -0.          -0.
    0.           0.          -1.00697781  -0.00000011   0.          -0.          -0.           0.           0.          -0.          -0.          -0.
    0.          -0.           0.           0.        ]
 [  0.           0.04731768  -0.13927041   0.          -0.           0.          -0.           0.3283149   -0.29105307   0.          -0.58111171  -0.00928907
   -0.          -0.           0.           0.           0.4309264    0.0399981    0.          -0.0484099   -0.48092096  -0.          -0.          -0.16234269
   -1.90540685  -0.          -0.          -0.        ]
 [ -0.02025571  -0.          -0.           0.13942977  -0.07020483   0.           0.           0.          -0.          -0.50672506  -0.           0.
    0.61215765   0.34254676  -0.           0.           0.           0.          -0.28001085   0.           0.          -0.18545338  -1.34671354  -0.
    0.           0.75541818  -0.40327416   0.63764031]
 [ -0.          -0.13927041  -0.04731768  -0.           0.          -0.          -0.           0.29105307   0.3283149   -0.           0.00928907  -0.58111171
    0.          -0.           0.           0.           0.0399981   -0.4309264   -0.          -0.48092096   0.0484099   -0.           0.          -1.90540685
    0.16234269  -0.          -0.           0.        ]
 [  0.          -0.           0.           0.           0.          -0.57602589   0.00000001  -0.          -0.           0.          -0.          -0.
    0.           0.          -0.00000011   1.00697781  -0.           0.          -0.           0.           0.          -0.          -0.           0.
   -0.          -0.          -0.          -0.        ]]
C (ortho)
[[-0.98682393 -0.09158612 -0.02647097 -0.08310079  0.         -0.         -0.06891896 -0.         -0.         -0.01356311  0.01569901  0.02237468 -0.
  -0.         -0.          0.          0.05516396  0.         -0.         -0.          0.          0.          0.          0.00004074 -0.         -0.
   0.0381413   0.00231978]
 [-0.          0.          0.          0.         -0.68263004  0.50329173 -0.          0.03325612 -0.01266955 -0.          0.         -0.         -0.
  -0.          0.03728222  0.52095871  0.         -0.02893073  0.00193388  0.          0.         -0.07279772  0.02250295  0.          0.00348763  0.00067236
   0.          0.        ]
 [-0.         -0.          0.          0.          0.50329173  0.68263004  0.          0.01266955  0.03325612  0.          0.          0.          0.
  -0.          0.52095871 -0.03728222  0.         -0.00193388 -0.02893073  0.         -0.         -0.02250295 -0.07279772  0.         -0.00067236  0.00348763
   0.          0.        ]
 [ 0.11875404 -0.49937891 -0.02091364 -0.77423995 -0.          0.          0.02745461  0.         -0.         -0.17626281 -0.02745022  0.31932111 -0.
  -0.          0.          0.         -0.00935613 -0.         -0.          0.          0.          0.          0.         -0.04223215  0.          0.
  -0.00264728 -0.01460761]
 [-0.07020421 -0.0169563  -0.51791275  0.03562128 -0.          0.          0.60185401 -0.          0.         -0.00567622 -0.23158595 -0.03896423  0.
   0.          0.         -0.         -0.52736935 -0.          0.         -0.         -0.         -0.         -0.          0.00596082  0.          0.
  -0.17236398 -0.00270724]
 [ 0.         -0.          0.         -0.          0.         -0.         -0.         -0.         -0.         -0.          0.          0.         -0.99224773
   0.12375091  0.         -0.         -0.          0.          0.         -0.01139913 -0.00045772 -0.         -0.         -0.         -0.          0.
  -0.         -0.        ]
 [-0.          0.          0.         -0.          0.         -0.         -0.         -0.         -0.          0.         -0.         -0.         -0.12375091
  -0.99224773 -0.         -0.         -0.         -0.          0.          0.00045772 -0.01139913  0.          0.          0.         -0.         -0.
  -0.          0.        ]
 [-0.          0.          0.          0.         -0.007327   -0.03026549 -0.          0.44296407  0.4643936   0.         -0.         -0.         -0.
  -0.         -0.03071753 -0.01039635  0.         -0.33413291 -0.66678214 -0.         -0.          0.01454854  0.01735734 -0.          0.03526414  0.16763162
  -0.          0.        ]
 [-0.          0.          0.          0.          0.03026549 -0.007327    0.          0.4643936  -0.44296407 -0.          0.          0.          0.
   0.          0.01039635 -0.03071753  0.         -0.66678214  0.33413291 -0.         -0.          0.01735734 -0.01454854  0.          0.16763162 -0.03526414
   0.          0.        ]
 [-0.04090234  0.01958511  0.45464766 -0.00849802 -0.         -0.          0.32105825  0.          0.          0.00379198  0.67926045  0.07755706  0.
   0.         -0.         -0.         -0.43651129 -0.         -0.          0.         -0.          0.         -0.          0.00707579 -0.          0.
   0.17340373  0.00174841]
 [ 0.          0.         -0.         -0.         -0.36319181 -0.2442211  -0.         -0.00036918 -0.01801325 -0.          0.          0.          0.
  -0.          0.56181026 -0.24749001  0.          0.01182239 -0.0416215   0.         -0.          0.02862736 -0.65463243  0.         -0.00122685  0.00207507
   0.          0.        ]
 [-0.         -0.          0.          0.          0.2442211  -0.36319181  0.         -0.01801325  0.00036918 -0.          0.          0.          0.
  -0.          0.24749001  0.56181026  0.         -0.0416215  -0.01182239  0.         -0.         -0.65463243 -0.02862736 -0.          0.00207507  0.00122685
  -0.          0.        ]
 [-0.02172465  0.27164032 -0.0110929   0.09032888  0.         -0.          0.00348143  0.          0.          0.22895435 -0.08274834  0.69718205 -0.
  -0.         -0.         -0.         -0.00930343  0.         -0.          0.          0.          0.         -0.         -0.59536631  0.          0.
  -0.0018883   0.13252827]
 [-0.05169287  0.01528795  0.58110817 -0.03551533  0.          0.         -0.18751427  0.         -0.         -0.00697894 -0.44141255 -0.04665959  0.
   0.          0.          0.         -0.42004478  0.          0.         -0.         -0.         -0.         -0.          0.00340473  0.         -0.
  -0.49946204 -0.00143955]
 [ 0.         -0.          0.         -0.         -0.         -0.         -0.          0.         -0.         -0.          0.          0.          0.00141188
   0.01132062  0.          0.          0.          0.          0.          0.04011848 -0.9991298   0.          0.         -0.         -0.          0.
   0.         -0.        ]
 [-0.          0.         -0.          0.         -0.         -0.          0.         -0.          0.         -0.         -0.         -0.         -0.01132062
   0.00141188  0.          0.         -0.         -0.          0.          0.9991298   0.04011848  0.          0.         -0.         -0.          0.
   0.         -0.        ]
 [-0.          0.          0.         -0.         -0.22589344 -0.19046806 -0.         -0.00204912 -0.01579286 -0.          0.          0.          0.
  -0.          0.56274081 -0.17803462 -0.          0.00061524 -0.0036228  -0.          0.          0.04865877  0.74945313  0.         -0.00098794  0.0021805
  -0.         -0.        ]
 [ 0.         -0.          0.         -0.         -0.19046806  0.22589344 -0.          0.01579286 -0.00204912 -0.          0.          0.          0.
   0.         -0.17803462 -0.56274081  0.          0.0036228   0.00061524  0.         -0.         -0.74945313  0.04865877 -0.         -0.0021805  -0.00098794
  -0.         -0.        ]
 [-0.0206748   0.40030512 -0.02273631  0.01874633  0.          0.         -0.00856348 -0.          0.         -0.44592095 -0.05354349  0.50839898  0.
  -0.         -0.         -0.          0.00198208  0.         -0.          0.          0.         -0.         -0.          0.61482426 -0.         -0.
  -0.00155763 -0.01376675]
 [-0.          0.          0.         -0.         -0.01207269  0.02170302  0.         -0.64036481 -0.04094126  0.         -0.         -0.          0.
  -0.         -0.01053107 -0.01930986  0.         -0.37622754 -0.14208372 -0.         -0.          0.00932656  0.00120076 -0.          0.53143918  0.37802804
   0.          0.        ]
 [-0.         -0.          0.          0.          0.02170302  0.01207269  0.          0.04094126 -0.64036481  0.         -0.         -0.         -0.
  -0.         -0.01930986  0.01053107  0.          0.14208372 -0.37622754  0.          0.         -0.00120076  0.00932656 -0.         -0.37802804  0.53143918
  -0.          0.        ]
 [ 0.03326641 -0.0198814  -0.4239109   0.00947148  0.         -0.         -0.67296938 -0.         -0.          0.01998614  0.35390949  0.03687524  0.
   0.         -0.         -0.         -0.45448598 -0.         -0.          0.          0.          0.         -0.          0.0045702   0.          0.
  -0.17952815  0.00047276]
 [ 0.01608792  0.00080565  0.05792702 -0.00842766  0.         -0.         -0.20196451 -0.          0.         -0.00187122 -0.3893149  -0.04261862  0.
   0.          0.         -0.         -0.38087793 -0.         -0.         -0.         -0.         -0.          0.          0.00283674 -0.         -0.
   0.8105929  -0.00120809]
 [ 0.         -0.          0.          0.          0.00819237 -0.01421023 -0.          0.41728031  0.02026246 -0.         -0.          0.          0.
  -0.          0.00954693  0.01816213 -0.          0.49720602  0.17911351  0.          0.         -0.0134023  -0.00151707  0.          0.60822631  0.41875994
   0.          0.        ]
 [-0.         -0.          0.          0.         -0.01421023 -0.00819237  0.         -0.02026246  0.41728031 -0.          0.          0.          0.
   0.          0.01816213 -0.00954693  0.         -0.17911351  0.49720602 -0.         -0.          0.00151707 -0.0134023   0.         -0.41875994  0.60822631
  -0.          0.        ]
 [-0.01548369  0.36065667 -0.02321865 -0.26941127  0.          0.          0.00293417  0.          0.          0.13015523  0.00983374 -0.06550521 -0.
  -0.          0.          0.          0.00075475  0.          0.         -0.         -0.         -0.         -0.         -0.09811471  0.          0.
   0.00051145 -0.87498659]
 [-0.01702392  0.61160105 -0.0442979  -0.51818971  0.         -0.          0.00254564  0.          0.         -0.1034312   0.04300843 -0.35061468 -0.
  -0.         -0.          0.         -0.00201664  0.          0.         -0.          0.         -0.         -0.         -0.15602556  0.          0.
   0.00038269  0.44197104]
 [-0.00279152 -0.05263288  0.00630093  0.20314983  0.         -0.         -0.01581711  0.          0.         -0.83026817  0.02548603 -0.11354705 -0.
   0.          0.         -0.         -0.00711478 -0.          0.         -0.         -0.         -0.         -0.         -0.48130026 -0.          0.
   0.00030748 -0.14516852]]
[[-0.98682393 -0.09158612 -0.02647097 -0.08310079 -0.         -0.          0.06891896 -0.         -0.         -0.01356311  0.01569901  0.02237468  0.
   0.         -0.         -0.         -0.05516396  0.          0.         -0.         -0.         -0.          0.          0.00004074  0.          0.
   0.0381413   0.00231978]
 [ 0.         -0.         -0.         -0.         -0.19831762  0.82459472  0.          0.03404533  0.01036352  0.          0.          0.         -0.
   0.         -0.20954058  0.47841477 -0.          0.0096131  -0.02735535  0.          0.          0.07571087  0.00858808 -0.          0.00348832 -0.00066878
   0.         -0.        ]
 [ 0.         -0.         -0.         -0.          0.82459472  0.19831762  0.         -0.01036352  0.03404533  0.          0.         -0.         -0.
  -0.          0.47841477  0.20954058 -0.         -0.02735535 -0.0096131   0.         -0.         -0.00858808  0.07571087  0.          0.00066878  0.00348832
   0.          0.        ]
 [-0.11875404  0.49937891  0.02091364  0.77423995 -0.          0.          0.02745461 -0.         -0.          0.17626281  0.02745022 -0.31932111 -0.
  -0.         -0.          0.         -0.00935613  0.          0.         -0.          0.          0.          0.          0.04223215  0.         -0.
   0.00264728  0.01460761]
 [-0.07020421 -0.0169563  -0.51791275  0.03562128  0.          0.         -0.60185401  0.          0.         -0.00567622 -0.23158595 -0.03896423  0.
   0.          0.          0.          0.52736935 -0.         -0.          0.          0.          0.         -0.          0.00596082 -0.         -0.
  -0.17236398 -0.00270724]
 [-0.         -0.         -0.         -0.          0.         -0.         -0.          0.          0.         -0.         -0.          0.         -0.44323139
  -0.89633464 -0.         -0.         -0.         -0.          0.         -0.00227941 -0.01117829  0.         -0.          0.          0.         -0.
  -0.          0.        ]
 [-0.          0.          0.          0.          0.         -0.          0.          0.          0.         -0.         -0.          0.         -0.89633464
   0.44323139  0.         -0.         -0.         -0.         -0.         -0.01117829  0.00227941 -0.          0.         -0.          0.          0.
  -0.         -0.        ]
 [ 0.         -0.         -0.         -0.          0.02509167  0.01844162 -0.         -0.06553914 -0.63842243 -0.         -0.          0.         -0.
   0.          0.02234546  0.02350172  0.          0.55290632  0.50053755  0.         -0.          0.00636425  0.02173554  0.         -0.0949078  -0.14260585
   0.         -0.        ]
 [ 0.         -0.         -0.         -0.         -0.01844162  0.02509167 -0.         -0.63842243  0.06553914 -0.         -0.          0.         -0.
   0.         -0.02350172  0.02234546  0.         -0.50053755  0.55290632 -0.          0.          0.02173554 -0.00636425 -0.         -0.14260585  0.0949078
   0.         -0.        ]
 [-0.04090234  0.01958511  0.45464766 -0.00849802  0.          0.         -0.32105825  0.          0.          0.00379198  0.67926045  0.07755706 -0.
  -0.          0.         -0.          0.43651129 -0.          0.         -0.          0.          0.          0.          0.00707579  0.         -0.
   0.17340373  0.00174841]
 [ 0.         -0.         -0.         -0.         -0.43514124  0.04695034 -0.          0.01074514 -0.0144622  -0.         -0.          0.          0.
  -0.          0.61243284  0.04252165 -0.         -0.04326732  0.00024083  0.         -0.         -0.28881522  0.58817422  0.         -0.00036996  0.00238206
   0.          0.        ]
 [ 0.          0.          0.         -0.         -0.04695034 -0.43514124 -0.         -0.0144622  -0.01074514 -0.          0.         -0.         -0.
   0.         -0.04252165  0.61243284 -0.         -0.00024083 -0.04326732  0.          0.          0.58817422  0.28881522  0.          0.00238206  0.00036996
  -0.         -0.        ]
 [ 0.02172465 -0.27164032  0.0110929  -0.09032888 -0.         -0.          0.00348143 -0.         -0.         -0.22895435  0.08274834 -0.69718205 -0.
   0.          0.         -0.         -0.00930343 -0.          0.         -0.          0.         -0.          0.          0.59536631 -0.          0.
   0.0018883  -0.13252827]
 [-0.05169287  0.01528795  0.58110817 -0.03551533  0.          0.          0.18751427 -0.         -0.         -0.00697894 -0.44141255 -0.04665959  0.
  -0.         -0.          0.          0.42004478 -0.         -0.          0.         -0.         -0.          0.          0.00340473 -0.          0.
  -0.49946204 -0.00143955]
 [ 0.         -0.         -0.          0.         -0.          0.          0.         -0.         -0.          0.          0.         -0.         -0.01022634
   0.00505685  0.         -0.          0.         -0.         -0.          0.97977251 -0.19978907  0.         -0.          0.          0.         -0.
   0.          0.        ]
 [ 0.         -0.         -0.         -0.         -0.         -0.         -0.          0.         -0.         -0.         -0.          0.          0.00505685
   0.01022634  0.          0.          0.          0.         -0.         -0.19978907 -0.97977251  0.         -0.          0.          0.         -0.
  -0.          0.        ]
 [-0.         -0.          0.          0.         -0.29547561 -0.00031212  0.          0.00805701 -0.01373674  0.          0.         -0.         -0.
  -0.          0.58092095  0.10442414 -0.         -0.0036552  -0.00037772 -0.          0.          0.25605476 -0.70603373 -0.         -0.00010899  0.00239138
  -0.         -0.        ]
 [-0.          0.         -0.          0.         -0.00031212  0.29547561  0.          0.01373674  0.00805701 -0.         -0.          0.          0.
   0.          0.10442414 -0.58092095  0.         -0.00037772  0.0036552   0.          0.          0.70603373  0.25605476  0.         -0.00239138 -0.00010899
  -0.          0.        ]
 [ 0.0206748  -0.40030512  0.02273631 -0.01874633  0.         -0.         -0.00856348  0.          0.          0.44592095  0.05354349 -0.50839898 -0.
   0.         -0.         -0.          0.00198208  0.          0.         -0.          0.          0.          0.         -0.61482426  0.         -0.
   0.00155763  0.01376675]
 [-0.         -0.          0.          0.         -0.00473467 -0.02437937 -0.          0.48100005  0.4247143  -0.         -0.          0.         -0.
   0.          0.00033035  0.02199238 -0.          0.0361079   0.4005386   0.         -0.          0.00806167  0.00484107  0.         -0.63372685 -0.154023
   0.         -0.        ]
 [-0.          0.          0.          0.         -0.02437937  0.00473467 -0.         -0.4247143   0.48100005 -0.         -0.          0.         -0.
  -0.          0.02199238 -0.00033035 -0.          0.4005386  -0.0361079   0.         -0.         -0.00484107  0.00806167  0.          0.154023   -0.63372685
  -0.         -0.        ]
 [ 0.03326641 -0.0198814  -0.4239109   0.00947148 -0.         -0.          0.67296938 -0.          0.          0.01998614  0.35390949  0.03687524 -0.
  -0.          0.         -0.          0.45448598  0.          0.         -0.          0.          0.          0.          0.0045702  -0.         -0.
  -0.17952815  0.00047276]
 [ 0.01608792  0.00080565  0.05792702 -0.00842766 -0.         -0.          0.20196451  0.          0.         -0.00187122 -0.3893149  -0.04261862  0.
  -0.          0.          0.          0.38087793 -0.          0.          0.         -0.          0.         -0.          0.00283674  0.          0.
   0.8105929  -0.00120809]
 [ 0.          0.          0.         -0.          0.00287994  0.0161478   0.         -0.31736478 -0.27168552  0.         -0.         -0.          0.
  -0.          0.00000631 -0.02051845  0.         -0.03937689 -0.52701512 -0.          0.         -0.01166826 -0.00676572 -0.         -0.7201434  -0.16337873
   0.         -0.        ]
 [-0.          0.          0.         -0.          0.0161478  -0.00287994 -0.          0.27168552 -0.31736478  0.          0.         -0.          0.
   0.         -0.02051845 -0.00000631 -0.         -0.52701512  0.03937689  0.          0.          0.00676572 -0.01166826 -0.          0.16337873 -0.7201434
  -0.         -0.        ]
 [ 0.01548369 -0.36065667  0.02321865  0.26941127 -0.          0.          0.00293417 -0.         -0.         -0.13015523 -0.00983374  0.06550521  0.
   0.         -0.          0.          0.00075475 -0.         -0.          0.         -0.         -0.          0.          0.09811471 -0.         -0.
  -0.00051145  0.87498659]
 [ 0.01702392 -0.61160105  0.0442979   0.51818971 -0.         -0.          0.00254564 -0.         -0.          0.1034312  -0.04300843  0.35061468 -0.
   0.         -0.         -0.         -0.00201664 -0.         -0.         -0.          0.          0.          0.          0.15602556 -0.         -0.
  -0.00038269 -0.44197104]
 [ 0.00279152  0.05263288 -0.00630093 -0.20314983 -0.         -0.         -0.01581711  0.         -0.          0.83026817 -0.02548603  0.11354705  0.
  -0.          0.         -0.         -0.00711478 -0.          0.          0.          0.          0.          0.          0.48130026  0.         -0.
  -0.00030748  0.14516852]]
grids:  [0.06237655 0.31939555 0.74529195 1.28265786 1.85893479 2.39630071 2.8221971  3.07921611] 
weights:  [0.15900941 0.34931531 0.49276925 0.56970235 0.56970235 0.49276925 0.34931531 0.15900941]
S = 0.0, Sz = 0.0
Wigner small d:  1
value : [1. 1. 1. 1. 1. 1. 1. 1.]
**** Start Cycle 1 ****
dm (ortho)
[[[ 0.97382146  0.          0.         ...  0.01527968  0.01679961  0.00275474]
  [ 0.          0.          0.         ...  0.          0.          0.        ]
  [ 0.          0.          0.         ...  0.          0.          0.        ]
  ...
  [ 0.01527968  0.          0.         ...  0.00023974  0.00026359  0.00004322]
  [ 0.01679961  0.          0.         ...  0.00026359  0.00028981  0.00004752]
  [ 0.00275474  0.          0.         ...  0.00004322  0.00004752  0.00000779]]

 [[ 0.97382146 -0.         -0.         ... -0.01527968 -0.01679961 -0.00275474]
  [-0.          0.          0.         ...  0.          0.          0.        ]
  [-0.          0.          0.         ...  0.          0.          0.        ]
  ...
  [-0.01527968  0.          0.         ...  0.00023974  0.00026359  0.00004322]
  [-0.01679961  0.          0.         ...  0.00026359  0.00028981  0.00004752]
  [-0.00275474  0.          0.         ...  0.00004322  0.00004752  0.00000779]]]
Fock (ortho)
 (array([[-0.62041777, -0.        , -0.        ,  0.08955896, -0.21078391, -0.        , -0.        , -0.        , -0.        , -0.1062375 ,  0.        ,
        -0.        ,  0.00228876, -0.25905467,  0.        ,  0.        , -0.        , -0.        ,  0.00759373,  0.        ,  0.        , -0.04650463,
         0.13893446,  0.        , -0.        , -0.0112458 , -0.00029335, -0.00157972],
       [-0.        ,  1.4610099 ,  0.        ,  0.        , -0.        ,  0.        ,  0.        ,  0.00619211,  0.01473636, -0.        , -0.35790292,
         1.00061879, -0.        ,  0.        , -0.        ,  0.        , -0.14966073, -0.62518581, -0.        ,  0.0023352 , -0.00106488, -0.        ,
         0.        ,  0.00422516, -0.00184903,  0.        , -0.        , -0.        ],
       [-0.        ,  0.        ,  1.4610099 ,  0.        , -0.        , -0.        , -0.        ,  0.01473636, -0.00619211,  0.        ,  1.00061879,
         0.35790292, -0.        ,  0.        ,  0.        ,  0.        ,  0.62518581, -0.14966073, -0.        ,  0.00106488,  0.0023352 , -0.        ,
         0.        ,  0.00184903,  0.00422516, -0.        , -0.        ,  0.        ],
       [ 0.08955896,  0.        ,  0.        ,  0.75091156,  0.00544181,  0.        , -0.        ,  0.        ,  0.        ,  0.02881069, -0.        ,
         0.        ,  0.53785591,  0.01725562,  0.        ,  0.        ,  0.        , -0.        ,  0.35407185,  0.        , -0.        , -0.00275008,
        -0.0089691 ,  0.        ,  0.        ,  0.14105061, -0.04834653,  0.1534319 ],
       [-0.21078391, -0.        , -0.        ,  0.00544181,  1.81384711,  0.        , -0.        ,  0.        ,  0.        ,  0.43924763, -0.        ,
         0.        , -0.01246653,  1.39343181,  0.        , -0.        ,  0.        ,  0.        , -0.00185274, -0.        , -0.        ,  0.50442307,
        -0.09240929, -0.        ,  0.        ,  0.00661846, -0.00303054,  0.00021216],
       [-0.        ,  0.        , -0.        ,  0.        ,  0.        ,  3.17874803, -0.        ,  0.        ,  0.        , -0.        ,  0.        ,
         0.        ,  0.        , -0.        ,  0.        , -0.00708747,  0.        , -0.        , -0.        , -0.        , -0.        , -0.        ,
         0.        ,  0.        , -0.        ,  0.        ,  0.        ,  0.        ],
       [-0.        ,  0.        , -0.        , -0.        , -0.        , -0.        ,  3.17874803,  0.        ,  0.        , -0.        ,  0.        ,
         0.        ,  0.        ,  0.        ,  0.00708747,  0.        ,  0.        ,  0.        , -0.        , -0.        , -0.        ,  0.        ,
        -0.        ,  0.        , -0.        , -0.        ,  0.        , -0.        ],
       [-0.        ,  0.00619211,  0.01473636,  0.        ,  0.        ,  0.        ,  0.        ,  2.7207758 ,  0.        , -0.        , -0.00516157,
        -0.00472523,  0.        , -0.        ,  0.        , -0.        ,  0.00712709, -0.00522661, -0.        ,  1.00377784,  0.92608915,  0.        ,
         0.        , -0.265356  , -0.2524561 , -0.        , -0.        , -0.        ],
       [-0.        ,  0.01473636, -0.00619211,  0.        ,  0.        ,  0.        ,  0.        ,  0.        ,  2.7207758 ,  0.        ,  0.00472523,
        -0.00516157, -0.        , -0.        , -0.        , -0.        , -0.00522661, -0.00712709, -0.        ,  0.92608915, -1.00377784,  0.        ,
         0.        , -0.2524561 ,  0.265356  ,  0.        , -0.        ,  0.        ],
       [-0.1062375 , -0.        ,  0.        ,  0.02881069,  0.43924763, -0.        , -0.        , -0.        ,  0.        ,  2.12244249,  0.        ,
         0.        , -0.00031397, -0.56807793,  0.        ,  0.        ,  0.        , -0.        ,  0.01423859, -0.        , -0.        ,  0.79203961,
         0.83222074,  0.        , -0.        , -0.00762471,  0.00144739, -0.00060627],
       [ 0.        , -0.35790292,  1.00061879, -0.        , -0.        ,  0.        ,  0.        , -0.00516157,  0.00472523,  0.        ,  3.25376608,
         0.        ,  0.        ,  0.        , -0.        , -0.        , -0.74057998, -0.08069769,  0.        ,  0.00037053,  0.00438289,  0.        ,
        -0.        ,  0.00014606,  0.0021131 , -0.        , -0.        ,  0.        ],
       [-0.        ,  1.00061879,  0.35790292,  0.        ,  0.        ,  0.        ,  0.        , -0.00472523, -0.00516157,  0.        ,  0.        ,
         3.25376608,  0.        ,  0.        , -0.        , -0.        , -0.08069769,  0.74057998,  0.        ,  0.00438289, -0.00037053, -0.        ,
         0.        ,  0.0021131 , -0.00014606,  0.        ,  0.        ,  0.        ],
       [ 0.00228876, -0.        , -0.        ,  0.53785591, -0.01246653,  0.        ,  0.        ,  0.        , -0.        , -0.00031397,  0.        ,
         0.        ,  3.24761659,  0.00204604, -0.        ,  0.        , -0.        ,  0.        , -1.11441432, -0.        ,  0.        ,  0.00427978,
        -0.00502196,  0.        ,  0.        , -0.71493319,  0.29093004,  0.80677934],
       [-0.25905467,  0.        ,  0.        ,  0.01725562,  1.39343181, -0.        ,  0.        , -0.        , -0.        , -0.56807793,  0.        ,
         0.        ,  0.00204604,  2.8291727 , -0.        ,  0.        ,  0.        , -0.        ,  0.00606046, -0.        , -0.        ,  0.98063837,
        -1.53904887, -0.        ,  0.        ,  0.00264923, -0.00146577, -0.00052801],
       [ 0.        , -0.        ,  0.        ,  0.        ,  0.        ,  0.        ,  0.00708747,  0.        , -0.        ,  0.        , -0.        ,
        -0.        , -0.        , -0.        ,  4.20697866, -0.        , -0.        , -0.        , -0.        , -0.        , -0.        ,  0.        ,
         0.        ,  0.        ,  0.        ,  0.        , -0.        ,  0.        ],
       [ 0.        ,  0.        ,  0.        ,  0.        , -0.        , -0.00708747,  0.        , -0.        , -0.        ,  0.        , -0.        ,
        -0.        ,  0.        ,  0.        , -0.        ,  4.20697866, -0.        ,  0.        , -0.        , -0.        ,  0.        , -0.        ,
        -0.        ,  0.        , -0.        ,  0.        , -0.        , -0.        ],
       [-0.        , -0.14966073,  0.62518581,  0.        ,  0.        ,  0.        ,  0.        ,  0.00712709, -0.00522661,  0.        , -0.74057998,
        -0.08069769, -0.        ,  0.        , -0.        , -0.        ,  3.64666693, -0.        , -0.        ,  0.0008271 ,  0.00423494,  0.        ,
         0.        , -0.00013782, -0.00076806, -0.        , -0.        , -0.        ],
       [-0.        , -0.62518581, -0.14966073, -0.        ,  0.        , -0.        ,  0.        , -0.00522661, -0.00712709, -0.        , -0.08069769,
         0.74057998,  0.        , -0.        , -0.        ,  0.        , -0.        ,  3.64666693,  0.        , -0.00423494,  0.0008271 ,  0.        ,
         0.        ,  0.00076806, -0.00013782,  0.        ,  0.        ,  0.        ],
       [ 0.00759373, -0.        , -0.        ,  0.35407185, -0.00185274, -0.        , -0.        , -0.        , -0.        ,  0.01423859,  0.        ,
         0.        , -1.11441432,  0.00606046, -0.        , -0.        , -0.        ,  0.        ,  2.89185761, -0.        , -0.        ,  0.00632134,
        -0.00304177,  0.        ,  0.        , -0.36291909, -0.87141264, -1.05174615],
       [ 0.        ,  0.0023352 ,  0.00106488,  0.        , -0.        , -0.        , -0.        ,  1.00377784,  0.92608915, -0.        ,  0.00037053,
         0.00438289, -0.        , -0.        , -0.        , -0.        ,  0.0008271 , -0.00423494, -0.        ,  3.75900663, -0.        ,  0.        ,
        -0.        ,  1.9464465 ,  0.0298357 ,  0.        , -0.        , -0.        ],
       [ 0.        , -0.00106488,  0.0023352 , -0.        , -0.        , -0.        , -0.        ,  0.92608915, -1.00377784, -0.        ,  0.00438289,
        -0.00037053,  0.        , -0.        , -0.        ,  0.        ,  0.00423494,  0.0008271 , -0.        , -0.        ,  3.75900663,  0.        ,
         0.        , -0.0298357 ,  1.9464465 ,  0.        , -0.        , -0.        ],
       [-0.04650463, -0.        , -0.        , -0.00275008,  0.50442307, -0.        ,  0.        ,  0.        ,  0.        ,  0.79203961,  0.        ,
        -0.        ,  0.00427978,  0.98063837,  0.        , -0.        ,  0.        ,  0.        ,  0.00632134,  0.        ,  0.        ,  1.82390742,
        -0.46819851, -0.        ,  0.        , -0.00224558, -0.00054254, -0.00180675],
       [ 0.13893446,  0.        ,  0.        , -0.0089691 , -0.09240929,  0.        , -0.        ,  0.        ,  0.        ,  0.83222074, -0.        ,
         0.        , -0.00502196, -1.53904887,  0.        , -0.        ,  0.        ,  0.        , -0.00304177, -0.        ,  0.        , -0.46819851,
         5.12626371,  0.        , -0.        ,  0.00431341, -0.00049203,  0.00023147],
       [ 0.        ,  0.00422516,  0.00184903,  0.        , -0.        ,  0.        ,  0.        , -0.265356  , -0.2524561 ,  0.        ,  0.00014606,
         0.0021131 ,  0.        , -0.        ,  0.        ,  0.        , -0.00013782,  0.00076806,  0.        ,  1.9464465 , -0.0298357 , -0.        ,
         0.        ,  4.6889916 ,  0.        ,  0.        ,  0.        , -0.        ],
       [-0.        , -0.00184903,  0.00422516,  0.        ,  0.        , -0.        , -0.        , -0.2524561 ,  0.265356  , -0.        ,  0.0021131 ,
        -0.00014606,  0.        ,  0.        ,  0.        , -0.        , -0.00076806, -0.00013782,  0.        ,  0.0298357 ,  1.9464465 ,  0.        ,
        -0.        ,  0.        ,  4.6889916 ,  0.        ,  0.        ,  0.        ],
       [-0.0112458 ,  0.        , -0.        ,  0.14105061,  0.00661846,  0.        , -0.        , -0.        ,  0.        , -0.00762471, -0.        ,
         0.        , -0.71493319,  0.00264923,  0.        ,  0.        , -0.        ,  0.        , -0.36291909,  0.        ,  0.        , -0.00224558,
         0.00431341,  0.        ,  0.        ,  6.35251859, -2.87531076,  1.07605023],
       [-0.00029335, -0.        , -0.        , -0.04834653, -0.00303054,  0.        ,  0.        , -0.        , -0.        ,  0.00144739, -0.        ,
         0.        ,  0.29093004, -0.00146577, -0.        , -0.        , -0.        ,  0.        , -0.87141264, -0.        , -0.        , -0.00054254,
        -0.00049203,  0.        ,  0.        , -2.87531076,  2.29226515,  0.01374164],
       [-0.00157972, -0.        ,  0.        ,  0.1534319 ,  0.00021216,  0.        , -0.        , -0.        ,  0.        , -0.00060627,  0.        ,
         0.        ,  0.80677934, -0.00052801,  0.        , -0.        , -0.        ,  0.        , -1.05174615, -0.        , -0.        , -0.00180675,
         0.00023147, -0.        ,  0.        ,  1.07605023,  0.01374164,  2.48747475]]), array([[-0.62041777,  0.        ,  0.        , -0.08955896, -0.21078391, -0.        , -0.        ,  0.        ,  0.        , -0.1062375 ,  0.        ,
        -0.        , -0.00228876, -0.25905467,  0.        , -0.        , -0.        ,  0.        , -0.00759373,  0.        ,  0.        , -0.04650463,
         0.13893446,  0.        , -0.        ,  0.0112458 ,  0.00029335,  0.00157972],
       [ 0.        ,  1.4610099 ,  0.        ,  0.        , -0.        ,  0.        ,  0.        , -0.00619211, -0.01473636,  0.        , -0.35790292,
         1.00061879, -0.        ,  0.        , -0.        ,  0.        , -0.14966073, -0.62518581, -0.        , -0.0023352 ,  0.00106488, -0.        ,
         0.        , -0.00422516,  0.00184903,  0.        , -0.        , -0.        ],
       [ 0.        ,  0.        ,  1.4610099 ,  0.        , -0.        , -0.        , -0.        , -0.01473636,  0.00619211,  0.        ,  1.00061879,
         0.35790292, -0.        ,  0.        ,  0.        ,  0.        ,  0.62518581, -0.14966073, -0.        , -0.00106488, -0.0023352 , -0.        ,
         0.        , -0.00184903, -0.00422516, -0.        , -0.        ,  0.        ],
       [-0.08955896,  0.        ,  0.        ,  0.75091156, -0.00544181,  0.        , -0.        ,  0.        ,  0.        , -0.02881069, -0.        ,
         0.        ,  0.53785591, -0.01725562,  0.        ,  0.        ,  0.        , -0.        ,  0.35407185,  0.        , -0.        ,  0.00275008,
         0.0089691 ,  0.        ,  0.        ,  0.14105061, -0.04834653,  0.1534319 ],
       [-0.21078391, -0.        , -0.        , -0.00544181,  1.81384711,  0.        , -0.        ,  0.        ,  0.        ,  0.43924763, -0.        ,
         0.        ,  0.01246653,  1.39343181,  0.        ,  0.        ,  0.        ,  0.        ,  0.00185274, -0.        , -0.        ,  0.50442307,
        -0.09240929, -0.        ,  0.        , -0.00661846,  0.00303054, -0.00021216],
       [-0.        ,  0.        , -0.        ,  0.        ,  0.        ,  3.17874803, -0.        ,  0.        ,  0.        , -0.        ,  0.        ,
         0.        ,  0.        , -0.        , -0.        ,  0.00708747,  0.        , -0.        , -0.        , -0.        , -0.        , -0.        ,
         0.        ,  0.        , -0.        ,  0.        ,  0.        ,  0.        ],
       [-0.        ,  0.        , -0.        , -0.        , -0.        , -0.        ,  3.17874803,  0.        , -0.        , -0.        ,  0.        ,
         0.        ,  0.        ,  0.        , -0.00708747, -0.        ,  0.        ,  0.        , -0.        , -0.        , -0.        ,  0.        ,
        -0.        ,  0.        , -0.        , -0.        ,  0.        , -0.        ],
       [ 0.        , -0.00619211, -0.01473636,  0.        ,  0.        ,  0.        ,  0.        ,  2.7207758 ,  0.        , -0.        ,  0.00516157,
         0.00472523,  0.        , -0.        ,  0.        , -0.        , -0.00712709,  0.00522661, -0.        ,  1.00377784,  0.92608915,  0.        ,
         0.        , -0.265356  , -0.2524561 , -0.        , -0.        , -0.        ],
       [ 0.        , -0.01473636,  0.00619211,  0.        ,  0.        ,  0.        , -0.        ,  0.        ,  2.7207758 ,  0.        , -0.00472523,
         0.00516157, -0.        , -0.        , -0.        , -0.        ,  0.00522661,  0.00712709, -0.        ,  0.92608915, -1.00377784,  0.        ,
         0.        , -0.2524561 ,  0.265356  ,  0.        , -0.        ,  0.        ],
       [-0.1062375 ,  0.        ,  0.        , -0.02881069,  0.43924763, -0.        , -0.        , -0.        ,  0.        ,  2.12244249,  0.        ,
         0.        ,  0.00031397, -0.56807793,  0.        , -0.        ,  0.        , -0.        , -0.01423859, -0.        , -0.        ,  0.79203961,
         0.83222074,  0.        , -0.        ,  0.00762471, -0.00144739,  0.00060627],
       [ 0.        , -0.35790292,  1.00061879, -0.        , -0.        ,  0.        ,  0.        ,  0.00516157, -0.00472523,  0.        ,  3.25376608,
         0.        ,  0.        ,  0.        , -0.        , -0.        , -0.74057998, -0.08069769,  0.        , -0.00037053, -0.00438289,  0.        ,
        -0.        , -0.00014606, -0.0021131 , -0.        , -0.        ,  0.        ],
       [-0.        ,  1.00061879,  0.35790292,  0.        ,  0.        ,  0.        ,  0.        ,  0.00472523,  0.00516157,  0.        ,  0.        ,
         3.25376608,  0.        ,  0.        , -0.        , -0.        , -0.08069769,  0.74057998,  0.        , -0.00438289,  0.00037053, -0.        ,
         0.        , -0.0021131 ,  0.00014606,  0.        ,  0.        ,  0.        ],
       [-0.00228876, -0.        , -0.        ,  0.53785591,  0.01246653,  0.        ,  0.        ,  0.        , -0.        ,  0.00031397,  0.        ,
         0.        ,  3.24761659, -0.00204604, -0.        ,  0.        , -0.        ,  0.        , -1.11441432, -0.        ,  0.        , -0.00427978,
         0.00502196,  0.        ,  0.        , -0.71493319,  0.29093004,  0.80677934],
       [-0.25905467,  0.        ,  0.        , -0.01725562,  1.39343181, -0.        ,  0.        , -0.        , -0.        , -0.56807793,  0.        ,
         0.        , -0.00204604,  2.8291727 , -0.        , -0.        ,  0.        , -0.        , -0.00606046, -0.        , -0.        ,  0.98063837,
        -1.53904887, -0.        ,  0.        , -0.00264923,  0.00146577,  0.00052801],
       [ 0.        , -0.        ,  0.        ,  0.        ,  0.        , -0.        , -0.00708747,  0.        , -0.        ,  0.        , -0.        ,
        -0.        , -0.        , -0.        ,  4.20697866, -0.        , -0.        , -0.        , -0.        , -0.        , -0.        ,  0.        ,
         0.        ,  0.        ,  0.        ,  0.        , -0.        ,  0.        ],
       [-0.        ,  0.        ,  0.        ,  0.        ,  0.        ,  0.00708747, -0.        , -0.        , -0.        , -0.        , -0.        ,
        -0.        ,  0.        , -0.        , -0.        ,  4.20697866, -0.        ,  0.        , -0.        , -0.        ,  0.        ,  0.        ,
         0.        ,  0.        , -0.        ,  0.        , -0.        , -0.        ],
       [-0.        , -0.14966073,  0.62518581,  0.        ,  0.        ,  0.        ,  0.        , -0.00712709,  0.00522661,  0.        , -0.74057998,
        -0.08069769, -0.        ,  0.        , -0.        , -0.        ,  3.64666693, -0.        , -0.        , -0.0008271 , -0.00423494,  0.        ,
         0.        ,  0.00013782,  0.00076806, -0.        , -0.        , -0.        ],
       [ 0.        , -0.62518581, -0.14966073, -0.        ,  0.        , -0.        ,  0.        ,  0.00522661,  0.00712709, -0.        , -0.08069769,
         0.74057998,  0.        , -0.        , -0.        ,  0.        , -0.        ,  3.64666693,  0.        ,  0.00423494, -0.0008271 ,  0.        ,
         0.        , -0.00076806,  0.00013782,  0.        ,  0.        ,  0.        ],
       [-0.00759373, -0.        , -0.        ,  0.35407185,  0.00185274, -0.        , -0.        , -0.        , -0.        , -0.01423859,  0.        ,
         0.        , -1.11441432, -0.00606046, -0.        , -0.        , -0.        ,  0.        ,  2.89185761, -0.        , -0.        , -0.00632134,
         0.00304177,  0.        ,  0.        , -0.36291909, -0.87141264, -1.05174615],
       [ 0.        , -0.0023352 , -0.00106488,  0.        , -0.        , -0.        , -0.        ,  1.00377784,  0.92608915, -0.        , -0.00037053,
        -0.00438289, -0.        , -0.        , -0.        , -0.        , -0.0008271 ,  0.00423494, -0.        ,  3.75900663, -0.        ,  0.        ,
        -0.        ,  1.9464465 ,  0.0298357 ,  0.        , -0.        , -0.        ],
       [ 0.        ,  0.00106488, -0.0023352 , -0.        , -0.        , -0.        , -0.        ,  0.92608915, -1.00377784, -0.        , -0.00438289,
         0.00037053,  0.        , -0.        , -0.        ,  0.        , -0.00423494, -0.0008271 , -0.        , -0.        ,  3.75900663,  0.        ,
         0.        , -0.0298357 ,  1.9464465 ,  0.        , -0.        , -0.        ],
       [-0.04650463, -0.        , -0.        ,  0.00275008,  0.50442307, -0.        ,  0.        ,  0.        ,  0.        ,  0.79203961,  0.        ,
        -0.        , -0.00427978,  0.98063837,  0.        ,  0.        ,  0.        ,  0.        , -0.00632134,  0.        ,  0.        ,  1.82390742,
        -0.46819851, -0.        ,  0.        ,  0.00224558,  0.00054254,  0.00180675],
       [ 0.13893446,  0.        ,  0.        ,  0.0089691 , -0.09240929,  0.        , -0.        ,  0.        ,  0.        ,  0.83222074, -0.        ,
         0.        ,  0.00502196, -1.53904887,  0.        ,  0.        ,  0.        ,  0.        ,  0.00304177, -0.        ,  0.        , -0.46819851,
         5.12626371,  0.        , -0.        , -0.00431341,  0.00049203, -0.00023147],
       [ 0.        , -0.00422516, -0.00184903,  0.        , -0.        ,  0.        ,  0.        , -0.265356  , -0.2524561 ,  0.        , -0.00014606,
        -0.0021131 ,  0.        , -0.        ,  0.        ,  0.        ,  0.00013782, -0.00076806,  0.        ,  1.9464465 , -0.0298357 , -0.        ,
         0.        ,  4.6889916 ,  0.        ,  0.        ,  0.        , -0.        ],
       [-0.        ,  0.00184903, -0.00422516,  0.        ,  0.        , -0.        , -0.        , -0.2524561 ,  0.265356  , -0.        , -0.0021131 ,
         0.00014606,  0.        ,  0.        ,  0.        , -0.        ,  0.00076806,  0.00013782,  0.        ,  0.0298357 ,  1.9464465 ,  0.        ,
        -0.        ,  0.        ,  4.6889916 ,  0.        ,  0.        ,  0.        ],
       [ 0.0112458 ,  0.        , -0.        ,  0.14105061, -0.00661846,  0.        , -0.        , -0.        ,  0.        ,  0.00762471, -0.        ,
         0.        , -0.71493319, -0.00264923,  0.        ,  0.        , -0.        ,  0.        , -0.36291909,  0.        ,  0.        ,  0.00224558,
        -0.00431341,  0.        ,  0.        ,  6.35251859, -2.87531076,  1.07605023],
       [ 0.00029335, -0.        , -0.        , -0.04834653,  0.00303054,  0.        ,  0.        , -0.        , -0.        , -0.00144739, -0.        ,
         0.        ,  0.29093004,  0.00146577, -0.        , -0.        , -0.        ,  0.        , -0.87141264, -0.        , -0.        ,  0.00054254,
         0.00049203,  0.        ,  0.        , -2.87531076,  2.29226515,  0.01374164],
       [ 0.00157972, -0.        ,  0.        ,  0.1534319 , -0.00021216,  0.        , -0.        , -0.        ,  0.        ,  0.00060627,  0.        ,
         0.        ,  0.80677934,  0.00052801,  0.        , -0.        , -0.        ,  0.        , -1.05174615, -0.        , -0.        ,  0.00180675,
        -0.00023147, -0.        ,  0.        ,  1.07605023,  0.01374164,  2.48747475]]))
E(UHF) =    -1.979411
NO eigenvalue
[-1. -0. -0. -0. -0. -0. -0. -0. -0. -0. -0. -0. -0. -0. -0. -0.  0.  0.  0.  0.  0.  0.  0.  0.  0.  0.  0.  0.] [-1. -0. -0. -0. -0. -0. -0. -0. -0. -0. -0. -0. -0. -0.  0.  0.  0.  0.  0.  0.  0.  0.  0.  0.  0.  0.  0.  0.]
NO vec
[[ 0.98682393  0.          0.14729843 ...  0.          0.          0.        ]
 [ 0.          0.          0.06254101 ...  0.          0.          0.        ]
 [ 0.          0.          0.         ...  0.          0.          0.        ]
 ...
 [ 0.         -0.01548369  0.         ... -0.12418291 -0.00362449 -0.16743359]
 [ 0.         -0.01702392  0.         ...  0.12660267  0.14167219 -0.02326201]
 [ 0.         -0.00279152  0.         ...  0.0014618  -0.04791487 -0.02589349]]
dm(NO)
[[ 1.  0. -0. ...  0.  0.  0.]
 [ 0.  1.  0. ...  0.  0. -0.]
 [-0.  0.  0. ...  0.  0.  0.]
 ...
 [ 0.  0.  0. ... -0. -0. -0.]
 [ 0.  0.  0. ...  0.  0.  0.]
 [ 0. -0.  0. ... -0. -0. -0.]]
D(g) (NO)
[[ 0.99951369  0.03021409 -0.         ... -0.00178489 -0.00516859 -0.00236489]
 [-0.03021409  0.99951369 -0.00696321 ...  0.          0.         -0.        ]
 [-0.          0.00696321  0.99951369 ...  0.01310582  0.0221228   0.0056361 ]
 ...
 [ 0.00178489  0.         -0.01310582 ...  0.99951369 -0.          0.        ]
 [ 0.00516859  0.         -0.0221228  ... -0.          0.99951369  0.        ]
 [ 0.00236489 -0.         -0.0056361  ...  0.          0.          0.99951369]]
...
N(g) (NO)
[[ 0.99957316 -0.03021589]
 [ 0.03021589  0.99957316]]
...
P(g) (NO)
[[ 1.         -0.         -0.         ... -0.         -0.          0.        ]
 [ 0.          1.         -0.         ...  0.          0.         -0.        ]
 [ 0.0002104   0.00696023 -0.         ...  0.          0.         -0.        ]
 ...
 [ 0.00178412 -0.00005393 -0.         ... -0.         -0.          0.        ]
 [ 0.00516638 -0.00015617 -0.         ... -0.         -0.          0.        ]
 [ 0.00236388 -0.00007146 -0.         ... -0.         -0.          0.        ]]
...
Pg_ortho
[[ 0.97384998  0.          0.         ... -0.0000148  -0.00001627 -0.00000267]
 [ 0.          0.          0.         ...  0.          0.          0.        ]
 [ 0.          0.          0.         ...  0.          0.          0.        ]
 ...
 [-0.00093773 -0.         -0.         ...  0.0002393   0.0002631   0.00004314]
 [-0.00103101 -0.         -0.         ...  0.0002631   0.00028928  0.00004743]
 [-0.00016906 -0.         -0.         ...  0.00004314  0.00004743  0.00000778]]
G(g) (NO)
[[ 0.66471676 -0.00033461  0.02724962 ... -0.00018669 -0.00077717 -0.0002897 ]
 [ 0.00033461  0.66471676 -0.00091866 ... -0.09263524  0.06701481  0.00037309]
 [ 0.02715225 -0.00416727  1.04796121 ...  0.00037061 -0.00034129 -0.00006398]
 ...
 [-0.00110296 -0.0926093  -0.00002422 ...  0.84459664  0.05259402 -0.02323027]
 [-0.003395    0.06708972  0.00056051 ...  0.0525773   1.1717242   0.02409941]
 [-0.00128502  0.000404   -0.00000945 ... -0.02323389  0.02410567  1.20372331]]
...
C(NO)
[[-1.          0.         -0.         ...  0.          0.          0.        ]
 [ 0.         -1.          0.         ...  0.          0.          0.        ]
 [ 0.          0.         -0.56110063 ...  0.          0.          0.        ]
 ...
 [ 0.         -0.          0.         ... -0.0000563  -0.22385718 -0.18497839]
 [ 0.         -0.          0.         ... -0.00010745  0.09093353 -0.08867631]
 [ 0.          0.          0.         ...  0.00058222  0.06979625 -0.12001838]]
detC 1.0000000000000004
detNg [1.00005951 1.00154976 1.00817754 1.02239174 1.04089675 1.05605546 1.06342691 1.06511216]
xg [0.9999405  0.99845264 0.99188879 0.97809867 0.96071008 0.94691996 0.94035612 0.93886826]
ciS 1.9388087538965444
[[-1.32205876  0.         -0.07327059 ...  0.          0.          0.        ]
 [ 0.         -1.32205876  0.         ...  0.12594102 -0.05001833  0.01046963]
 [-0.07327059  0.         -0.37076823 ...  0.          0.          0.        ]
 ...
 [ 0.          0.12594102  0.         ...  1.00503286  0.09091099 -0.02887367]
 [ 0.         -0.05001833  0.         ...  0.09091099  0.1670481  -0.0734691 ]
 [ 0.          0.01046963  0.         ... -0.02887367 -0.0734691   0.33717106]]
ciH -3.870240704122953
S2 = 0.000000
X(g)
[[ 2.         -0.          0.0002104  ... -0.00178412 -0.00516638 -0.00236388]
 [ 0.          2.         -0.00696023 ... -0.00005393 -0.00015617 -0.00007146]
 [ 0.0002104   0.00696023  0.         ...  0.          0.          0.        ]
 ...
 [ 0.00178412 -0.00005393  0.         ...  0.          0.          0.        ]
 [ 0.00516638 -0.00015617  0.         ...  0.          0.          0.        ]
 [ 0.00236388 -0.00007146  0.         ...  0.          0.          0.        ]]
X(g) int
[[ 2.         -0.          0.11159426 ... -0.02318699 -0.0671438  -0.03072173]
 [ 0.          2.         -0.09045721 ... -0.02860508 -0.08283324 -0.03790045]
 [ 0.11159426  0.09045721  0.         ...  0.          0.          0.        ]
 ...
 [ 0.02318699 -0.02860508  0.         ...  0.          0.          0.        ]
 [ 0.0671438  -0.08283324  0.         ...  0.          0.          0.        ]
 [ 0.03072173 -0.03790045  0.         ...  0.          0.          0.        ]]
Hsp + Hph =  -1.9961951875576642
Feff (mod,ortho)
[[-0.60436389 -0.         -0.         ...  0.          0.          0.        ]
 [-0.          1.4610099   0.         ...  0.          0.          0.        ]
 [-0.          0.          1.4610099  ...  0.          0.          0.        ]
 ...
 [ 0.          0.          0.         ...  6.35208117 -2.87552794  1.07598181]
 [ 0.          0.          0.         ... -2.87552794  2.29231635  0.01371397]
 [ 0.          0.          0.         ...  1.07598181  0.01371397  2.4874643 ]]
E(SUHF) =     -1.11423317
e_a, e_b
[-0.65966351  0.17686931  0.28663905  0.67488583  0.6897058   0.6897058   1.11492035  1.12413759  1.12413759  1.56016684  2.28530333  2.47291259  3.17869918
  3.17869918  3.43968701  3.43968701  3.68012686  3.72176039  3.72176039  4.20702751  4.20702751  4.23166464  4.23166464  5.05280223  6.32326152  6.32326152
  6.38228679  8.09061025] [-0.65966351  0.17686931  0.28663905  0.67488583  0.6897058   0.6897058   1.11492035  1.12413759  1.12413759  1.56016684  2.28530333  2.47291259  3.17869918
  3.17869918  3.43968701  3.43968701  3.68012686  3.72176039  3.72176039  4.20702751  4.20702751  4.23166464  4.23166464  5.05280223  6.32326152  6.32326152
  6.38228679  8.09061025]
P_a, P_b
[[ 0.96849933  0.          0.         -0.12841482  0.03904162 -0.          0.          0.          0.          0.06276181 -0.          0.          0.0225568
   0.07141871  0.          0.          0.         -0.          0.02085674  0.          0.         -0.04114232 -0.01610161 -0.          0.          0.01605128
   0.01708617  0.00295602]
 [ 0.          0.          0.         -0.          0.         -0.          0.          0.          0.          0.         -0.          0.          0.
   0.          0.          0.          0.         -0.          0.          0.          0.         -0.         -0.         -0.          0.          0.
   0.          0.        ]
 [ 0.          0.          0.         -0.          0.         -0.          0.          0.          0.          0.         -0.          0.          0.
   0.          0.          0.          0.         -0.          0.          0.          0.         -0.         -0.         -0.          0.          0.
   0.          0.        ]
 [-0.12841482 -0.         -0.          0.01702672 -0.00517659  0.         -0.         -0.         -0.         -0.00832169  0.         -0.         -0.00299084
  -0.00946952 -0.         -0.         -0.          0.         -0.00276543 -0.         -0.          0.00545512  0.00213494  0.         -0.         -0.00212826
  -0.00226548 -0.00039194]
 [ 0.03904162  0.          0.         -0.00517659  0.00157382 -0.          0.          0.          0.          0.00253002 -0.          0.          0.0009093
   0.00287899  0.          0.          0.         -0.          0.00084077  0.          0.         -0.00165851 -0.00064908 -0.          0.          0.00064705
   0.00068877  0.00011916]
 [-0.         -0.         -0.          0.         -0.          0.         -0.         -0.         -0.         -0.          0.         -0.         -0.
  -0.         -0.         -0.         -0.          0.         -0.         -0.         -0.          0.          0.          0.         -0.         -0.
  -0.         -0.        ]
 [ 0.          0.          0.         -0.          0.         -0.          0.          0.          0.          0.         -0.          0.          0.
   0.          0.          0.          0.         -0.          0.          0.          0.         -0.         -0.         -0.          0.          0.
   0.          0.        ]
 [ 0.          0.          0.         -0.          0.         -0.          0.          0.          0.          0.         -0.          0.          0.
   0.          0.          0.          0.         -0.          0.          0.          0.         -0.         -0.         -0.          0.          0.
   0.          0.        ]
 [ 0.          0.          0.         -0.          0.         -0.          0.          0.          0.          0.         -0.          0.          0.
   0.          0.          0.          0.         -0.          0.          0.          0.         -0.         -0.         -0.          0.          0.
   0.          0.        ]
 [ 0.06276181  0.          0.         -0.00832169  0.00253002 -0.          0.          0.          0.          0.00406716 -0.          0.          0.00146175
   0.00462816  0.          0.          0.         -0.          0.00135158  0.          0.         -0.00266615 -0.00104344 -0.          0.          0.00104017
   0.00110724  0.00019156]
 [-0.         -0.         -0.          0.         -0.          0.         -0.         -0.         -0.         -0.          0.         -0.         -0.
  -0.         -0.         -0.         -0.          0.         -0.         -0.         -0.          0.          0.          0.         -0.         -0.
  -0.         -0.        ]
 [ 0.          0.          0.         -0.          0.         -0.          0.          0.          0.          0.         -0.          0.          0.
   0.          0.          0.          0.         -0.          0.          0.          0.         -0.         -0.         -0.          0.          0.
   0.          0.        ]
 [ 0.0225568   0.          0.         -0.00299084  0.0009093  -0.          0.          0.          0.          0.00146175 -0.          0.          0.00052536
   0.00166338  0.          0.          0.         -0.          0.00048576  0.          0.         -0.00095822 -0.00037501 -0.          0.          0.00037384
   0.00039794  0.00006885]
 [ 0.07141871  0.          0.         -0.00946952  0.00287899 -0.          0.          0.          0.          0.00462816 -0.          0.          0.00166338
   0.00526653  0.          0.          0.         -0.          0.00153801  0.          0.         -0.0030339  -0.00118736 -0.          0.          0.00118365
   0.00125996  0.00021798]
 [ 0.          0.          0.         -0.          0.         -0.          0.          0.          0.          0.         -0.          0.          0.
   0.          0.          0.          0.         -0.          0.          0.          0.         -0.         -0.         -0.          0.          0.
   0.          0.        ]
 [ 0.          0.          0.         -0.          0.         -0.          0.          0.          0.          0.         -0.          0.          0.
   0.          0.          0.          0.         -0.          0.          0.          0.         -0.         -0.         -0.          0.          0.
   0.          0.        ]
 [ 0.          0.          0.         -0.          0.         -0.          0.          0.          0.          0.         -0.          0.          0.
   0.          0.          0.          0.         -0.          0.          0.          0.         -0.         -0.         -0.          0.          0.
   0.          0.        ]
 [-0.         -0.         -0.          0.         -0.          0.         -0.         -0.         -0.         -0.          0.         -0.         -0.
  -0.         -0.         -0.         -0.          0.         -0.         -0.         -0.          0.          0.          0.         -0.         -0.
  -0.         -0.        ]
 [ 0.02085674  0.          0.         -0.00276543  0.00084077 -0.          0.          0.          0.          0.00135158 -0.          0.          0.00048576
   0.00153801  0.          0.          0.         -0.          0.00044915  0.          0.         -0.000886   -0.00034675 -0.          0.          0.00034567
   0.00036795  0.00006366]
 [ 0.          0.          0.         -0.          0.         -0.          0.          0.          0.          0.         -0.          0.          0.
   0.          0.          0.          0.         -0.          0.          0.          0.         -0.         -0.         -0.          0.          0.
   0.          0.        ]
 [ 0.          0.          0.         -0.          0.         -0.          0.          0.          0.          0.         -0.          0.          0.
   0.          0.          0.          0.         -0.          0.          0.          0.         -0.         -0.         -0.          0.          0.
   0.          0.        ]
 [-0.04114232 -0.         -0.          0.00545512 -0.00165851  0.         -0.         -0.         -0.         -0.00266615  0.         -0.         -0.00095822
  -0.0030339  -0.         -0.         -0.          0.         -0.000886   -0.         -0.          0.00174775  0.000684    0.         -0.         -0.00068187
  -0.00072583 -0.00012557]
 [-0.01610161 -0.         -0.          0.00213494 -0.00064908  0.         -0.         -0.         -0.         -0.00104344  0.         -0.         -0.00037501
  -0.00118736 -0.         -0.         -0.          0.         -0.00034675 -0.         -0.          0.000684    0.00026769  0.         -0.         -0.00026686
  -0.00028406 -0.00004914]
 [-0.         -0.         -0.          0.         -0.          0.         -0.         -0.         -0.         -0.          0.         -0.         -0.
  -0.         -0.         -0.         -0.          0.         -0.         -0.         -0.          0.          0.          0.         -0.         -0.
  -0.         -0.        ]
 [ 0.          0.          0.         -0.          0.         -0.          0.          0.          0.          0.         -0.          0.          0.
   0.          0.          0.          0.         -0.          0.          0.          0.         -0.         -0.         -0.          0.          0.
   0.          0.        ]
 [ 0.01605128  0.          0.         -0.00212826  0.00064705 -0.          0.          0.          0.          0.00104017 -0.          0.          0.00037384
   0.00118365  0.          0.          0.         -0.          0.00034567  0.          0.         -0.00068187 -0.00026686 -0.          0.          0.00026602
   0.00028318  0.00004899]
 [ 0.01708617  0.          0.         -0.00226548  0.00068877 -0.          0.          0.          0.          0.00110724 -0.          0.          0.00039794
   0.00125996  0.          0.          0.         -0.          0.00036795  0.          0.         -0.00072583 -0.00028406 -0.          0.          0.00028318
   0.00030143  0.00005215]
 [ 0.00295602  0.          0.         -0.00039194  0.00011916 -0.          0.          0.          0.          0.00019156 -0.          0.          0.00006885
   0.00021798  0.          0.          0.         -0.          0.00006366  0.          0.         -0.00012557 -0.00004914 -0.          0.          0.00004899
   0.00005215  0.00000902]] 
 [[ 0.96849933 -0.         -0.          0.12841482  0.03904162 -0.         -0.         -0.         -0.          0.06276181 -0.         -0.         -0.0225568
   0.07141871  0.         -0.          0.          0.         -0.02085674  0.          0.         -0.04114232 -0.01610161 -0.          0.         -0.01605128
  -0.01708617 -0.00295602]
 [-0.          0.          0.         -0.         -0.          0.          0.          0.          0.         -0.          0.          0.          0.
  -0.         -0.          0.         -0.         -0.          0.         -0.         -0.          0.          0.          0.         -0.          0.
   0.          0.        ]
 [-0.          0.          0.         -0.         -0.          0.          0.          0.          0.         -0.          0.          0.          0.
  -0.         -0.          0.         -0.         -0.          0.         -0.         -0.          0.          0.          0.         -0.          0.
   0.          0.        ]
 [ 0.12841482 -0.         -0.          0.01702672  0.00517659 -0.         -0.         -0.         -0.          0.00832169 -0.         -0.         -0.00299084
   0.00946952  0.         -0.          0.          0.         -0.00276543  0.          0.         -0.00545512 -0.00213494 -0.          0.         -0.00212826
  -0.00226548 -0.00039194]
 [ 0.03904162 -0.         -0.          0.00517659  0.00157382 -0.         -0.         -0.         -0.          0.00253002 -0.         -0.         -0.0009093
   0.00287899  0.         -0.          0.          0.         -0.00084077  0.          0.         -0.00165851 -0.00064908 -0.          0.         -0.00064705
  -0.00068877 -0.00011916]
 [-0.          0.          0.         -0.         -0.          0.          0.          0.          0.         -0.          0.          0.          0.
  -0.         -0.          0.         -0.         -0.          0.         -0.         -0.          0.          0.          0.         -0.          0.
   0.          0.        ]
 [-0.          0.          0.         -0.         -0.          0.          0.          0.          0.         -0.          0.          0.          0.
  -0.         -0.          0.         -0.         -0.          0.         -0.         -0.          0.          0.          0.         -0.          0.
   0.          0.        ]
 [-0.          0.          0.         -0.         -0.          0.          0.          0.          0.         -0.          0.          0.          0.
  -0.         -0.          0.         -0.         -0.          0.         -0.         -0.          0.          0.          0.         -0.          0.
   0.          0.        ]
 [-0.          0.          0.         -0.         -0.          0.          0.          0.          0.         -0.          0.          0.          0.
  -0.         -0.          0.         -0.         -0.          0.         -0.         -0.          0.          0.          0.         -0.          0.
   0.          0.        ]
 [ 0.06276181 -0.         -0.          0.00832169  0.00253002 -0.         -0.         -0.         -0.          0.00406716 -0.         -0.         -0.00146175
   0.00462816  0.         -0.          0.          0.         -0.00135158  0.          0.         -0.00266615 -0.00104344 -0.          0.         -0.00104017
  -0.00110724 -0.00019156]
 [-0.          0.          0.         -0.         -0.          0.          0.          0.          0.         -0.          0.          0.          0.
  -0.         -0.          0.         -0.         -0.          0.         -0.         -0.          0.          0.          0.         -0.          0.
   0.          0.        ]
 [-0.          0.          0.         -0.         -0.          0.          0.          0.          0.         -0.          0.          0.          0.
  -0.         -0.          0.         -0.         -0.          0.         -0.         -0.          0.          0.          0.         -0.          0.
   0.          0.        ]
 [-0.0225568   0.          0.         -0.00299084 -0.0009093   0.          0.          0.          0.         -0.00146175  0.          0.          0.00052536
  -0.00166338 -0.          0.         -0.         -0.          0.00048576 -0.         -0.          0.00095822  0.00037501  0.         -0.          0.00037384
   0.00039794  0.00006885]
 [ 0.07141871 -0.         -0.          0.00946952  0.00287899 -0.         -0.         -0.         -0.          0.00462816 -0.         -0.         -0.00166338
   0.00526653  0.         -0.          0.          0.         -0.00153801  0.          0.         -0.0030339  -0.00118736 -0.          0.         -0.00118365
  -0.00125996 -0.00021798]
 [ 0.         -0.         -0.          0.          0.         -0.         -0.         -0.         -0.          0.         -0.         -0.         -0.
   0.          0.         -0.          0.          0.         -0.          0.          0.         -0.         -0.         -0.          0.         -0.
  -0.         -0.        ]
 [-0.          0.          0.         -0.         -0.          0.          0.          0.          0.         -0.          0.          0.          0.
  -0.         -0.          0.         -0.         -0.          0.         -0.         -0.          0.          0.          0.         -0.          0.
   0.          0.        ]
 [ 0.         -0.         -0.          0.          0.         -0.         -0.         -0.         -0.          0.         -0.         -0.         -0.
   0.          0.         -0.          0.          0.         -0.          0.          0.         -0.         -0.         -0.          0.         -0.
  -0.         -0.        ]
 [ 0.         -0.         -0.          0.          0.         -0.         -0.         -0.         -0.          0.         -0.         -0.         -0.
   0.          0.         -0.          0.          0.         -0.          0.          0.         -0.         -0.         -0.          0.         -0.
  -0.         -0.        ]
 [-0.02085674  0.          0.         -0.00276543 -0.00084077  0.          0.          0.          0.         -0.00135158  0.          0.          0.00048576
  -0.00153801 -0.          0.         -0.         -0.          0.00044915 -0.         -0.          0.000886    0.00034675  0.         -0.          0.00034567
   0.00036795  0.00006366]
 [ 0.         -0.         -0.          0.          0.         -0.         -0.         -0.         -0.          0.         -0.         -0.         -0.
   0.          0.         -0.          0.          0.         -0.          0.          0.         -0.         -0.         -0.          0.         -0.
  -0.         -0.        ]
 [ 0.         -0.         -0.          0.          0.         -0.         -0.         -0.         -0.          0.         -0.         -0.         -0.
   0.          0.         -0.          0.          0.         -0.          0.          0.         -0.         -0.         -0.          0.         -0.
  -0.         -0.        ]
 [-0.04114232  0.          0.         -0.00545512 -0.00165851  0.          0.          0.          0.         -0.00266615  0.          0.          0.00095822
  -0.0030339  -0.          0.         -0.         -0.          0.000886   -0.         -0.          0.00174775  0.000684    0.         -0.          0.00068187
   0.00072583  0.00012557]
 [-0.01610161  0.          0.         -0.00213494 -0.00064908  0.          0.          0.          0.         -0.00104344  0.          0.          0.00037501
  -0.00118736 -0.          0.         -0.         -0.          0.00034675 -0.         -0.          0.000684    0.00026769  0.         -0.          0.00026686
   0.00028406  0.00004914]
 [-0.          0.          0.         -0.         -0.          0.          0.          0.          0.         -0.          0.          0.          0.
  -0.         -0.          0.         -0.         -0.          0.         -0.         -0.          0.          0.          0.         -0.          0.
   0.          0.        ]
 [ 0.         -0.         -0.          0.          0.         -0.         -0.         -0.         -0.          0.         -0.         -0.         -0.
   0.          0.         -0.          0.          0.         -0.          0.          0.         -0.         -0.         -0.          0.         -0.
  -0.         -0.        ]
[...]

 [[-0.46825771  0.          0.         ...  0.10375991 -0.0343214   0.00448878]
  [ 0.          1.49929744  0.         ...  0.         -0.         -0.        ]
  [ 0.          0.          1.49929744 ... -0.         -0.          0.        ]
  ...
  [ 0.10375991  0.         -0.         ...  6.39676494 -2.89271716  1.08209533]
  [-0.0343214  -0.         -0.         ... -2.89271716  2.30441928  0.01397458]
  [ 0.00448878 -0.          0.         ...  1.08209533  0.01397458  2.49819046]]]
e_a, e_b
[-0.61619593  0.18706653  0.29174131  0.68732486  0.71196167  0.71196167  1.13144968  1.13794516  1.13794516  1.56868438  2.30991968  2.50402017  3.21002341
  3.21002341  3.47950493  3.47950493  3.71613551  3.75344195  3.75344195  4.23613213  4.23613213  4.26535893  4.26535893  5.08824927  6.36342787  6.36342787
  6.42464647  8.1479788 ] [-0.61619593  0.18706653  0.29174131  0.68732486  0.71196167  0.71196167  1.13144968  1.13794516  1.13794516  1.56868438  2.30991968  2.50402017  3.21002341
  3.21002341  3.47950493  3.47950493  3.71613551  3.75344195  3.75344195  4.23613213  4.23613213  4.26535893  4.26535893  5.08824927  6.36342787  6.36342787
  6.42464647  8.1479788 ]
P_a, P_b
[[ 0.90471692  0.          0.         -0.26911694  0.03172974  0.          0.         -0.          0.          0.06725625  0.         -0.          0.00418077
   0.07456073 -0.          0.          0.          0.         -0.01462927  0.          0.         -0.04345468 -0.01536669 -0.          0.          0.01786186
  -0.00311417  0.00247342]
 [ 0.          0.          0.         -0.          0.          0.          0.         -0.          0.          0.          0.         -0.          0.
   0.         -0.          0.          0.          0.         -0.          0.          0.         -0.         -0.         -0.          0.          0.
  -0.          0.        ]
 [ 0.          0.          0.         -0.          0.          0.          0.         -0.          0.          0.          0.         -0.          0.
   0.         -0.          0.          0.          0.         -0.          0.          0.         -0.         -0.         -0.          0.          0.
  -0.          0.        ]
 [-0.26911694 -0.         -0.          0.08005148 -0.00943832 -0.         -0.          0.         -0.         -0.02000603 -0.          0.         -0.00124361
  -0.02217882  0.         -0.         -0.         -0.          0.00435162 -0.         -0.          0.01292602  0.00457097  0.         -0.         -0.00531319
   0.00092634 -0.00073574]
 [ 0.03172974  0.          0.         -0.00943832  0.00111281  0.          0.         -0.          0.          0.00235877  0.         -0.          0.00014663
   0.00261495 -0.          0.          0.          0.         -0.00051307  0.          0.         -0.00152402 -0.00053893 -0.          0.          0.00062644
  -0.00010922  0.00008675]
 [ 0.          0.          0.         -0.          0.          0.          0.         -0.          0.          0.          0.         -0.          0.
   0.         -0.          0.          0.          0.         -0.          0.          0.         -0.         -0.         -0.          0.          0.
  -0.          0.        ]
 [ 0.          0.          0.         -0.          0.          0.          0.         -0.          0.          0.          0.         -0.          0.
   0.         -0.          0.          0.          0.         -0.          0.          0.         -0.         -0.         -0.          0.          0.
  -0.          0.        ]
 [-0.         -0.         -0.          0.         -0.         -0.         -0.          0.         -0.         -0.         -0.          0.         -0.
  -0.          0.         -0.         -0.         -0.          0.         -0.         -0.          0.          0.          0.         -0.         -0.
   0.         -0.        ]
 [ 0.          0.          0.         -0.          0.          0.          0.         -0.          0.          0.          0.         -0.          0.
   0.         -0.          0.          0.          0.         -0.          0.          0.         -0.         -0.         -0.          0.          0.
  -0.          0.        ]
 [ 0.06725625  0.          0.         -0.02000603  0.00235877  0.          0.         -0.          0.          0.0049998   0.         -0.          0.0003108
   0.00554281 -0.          0.          0.          0.         -0.00108753  0.          0.         -0.0032304  -0.00114235 -0.          0.          0.00132784
  -0.00023151  0.00018387]
 [ 0.          0.          0.         -0.          0.          0.          0.         -0.          0.          0.          0.         -0.          0.
   0.         -0.          0.          0.          0.         -0.          0.          0.         -0.         -0.         -0.          0.          0.
  -0.          0.        ]
 [-0.         -0.         -0.          0.         -0.         -0.         -0.          0.         -0.         -0.         -0.          0.         -0.
  -0.          0.         -0.         -0.         -0.          0.         -0.         -0.          0.          0.          0.         -0.         -0.
   0.         -0.        ]
 [ 0.00418077  0.          0.         -0.00124361  0.00014663  0.          0.         -0.          0.          0.0003108   0.         -0.          0.00001932
   0.00034455 -0.          0.          0.          0.         -0.0000676   0.          0.         -0.00020081 -0.00007101 -0.          0.          0.00008254
  -0.00001439  0.00001143]
 [ 0.07456073  0.          0.         -0.02217882  0.00261495  0.          0.         -0.          0.          0.00554281  0.         -0.          0.00034455
   0.0061448  -0.          0.          0.          0.         -0.00120565  0.          0.         -0.00358124 -0.00126642 -0.          0.          0.00147206
  -0.00025665  0.00020384]
 [-0.         -0.         -0.          0.         -0.         -0.         -0.          0.         -0.         -0.         -0.          0.         -0.
  -0.          0.         -0.         -0.         -0.          0.         -0.         -0.          0.          0.          0.         -0.         -0.
   0.         -0.        ]
 [ 0.          0.          0.         -0.          0.          0.          0.         -0.          0.          0.          0.         -0.          0.
   0.         -0.          0.          0.          0.         -0.          0.          0.         -0.         -0.         -0.          0.          0.
  -0.          0.        ]
 [ 0.          0.          0.         -0.          0.          0.          0.         -0.          0.          0.          0.         -0.          0.
   0.         -0.          0.          0.          0.         -0.          0.          0.         -0.         -0.         -0.          0.          0.
  -0.          0.        ]
 [ 0.          0.          0.         -0.          0.          0.          0.         -0.          0.          0.          0.         -0.          0.
   0.         -0.          0.          0.          0.         -0.          0.          0.         -0.         -0.         -0.          0.          0.
  -0.          0.        ]
 [-0.01462927 -0.         -0.          0.00435162 -0.00051307 -0.         -0.          0.         -0.         -0.00108753 -0.          0.         -0.0000676
  -0.00120565  0.         -0.         -0.         -0.          0.00023656 -0.         -0.          0.00070266  0.00024848  0.         -0.         -0.00028883
   0.00005036 -0.00004   ]
 [ 0.          0.          0.         -0.          0.          0.          0.         -0.          0.          0.          0.         -0.          0.
   0.         -0.          0.          0.          0.         -0.          0.          0.         -0.         -0.         -0.          0.          0.
  -0.          0.        ]
 [ 0.          0.          0.         -0.          0.          0.          0.         -0.          0.          0.          0.         -0.          0.
   0.         -0.          0.          0.          0.         -0.          0.          0.         -0.         -0.         -0.          0.          0.
  -0.          0.        ]
 [-0.04345468 -0.         -0.          0.01292602 -0.00152402 -0.         -0.          0.         -0.         -0.0032304  -0.          0.         -0.00020081
  -0.00358124  0.         -0.         -0.         -0.          0.00070266 -0.         -0.          0.00208718  0.00073808  0.         -0.         -0.00085793
   0.00014958 -0.0001188 ]
 [-0.01536669 -0.         -0.          0.00457097 -0.00053893 -0.         -0.          0.         -0.         -0.00114235 -0.          0.         -0.00007101
  -0.00126642  0.         -0.         -0.         -0.          0.00024848 -0.         -0.          0.00073808  0.000261    0.         -0.         -0.00030339
   0.00005289 -0.00004201]
 [-0.         -0.         -0.          0.         -0.         -0.         -0.          0.         -0.         -0.         -0.          0.         -0.
  -0.          0.         -0.         -0.         -0.          0.         -0.         -0.          0.          0.          0.         -0.         -0.
   0.         -0.        ]
 [ 0.          0.          0.         -0.          0.          0.          0.         -0.          0.          0.          0.         -0.          0.
   0.         -0.          0.          0.          0.         -0.          0.          0.         -0.         -0.         -0.          0.          0.
  -0.          0.        ]
 [ 0.01786186  0.          0.         -0.00531319  0.00062644  0.          0.         -0.          0.          0.00132784  0.         -0.          0.00008254
   0.00147206 -0.          0.          0.          0.         -0.00028883  0.          0.         -0.00085793 -0.00030339 -0.          0.          0.00035265
  -0.00006148  0.00004883]
 [-0.00311417 -0.         -0.          0.00092634 -0.00010922 -0.         -0.          0.         -0.         -0.00023151 -0.          0.         -0.00001439
  -0.00025665  0.         -0.         -0.         -0.          0.00005036 -0.         -0.          0.00014958  0.00005289  0.         -0.         -0.00006148
   0.00001072 -0.00000851]
 [ 0.00247342  0.          0.         -0.00073574  0.00008675  0.          0.         -0.          0.          0.00018387  0.         -0.          0.00001143
   0.00020384 -0.          0.          0.          0.         -0.00004     0.          0.         -0.0001188  -0.00004201 -0.          0.          0.00004883
  -0.00000851  0.00000676]] 
 [[ 0.90471692 -0.         -0.          0.26911694  0.03172974  0.          0.         -0.          0.          0.06725625  0.         -0.         -0.00418077
   0.07456073  0.         -0.          0.          0.          0.01462927  0.          0.         -0.04345468 -0.01536669 -0.          0.         -0.01786186
   0.00311417 -0.00247342]
 [-0.          0.          0.         -0.         -0.         -0.         -0.          0.         -0.         -0.         -0.          0.          0.
  -0.         -0.          0.         -0.         -0.         -0.         -0.         -0.          0.          0.          0.         -0.          0.
  -0.          0.        ]
 [-0.          0.          0.         -0.         -0.         -0.         -0.          0.         -0.         -0.         -0.          0.          0.
  -0.         -0.          0.         -0.         -0.         -0.         -0.         -0.          0.          0.          0.         -0.          0.
  -0.          0.        ]
 [ 0.26911694 -0.         -0.          0.08005148  0.00943832  0.          0.         -0.          0.          0.02000603  0.         -0.         -0.00124361
   0.02217882  0.         -0.          0.          0.          0.00435162  0.          0.         -0.01292602 -0.00457097 -0.          0.         -0.00531319
   0.00092634 -0.00073574]
 [ 0.03172974 -0.         -0.          0.00943832  0.00111281  0.          0.         -0.          0.          0.00235877  0.         -0.         -0.00014663
   0.00261495  0.         -0.          0.          0.          0.00051307  0.          0.         -0.00152402 -0.00053893 -0.          0.         -0.00062644
   0.00010922 -0.00008675]
 [ 0.         -0.         -0.          0.          0.          0.          0.         -0.          0.          0.          0.         -0.         -0.
   0.          0.         -0.          0.          0.          0.          0.          0.         -0.         -0.         -0.          0.         -0.
   0.         -0.        ]
 [ 0.         -0.         -0.          0.          0.          0.          0.         -0.          0.          0.          0.         -0.         -0.
   0.          0.         -0.          0.          0.          0.          0.          0.         -0.         -0.         -0.          0.         -0.
   0.         -0.        ]
 [-0.          0.          0.         -0.         -0.         -0.         -0.          0.         -0.         -0.         -0.          0.          0.
  -0.         -0.          0.         -0.         -0.         -0.         -0.         -0.          0.          0.          0.         -0.          0.
  -0.          0.        ]
 [ 0.         -0.         -0.          0.          0.          0.          0.         -0.          0.          0.          0.         -0.         -0.
   0.          0.         -0.          0.          0.          0.          0.          0.         -0.         -0.         -0.          0.         -0.
   0.         -0.        ]
 [ 0.06725625 -0.         -0.          0.02000603  0.00235877  0.          0.         -0.          0.          0.0049998   0.         -0.         -0.0003108
   0.00554281  0.         -0.          0.          0.          0.00108753  0.          0.         -0.0032304  -0.00114235 -0.          0.         -0.00132784
   0.00023151 -0.00018387]
 [ 0.         -0.         -0.          0.          0.          0.          0.         -0.          0.          0.          0.         -0.         -0.
   0.          0.         -0.          0.          0.          0.          0.          0.         -0.         -0.         -0.          0.         -0.
   0.         -0.        ]
 [-0.          0.          0.         -0.         -0.         -0.         -0.          0.         -0.         -0.         -0.          0.          0.
  -0.         -0.          0.         -0.         -0.         -0.         -0.         -0.          0.          0.          0.         -0.          0.
  -0.          0.        ]
 [-0.00418077  0.          0.         -0.00124361 -0.00014663 -0.         -0.          0.         -0.         -0.0003108  -0.          0.          0.00001932
  -0.00034455 -0.          0.         -0.         -0.         -0.0000676  -0.         -0.          0.00020081  0.00007101  0.         -0.          0.00008254
  -0.00001439  0.00001143]
 [ 0.07456073 -0.         -0.          0.02217882  0.00261495  0.          0.         -0.          0.          0.00554281  0.         -0.         -0.00034455
   0.0061448   0.         -0.          0.          0.          0.00120565  0.          0.         -0.00358124 -0.00126642 -0.          0.         -0.00147206
   0.00025665 -0.00020384]
 [ 0.         -0.         -0.          0.          0.          0.          0.         -0.          0.          0.          0.         -0.         -0.
   0.          0.         -0.          0.          0.          0.          0.          0.         -0.         -0.         -0.          0.         -0.
   0.         -0.        ]
 [-0.          0.          0.         -0.         -0.         -0.         -0.          0.         -0.         -0.         -0.          0.          0.
  -0.         -0.          0.         -0.         -0.         -0.         -0.         -0.          0.          0.          0.         -0.          0.
  -0.          0.        ]
 [ 0.         -0.         -0.          0.          0.          0.          0.         -0.          0.          0.          0.         -0.         -0.
   0.          0.         -0.          0.          0.          0.          0.          0.         -0.         -0.         -0.          0.         -0.
   0.         -0.        ]
 [ 0.         -0.         -0.          0.          0.          0.          0.         -0.          0.          0.          0.         -0.         -0.
   0.          0.         -0.          0.          0.          0.          0.          0.         -0.         -0.         -0.          0.         -0.
   0.         -0.        ]
 [ 0.01462927 -0.         -0.          0.00435162  0.00051307  0.          0.         -0.          0.          0.00108753  0.         -0.         -0.0000676
   0.00120565  0.         -0.          0.          0.          0.00023656  0.          0.         -0.00070266 -0.00024848 -0.          0.         -0.00028883
   0.00005036 -0.00004   ]
 [ 0.         -0.         -0.          0.          0.          0.          0.         -0.          0.          0.          0.         -0.         -0.
   0.          0.         -0.          0.          0.          0.          0.          0.         -0.         -0.         -0.          0.         -0.
   0.         -0.        ]
 [ 0.         -0.         -0.          0.          0.          0.          0.         -0.          0.          0.          0.         -0.         -0.
   0.          0.         -0.          0.          0.          0.          0.          0.         -0.         -0.         -0.          0.         -0.
   0.         -0.        ]
 [-0.04345468  0.          0.         -0.01292602 -0.00152402 -0.         -0.          0.         -0.         -0.0032304  -0.          0.          0.00020081
  -0.00358124 -0.          0.         -0.         -0.         -0.00070266 -0.         -0.          0.00208718  0.00073808  0.         -0.          0.00085793
  -0.00014958  0.0001188 ]
 [-0.01536669  0.          0.         -0.00457097 -0.00053893 -0.         -0.          0.         -0.         -0.00114235 -0.          0.          0.00007101
  -0.00126642 -0.          0.         -0.         -0.         -0.00024848 -0.         -0.          0.00073808  0.000261    0.         -0.          0.00030339
  -0.00005289  0.00004201]
 [-0.          0.          0.         -0.         -0.         -0.         -0.          0.         -0.         -0.         -0.          0.          0.
  -0.         -0.          0.         -0.         -0.         -0.         -0.         -0.          0.          0.          0.         -0.          0.
  -0.          0.        ]
 [ 0.         -0.         -0.          0.          0.          0.          0.         -0.          0.          0.          0.         -0.         -0.
   0.          0.         -0.          0.          0.          0.          0.          0.         -0.         -0.         -0.          0.         -0.
   0.         -0.        ]
 [-0.01786186  0.          0.         -0.00531319 -0.00062644 -0.         -0.          0.         -0.         -0.00132784 -0.          0.          0.00008254
  -0.00147206 -0.          0.         -0.         -0.         -0.00028883 -0.         -0.          0.00085793  0.00030339  0.         -0.          0.00035265
  -0.00006148  0.00004883]
 [ 0.00311417 -0.         -0.          0.00092634  0.00010922  0.          0.         -0.          0.          0.00023151  0.         -0.         -0.00001439
   0.00025665  0.         -0.          0.          0.          0.00005036  0.          0.         -0.00014958 -0.00005289 -0.          0.         -0.00006148
   0.00001072 -0.00000851]
 [-0.00247342  0.          0.         -0.00073574 -0.00008675 -0.         -0.          0.         -0.         -0.00018387 -0.          0.          0.00001143
  -0.00020384 -0.          0.         -0.         -0.         -0.00004    -0.         -0.          0.0001188   0.00004201  0.         -0.          0.00004883
  -0.00000851  0.00000676]]

***************
SUHF converged at cycle 44
Final E(SUHF) =     -1.13036374, delta E = -2.88193e-10
