#INFO: **** input file is /share/home/srwang/ExSCF/test/pytest/scan_h2/scan_suhf.py ****
#import phf
from pyscf import lib
#import scipy
import numpy as np
import sys, os, contextlib

from pyphf import util, sudft

#xyz = 'h2.xyz' #sys.argv[1]
fch = 'test_uhf.fchk' #sys.argv[2]
#bas = '../h2.bas'
bas = 'cc-pvtz'

lib.num_threads(8)

for r in np.arange(0.5, 2.55, 0.1):
    output = 'suhf/suhf_%.1f_diis.out' % r
    os.system("echo '\n' > %s" % output)
    with open(output, 'w', encoding='utf-8') as f:
        with contextlib.redirect_stdout(f):
            xyz = '''H 0.0 0.0 0.0; H 0.0 0.0 %f'''%r
            mf = util.guess_from_fchk(xyz, bas, fch)
            #mf = util.guess(xyz, bas)
            #f.flush()
            mf2 = util.SUHF(mf)
            #mf2.cut_no = False
            mf2.debug = False
            #mf2.max_cycle = 50
            mf2.diis_on = True
            #mf2.output = 'sudft_%.1f.out'%r
            mf2.kernel()
            
            #mf3 = sudft.SUDFT(mf2)
            #mf3.suxc = 'TPSS'
            #mf3.kernel()
                    
#INFO: ******************** input file end ********************


System: uname_result(system='Linux', node='xcluster', release='3.10.0-693.el7.x86_64', version='#1 SMP Thu Jul 6 19:56:57 EDT 2017', machine='x86_64', processor='x86_64')  Threads 8
Python 3.7.4 (default, Aug 13 2019, 20:35:49) 
[GCC 7.3.0]
numpy 1.17.2  scipy 1.4.1
Date: Mon Nov 23 19:27:57 2020
PySCF version 1.7.5
PySCF path  /share/home/srwang/pyscf-1.7.5/pyscf

[CONFIG] conf_file None
[INPUT] verbose = 4
[INPUT] num. atoms = 2
[INPUT] num. electrons = 2
[INPUT] charge = 0
[INPUT] spin (= nelec alpha-beta = 2S) = 0
[INPUT] symmetry False subgroup None
[INPUT] Mole.unit = angstrom
[INPUT]  1 H      0.000000000000   0.000000000000   0.000000000000 AA    0.000000000000   0.000000000000   0.000000000000 Bohr
[INPUT]  2 H      0.000000000000   0.000000000000   1.500000000000 AA    0.000000000000   0.000000000000   2.834589186848 Bohr

nuclear repulsion = 0.35278480728
number of shells = 12
number of NR pGTOs = 32
number of NR cGTOs = 28
basis = cc-pvtz
ecp = {}
CPU time:       665.64


******** <class 'pyscf.scf.uhf.UHF'> ********
method = UHF
initial guess = minao
damping factor = 0
level_shift factor = 0
DIIS = <class 'pyscf.scf.diis.CDIIS'>
diis_start_cycle = 1
diis_space = 8
SCF conv_tol = 1e-09
SCF conv_tol_grad = None
SCF max_cycles = 1
direct_scf = True
direct_scf_tol = 1e-13
chkfile to save SCF result = /share/home/srwang/ExSCF/test/pytest/scan_h2/tmpuec3naji
max_memory 4000 MB (current use 125 MB)
number electrons alpha = 1  beta = 1
Set gradient conv threshold to 3.16228e-05
init E= -0.678905848408087
  alpha nocc = 1  HOMO = -0.32022525914988  LUMO = -0.029600564973503
  beta  nocc = 1  HOMO = -0.318344508550324  LUMO = -0.0289420115975272
cycle= 1 E= -1.00312122288711  delta_E= -0.324  |g|= 0.035  |ddm|= 0.366
SCF not converged.
SCF energy = -1.00312122288711 after 1 cycles  <S^2> = 4.0827205e-07  2S+1 = 1.0000008


******** <class 'pyscf.scf.uhf.UHF'> ********
method = UHF
initial guess = minao
damping factor = 0
level_shift factor = 0
DIIS = <class 'pyscf.scf.diis.CDIIS'>
diis_start_cycle = 1
diis_space = 8
SCF conv_tol = 1e-09
SCF conv_tol_grad = None
SCF max_cycles = 1
direct_scf = True
direct_scf_tol = 1e-13
chkfile to save SCF result = /share/home/srwang/ExSCF/test/pytest/scan_h2/tmpuec3naji
max_memory 4000 MB (current use 126 MB)
number electrons alpha = 1  beta = 1
Set gradient conv threshold to 3.16228e-05
init E= -1.00417048025524
  alpha nocc = 1  HOMO = -0.489567507741937  LUMO = 0.0588243949859696
  beta  nocc = 1  HOMO = -0.489567507741936  LUMO = 0.058824394985969
cycle= 1 E= -1.02202018228964  delta_E= -0.0178  |g|= 0.0113  |ddm|= 0.0194
SCF not converged.
SCF energy = -1.02202018228964 after 1 cycles  <S^2> = 0.48772141  2S+1 = 1.7178142

******** <class 'pyphf.util.SUHF'> ********
max_cycle = 70
verbose: normal
DIIS: <class 'pyscf.scf.diis.CDIIS'>
diis_start_cyc = 40
SVD: S^(-1/2)
[[-0.145074    0.08532486  0.29669569 -0.         -0.          0.          0.          0.24485769 -0.03203445  0.         -0.          0.          0.
   0.         -0.         -0.         -0.          0.20208216 -0.67836077  0.63449802  0.          0.         -0.17677521 -0.         -0.          0.82549355
  -0.02386553  0.92826259]
 [-0.22528951  0.09663871  0.29856042  0.         -0.         -0.         -0.          0.12714387 -0.01684866 -0.         -0.         -0.          0.
  -0.         -0.         -0.          0.         -0.00751712 -0.06789009 -0.27097173 -0.          0.          0.02585307  0.         -0.         -1.6357489
   0.09717459 -2.10080402]
 [-0.23722823  0.1433534   0.15724332 -0.          0.          0.          0.          0.01095127  0.04250032 -0.          0.          0.         -0.
   0.          0.          0.         -0.         -0.02401977  0.48363539 -0.53672885 -0.          0.         -0.05426578  0.          0.          0.95292504
  -1.75956865  1.0463883 ]
 [ 0.         -0.          0.         -0.01832716  0.33594185 -0.43436727  0.04764908  0.         -0.          0.02609037 -0.10770653  0.          0.
  -0.         -0.         -0.1320774  -0.08176197  0.          0.          0.         -0.81199355 -0.07098595 -0.          0.3559316   0.70787791 -0.
   0.          0.        ]
 [ 0.          0.          0.         -0.33594185 -0.01832716  0.04764908  0.43436727  0.          0.          0.10770653  0.02609037 -0.          0.
  -0.          0.          0.08176197 -0.1320774   0.          0.          0.         -0.07098595  0.81199355  0.          0.70787791 -0.3559316  -0.
  -0.          0.        ]
 [-0.06710198 -0.30161382 -0.14841928 -0.         -0.          0.          0.          0.45274238  0.10101109 -0.         -0.         -0.          0.
  -0.          0.          0.          0.          0.3699197   0.05723807 -0.43163603 -0.          0.         -0.88418292 -0.         -0.         -0.10367329
   0.5483213   0.30425627]
 [ 0.         -0.          0.         -0.02166562  0.39713679 -0.36949362  0.0405326   0.         -0.          0.00955606 -0.0394494  -0.         -0.
  -0.          0.         -0.00248415 -0.0015378  -0.         -0.         -0.          0.70550394  0.06167644  0.         -0.43699437 -0.86909581  0.
   0.         -0.        ]
 [-0.         -0.         -0.         -0.39713679 -0.02166562  0.0405326   0.36949362 -0.         -0.          0.0394494   0.00955606  0.         -0.
   0.         -0.          0.0015378  -0.00248415 -0.         -0.         -0.          0.06167644 -0.70550394 -0.         -0.86909581  0.43699437  0.
   0.         -0.        ]
 [-0.12899586 -0.34556392 -0.21095178 -0.          0.          0.          0.          0.21660158  0.10124805 -0.         -0.          0.         -0.
   0.         -0.         -0.         -0.         -0.01081809 -0.05544426  0.41223937  0.         -0.          0.71892451  0.          0.          0.20864106
  -1.59021664 -1.09804314]
 [ 0.          0.          0.         -0.         -0.         -0.         -0.          0.          0.         -0.         -0.          0.70209934  0.
   0.71052981  0.04908026  0.          0.          0.          0.          0.          0.          0.          0.          0.         -0.          0.
  -0.          0.        ]
 [-0.         -0.         -0.         -0.08021284 -0.00437598 -0.01023706 -0.09332063 -0.         -0.         -0.64640447 -0.15658228 -0.         -0.
   0.         -0.          0.38665546 -0.62459906 -0.         -0.          0.         -0.00806392  0.09224147  0.         -0.14623094  0.07352711  0.
   0.         -0.        ]
 [-0.03356399 -0.09958226 -0.0018537  -0.         -0.          0.          0.         -0.3009264  -0.6399033   0.          0.          0.         -0.
   0.         -0.          0.         -0.          0.70913579  0.06813137  0.02958609  0.         -0.         -0.02125567 -0.          0.          0.08168096
  -0.36205919 -0.4268187 ]
 [ 0.         -0.          0.         -0.00437598  0.08021284  0.09332063 -0.01023706  0.          0.         -0.15658228  0.64640447  0.         -0.
   0.         -0.         -0.62459906 -0.38665546 -0.         -0.          0.         -0.09224147 -0.00806392  0.         -0.07352711 -0.14623094  0.
   0.         -0.        ]
 [ 0.          0.          0.          0.          0.          0.          0.          0.          0.          0.          0.          0.         -0.70209934
   0.04908026 -0.71052981  0.         -0.          0.          0.          0.         -0.         -0.          0.          0.         -0.          0.
   0.          0.        ]
 [-0.145074    0.08532486 -0.29669569 -0.          0.         -0.         -0.         -0.24485769 -0.03203445 -0.         -0.         -0.          0.
  -0.          0.         -0.          0.         -0.20208216 -0.67836077 -0.63449802 -0.          0.         -0.17677521  0.          0.          0.82549355
   0.02386553 -0.92826259]
 [-0.22528951  0.09663871 -0.29856042  0.          0.         -0.         -0.         -0.12714387 -0.01684866  0.         -0.          0.         -0.
   0.          0.         -0.          0.          0.00751712 -0.06789009  0.27097173  0.         -0.          0.02585307 -0.         -0.         -1.6357489
  -0.09717459  2.10080402]
 [-0.23722823  0.1433534  -0.15724332 -0.          0.         -0.          0.         -0.01095127  0.04250032  0.          0.         -0.          0.
  -0.         -0.          0.         -0.          0.02401977  0.48363539  0.53672885  0.         -0.         -0.05426578 -0.         -0.          0.95292504
   1.75956865 -1.0463883 ]
 [ 0.         -0.          0.         -0.01832716  0.33594185  0.43436727 -0.04764908 -0.         -0.          0.02609037 -0.10770653  0.          0.
   0.          0.          0.1320774   0.08176197  0.          0.          0.         -0.81199355 -0.07098595  0.         -0.3559316  -0.70787791  0.
   0.         -0.        ]
 [-0.         -0.         -0.         -0.33594185 -0.01832716 -0.04764908 -0.43436727  0.          0.          0.10770653  0.02609037 -0.         -0.
  -0.          0.         -0.08176197  0.1320774   0.          0.          0.         -0.07098595  0.81199355  0.         -0.70787791  0.3559316   0.
   0.         -0.        ]
 [ 0.06710198  0.30161382 -0.14841928  0.         -0.          0.          0.          0.45274238 -0.10101109  0.         -0.          0.          0.
   0.         -0.         -0.         -0.          0.3699197  -0.05723807 -0.43163603 -0.         -0.          0.88418292  0.          0.          0.10367329
   0.5483213   0.30425627]
 [ 0.         -0.          0.         -0.02166562  0.39713679  0.36949362 -0.0405326  -0.         -0.          0.00955606 -0.0394494  -0.         -0.
   0.         -0.          0.00248415  0.0015378   0.          0.         -0.          0.70550394  0.06167644 -0.          0.43699437  0.86909581 -0.
  -0.         -0.        ]
 [-0.         -0.         -0.         -0.39713679 -0.02166562 -0.0405326  -0.36949362  0.          0.          0.0394494   0.00955606 -0.         -0.
  -0.         -0.         -0.0015378   0.00248415 -0.         -0.         -0.          0.06167644 -0.70550394 -0.          0.86909581 -0.43699437 -0.
  -0.          0.        ]
 [ 0.12899586  0.34556392 -0.21095178 -0.          0.         -0.          0.          0.21660158 -0.10124805  0.          0.         -0.         -0.
  -0.          0.          0.         -0.         -0.01081809  0.05544426  0.41223937  0.          0.         -0.71892451 -0.         -0.         -0.20864106
  -1.59021664 -1.09804314]
 [-0.         -0.          0.          0.         -0.         -0.         -0.          0.          0.         -0.         -0.          0.70209934  0.
  -0.71052981 -0.04908026  0.          0.          0.         -0.          0.          0.         -0.          0.         -0.          0.         -0.
   0.          0.        ]
 [ 0.          0.          0.          0.08021284  0.00437598 -0.01023706 -0.09332063  0.          0.          0.64640447  0.15658228  0.          0.
   0.          0.          0.38665546 -0.62459906 -0.         -0.         -0.          0.00806392 -0.09224147 -0.         -0.14623094  0.07352711 -0.
   0.         -0.        ]
 [-0.03356399 -0.09958226  0.0018537  -0.         -0.          0.         -0.          0.3009264  -0.6399033   0.          0.         -0.          0.
  -0.          0.          0.          0.         -0.70913579  0.06813137 -0.02958609 -0.          0.         -0.02125567  0.          0.          0.08168096
   0.36205919  0.4268187 ]
 [-0.          0.         -0.          0.00437598 -0.08021284  0.09332063 -0.01023706 -0.         -0.          0.15658228 -0.64640447 -0.          0.
  -0.         -0.         -0.62459906 -0.38665546 -0.          0.         -0.          0.09224147  0.00806392  0.         -0.07352711 -0.14623094  0.
   0.          0.        ]
 [ 0.          0.          0.          0.         -0.         -0.          0.          0.          0.          0.          0.          0.         -0.70209934
  -0.04908026  0.71052981 -0.         -0.         -0.          0.         -0.          0.         -0.         -0.         -0.          0.         -0.
  -0.         -0.        ]]
C (ortho)
[[-0.89383482 -0.3414796   0.03518481  0.16058695  0.          0.         -0.21549501 -0.          0.          0.02610247 -0.0046779   0.00793015 -0.08330644
   0.         -0.         -0.          0.          0.          0.          0.         -0.          0.         -0.         -0.00232285  0.         -0.
   0.05722673 -0.00062313]
 [ 0.24010445  0.09255761  0.25045419  0.10905212  0.         -0.         -0.82618222  0.          0.          0.03490883 -0.09008224 -0.03280218 -0.29953197
   0.         -0.         -0.          0.          0.          0.         -0.          0.         -0.          0.         -0.01805035 -0.          0.
   0.27591915 -0.0004557 ]
 [ 0.35577827 -0.78499567 -0.04924067  0.40226203  0.          0.          0.04139956 -0.          0.         -0.18762904 -0.0195764   0.14057352 -0.00486221
  -0.          0.         -0.          0.          0.          0.          0.          0.         -0.          0.         -0.18820151  0.         -0.
  -0.02014101 -0.00723834]
 [-0.         -0.          0.          0.         -0.88476087 -0.00685713 -0.         -0.10051641  0.0260307  -0.         -0.         -0.         -0.
  -0.00332338 -0.073172   -0.          0.         -0.         -0.         -0.01081729 -0.10430015 -0.00969763 -0.43337151 -0.         -0.04587379 -0.00008647
  -0.          0.        ]
 [ 0.          0.          0.          0.         -0.00685713  0.88476087 -0.          0.0260307   0.10051641  0.         -0.         -0.          0.
   0.073172   -0.00332338  0.          0.         -0.         -0.          0.10430015 -0.01081729  0.43337151 -0.00969763 -0.         -0.00008647  0.04587379
  -0.         -0.        ]
 [-0.          0.         -0.          0.          0.00638467 -0.10200467  0.          0.1636389   0.81292229 -0.         -0.         -0.          0.
  -0.0014029   0.00014097 -0.          0.          0.         -0.         -0.29855799  0.04760046  0.03483725 -0.00269247 -0.         -0.02590146  0.45676855
  -0.          0.        ]
 [ 0.          0.          0.          0.          0.10200467  0.00638467  0.         -0.81292229  0.1636389   0.          0.          0.          0.
   0.00014097  0.0014029   0.          0.          0.         -0.          0.04760046  0.29855799 -0.00269247 -0.03483725  0.         -0.45676855 -0.02590146
   0.         -0.        ]
 [ 0.09581963 -0.11620984 -0.10119649  0.24871573  0.         -0.          0.05072536  0.         -0.          0.74670836  0.02249346 -0.02645605  0.00628698
   0.         -0.          0.         -0.         -0.         -0.         -0.         -0.          0.         -0.          0.47626116  0.          0.
   0.04819211 -0.33863639]
 [ 0.00219285  0.02251365  0.09213809  0.02926079 -0.         -0.          0.22309033 -0.         -0.         -0.0040788  -0.04627472 -0.0272166  -0.87815792
   0.         -0.         -0.          0.          0.          0.         -0.          0.          0.          0.          0.05190058 -0.          0.
  -0.40438847  0.00946781]
 [ 0.          0.          0.          0.          0.03806322  0.00735614  0.          0.00129676 -0.00009124  0.          0.          0.         -0.
  -0.22548818 -0.96938693  0.          0.          0.         -0.          0.01091347  0.03704426  0.01570892  0.07535168 -0.          0.02248784  0.00420935
   0.         -0.        ]
 [-0.          0.          0.          0.          0.00735614 -0.03806322  0.         -0.00009124 -0.00129676 -0.          0.          0.          0.
   0.96938693 -0.22548818  0.         -0.         -0.          0.         -0.03704426  0.01091347 -0.07535168  0.01570892  0.          0.00420935 -0.02248784
   0.          0.        ]
 [-0.         -0.         -0.         -0.         -0.          0.         -0.         -0.         -0.          0.          0.          0.         -0.
  -0.          0.          0.98519193 -0.08619739  0.14601496  0.02542624 -0.         -0.          0.         -0.         -0.         -0.          0.
   0.          0.        ]
 [ 0.          0.          0.          0.         -0.          0.          0.         -0.          0.          0.          0.          0.         -0.
  -0.         -0.         -0.08619739 -0.98519193  0.02542624 -0.14601496 -0.         -0.          0.          0.          0.         -0.          0.
   0.         -0.        ]
 [-0.         -0.         -0.         -0.          0.         -0.         -0.         -0.          0.          0.          0.          0.         -0.
  -0.         -0.          0.14818739 -0.00271283 -0.96028673 -0.23639488 -0.          0.         -0.          0.         -0.         -0.          0.
   0.          0.        ]
 [-0.         -0.         -0.         -0.         -0.          0.         -0.         -0.          0.          0.          0.          0.         -0.
  -0.         -0.         -0.00271283 -0.14818739 -0.23639488  0.96028673 -0.          0.          0.         -0.         -0.         -0.          0.
  -0.         -0.        ]
 [-0.          0.          0.          0.         -0.00103947  0.00186902 -0.          0.00877178 -0.03487595 -0.          0.          0.          0.
  -0.01992501  0.01208474 -0.          0.          0.         -0.         -0.67946994  0.46799857  0.22589736 -0.12999466  0.          0.24022755 -0.43797208
   0.          0.        ]
 [-0.         -0.         -0.          0.          0.00186902  0.00103947 -0.         -0.03487595 -0.00877178 -0.          0.         -0.          0.
  -0.01208474 -0.01992501 -0.          0.         -0.         -0.         -0.46799857 -0.67946994  0.12999466  0.22589736  0.         -0.43797208 -0.24022755
   0.          0.        ]
 [ 0.01428385  0.00130916 -0.0328235   0.06873209 -0.          0.          0.00096192  0.         -0.         -0.08316959 -0.10950624  0.45204015  0.00325726
   0.         -0.          0.         -0.         -0.         -0.         -0.         -0.          0.         -0.          0.57698618  0.          0.
   0.06352085  0.65862295]
 [-0.01409351  0.1153351   0.71266105  0.28106839  0.         -0.          0.16111057  0.         -0.         -0.00050056  0.58374359  0.15738661  0.08992885
  -0.          0.          0.         -0.         -0.         -0.          0.         -0.          0.          0.         -0.00335622 -0.          0.
   0.00476616 -0.00296583]
 [-0.06671613  0.38751301 -0.25861766  0.45873625 -0.         -0.          0.00855706  0.         -0.          0.19753794 -0.13084107  0.54008815 -0.01733413
   0.          0.         -0.          0.          0.          0.          0.          0.         -0.          0.         -0.46642279 -0.         -0.
  -0.04572738 -0.01448614]
 [-0.          0.         -0.          0.          0.05993698  0.44477666 -0.          0.02264302  0.05429548  0.         -0.          0.         -0.
  -0.05899493 -0.00569962 -0.         -0.          0.          0.         -0.2187616  -0.00839517 -0.85200005 -0.10215209  0.         -0.01194073 -0.08484609
   0.          0.        ]
 [ 0.          0.          0.          0.         -0.44477666  0.05993698 -0.         -0.05429548  0.02264302 -0.         -0.         -0.          0.
  -0.00569962  0.05899493  0.         -0.          0.          0.         -0.00839517  0.2187616  -0.10215209  0.85200005  0.          0.08484609 -0.01194073
  -0.         -0.        ]
 [-0.01345901 -0.00383406 -0.09341237 -0.05541017 -0.          0.          0.35709964 -0.         -0.         -0.0216585   0.08126819  0.015222   -0.32670552
   0.          0.         -0.          0.          0.          0.         -0.          0.         -0.          0.         -0.08370549  0.         -0.
   0.85988014 -0.00675052]
 [ 0.          0.          0.         -0.         -0.05615416 -0.02501945  0.          0.53804692  0.08572252 -0.         -0.         -0.         -0.
  -0.00201883 -0.0041079   0.         -0.          0.          0.          0.20147471  0.35621507 -0.01097763 -0.02369996  0.         -0.66746847 -0.29271036
   0.         -0.        ]
 [ 0.          0.          0.          0.          0.02501945 -0.05615416  0.         -0.08572252  0.53804692 -0.         -0.         -0.         -0.
  -0.0041079   0.00201883  0.         -0.         -0.          0.          0.35621507 -0.20147471 -0.02369996  0.01097763  0.          0.29271036 -0.66746847
   0.         -0.        ]
 [-0.02987937  0.06264338  0.49597802  0.21557146 -0.         -0.          0.25039837 -0.         -0.          0.00797767 -0.76303682 -0.18237115  0.12939867
  -0.          0.          0.         -0.         -0.         -0.         -0.          0.         -0.         -0.         -0.00922182  0.          0.
   0.08741184  0.00069716]
 [-0.03739332  0.25790635 -0.22521547  0.47405991  0.         -0.         -0.00955837 -0.         -0.         -0.57622737  0.03529216 -0.14501292  0.00567573
   0.         -0.          0.         -0.         -0.         -0.         -0.         -0.          0.         -0.          0.39701358  0.          0.
   0.03316421 -0.37878195]
 [-0.01785761 -0.10329649  0.18328012 -0.41152447 -0.          0.         -0.02422688  0.          0.         -0.16369478 -0.1699704   0.63429789 -0.01432231
   0.         -0.         -0.          0.         -0.          0.         -0.         -0.          0.         -0.          0.13980216 -0.          0.
   0.00723851 -0.55466936]]
[[-0.89383482 -0.3414796   0.03518481  0.16058695 -0.          0.          0.21549501  0.          0.         -0.02610247 -0.0046779   0.00793015 -0.08330644
   0.         -0.         -0.         -0.         -0.         -0.          0.         -0.         -0.         -0.          0.00232285  0.         -0.
  -0.05722673  0.00062313]
 [ 0.24010445  0.09255761  0.25045419  0.10905212 -0.          0.          0.82618222  0.          0.         -0.03490883 -0.09008224 -0.03280218 -0.29953197
   0.         -0.         -0.         -0.         -0.         -0.          0.          0.         -0.         -0.          0.01805035  0.         -0.
  -0.27591915  0.0004557 ]
 [-0.35577827  0.78499567  0.04924067 -0.40226203 -0.          0.          0.04139956 -0.         -0.         -0.18762904  0.0195764  -0.14057352  0.00486221
  -0.         -0.          0.          0.         -0.         -0.         -0.         -0.          0.         -0.         -0.18820151 -0.         -0.
  -0.02014101 -0.00723834]
 [ 0.         -0.          0.         -0.         -0.74850684 -0.47179055  0.         -0.00702687 -0.10359425 -0.          0.         -0.         -0.
   0.02584986  0.06853446  0.         -0.          0.         -0.         -0.10213447 -0.02375047 -0.06506116 -0.42856966 -0.         -0.00951697 -0.04487582
   0.          0.        ]
 [ 0.         -0.         -0.         -0.         -0.47179055  0.74850684 -0.          0.10359425 -0.00702687  0.         -0.          0.         -0.
  -0.06853446  0.02584986 -0.          0.          0.         -0.         -0.02375047  0.10213447  0.42856966 -0.06506116 -0.          0.04487582 -0.00951697
  -0.          0.        ]
 [-0.          0.         -0.          0.         -0.05914849  0.0833497   0.         -0.82301603  0.10131615  0.          0.         -0.         -0.
  -0.00129003  0.00056905  0.          0.          0.          0.         -0.08449147  0.29028239 -0.03420652  0.00712723  0.         -0.441683    0.11926659
   0.         -0.        ]
 [-0.          0.          0.         -0.         -0.0833497  -0.05914849 -0.          0.10131615  0.82301603  0.         -0.          0.          0.
   0.00056905  0.00129003  0.         -0.          0.         -0.         -0.29028239 -0.08449147  0.00712723  0.03420652 -0.          0.11926659  0.441683
  -0.          0.        ]
 [-0.09581963  0.11620984  0.10119649 -0.24871573 -0.          0.          0.05072536  0.         -0.          0.74670836 -0.02249346  0.02645605 -0.00628698
  -0.          0.         -0.          0.         -0.          0.          0.          0.         -0.         -0.          0.47626116  0.          0.
   0.04819211 -0.33863639]
 [ 0.00219285  0.02251365  0.09213809  0.02926079  0.         -0.         -0.22309033 -0.         -0.          0.0040788  -0.04627472 -0.0272166  -0.87815792
  -0.          0.         -0.         -0.         -0.         -0.          0.         -0.          0.          0.         -0.05190058 -0.          0.
   0.40438847 -0.00946781]
 [-0.         -0.          0.         -0.          0.02848268  0.0262994  -0.          0.00032273  0.00125926  0.          0.         -0.          0.
   0.51497528  0.85167858 -0.         -0.         -0.         -0.          0.03539248  0.01545165  0.02521992  0.07272277 -0.          0.00874325  0.02114183
  -0.         -0.        ]
 [-0.          0.          0.          0.          0.0262994  -0.02848268  0.         -0.00125926  0.00032273 -0.          0.          0.          0.
  -0.85167858  0.51497528 -0.          0.         -0.          0.          0.01545165 -0.03539248 -0.07272277  0.02521992  0.         -0.02114183  0.00874325
  -0.          0.        ]
 [ 0.         -0.         -0.         -0.         -0.         -0.         -0.          0.          0.          0.          0.         -0.         -0.
   0.          0.          0.95680075  0.25013088  0.146603    0.02178124  0.         -0.          0.          0.          0.          0.         -0.
  -0.          0.        ]
 [-0.          0.         -0.          0.         -0.         -0.          0.         -0.          0.         -0.         -0.          0.          0.
  -0.          0.          0.25013088 -0.95680075  0.02178124 -0.146603    0.          0.         -0.          0.          0.         -0.          0.
   0.          0.        ]
 [ 0.         -0.         -0.         -0.         -0.         -0.         -0.         -0.          0.          0.          0.         -0.         -0.
  -0.          0.         -0.14046914 -0.04727878  0.96587716  0.2124016   0.         -0.          0.          0.         -0.          0.         -0.
  -0.          0.        ]
 [ 0.         -0.         -0.          0.         -0.          0.         -0.         -0.          0.          0.          0.         -0.         -0.
  -0.         -0.         -0.04727878  0.14046914  0.2124016  -0.96587716  0.          0.         -0.          0.          0.         -0.         -0.
  -0.         -0.        ]
 [-0.          0.          0.          0.          0.00186796 -0.00104138 -0.          0.03032435 -0.01933156 -0.          0.          0.         -0.
  -0.0151954   0.01766768  0.         -0.          0.         -0.         -0.54914418  0.61574566 -0.20741025  0.15782654 -0.          0.37921945 -0.32514831
   0.         -0.        ]
 [ 0.          0.          0.         -0.         -0.00104138 -0.00186796 -0.          0.01933156  0.03032435 -0.         -0.          0.          0.
  -0.01766768 -0.0151954  -0.          0.          0.          0.          0.61574566  0.54914418 -0.15782654 -0.20741025 -0.          0.32514831  0.37921945
  -0.         -0.        ]
 [-0.01428385 -0.00130916  0.0328235  -0.06873209 -0.         -0.          0.00096192 -0.         -0.         -0.08316959  0.10950624 -0.45204015 -0.00325726
  -0.          0.         -0.          0.         -0.          0.          0.          0.         -0.         -0.          0.57698618  0.          0.
   0.06352085  0.65862295]
 [-0.01409351  0.1153351   0.71266105  0.28106839 -0.          0.         -0.16111057 -0.         -0.          0.00050056  0.58374359  0.15738661  0.08992885
   0.         -0.          0.          0.          0.          0.          0.         -0.          0.         -0.          0.00335622 -0.          0.
  -0.00476616  0.00296583]
 [ 0.06671613 -0.38751301  0.25861766 -0.45873625  0.         -0.          0.00855706 -0.         -0.          0.19753794  0.13084107 -0.54008815  0.01733413
  -0.         -0.          0.         -0.         -0.         -0.         -0.         -0.          0.          0.         -0.46642279 -0.         -0.
  -0.04572738 -0.01448614]
 [ 0.         -0.          0.         -0.         -0.18329142  0.40966202 -0.          0.05866688  0.00434774  0.          0.         -0.         -0.
   0.05785423 -0.0128754   0.         -0.         -0.         -0.          0.01897426 -0.21809882 -0.85806762  0.00768764 -0.         -0.08548837  0.00576006
  -0.         -0.        ]
 [ 0.          0.         -0.          0.         -0.40966202 -0.18329142  0.          0.00434774 -0.05866688 -0.         -0.          0.          0.
  -0.0128754  -0.05785423 -0.          0.         -0.          0.          0.21809882  0.01897426  0.00768764  0.85806762  0.          0.00576006  0.08548837
   0.         -0.        ]
 [-0.01345901 -0.00383406 -0.09341237 -0.05541017 -0.         -0.         -0.35709964 -0.         -0.          0.0216585   0.08126819  0.015222   -0.32670552
   0.         -0.         -0.         -0.         -0.         -0.          0.          0.          0.          0.          0.08370549  0.         -0.
  -0.85988014  0.00675052]
 [-0.          0.         -0.          0.          0.03455902  0.05084228  0.         -0.25116876 -0.48348432 -0.         -0.          0.         -0.
  -0.00319315 -0.00327938  0.         -0.          0.         -0.         -0.32828348 -0.24435874  0.01391947  0.02210079 -0.          0.42369767  0.59302091
  -0.         -0.        ]
 [-0.          0.         -0.          0.         -0.05084228  0.03455902  0.         -0.48348432  0.25116876  0.         -0.          0.          0.
  -0.00327938  0.00319315 -0.         -0.         -0.         -0.          0.24435874 -0.32828348  0.02210079 -0.01391947 -0.          0.59302091 -0.42369767
  -0.          0.        ]
 [-0.02987937  0.06264338  0.49597802  0.21557146 -0.         -0.         -0.25039837 -0.         -0.         -0.00797767 -0.76303682 -0.18237115  0.12939867
  -0.         -0.          0.          0.          0.          0.          0.          0.         -0.         -0.          0.00922182 -0.         -0.
  -0.08741184 -0.00069716]
 [ 0.03739332 -0.25790635  0.22521547 -0.47405991  0.          0.         -0.00955837 -0.          0.         -0.57622737 -0.03529216  0.14501292 -0.00567573
   0.          0.         -0.         -0.         -0.         -0.          0.          0.         -0.         -0.          0.39701358  0.         -0.
   0.03316421 -0.37878195]
 [ 0.01785761  0.10329649 -0.18328012  0.41152447 -0.         -0.         -0.02422688  0.         -0.         -0.16369478  0.1699704  -0.63429789  0.01432231
   0.          0.         -0.         -0.         -0.         -0.          0.          0.          0.         -0.          0.13980216  0.          0.
   0.00723851 -0.55466936]]
grids:  [0.06237655 0.31939555 0.74529195 1.28265786 1.85893479 2.39630071 2.8221971  3.07921611] 
weights:  [0.15900941 0.34931531 0.49276925 0.56970235 0.56970235 0.49276925 0.34931531 0.15900941]
S = 0.0, Sz = 0.0
Wigner small d:  1
value : [1. 1. 1. 1. 1. 1. 1. 1.]
**** Start Cycle 1 ****
dm (ortho)
[[[ 0.79894069 -0.21461372 -0.31800701 ...  0.02670722  0.03342345  0.01596175]
  [-0.21461372  0.05765015  0.08542395 ... -0.00717417 -0.0089783  -0.00428769]
  [-0.31800701  0.08542395  0.12657818 ... -0.01063043 -0.01330373 -0.00635335]
  ...
  [ 0.02670722 -0.00717417 -0.01063043 ...  0.00089278  0.00111729  0.00053357]
  [ 0.03342345 -0.0089783  -0.01330373 ...  0.00111729  0.00139826  0.00066776]
  [ 0.01596175 -0.00428769 -0.00635335 ...  0.00053357  0.00066776  0.00031889]]

 [[ 0.79894069 -0.21461372  0.31800701 ...  0.02670722 -0.03342345 -0.01596175]
  [-0.21461372  0.05765015 -0.08542395 ... -0.00717417  0.0089783   0.00428769]
  [ 0.31800701 -0.08542395  0.12657818 ...  0.01063043 -0.01330373 -0.00635335]
  ...
  [ 0.02670722 -0.00717417  0.01063043 ...  0.00089278 -0.00111729 -0.00053357]
  [-0.03342345  0.0089783  -0.01330373 ... -0.00111729  0.00139826  0.00066776]
  [-0.01596175  0.00428769 -0.00635335 ... -0.00053357  0.00066776  0.00031889]]]
Fock (ortho)
 (array([[-0.28591381,  0.406677  ,  0.19654672, -0.        ,  0.        , -0.        ,  0.        ,  0.08826472,  0.09458852, -0.        , -0.        ,
         0.        ,  0.        ,  0.        , -0.        , -0.        , -0.        ,  0.02725379, -0.02979539,  0.0106296 ,  0.        , -0.        ,
         0.22032701,  0.        ,  0.        , -0.04234075, -0.00716226, -0.01453395],
       [ 0.406677  ,  1.19175928, -0.08336712,  0.        ,  0.        , -0.        , -0.        ,  0.00715361,  0.21567877, -0.        , -0.        ,
         0.        , -0.        ,  0.        , -0.        , -0.        , -0.        ,  0.00802639, -0.25400799, -0.00796497,  0.        , -0.        ,
         1.05085535,  0.        ,  0.        ,  0.06203304,  0.00046861,  0.00095941],
       [ 0.19654672, -0.08336712,  0.30533186, -0.        ,  0.        , -0.        , -0.        , -0.50864716,  0.01181764, -0.        ,  0.        ,
         0.        , -0.        ,  0.        , -0.        ,  0.        ,  0.        , -0.25541226,  0.0768039 ,  0.60150991,  0.        , -0.        ,
         0.00761024, -0.        , -0.        ,  0.00661591, -0.11388453,  0.13111753],
       [-0.        ,  0.        , -0.        ,  1.33257304, -0.        ,  0.00256527,  0.04679869, -0.        ,  0.        ,  0.05783253,  0.01071251,
         0.        , -0.        , -0.        , -0.        ,  0.00463329, -0.0084851 , -0.        , -0.        , -0.        ,  0.18209525, -1.27645738,
        -0.        ,  0.00192039, -0.00083785,  0.        , -0.        , -0.        ],
       [ 0.        ,  0.        ,  0.        , -0.        ,  1.33257304,  0.04679869, -0.00256527,  0.        ,  0.        , -0.01071251,  0.05783253,
         0.        ,  0.        ,  0.        , -0.        ,  0.0084851 ,  0.00463329,  0.        , -0.        ,  0.        , -1.27645738, -0.18209525,
         0.        , -0.00083785, -0.00192039, -0.        ,  0.        ,  0.        ],
       [-0.        , -0.        , -0.        ,  0.00256527,  0.04679869,  1.8651653 ,  0.        ,  0.        , -0.        ,  0.00157193, -0.01217534,
        -0.        , -0.        ,  0.        , -0.        ,  0.01674388,  0.00798614,  0.        , -0.        , -0.        , -0.01032155, -0.00205428,
         0.        , -0.49047195, -1.31646523,  0.        , -0.        , -0.        ],
       [ 0.        , -0.        , -0.        ,  0.04679869, -0.00256527,  0.        ,  1.8651653 ,  0.        , -0.        , -0.01217534, -0.00157193,
        -0.        , -0.        , -0.        , -0.        ,  0.00798614, -0.01674388,  0.        ,  0.        ,  0.        ,  0.00205428, -0.01032155,
        -0.        ,  1.31646523, -0.49047195, -0.        , -0.        ,  0.        ],
       [ 0.08826472,  0.00715361, -0.50864716, -0.        ,  0.        ,  0.        ,  0.        ,  2.28083976, -0.01377946,  0.        ,  0.        ,
        -0.        ,  0.        , -0.        ,  0.        ,  0.        ,  0.        , -0.12813559,  0.03781794, -0.65882445, -0.        ,  0.        ,
         0.01679517,  0.        ,  0.        , -0.00198401,  0.91282919,  0.94590955],
       [ 0.09458852,  0.21567877,  0.01181764,  0.        ,  0.        , -0.        , -0.        , -0.01377946,  3.17136237, -0.        , -0.        ,
        -0.        , -0.        , -0.        ,  0.        , -0.        , -0.        ,  0.01379051, -0.27850286,  0.00348511, -0.        ,  0.        ,
        -0.55007551,  0.        , -0.        , -0.34025484, -0.00087262, -0.00073355],
       [-0.        , -0.        , -0.        ,  0.05783253, -0.01071251,  0.00157193, -0.01217534,  0.        , -0.        ,  3.16637168,  0.        ,
         0.        , -0.        , -0.        , -0.        ,  0.00526897, -0.01607993, -0.        ,  0.        ,  0.        , -0.03137478,  0.09315838,
         0.        , -0.00261466,  0.00060735, -0.        ,  0.        ,  0.        ],
       [-0.        , -0.        ,  0.        ,  0.01071251,  0.05783253, -0.01217534, -0.00157193,  0.        , -0.        ,  0.        ,  3.16637168,
        -0.        ,  0.        , -0.        , -0.        ,  0.01607993,  0.00526897,  0.        , -0.        , -0.        ,  0.09315838,  0.03137478,
         0.        ,  0.00060735,  0.00261466, -0.        , -0.        , -0.        ],
       [ 0.        ,  0.        ,  0.        ,  0.        ,  0.        , -0.        , -0.        , -0.        , -0.        ,  0.        , -0.        ,
         3.39256186,  0.        , -0.02027239, -0.00140033,  0.        ,  0.        ,  0.        ,  0.        ,  0.        ,  0.        ,  0.        ,
         0.        , -0.        , -0.        , -0.        , -0.        , -0.        ],
       [ 0.        , -0.        , -0.        , -0.        ,  0.        , -0.        , -0.        ,  0.        , -0.        , -0.        ,  0.        ,
         0.        ,  3.39256186,  0.00140033, -0.02027239,  0.        , -0.        , -0.        ,  0.        , -0.        , -0.        ,  0.        ,
        -0.        ,  0.        , -0.        ,  0.        ,  0.        , -0.        ],
       [ 0.        ,  0.        ,  0.        , -0.        ,  0.        ,  0.        , -0.        , -0.        , -0.        , -0.        , -0.        ,
        -0.02027239,  0.00140033,  3.51957949, -0.        ,  0.        , -0.        ,  0.        ,  0.        ,  0.        ,  0.        ,  0.        ,
         0.        ,  0.        , -0.        , -0.        , -0.        , -0.        ],
       [-0.        , -0.        , -0.        , -0.        , -0.        , -0.        , -0.        ,  0.        ,  0.        , -0.        , -0.        ,
        -0.00140033, -0.02027239, -0.        ,  3.51957949,  0.        , -0.        , -0.        ,  0.        ,  0.        ,  0.        ,  0.        ,
        -0.        ,  0.        ,  0.        , -0.        , -0.        ,  0.        ],
       [-0.        , -0.        ,  0.        ,  0.00463329,  0.0084851 ,  0.01674388,  0.00798614,  0.        , -0.        ,  0.00526897,  0.01607993,
         0.        ,  0.        ,  0.        ,  0.        ,  3.86659705, -0.        ,  0.        , -0.        ,  0.        , -0.00456133, -0.0034068 ,
         0.        , -0.01449757,  0.16355519, -0.        ,  0.        , -0.        ],
       [-0.        , -0.        ,  0.        , -0.0084851 ,  0.00463329,  0.00798614, -0.01674388,  0.        , -0.        , -0.01607993,  0.00526897,
         0.        , -0.        , -0.        , -0.        , -0.        ,  3.86659705,  0.        ,  0.        ,  0.        , -0.0034068 ,  0.00456133,
        -0.        ,  0.16355519,  0.01449757, -0.        , -0.        , -0.        ],
       [ 0.02725379,  0.00802639, -0.25541226, -0.        ,  0.        ,  0.        ,  0.        , -0.12813559,  0.01379051, -0.        ,  0.        ,
         0.        , -0.        ,  0.        , -0.        ,  0.        ,  0.        ,  4.13959063,  0.01699504, -0.44684164, -0.        , -0.        ,
         0.01202814, -0.        ,  0.        , -0.00517545, -0.44108595, -0.70154888],
       [-0.02979539, -0.25400799,  0.0768039 , -0.        , -0.        , -0.        ,  0.        ,  0.03781794, -0.27850286,  0.        , -0.        ,
         0.        ,  0.        ,  0.        ,  0.        , -0.        ,  0.        ,  0.01699504,  1.19362072,  0.03765644, -0.        , -0.        ,
         0.06946805, -0.        , -0.        , -0.975182  , -0.00041992,  0.01009408],
       [ 0.0106296 , -0.00796497,  0.60150991, -0.        ,  0.        , -0.        ,  0.        , -0.65882445,  0.00348511,  0.        , -0.        ,
         0.        , -0.        ,  0.        ,  0.        ,  0.        ,  0.        , -0.44684164,  0.03765644,  1.89552744, -0.        ,  0.        ,
        -0.00489859, -0.        , -0.        , -0.01591058, -0.96659853,  0.60716858],
       [ 0.        ,  0.        ,  0.        ,  0.18209525, -1.27645738, -0.01032155,  0.00205428, -0.        , -0.        , -0.03137478,  0.09315838,
         0.        , -0.        ,  0.        ,  0.        , -0.00456133, -0.0034068 , -0.        , -0.        , -0.        ,  3.218246  ,  0.        ,
         0.        ,  0.00845913,  0.01370178,  0.        , -0.        ,  0.        ],
       [-0.        , -0.        , -0.        , -1.27645738, -0.18209525, -0.00205428, -0.01032155,  0.        ,  0.        ,  0.09315838,  0.03137478,
         0.        ,  0.        ,  0.        ,  0.        , -0.0034068 ,  0.00456133, -0.        , -0.        ,  0.        , -0.        ,  3.218246  ,
         0.        , -0.01370178,  0.00845913, -0.        ,  0.        ,  0.        ],
       [ 0.22032701,  1.05085535,  0.00761024, -0.        ,  0.        ,  0.        , -0.        ,  0.01679517, -0.55007551,  0.        ,  0.        ,
         0.        , -0.        ,  0.        , -0.        ,  0.        , -0.        ,  0.01202814,  0.06946805, -0.00489859,  0.        ,  0.        ,
         3.63646651,  0.        ,  0.        ,  0.07733746,  0.00573704,  0.00699244],
       [ 0.        ,  0.        , -0.        ,  0.00192039, -0.00083785, -0.49047195,  1.31646523,  0.        ,  0.        , -0.00261466,  0.00060735,
        -0.        ,  0.        ,  0.        ,  0.        , -0.01449757,  0.16355519, -0.        , -0.        , -0.        ,  0.00845913, -0.01370178,
         0.        ,  3.0914291 , -0.        , -0.        ,  0.        ,  0.        ],
       [ 0.        ,  0.        , -0.        , -0.00083785, -0.00192039, -1.31646523, -0.49047195,  0.        , -0.        ,  0.00060735,  0.00261466,
        -0.        , -0.        , -0.        ,  0.        ,  0.16355519,  0.01449757,  0.        , -0.        , -0.        ,  0.01370178,  0.00845913,
         0.        ,  0.        ,  3.0914291 ,  0.        ,  0.        ,  0.        ],
       [-0.04234075,  0.06203304,  0.00661591,  0.        , -0.        ,  0.        , -0.        , -0.00198401, -0.34025484, -0.        , -0.        ,
        -0.        ,  0.        , -0.        , -0.        , -0.        , -0.        , -0.00517545, -0.975182  , -0.01591058,  0.        , -0.        ,
         0.07733746, -0.        ,  0.        ,  1.80229175,  0.00306621, -0.01257092],
       [-0.00716226,  0.00046861, -0.11388453, -0.        ,  0.        , -0.        , -0.        ,  0.91282919, -0.00087262,  0.        , -0.        ,
        -0.        ,  0.        , -0.        , -0.        ,  0.        , -0.        , -0.44108595, -0.00041992, -0.96659853, -0.        ,  0.        ,
         0.00573704,  0.        ,  0.        ,  0.00306621,  1.99185588,  1.0415532 ],
       [-0.01453395,  0.00095941,  0.13111753, -0.        ,  0.        , -0.        ,  0.        ,  0.94590955, -0.00073355,  0.        , -0.        ,
        -0.        , -0.        , -0.        ,  0.        , -0.        , -0.        , -0.70154888,  0.01009408,  0.60716858,  0.        ,  0.        ,
         0.00699244,  0.        ,  0.        , -0.01257092,  1.0415532 ,  2.92237657]]), array([[-0.28591381,  0.406677  , -0.19654672,  0.        ,  0.        , -0.        , -0.        , -0.08826472,  0.09458852,  0.        , -0.        ,
         0.        , -0.        ,  0.        ,  0.        , -0.        ,  0.        , -0.02725379, -0.02979539, -0.0106296 ,  0.        , -0.        ,
         0.22032701,  0.        ,  0.        , -0.04234075,  0.00716226,  0.01453395],
       [ 0.406677  ,  1.19175928,  0.08336712,  0.        ,  0.        , -0.        , -0.        , -0.00715361,  0.21567877, -0.        , -0.        ,
         0.        ,  0.        ,  0.        , -0.        , -0.        ,  0.        , -0.00802639, -0.25400799,  0.00796497,  0.        , -0.        ,
         1.05085535,  0.        ,  0.        ,  0.06203304, -0.00046861, -0.00095941],
       [-0.19654672,  0.08336712,  0.30533186, -0.        ,  0.        , -0.        , -0.        , -0.50864716, -0.01181764,  0.        , -0.        ,
         0.        , -0.        ,  0.        ,  0.        , -0.        ,  0.        , -0.25541226, -0.0768039 ,  0.60150991,  0.        , -0.        ,
        -0.00761024, -0.        , -0.        , -0.00661591, -0.11388453,  0.13111753],
       [ 0.        ,  0.        , -0.        ,  1.33257304, -0.        , -0.00256527, -0.04679869, -0.        ,  0.        ,  0.05783253,  0.01071251,
         0.        , -0.        , -0.        , -0.        , -0.00463329,  0.0084851 , -0.        , -0.        , -0.        ,  0.18209525, -1.27645738,
        -0.        , -0.00192039,  0.00083785,  0.        , -0.        , -0.        ],
       [ 0.        ,  0.        ,  0.        , -0.        ,  1.33257304, -0.04679869,  0.00256527,  0.        ,  0.        , -0.01071251,  0.05783253,
         0.        ,  0.        ,  0.        , -0.        , -0.0084851 , -0.00463329,  0.        , -0.        ,  0.        , -1.27645738, -0.18209525,
         0.        ,  0.00083785,  0.00192039, -0.        ,  0.        ,  0.        ],
       [-0.        , -0.        , -0.        , -0.00256527, -0.04679869,  1.8651653 , -0.        ,  0.        , -0.        , -0.00157193,  0.01217534,
        -0.        , -0.        ,  0.        , -0.        ,  0.01674388,  0.00798614, -0.        , -0.        , -0.        ,  0.01032155,  0.00205428,
         0.        , -0.49047195, -1.31646523,  0.        , -0.        , -0.        ],
       [-0.        , -0.        , -0.        , -0.04679869,  0.00256527,  0.        ,  1.8651653 ,  0.        , -0.        ,  0.01217534,  0.00157193,
        -0.        , -0.        , -0.        , -0.        ,  0.00798614, -0.01674388,  0.        ,  0.        ,  0.        , -0.00205428,  0.01032155,
        -0.        ,  1.31646523, -0.49047195, -0.        , -0.        ,  0.        ],
       [-0.08826472, -0.00715361, -0.50864716, -0.        ,  0.        ,  0.        ,  0.        ,  2.28083976,  0.01377946,  0.        ,  0.        ,
        -0.        , -0.        , -0.        ,  0.        , -0.        ,  0.        , -0.12813559, -0.03781794, -0.65882445, -0.        ,  0.        ,
        -0.01679517,  0.        ,  0.        ,  0.00198401,  0.91282919,  0.94590955],
       [ 0.09458852,  0.21567877, -0.01181764,  0.        ,  0.        , -0.        , -0.        ,  0.01377946,  3.17136237, -0.        , -0.        ,
        -0.        ,  0.        , -0.        ,  0.        , -0.        , -0.        , -0.01379051, -0.27850286, -0.00348511, -0.        ,  0.        ,
        -0.55007551,  0.        , -0.        , -0.34025484,  0.00087262,  0.00073355],
       [ 0.        , -0.        ,  0.        ,  0.05783253, -0.01071251, -0.00157193,  0.01217534,  0.        , -0.        ,  3.16637168,  0.        ,
         0.        , -0.        , -0.        , -0.        , -0.00526897,  0.01607993, -0.        ,  0.        ,  0.        , -0.03137478,  0.09315838,
         0.        ,  0.00261466, -0.00060735, -0.        ,  0.        ,  0.        ],
       [-0.        , -0.        , -0.        ,  0.01071251,  0.05783253,  0.01217534,  0.00157193,  0.        , -0.        ,  0.        ,  3.16637168,
        -0.        ,  0.        , -0.        , -0.        , -0.01607993, -0.00526897,  0.        , -0.        , -0.        ,  0.09315838,  0.03137478,
         0.        , -0.00060735, -0.00261466, -0.        , -0.        , -0.        ],
       [ 0.        ,  0.        ,  0.        ,  0.        ,  0.        , -0.        , -0.        , -0.        , -0.        ,  0.        , -0.        ,
         3.39256186,  0.        ,  0.02027239,  0.00140033,  0.        ,  0.        ,  0.        ,  0.        ,  0.        ,  0.        ,  0.        ,
         0.        , -0.        , -0.        , -0.        , -0.        , -0.        ],
       [-0.        ,  0.        , -0.        , -0.        ,  0.        , -0.        , -0.        , -0.        ,  0.        , -0.        ,  0.        ,
         0.        ,  3.39256186, -0.00140033,  0.02027239,  0.        , -0.        , -0.        , -0.        , -0.        , -0.        ,  0.        ,
        -0.        ,  0.        , -0.        , -0.        ,  0.        ,  0.        ],
       [ 0.        ,  0.        ,  0.        , -0.        ,  0.        ,  0.        , -0.        , -0.        , -0.        , -0.        , -0.        ,
         0.02027239, -0.00140033,  3.51957949, -0.        ,  0.        , -0.        ,  0.        ,  0.        ,  0.        ,  0.        ,  0.        ,
         0.        ,  0.        , -0.        , -0.        , -0.        , -0.        ],
       [ 0.        , -0.        ,  0.        , -0.        , -0.        , -0.        , -0.        ,  0.        ,  0.        , -0.        , -0.        ,
         0.00140033,  0.02027239, -0.        ,  3.51957949,  0.        , -0.        , -0.        ,  0.        ,  0.        ,  0.        ,  0.        ,
        -0.        ,  0.        ,  0.        , -0.        , -0.        ,  0.        ],
       [-0.        , -0.        , -0.        , -0.00463329, -0.0084851 ,  0.01674388,  0.00798614, -0.        , -0.        , -0.00526897, -0.01607993,
         0.        ,  0.        ,  0.        ,  0.        ,  3.86659705, -0.        , -0.        , -0.        ,  0.        ,  0.00456133,  0.0034068 ,
         0.        , -0.01449757,  0.16355519, -0.        ,  0.        , -0.        ],
       [ 0.        ,  0.        ,  0.        ,  0.0084851 , -0.00463329,  0.00798614, -0.01674388,  0.        , -0.        ,  0.01607993, -0.00526897,
         0.        , -0.        , -0.        , -0.        , -0.        ,  3.86659705,  0.        ,  0.        ,  0.        ,  0.0034068 , -0.00456133,
        -0.        ,  0.16355519,  0.01449757, -0.        , -0.        , -0.        ],
       [-0.02725379, -0.00802639, -0.25541226, -0.        ,  0.        , -0.        ,  0.        , -0.12813559, -0.01379051, -0.        ,  0.        ,
         0.        , -0.        ,  0.        , -0.        , -0.        ,  0.        ,  4.13959063, -0.01699504, -0.44684164, -0.        , -0.        ,
        -0.01202814, -0.        ,  0.        ,  0.00517545, -0.44108595, -0.70154888],
       [-0.02979539, -0.25400799, -0.0768039 , -0.        , -0.        , -0.        ,  0.        , -0.03781794, -0.27850286,  0.        , -0.        ,
         0.        , -0.        ,  0.        ,  0.        , -0.        ,  0.        , -0.01699504,  1.19362072, -0.03765644, -0.        , -0.        ,
         0.06946805, -0.        , -0.        , -0.975182  ,  0.00041992, -0.01009408],
       [-0.0106296 ,  0.00796497,  0.60150991, -0.        ,  0.        , -0.        ,  0.        , -0.65882445, -0.00348511,  0.        , -0.        ,
         0.        , -0.        ,  0.        ,  0.        ,  0.        ,  0.        , -0.44684164, -0.03765644,  1.89552744, -0.        ,  0.        ,
         0.00489859,  0.        ,  0.        ,  0.01591058, -0.96659853,  0.60716858],
       [ 0.        ,  0.        ,  0.        ,  0.18209525, -1.27645738,  0.01032155, -0.00205428, -0.        , -0.        , -0.03137478,  0.09315838,
         0.        , -0.        ,  0.        ,  0.        ,  0.00456133,  0.0034068 , -0.        , -0.        , -0.        ,  3.218246  ,  0.        ,
         0.        , -0.00845913, -0.01370178,  0.        , -0.        ,  0.        ],
       [-0.        , -0.        , -0.        , -1.27645738, -0.18209525,  0.00205428,  0.01032155,  0.        ,  0.        ,  0.09315838,  0.03137478,
         0.        ,  0.        ,  0.        ,  0.        ,  0.0034068 , -0.00456133, -0.        , -0.        ,  0.        ,  0.        ,  3.218246  ,
         0.        ,  0.01370178, -0.00845913, -0.        ,  0.        ,  0.        ],
       [ 0.22032701,  1.05085535, -0.00761024, -0.        ,  0.        ,  0.        , -0.        , -0.01679517, -0.55007551,  0.        ,  0.        ,
         0.        , -0.        ,  0.        , -0.        ,  0.        , -0.        , -0.01202814,  0.06946805,  0.00489859,  0.        ,  0.        ,
         3.63646651,  0.        ,  0.        ,  0.07733746, -0.00573704, -0.00699244],
       [ 0.        ,  0.        , -0.        , -0.00192039,  0.00083785, -0.49047195,  1.31646523,  0.        ,  0.        ,  0.00261466, -0.00060735,
        -0.        ,  0.        ,  0.        ,  0.        , -0.01449757,  0.16355519, -0.        , -0.        ,  0.        , -0.00845913,  0.01370178,
         0.        ,  3.0914291 , -0.        , -0.        ,  0.        ,  0.        ],
       [ 0.        ,  0.        , -0.        ,  0.00083785,  0.00192039, -1.31646523, -0.49047195,  0.        , -0.        , -0.00060735, -0.00261466,
        -0.        , -0.        , -0.        ,  0.        ,  0.16355519,  0.01449757,  0.        , -0.        ,  0.        , -0.01370178, -0.00845913,
         0.        , -0.        ,  3.0914291 ,  0.        ,  0.        ,  0.        ],
       [-0.04234075,  0.06203304, -0.00661591,  0.        , -0.        ,  0.        , -0.        ,  0.00198401, -0.34025484, -0.        , -0.        ,
        -0.        , -0.        , -0.        , -0.        , -0.        , -0.        ,  0.00517545, -0.975182  ,  0.01591058,  0.        , -0.        ,
         0.07733746, -0.        ,  0.        ,  1.80229175, -0.00306621,  0.01257092],
       [ 0.00716226, -0.00046861, -0.11388453, -0.        ,  0.        , -0.        , -0.        ,  0.91282919,  0.00087262,  0.        , -0.        ,
        -0.        ,  0.        , -0.        , -0.        ,  0.        , -0.        , -0.44108595,  0.00041992, -0.96659853, -0.        ,  0.        ,
        -0.00573704,  0.        ,  0.        , -0.00306621,  1.99185588,  1.0415532 ],
       [ 0.01453395, -0.00095941,  0.13111753, -0.        ,  0.        , -0.        ,  0.        ,  0.94590955,  0.00073355,  0.        , -0.        ,
        -0.        ,  0.        , -0.        ,  0.        , -0.        , -0.        , -0.70154888, -0.01009408,  0.60716858,  0.        ,  0.        ,
        -0.00699244,  0.        ,  0.        ,  0.01257092,  1.0415532 ,  2.92237657]]))
E(UHF) =    -1.374805
NO eigenvalue
[-1. -0. -0. -0. -0. -0. -0. -0. -0. -0. -0. -0. -0. -0. -0. -0.  0.  0.  0.  0.  0.  0.  0.  0.  0.  0.  0.  0.] [-1. -0. -0. -0. -0. -0. -0. -0. -0. -0. -0. -0. -0. -0. -0. -0.  0.  0.  0.  0.  0.  0.  0.  0.  0.  0.  0.  0.]
NO vec
[[ 0.89383482  0.         -0.224632   ...  0.          0.          0.        ]
 [-0.24010445  0.          0.42647118 ...  0.          0.          0.        ]
 [-0.35577827  0.         -0.81974864 ...  0.          0.          0.        ]
 ...
 [ 0.          0.02987937  0.         ...  0.57642258 -0.02883236  0.06854818]
 [ 0.         -0.03739332  0.         ...  0.57103026  0.3160654  -0.06583581]
 [ 0.         -0.01785761  0.         ... -0.09042758  0.04293993 -0.0566062 ]]
dm(NO)
[[ 1.  0.  0. ...  0.  0.  0.]
 [ 0.  1.  0. ... -0.  0.  0.]
 [ 0.  0.  0. ...  0.  0.  0.]
 ...
 [ 0.  0.  0. ... -0. -0.  0.]
 [ 0.  0.  0. ...  0. -0.  0.]
 [ 0.  0.  0. ...  0. -0.  0.]]
D(g) (NO)
[[ 0.99951369  0.02231896  0.         ...  0.00116371  0.00753688 -0.01225446]
 [-0.02231896  0.99951369  0.01883616 ...  0.          0.          0.        ]
 [ 0.         -0.01883616  0.99951369 ...  0.00477572  0.00075409 -0.01944537]
 ...
 [-0.00116371  0.         -0.00477572 ...  0.99951369  0.          0.        ]
 [-0.00753688  0.         -0.00075409 ... -0.          0.99951369  0.        ]
 [ 0.01225446 -0.          0.01944537 ... -0.          0.          0.99951369]]
...
N(g) (NO)
[[ 0.99998794 -0.02232955]
 [ 0.02232955  0.99998794]]
...
P(g) (NO)
[[ 1.         -0.          0.         ... -0.          0.          0.        ]
 [ 0.          1.         -0.         ... -0.          0.          0.        ]
 [-0.0004206  -0.01883594 -0.         ...  0.         -0.         -0.        ]
 ...
 [-0.0011637   0.00002599 -0.         ... -0.          0.          0.        ]
 [-0.00753679  0.0001683  -0.         ... -0.          0.          0.        ]
 [ 0.01225431 -0.00027364  0.         ...  0.         -0.         -0.        ]]
...
Pg_ortho
[[ 0.79909883 -0.2146562  -0.31806995 ...  0.00023674 -0.00029627 -0.00014149]
 [-0.2146562   0.05766156  0.08544085 ... -0.00006359  0.00007958  0.00003801]
 [-0.31762709  0.08532189  0.12642696 ...  0.00056874 -0.00071177 -0.00033991]
 ...
 [-0.00023674  0.00006359  0.00009423 ...  0.00089295 -0.00111751 -0.00053368]
 [-0.00178821  0.00048035  0.00071177 ... -0.00111595  0.00139659  0.00066696]
 [-0.00085398  0.0002294   0.00033991 ... -0.00053294  0.00066696  0.00031851]]
G(g) (NO)
[[ 0.40418985 -0.00184938 -0.04752556 ... -0.0000479   0.00068658 -0.00106069]
 [ 0.00184938  0.40418985  0.00173963 ...  0.02351298  0.00862563 -0.10042469]
 [-0.04739512  0.01138515  0.95919559 ...  0.00027224 -0.00016295  0.00160877]
 ...
 [ 0.00097468  0.02350613  0.00032145 ...  0.73558154 -0.12194517 -0.05269868]
 [ 0.0045559   0.0085698   0.00113814 ... -0.12194684  0.94970007 -0.00306146]
 [-0.00625247 -0.10032735 -0.00061688 ... -0.05269742 -0.00308709  0.93193522]]
...
C(NO)
[[-1.          0.         -0.         ...  0.          0.          0.        ]
 [ 0.         -1.          0.         ... -0.         -0.         -0.        ]
 [ 0.          0.          0.73091737 ...  0.          0.          0.        ]
 ...
 [ 0.         -0.          0.         ... -0.         -0.29070515  0.09738458]
 [ 0.         -0.          0.         ... -0.          0.17043573  0.00862515]
 [ 0.         -0.          0.         ...  0.          0.23531607  0.01562849]]
detC 1.0
detNg [1.00047448 1.01248717 1.06911843 1.21147996 1.45593912 1.73331699 1.90617156 1.95025733]
xg [0.99952574 0.98766684 0.93535007 0.82543669 0.6868419  0.57692852 0.52461175 0.51275285]
ciS 1.512278589652995
[[-0.88947677  0.          0.04148583 ...  0.          0.          0.        ]
 [ 0.         -0.88947677  0.         ... -0.02268717 -0.00628973  0.09495836]
 [ 0.04148583  0.         -0.30031475 ...  0.          0.          0.        ]
 ...
 [ 0.         -0.02268717  0.         ...  1.5874875  -0.87523808 -0.21377346]
 [ 0.         -0.00628973  0.         ... -0.87523808  1.04208005  0.35240003]
 [ 0.          0.09495836  0.         ... -0.21377346  0.35240003  0.0114138 ]]
ciH -2.1110071485283677
S2 = -0.000000
X(g)
[[ 2.         -0.         -0.0004206  ...  0.0011637   0.00753679 -0.01225431]
 [ 0.          2.          0.01883594 ...  0.00002599  0.0001683  -0.00027364]
 [-0.0004206  -0.01883594  0.         ...  0.          0.          0.        ]
 ...
 [-0.0011637   0.00002599  0.         ...  0.          0.          0.        ]
 [-0.00753679  0.0001683   0.         ...  0.          0.          0.        ]
 [ 0.01225431 -0.00027364  0.         ...  0.          0.          0.        ]]
X(g) int
[[ 2.          0.         -0.28588594 ...  0.01938125  0.12552464 -0.20409454]
 [-0.          2.          0.31371087 ...  0.01766221  0.11439109 -0.18599214]
 [-0.28588594 -0.31371087  0.         ...  0.          0.          0.        ]
 ...
 [-0.01938125  0.01766221  0.         ...  0.          0.          0.        ]
 [-0.12552464  0.11439109  0.         ...  0.          0.          0.        ]
 [ 0.20409454 -0.18599214  0.         ...  0.          0.          0.        ]]
Hsp + Hph =  -1.395911548951279
Feff (mod,ortho)
[[-0.26696856  0.39991366  0.21771497 ...  0.          0.          0.        ]
 [ 0.39991366  1.1940258  -0.088387   ...  0.          0.          0.        ]
 [ 0.21771497 -0.088387    0.28547888 ...  0.          0.          0.        ]
 ...
 [ 0.          0.          0.         ...  1.80233258 -0.00312314  0.01260862]
 [ 0.          0.          0.         ... -0.00312314  1.99193445  1.04150951]
 [ 0.          0.          0.         ...  0.01260862  1.04150951  2.92231693]]
E(SUHF) =     -1.04312674
e_a, e_b
[-0.48778816  0.07325569  0.35546966  0.47490152  0.66995914  0.66995914  0.81920475  0.94579257  0.94579257  1.33836754  2.52133221  2.69866502  3.12823519
  3.16445745  3.16445745  3.38939009  3.38939009  3.52275126  3.52275126  3.78979042  3.78979042  3.88181604  3.88181604  4.00338959  4.08856654  4.08856654
  4.25791275  5.06216319] [-0.48778816  0.07325569  0.35546966  0.47490152  0.66995914  0.66995914  0.81920475  0.94579257  0.94579257  1.33836754  2.52133221  2.69866502  3.12823519
  3.16445745  3.16445745  3.38939009  3.38939009  3.52275126  3.52275126  3.78979042  3.78979042  3.88181604  3.88181604  4.00338959  4.08856654  4.08856654
  4.25791275  5.06216319]
P_a, P_b
[[ 0.75858171 -0.20497952 -0.35402399  0.         -0.          0.         -0.         -0.09802688 -0.00272778 -0.          0.          0.         -0.
   0.          0.          0.          0.         -0.01530037  0.00631894  0.06067316  0.         -0.          0.01142605  0.         -0.          0.02263073
   0.03410428  0.02020224]
 [-0.20497952  0.05538837  0.0956623  -0.          0.         -0.          0.          0.02648825  0.00073709  0.         -0.         -0.          0.
  -0.         -0.         -0.         -0.          0.00413438 -0.00170747 -0.01639475 -0.          0.         -0.00308748 -0.          0.         -0.00611514
  -0.00921546 -0.00545893]
 [-0.35402399  0.0956623   0.16522015 -0.          0.         -0.          0.          0.04574836  0.00127303  0.         -0.         -0.          0.
  -0.         -0.         -0.         -0.          0.00714056 -0.002949   -0.02831568 -0.          0.         -0.00533245 -0.          0.         -0.01056158
  -0.01591619 -0.00942822]
 [ 0.         -0.         -0.          0.         -0.          0.         -0.         -0.         -0.         -0.          0.          0.         -0.
   0.          0.          0.          0.         -0.          0.          0.          0.         -0.          0.          0.         -0.          0.
   0.          0.        ]
 [-0.          0.          0.         -0.          0.         -0.          0.          0.          0.          0.         -0.         -0.          0.
  -0.         -0.         -0.         -0.          0.         -0.         -0.         -0.          0.         -0.         -0.          0.         -0.
  -0.         -0.        ]
 [ 0.         -0.         -0.          0.         -0.          0.         -0.         -0.         -0.         -0.          0.          0.         -0.
   0.          0.          0.          0.         -0.          0.          0.          0.         -0.          0.          0.         -0.          0.
   0.          0.        ]
 [-0.          0.          0.         -0.          0.         -0.          0.          0.          0.          0.         -0.         -0.          0.
  -0.         -0.         -0.         -0.          0.         -0.         -0.         -0.          0.         -0.         -0.          0.         -0.
  -0.         -0.        ]
 [-0.09802688  0.02648825  0.04574836 -0.          0.         -0.          0.          0.01266742  0.00035249  0.         -0.         -0.          0.
  -0.         -0.         -0.         -0.          0.00197717 -0.00081656 -0.00784042 -0.          0.         -0.00147652 -0.          0.         -0.00292443
  -0.00440709 -0.00261061]
 [-0.00272778  0.00073709  0.00127303 -0.          0.         -0.          0.          0.00035249  0.00000981  0.         -0.         -0.          0.
  -0.         -0.         -0.         -0.          0.00005502 -0.00002272 -0.00021817 -0.          0.         -0.00004109 -0.          0.         -0.00008138
  -0.00012264 -0.00007265]
 [-0.          0.          0.         -0.          0.         -0.          0.          0.          0.          0.         -0.         -0.          0.
  -0.         -0.         -0.         -0.          0.         -0.         -0.         -0.          0.         -0.         -0.          0.         -0.
  -0.         -0.        ]
 [ 0.         -0.         -0.          0.         -0.          0.         -0.         -0.         -0.         -0.          0.          0.         -0.
   0.          0.          0.          0.         -0.          0.          0.          0.         -0.          0.          0.         -0.          0.
   0.          0.        ]
 [ 0.         -0.         -0.          0.         -0.          0.         -0.         -0.         -0.         -0.          0.          0.         -0.
   0.          0.          0.          0.         -0.          0.          0.          0.         -0.          0.          0.         -0.          0.
   0.          0.        ]
 [-0.          0.          0.         -0.          0.         -0.          0.          0.          0.          0.         -0.         -0.          0.
  -0.         -0.         -0.         -0.          0.         -0.         -0.         -0.          0.         -0.         -0.          0.         -0.
  -0.         -0.        ]
 [ 0.         -0.         -0.          0.         -0.          0.         -0.         -0.         -0.         -0.          0.          0.         -0.
   0.          0.          0.          0.         -0.          0.          0.          0.         -0.          0.          0.         -0.          0.
   0.          0.        ]
 [ 0.         -0.         -0.          0.         -0.          0.         -0.         -0.         -0.         -0.          0.          0.         -0.
   0.          0.          0.          0.         -0.          0.          0.          0.         -0.          0.          0.         -0.          0.
   0.          0.        ]
 [ 0.         -0.         -0.          0.         -0.          0.         -0.         -0.         -0.         -0.          0.          0.         -0.
   0.          0.          0.          0.         -0.          0.          0.          0.         -0.          0.          0.         -0.          0.
   0.          0.        ]
 [ 0.         -0.         -0.          0.         -0.          0.         -0.         -0.         -0.         -0.          0.          0.         -0.
   0.          0.          0.          0.         -0.          0.          0.          0.         -0.          0.          0.         -0.          0.
   0.          0.        ]
 [-0.01530037  0.00413438  0.00714056 -0.          0.         -0.          0.          0.00197717  0.00005502  0.         -0.         -0.          0.
  -0.         -0.         -0.         -0.          0.0003086  -0.00012745 -0.00122376 -0.          0.         -0.00023046 -0.          0.         -0.00045646
  -0.00068787 -0.00040747]
 [ 0.00631894 -0.00170747 -0.002949    0.         -0.          0.         -0.         -0.00081656 -0.00002272 -0.          0.          0.         -0.
   0.          0.          0.          0.         -0.00012745  0.00005264  0.0005054   0.         -0.          0.00009518  0.         -0.          0.00018851
   0.00028409  0.00016828]
 [ 0.06067316 -0.01639475 -0.02831568  0.         -0.          0.         -0.         -0.00784042 -0.00021817 -0.          0.          0.         -0.
   0.          0.          0.          0.         -0.00122376  0.0005054   0.00485278  0.         -0.          0.00091388  0.         -0.          0.00181006
   0.00272774  0.00161582]
 [ 0.         -0.         -0.          0.         -0.          0.         -0.         -0.         -0.         -0.          0.          0.         -0.
   0.          0.          0.          0.         -0.          0.          0.          0.         -0.          0.          0.         -0.          0.
   0.          0.        ]
 [-0.          0.          0.         -0.          0.         -0.          0.          0.          0.          0.         -0.         -0.          0.
  -0.         -0.         -0.         -0.          0.         -0.         -0.         -0.          0.         -0.         -0.          0.         -0.
  -0.         -0.        ]
 [ 0.01142605 -0.00308748 -0.00533245  0.         -0.          0.         -0.         -0.00147652 -0.00004109 -0.          0.          0.         -0.
   0.          0.          0.          0.         -0.00023046  0.00009518  0.00091388  0.         -0.          0.0001721   0.         -0.          0.00034087
   0.00051369  0.00030429]
 [ 0.         -0.         -0.          0.         -0.          0.         -0.         -0.         -0.         -0.          0.          0.         -0.
   0.          0.          0.          0.         -0.          0.          0.          0.         -0.          0.          0.         -0.          0.
   0.          0.        ]
 [-0.          0.          0.         -0.          0.         -0.          0.          0.          0.          0.         -0.         -0.          0.
  -0.         -0.         -0.         -0.          0.         -0.         -0.         -0.          0.         -0.         -0.          0.         -0.
  -0.         -0.        ]
 [ 0.02263073 -0.00611514 -0.01056158  0.         -0.          0.         -0.         -0.00292443 -0.00008138 -0.          0.          0.         -0.
   0.          0.          0.          0.         -0.00045646  0.00018851  0.00181006  0.         -0.          0.00034087  0.         -0.          0.00067514
   0.00101743  0.00060269]
 [ 0.03410428 -0.00921546 -0.01591619  0.         -0.          0.         -0.         -0.00440709 -0.00012264 -0.          0.          0.         -0.
   0.          0.          0.          0.         -0.00068787  0.00028409  0.00272774  0.         -0.          0.00051369  0.         -0.          0.00101743
   0.00153326  0.00090825]
 [ 0.02020224 -0.00545893 -0.00942822  0.         -0.          0.         -0.         -0.00261061 -0.00007265 -0.          0.          0.         -0.
   0.          0.          0.          0.         -0.00040747  0.00016828  0.00161582  0.         -0.          0.00030429  0.         -0.          0.00060269
   0.00090825  0.00053802]] 
 [[ 0.75858171 -0.20497952  0.35402399 -0.         -0.         -0.          0.          0.09802688 -0.00272778  0.         -0.         -0.          0.
  -0.         -0.          0.         -0.          0.01530037  0.00631894 -0.06067316 -0.         -0.          0.01142605  0.          0.          0.02263073
  -0.03410428 -0.02020224]
 [-0.20497952  0.05538837 -0.0956623   0.          0.          0.         -0.         -0.02648825  0.00073709 -0.          0.          0.         -0.
   0.          0.         -0.          0.         -0.00413438 -0.00170747  0.01639475  0.          0.         -0.00308748 -0.         -0.         -0.00611514
   0.00921546  0.00545893]
 [ 0.35402399 -0.0956623   0.16522015 -0.         -0.         -0.          0.          0.04574836 -0.00127303  0.         -0.         -0.          0.
  -0.         -0.          0.         -0.          0.00714056  0.002949   -0.02831568 -0.         -0.          0.00533245  0.          0.          0.01056158
  -0.01591619 -0.00942822]
 [-0.          0.         -0.          0.          0.          0.         -0.         -0.          0.         -0.          0.          0.         -0.
   0.          0.         -0.          0.         -0.         -0.          0.          0.          0.         -0.         -0.         -0.         -0.
   0.          0.        ]
 [-0.          0.         -0.          0.          0.          0.         -0.         -0.          0.         -0.          0.          0.         -0.
   0.          0.         -0.          0.         -0.         -0.          0.          0.          0.         -0.         -0.         -0.         -0.
   0.          0.        ]
 [-0.          0.         -0.          0.          0.          0.         -0.         -0.          0.         -0.          0.          0.         -0.
   0.          0.         -0.          0.         -0.         -0.          0.          0.          0.         -0.         -0.         -0.         -0.
   0.          0.        ]
 [ 0.         -0.          0.         -0.         -0.         -0.          0.          0.         -0.          0.         -0.         -0.          0.
  -0.         -0.          0.         -0.          0.          0.         -0.         -0.         -0.          0.          0.          0.          0.
  -0.         -0.        ]
 [ 0.09802688 -0.02648825  0.04574836 -0.         -0.         -0.          0.          0.01266742 -0.00035249  0.         -0.         -0.          0.
  -0.         -0.          0.         -0.          0.00197717  0.00081656 -0.00784042 -0.         -0.          0.00147652  0.          0.          0.00292443
  -0.00440709 -0.00261061]
 [-0.00272778  0.00073709 -0.00127303  0.          0.          0.         -0.         -0.00035249  0.00000981 -0.          0.          0.         -0.
   0.          0.         -0.          0.         -0.00005502 -0.00002272  0.00021817  0.          0.         -0.00004109 -0.         -0.         -0.00008138
   0.00012264  0.00007265]
 [ 0.         -0.          0.         -0.         -0.         -0.          0.          0.         -0.          0.         -0.         -0.          0.
  -0.         -0.          0.         -0.          0.          0.         -0.         -0.         -0.          0.          0.          0.          0.
  -0.         -0.        ]
 [-0.          0.         -0.          0.          0.          0.         -0.         -0.          0.         -0.          0.          0.         -0.
   0.          0.         -0.          0.         -0.         -0.          0.          0.          0.         -0.         -0.         -0.         -0.
   0.          0.        ]
 [-0.          0.         -0.          0.          0.          0.         -0.         -0.          0.         -0.          0.          0.         -0.
   0.          0.         -0.          0.         -0.         -0.          0.          0.          0.         -0.         -0.         -0.         -0.
   0.          0.        ]
 [ 0.         -0.          0.         -0.         -0.         -0.          0.          0.         -0.          0.         -0.         -0.          0.
  -0.         -0.          0.         -0.          0.          0.         -0.         -0.         -0.          0.          0.          0.          0.
  -0.         -0.        ]
 [-0.          0.         -0.          0.          0.          0.         -0.         -0.          0.         -0.          0.          0.         -0.
   0.          0.         -0.          0.         -0.         -0.          0.          0.          0.         -0.         -0.         -0.         -0.
   0.          0.        ]
 [-0.          0.         -0.          0.          0.          0.         -0.         -0.          0.         -0.          0.          0.         -0.
   0.          0.         -0.          0.         -0.         -0.          0.          0.          0.         -0.         -0.         -0.         -0.
   0.          0.        ]
 [ 0.         -0.          0.         -0.         -0.         -0.          0.          0.         -0.          0.         -0.         -0.          0.
  -0.         -0.          0.         -0.          0.          0.         -0.         -0.         -0.          0.          0.          0.          0.
  -0.         -0.        ]
 [-0.          0.         -0.          0.          0.          0.         -0.         -0.          0.         -0.          0.          0.         -0.
   0.          0.         -0.          0.         -0.         -0.          0.          0.          0.         -0.         -0.         -0.         -0.
   0.          0.        ]
 [ 0.01530037 -0.00413438  0.00714056 -0.         -0.         -0.          0.          0.00197717 -0.00005502  0.         -0.         -0.          0.
  -0.         -0.          0.         -0.          0.0003086   0.00012745 -0.00122376 -0.         -0.          0.00023046  0.          0.          0.00045646
  -0.00068787 -0.00040747]
 [ 0.00631894 -0.00170747  0.002949   -0.         -0.         -0.          0.          0.00081656 -0.00002272  0.         -0.         -0.          0.
  -0.         -0.          0.         -0.          0.00012745  0.00005264 -0.0005054  -0.         -0.          0.00009518  0.          0.          0.00018851
  -0.00028409 -0.00016828]
 [-0.06067316  0.01639475 -0.02831568  0.          0.          0.         -0.         -0.00784042  0.00021817 -0.          0.          0.         -0.
   0.          0.         -0.          0.         -0.00122376 -0.0005054   0.00485278  0.          0.         -0.00091388 -0.         -0.         -0.00181006
   0.00272774  0.00161582]
 [-0.          0.         -0.          0.          0.          0.         -0.         -0.          0.         -0.          0.          0.         -0.
   0.          0.         -0.          0.         -0.         -0.          0.          0.          0.         -0.         -0.         -0.         -0.
   0.          0.        ]
 [-0.          0.         -0.          0.          0.          0.         -0.         -0.          0.         -0.          0.          0.         -0.
   0.          0.         -0.          0.         -0.         -0.          0.          0.          0.         -0.         -0.         -0.         -0.
   0.          0.        ]
 [ 0.01142605 -0.00308748  0.00533245 -0.         -0.         -0.          0.          0.00147652 -0.00004109  0.         -0.         -0.          0.
  -0.         -0.          0.         -0.          0.00023046  0.00009518 -0.00091388 -0.         -0.          0.0001721   0.          0.          0.00034087
  -0.00051369 -0.00030429]
 [ 0.         -0.          0.         -0.         -0.         -0.          0.          0.         -0.          0.         -0.         -0.          0.
  -0.         -0.          0.         -0.          0.          0.         -0.         -0.         -0.          0.          0.          0.          0.
  -0.         -0.        ]
 [ 0.         -0.          0.         -0.         -0.         -0.          0.          0.         -0.          0.         -0.         -0.          0.
  -0.         -0.          0.         -0.          0.          0.         -0.         -0.         -0.          0.          0.          0.          0.
  -0.         -0.        ]
 [ 0.02263073 -0.00611514  0.01056158 -0.         -0.         -0.          0.          0.00292443 -0.00008138  0.         -0.         -0.          0.
  -0.         -0.          0.         -0.          0.00045646  0.00018851 -0.00181006 -0.         -0.          0.00034087  0.          0.          0.00067514
  -0.00101743 -0.00060269]
 [-0.03410428  0.00921546 -0.01591619  0.          0.          0.         -0.         -0.00440709  0.00012264 -0.          0.          0.         -0.
   0.          0.         -0.          0.         -0.00068787 -0.00028409  0.00272774  0.          0.         -0.00051369 -0.         -0.         -0.00101743
   0.00153326  0.00090825]
 [-0.02020224  0.00545893 -0.00942822  0.          0.          0.         -0.         -0.00261061  0.00007265 -0.          0.          0.         -0.
   0.          0.         -0.          0.         -0.00040747 -0.00016828  0.00161582  0.          0.         -0.00030429 -0.         -0.         -0.00060269
[...]
 [-0.42892678  0.27963042  0.         ...  0.          0.          0.        ]]
Hsp + Hph =  -1.410311941646322
Feff (mod,ortho)
[[-0.22761947  0.39992664  0.2566041  ...  0.          0.          0.        ]
 [ 0.39992664  1.2012259  -0.10582046 ...  0.          0.          0.        ]
 [ 0.2566041  -0.10582046  0.27144698 ...  0.          0.          0.        ]
 ...
 [ 0.          0.          0.         ...  1.80902479 -0.00386925  0.01661528]
 [ 0.          0.          0.         ... -0.00386925  1.99658475  1.04195443]
 [ 0.          0.          0.         ...  0.01661528  1.04195443  2.92802404]]
E(SUHF) =     -1.05752713
e_a, e_b
[-0.50280648  0.09045898  0.35079189  0.49182079  0.67394892  0.67394892  0.82531     0.95209309  0.95209309  1.3444674   2.52573868  2.71831853  3.13512739
  3.17333148  3.17333148  3.39679117  3.39679117  3.53387829  3.53387829  3.79419735  3.79419735  3.8967271   3.8967271   4.01359143  4.10448026  4.10448026
  4.2737376   5.07272499] [-0.50280648  0.09045898  0.35079189  0.49182079  0.67394892  0.67394892  0.82531     0.95209309  0.95209309  1.3444674   2.52573868  2.71831853  3.13512739
  3.17333148  3.17333148  3.39679117  3.39679117  3.53387829  3.53387829  3.79419735  3.79419735  3.8967271   3.8967271   4.01359143  4.10448026  4.10448026
  4.2737376   5.07272499]
P_a, P_b
[[ 0.70085071 -0.19398346 -0.38971514  0.          0.         -0.          0.         -0.12172922 -0.0006925  -0.          0.          0.         -0.
   0.          0.          0.          0.         -0.02141691  0.0160943   0.04509206  0.         -0.          0.01246437 -0.         -0.          0.02488611
   0.02674677  0.03304491]
 [-0.19398346  0.05369129  0.10786647 -0.         -0.          0.         -0.          0.03369256  0.00019167  0.         -0.         -0.          0.
  -0.         -0.         -0.         -0.          0.00592783 -0.00445463 -0.01248071 -0.          0.         -0.00344992  0.          0.         -0.00688805
  -0.00740305 -0.00914626]
 [-0.38971514  0.10786647  0.21670505 -0.         -0.          0.         -0.          0.06768876  0.00038507  0.         -0.         -0.          0.
  -0.         -0.         -0.         -0.          0.01190909 -0.0089494  -0.02507389 -0.          0.         -0.00693094  0.          0.         -0.01383817
  -0.01487281 -0.01837496]
 [ 0.         -0.         -0.          0.          0.         -0.          0.         -0.         -0.         -0.          0.          0.         -0.
   0.          0.          0.          0.         -0.          0.          0.          0.         -0.          0.         -0.         -0.          0.
   0.          0.        ]
 [ 0.         -0.         -0.          0.          0.         -0.          0.         -0.         -0.         -0.          0.          0.         -0.
   0.          0.          0.          0.         -0.          0.          0.          0.         -0.          0.         -0.         -0.          0.
   0.          0.        ]
 [-0.          0.          0.         -0.         -0.          0.         -0.          0.          0.          0.         -0.         -0.          0.
  -0.         -0.         -0.         -0.          0.         -0.         -0.         -0.          0.         -0.          0.          0.         -0.
  -0.         -0.        ]
 [ 0.         -0.         -0.          0.          0.         -0.          0.         -0.         -0.         -0.          0.          0.         -0.
   0.          0.          0.          0.         -0.          0.          0.          0.         -0.          0.         -0.         -0.          0.
   0.          0.        ]
 [-0.12172922  0.03369256  0.06768876 -0.         -0.          0.         -0.          0.02114288  0.00012028  0.         -0.         -0.          0.
  -0.         -0.         -0.         -0.          0.00371986 -0.00279538 -0.00783194 -0.          0.         -0.00216491  0.          0.         -0.00432241
  -0.00464559 -0.0057395 ]
 [-0.0006925   0.00019167  0.00038507 -0.         -0.          0.         -0.          0.00012028  0.00000068  0.         -0.         -0.          0.
  -0.         -0.         -0.         -0.          0.00002116 -0.0000159  -0.00004456 -0.          0.         -0.00001232  0.          0.         -0.00002459
  -0.00002643 -0.00003265]
 [-0.          0.          0.         -0.         -0.          0.         -0.          0.          0.          0.         -0.         -0.          0.
  -0.         -0.         -0.         -0.          0.         -0.         -0.         -0.          0.         -0.          0.          0.         -0.
  -0.         -0.        ]
 [ 0.         -0.         -0.          0.          0.         -0.          0.         -0.         -0.         -0.          0.          0.         -0.
   0.          0.          0.          0.         -0.          0.          0.          0.         -0.          0.         -0.         -0.          0.
   0.          0.        ]
 [ 0.         -0.         -0.          0.          0.         -0.          0.         -0.         -0.         -0.          0.          0.         -0.
   0.          0.          0.          0.         -0.          0.          0.          0.         -0.          0.         -0.         -0.          0.
   0.          0.        ]
 [-0.          0.          0.         -0.         -0.          0.         -0.          0.          0.          0.         -0.         -0.          0.
  -0.         -0.         -0.         -0.          0.         -0.         -0.         -0.          0.         -0.          0.          0.         -0.
  -0.         -0.        ]
 [ 0.         -0.         -0.          0.          0.         -0.          0.         -0.         -0.         -0.          0.          0.         -0.
   0.          0.          0.          0.         -0.          0.          0.          0.         -0.          0.         -0.         -0.          0.
   0.          0.        ]
 [ 0.         -0.         -0.          0.          0.         -0.          0.         -0.         -0.         -0.          0.          0.         -0.
   0.          0.          0.          0.         -0.          0.          0.          0.         -0.          0.         -0.         -0.          0.
   0.          0.        ]
 [ 0.         -0.         -0.          0.          0.         -0.          0.         -0.         -0.         -0.          0.          0.         -0.
   0.          0.          0.          0.         -0.          0.          0.          0.         -0.          0.         -0.         -0.          0.
   0.          0.        ]
 [ 0.         -0.         -0.          0.          0.         -0.          0.         -0.         -0.         -0.          0.          0.         -0.
   0.          0.          0.          0.         -0.          0.          0.          0.         -0.          0.         -0.         -0.          0.
   0.          0.        ]
 [-0.02141691  0.00592783  0.01190909 -0.         -0.          0.         -0.          0.00371986  0.00002116  0.         -0.         -0.          0.
  -0.         -0.         -0.         -0.          0.00065447 -0.00049182 -0.00137794 -0.          0.         -0.00038089  0.          0.         -0.00076048
  -0.00081734 -0.0010098 ]
 [ 0.0160943  -0.00445463 -0.0089494   0.          0.         -0.          0.         -0.00279538 -0.0000159  -0.          0.          0.         -0.
   0.          0.          0.          0.         -0.00049182  0.00036959  0.00103549  0.         -0.          0.00028623 -0.         -0.          0.00057148
   0.00061421  0.00075884]
 [ 0.04509206 -0.01248071 -0.02507389  0.          0.         -0.          0.         -0.00783194 -0.00004456 -0.          0.          0.         -0.
   0.          0.          0.          0.         -0.00137794  0.00103549  0.00290118  0.         -0.          0.00080195 -0.         -0.          0.00160115
   0.00172086  0.00212608]
 [ 0.         -0.         -0.          0.          0.         -0.          0.         -0.         -0.         -0.          0.          0.         -0.
   0.          0.          0.          0.         -0.          0.          0.          0.         -0.          0.         -0.         -0.          0.
   0.          0.        ]
 [-0.          0.          0.         -0.         -0.          0.         -0.          0.          0.          0.         -0.         -0.          0.
  -0.         -0.         -0.         -0.          0.         -0.         -0.         -0.          0.         -0.          0.          0.         -0.
  -0.         -0.        ]
 [ 0.01246437 -0.00344992 -0.00693094  0.          0.         -0.          0.         -0.00216491 -0.00001232 -0.          0.          0.         -0.
   0.          0.          0.          0.         -0.00038089  0.00028623  0.00080195  0.         -0.          0.00022167 -0.         -0.          0.00044259
   0.00047568  0.00058769]
 [-0.          0.          0.         -0.         -0.          0.         -0.          0.          0.          0.         -0.         -0.          0.
  -0.         -0.         -0.         -0.          0.         -0.         -0.         -0.          0.         -0.          0.          0.         -0.
  -0.         -0.        ]
 [-0.          0.          0.         -0.         -0.          0.         -0.          0.          0.          0.         -0.         -0.          0.
  -0.         -0.         -0.         -0.          0.         -0.         -0.         -0.          0.         -0.          0.          0.         -0.
  -0.         -0.        ]
 [ 0.02488611 -0.00688805 -0.01383817  0.          0.         -0.          0.         -0.00432241 -0.00002459 -0.          0.          0.         -0.
   0.          0.          0.          0.         -0.00076048  0.00057148  0.00160115  0.         -0.          0.00044259 -0.         -0.          0.00088367
   0.00094974  0.00117337]
 [ 0.02674677 -0.00740305 -0.01487281  0.          0.         -0.          0.         -0.00464559 -0.00002643 -0.          0.          0.         -0.
   0.          0.          0.          0.         -0.00081734  0.00061421  0.00172086  0.         -0.          0.00047568 -0.         -0.          0.00094974
   0.00102075  0.0012611 ]
 [ 0.03304491 -0.00914626 -0.01837496  0.          0.         -0.          0.         -0.0057395  -0.00003265 -0.          0.          0.         -0.
   0.          0.          0.          0.         -0.0010098   0.00075884  0.00212608  0.         -0.          0.00058769 -0.         -0.          0.00117337
   0.0012611   0.00155806]] 
 [[ 0.70085071 -0.19398346  0.38971514 -0.         -0.          0.          0.          0.12172922 -0.0006925   0.          0.         -0.          0.
  -0.         -0.          0.         -0.          0.02141691  0.0160943  -0.04509206 -0.         -0.          0.01246437  0.          0.          0.02488611
  -0.02674677 -0.03304491]
 [-0.19398346  0.05369129 -0.10786647  0.          0.         -0.         -0.         -0.03369256  0.00019167 -0.         -0.          0.         -0.
   0.          0.         -0.          0.         -0.00592783 -0.00445463  0.01248071  0.          0.         -0.00344992 -0.         -0.         -0.00688805
   0.00740305  0.00914626]
 [ 0.38971514 -0.10786647  0.21670505 -0.         -0.          0.          0.          0.06768876 -0.00038507  0.          0.         -0.          0.
  -0.         -0.          0.         -0.          0.01190909  0.0089494  -0.02507389 -0.         -0.          0.00693094  0.          0.          0.01383817
  -0.01487281 -0.01837496]
 [-0.          0.         -0.          0.          0.         -0.         -0.         -0.          0.         -0.         -0.          0.         -0.
   0.          0.         -0.          0.         -0.         -0.          0.          0.          0.         -0.         -0.         -0.         -0.
   0.          0.        ]
 [-0.          0.         -0.          0.          0.         -0.         -0.         -0.          0.         -0.         -0.          0.         -0.
   0.          0.         -0.          0.         -0.         -0.          0.          0.          0.         -0.         -0.         -0.         -0.
   0.          0.        ]
 [ 0.         -0.          0.         -0.         -0.          0.          0.          0.         -0.          0.          0.         -0.          0.
  -0.         -0.          0.         -0.          0.          0.         -0.         -0.         -0.          0.          0.          0.          0.
  -0.         -0.        ]
 [ 0.         -0.          0.         -0.         -0.          0.          0.          0.         -0.          0.          0.         -0.          0.
  -0.         -0.          0.         -0.          0.          0.         -0.         -0.         -0.          0.          0.          0.          0.
  -0.         -0.        ]
 [ 0.12172922 -0.03369256  0.06768876 -0.         -0.          0.          0.          0.02114288 -0.00012028  0.          0.         -0.          0.
  -0.         -0.          0.         -0.          0.00371986  0.00279538 -0.00783194 -0.         -0.          0.00216491  0.          0.          0.00432241
  -0.00464559 -0.0057395 ]
 [-0.0006925   0.00019167 -0.00038507  0.          0.         -0.         -0.         -0.00012028  0.00000068 -0.         -0.          0.         -0.
   0.          0.         -0.          0.         -0.00002116 -0.0000159   0.00004456  0.          0.         -0.00001232 -0.         -0.         -0.00002459
   0.00002643  0.00003265]
 [ 0.         -0.          0.         -0.         -0.          0.          0.          0.         -0.          0.          0.         -0.          0.
  -0.         -0.          0.         -0.          0.          0.         -0.         -0.         -0.          0.          0.          0.          0.
  -0.         -0.        ]
 [ 0.         -0.          0.         -0.         -0.          0.          0.          0.         -0.          0.          0.         -0.          0.
  -0.         -0.          0.         -0.          0.          0.         -0.         -0.         -0.          0.          0.          0.          0.
  -0.         -0.        ]
 [-0.          0.         -0.          0.          0.         -0.         -0.         -0.          0.         -0.         -0.          0.         -0.
   0.          0.         -0.          0.         -0.         -0.          0.          0.          0.         -0.         -0.         -0.         -0.
   0.          0.        ]
 [ 0.         -0.          0.         -0.         -0.          0.          0.          0.         -0.          0.          0.         -0.          0.
  -0.         -0.          0.         -0.          0.          0.         -0.         -0.         -0.          0.          0.          0.          0.
  -0.         -0.        ]
 [-0.          0.         -0.          0.          0.         -0.         -0.         -0.          0.         -0.         -0.          0.         -0.
   0.          0.         -0.          0.         -0.         -0.          0.          0.          0.         -0.         -0.         -0.         -0.
   0.          0.        ]
 [-0.          0.         -0.          0.          0.         -0.         -0.         -0.          0.         -0.         -0.          0.         -0.
   0.          0.         -0.          0.         -0.         -0.          0.          0.          0.         -0.         -0.         -0.         -0.
   0.          0.        ]
 [ 0.         -0.          0.         -0.         -0.          0.          0.          0.         -0.          0.          0.         -0.          0.
  -0.         -0.          0.         -0.          0.          0.         -0.         -0.         -0.          0.          0.          0.          0.
  -0.         -0.        ]
 [-0.          0.         -0.          0.          0.         -0.         -0.         -0.          0.         -0.         -0.          0.         -0.
   0.          0.         -0.          0.         -0.         -0.          0.          0.          0.         -0.         -0.         -0.         -0.
   0.          0.        ]
 [ 0.02141691 -0.00592783  0.01190909 -0.         -0.          0.          0.          0.00371986 -0.00002116  0.          0.         -0.          0.
  -0.         -0.          0.         -0.          0.00065447  0.00049182 -0.00137794 -0.         -0.          0.00038089  0.          0.          0.00076048
  -0.00081734 -0.0010098 ]
 [ 0.0160943  -0.00445463  0.0089494  -0.         -0.          0.          0.          0.00279538 -0.0000159   0.          0.         -0.          0.
  -0.         -0.          0.         -0.          0.00049182  0.00036959 -0.00103549 -0.         -0.          0.00028623  0.          0.          0.00057148
  -0.00061421 -0.00075884]
 [-0.04509206  0.01248071 -0.02507389  0.          0.         -0.         -0.         -0.00783194  0.00004456 -0.         -0.          0.         -0.
   0.          0.         -0.          0.         -0.00137794 -0.00103549  0.00290118  0.          0.         -0.00080195 -0.         -0.         -0.00160115
   0.00172086  0.00212608]
 [-0.          0.         -0.          0.          0.         -0.         -0.         -0.          0.         -0.         -0.          0.         -0.
   0.          0.         -0.          0.         -0.         -0.          0.          0.          0.         -0.         -0.         -0.         -0.
   0.          0.        ]
 [-0.          0.         -0.          0.          0.         -0.         -0.         -0.          0.         -0.         -0.          0.         -0.
   0.          0.         -0.          0.         -0.         -0.          0.          0.          0.         -0.         -0.         -0.         -0.
   0.          0.        ]
 [ 0.01246437 -0.00344992  0.00693094 -0.         -0.          0.          0.          0.00216491 -0.00001232  0.          0.         -0.          0.
  -0.         -0.          0.         -0.          0.00038089  0.00028623 -0.00080195 -0.         -0.          0.00022167  0.          0.          0.00044259
  -0.00047568 -0.00058769]
 [ 0.         -0.          0.         -0.         -0.          0.          0.          0.         -0.          0.          0.         -0.          0.
  -0.         -0.          0.         -0.          0.          0.         -0.         -0.         -0.          0.          0.          0.          0.
  -0.         -0.        ]
 [ 0.         -0.          0.         -0.         -0.          0.          0.          0.         -0.          0.          0.         -0.          0.
  -0.         -0.          0.         -0.          0.          0.         -0.         -0.         -0.          0.          0.          0.          0.
  -0.         -0.        ]
 [ 0.02488611 -0.00688805  0.01383817 -0.         -0.          0.          0.          0.00432241 -0.00002459  0.          0.         -0.          0.
  -0.         -0.          0.         -0.          0.00076048  0.00057148 -0.00160115 -0.         -0.          0.00044259  0.          0.          0.00088367
  -0.00094974 -0.00117337]
 [-0.02674677  0.00740305 -0.01487281  0.          0.         -0.         -0.         -0.00464559  0.00002643 -0.         -0.          0.         -0.
   0.          0.         -0.          0.         -0.00081734 -0.00061421  0.00172086  0.          0.         -0.00047568 -0.         -0.         -0.00094974
   0.00102075  0.0012611 ]
 [-0.03304491  0.00914626 -0.01837496  0.          0.         -0.         -0.         -0.0057395   0.00003265 -0.         -0.          0.         -0.
   0.          0.         -0.          0.         -0.0010098  -0.00075884  0.00212608  0.          0.         -0.00058769 -0.         -0.         -0.00117337
   0.0012611   0.00155806]]

***************
SUHF converged at cycle 16
Final E(SUHF) =     -1.05752713, delta E = -9.60315e-09
