#INFO: **** input file is /share/home/srwang/ExSCF/test/pytest/scan_h2/scan_suhf.py ****
#import phf
from pyscf import lib
#import scipy
import numpy as np
import sys, os, contextlib

from pyphf import util, sudft

#xyz = 'h2.xyz' #sys.argv[1]
fch = 'test_uhf.fchk' #sys.argv[2]
#bas = '../h2.bas'
bas = 'cc-pvtz'

lib.num_threads(8)

for r in np.arange(0.5, 2.55, 0.1):
    output = 'suhf/suhf_%.1f_diis.out' % r
    os.system("echo '\n' > %s" % output)
    with open(output, 'w', encoding='utf-8') as f:
        with contextlib.redirect_stdout(f):
            xyz = '''H 0.0 0.0 0.0; H 0.0 0.0 %f'''%r
            mf = util.guess_from_fchk(xyz, bas, fch)
            #mf = util.guess(xyz, bas)
            #f.flush()
            mf2 = util.SUHF(mf)
            #mf2.cut_no = False
            mf2.debug = False
            #mf2.max_cycle = 50
            mf2.diis_on = True
            #mf2.output = 'sudft_%.1f.out'%r
            mf2.kernel()
            
            #mf3 = sudft.SUDFT(mf2)
            #mf3.suxc = 'TPSS'
            #mf3.kernel()
                    
#INFO: ******************** input file end ********************


System: uname_result(system='Linux', node='xcluster', release='3.10.0-693.el7.x86_64', version='#1 SMP Thu Jul 6 19:56:57 EDT 2017', machine='x86_64', processor='x86_64')  Threads 8
Python 3.7.4 (default, Aug 13 2019, 20:35:49) 
[GCC 7.3.0]
numpy 1.17.2  scipy 1.4.1
Date: Mon Nov 23 19:28:08 2020
PySCF version 1.7.5
PySCF path  /share/home/srwang/pyscf-1.7.5/pyscf

[CONFIG] conf_file None
[INPUT] verbose = 4
[INPUT] num. atoms = 2
[INPUT] num. electrons = 2
[INPUT] charge = 0
[INPUT] spin (= nelec alpha-beta = 2S) = 0
[INPUT] symmetry False subgroup None
[INPUT] Mole.unit = angstrom
[INPUT]  1 H      0.000000000000   0.000000000000   0.000000000000 AA    0.000000000000   0.000000000000   0.000000000000 Bohr
[INPUT]  2 H      0.000000000000   0.000000000000   1.800000000000 AA    0.000000000000   0.000000000000   3.401507024217 Bohr

nuclear repulsion = 0.2939873394
number of shells = 12
number of NR pGTOs = 32
number of NR cGTOs = 28
basis = cc-pvtz
ecp = {}
CPU time:       759.38


******** <class 'pyscf.scf.uhf.UHF'> ********
method = UHF
initial guess = minao
damping factor = 0
level_shift factor = 0
DIIS = <class 'pyscf.scf.diis.CDIIS'>
diis_start_cycle = 1
diis_space = 8
SCF conv_tol = 1e-09
SCF conv_tol_grad = None
SCF max_cycles = 1
direct_scf = True
direct_scf_tol = 1e-13
chkfile to save SCF result = /share/home/srwang/ExSCF/test/pytest/scan_h2/tmpynmtktss
max_memory 4000 MB (current use 125 MB)
number electrons alpha = 1  beta = 1
Set gradient conv threshold to 3.16228e-05
init E= -0.660017757767299
  alpha nocc = 1  HOMO = -0.276190807711065  LUMO = -0.0776966751047565
  beta  nocc = 1  HOMO = -0.27460846991659  LUMO = -0.0771916744314202
cycle= 1 E= -0.952432320571368  delta_E= -0.292  |g|= 0.0352  |ddm|=  0.4
SCF not converged.
SCF energy = -0.952432320571368 after 1 cycles  <S^2> = 3.3941974e-07  2S+1 = 1.0000007


******** <class 'pyscf.scf.uhf.UHF'> ********
method = UHF
initial guess = minao
damping factor = 0
level_shift factor = 0
DIIS = <class 'pyscf.scf.diis.CDIIS'>
diis_start_cycle = 1
diis_space = 8
SCF conv_tol = 1e-09
SCF conv_tol_grad = None
SCF max_cycles = 1
direct_scf = True
direct_scf_tol = 1e-13
chkfile to save SCF result = /share/home/srwang/ExSCF/test/pytest/scan_h2/tmpynmtktss
max_memory 4000 MB (current use 126 MB)
number electrons alpha = 1  beta = 1
Set gradient conv threshold to 3.16228e-05
init E= -0.934915624886184
  alpha nocc = 1  HOMO = -0.489209888684064  LUMO = 0.00748934225660482
  beta  nocc = 1  HOMO = -0.489209888684066  LUMO = 0.0074893422566048
cycle= 1 E= -1.00268660738773  delta_E= -0.0678  |g|= 0.0364  |ddm|= 0.0701
SCF not converged.
SCF energy = -1.00268660738773 after 1 cycles  <S^2> = 0.64755163  2S+1 = 1.894784

******** <class 'pyphf.util.SUHF'> ********
max_cycle = 70
verbose: normal
DIIS: <class 'pyscf.scf.diis.CDIIS'>
diis_start_cyc = 40
SVD: S^(-1/2)
[[-0.15909295  0.29661301  0.09584198  0.          0.         -0.          0.          0.20512802 -0.00993928 -0.         -0.          0.          0.
   0.          0.         -0.         -0.          0.10021223 -0.68122917  0.62980529  0.0099493   0.         -0.          0.         -0.         -0.49262908
   0.83014621 -0.73244151]
 [-0.23898736  0.31363858  0.08903508 -0.         -0.          0.         -0.          0.1259242   0.00893196  0.          0.         -0.         -0.
  -0.          0.          0.          0.          0.00623833 -0.05521513 -0.24308148 -0.0119471   0.          0.          0.          0.          0.60283569
  -1.65926804  1.61809649]
 [-0.26159307  0.18521687  0.09416728  0.          0.         -0.          0.          0.01219307 -0.02420543 -0.          0.          0.         -0.
   0.         -0.          0.          0.         -0.01746516  0.48357486 -0.5739084   0.10986641  0.         -0.         -0.         -0.          0.48592386
   0.97273441 -1.74720403]
 [ 0.         -0.          0.          0.06918854 -0.36026966  0.4083055   0.08709309  0.          0.          0.0543471   0.01540117  0.          0.
  -0.          0.          0.05770515  0.02398257  0.          0.         -0.         -0.          0.23801142  0.7683197   0.24137713  0.77216204  0.
   0.         -0.        ]
 [ 0.          0.         -0.          0.36026966  0.06918854 -0.08709309  0.4083055   0.         -0.         -0.01540117  0.0543471   0.         -0.
  -0.         -0.         -0.02398257  0.05770515  0.          0.         -0.         -0.          0.7683197  -0.23801142  0.77216204 -0.24137713  0.
  -0.          0.        ]
 [-0.05572433 -0.12083992 -0.31248584 -0.          0.          0.          0.          0.45691248 -0.10841885 -0.          0.         -0.         -0.
  -0.         -0.          0.          0.          0.2022105  -0.06504737 -0.40624863  0.8332365   0.          0.          0.          0.         -0.72455296
  -0.07620939  0.12589737]
 [ 0.         -0.          0.          0.07544017 -0.39282237  0.37523689  0.08003943  0.          0.          0.00586064  0.00166082  0.          0.
  -0.         -0.          0.00157123  0.00065301 -0.         -0.          0.          0.         -0.21973282 -0.70931495 -0.26465266 -0.84662015 -0.
  -0.          0.        ]
 [-0.          0.         -0.          0.39282237  0.07544017 -0.08003943  0.37523689 -0.         -0.         -0.00166082  0.00586064 -0.          0.
  -0.          0.         -0.00065301  0.00157123 -0.         -0.          0.          0.         -0.70931495  0.21973282 -0.84662015  0.26465266 -0.
   0.          0.        ]
 [-0.11209092 -0.16335435 -0.37740247 -0.         -0.          0.         -0.          0.29543359 -0.03079128  0.         -0.          0.         -0.
   0.         -0.         -0.         -0.          0.0012066  -0.01101614  0.32618797 -0.6808782  -0.         -0.         -0.         -0.          1.34049811
   0.11469419 -0.29774851]
 [ 0.          0.          0.          0.          0.         -0.         -0.          0.          0.          0.         -0.         -0.70632681  0.
  -0.70788934  0.         -0.         -0.          0.          0.         -0.         -0.         -0.          0.          0.         -0.          0.
   0.          0.        ]
 [ 0.          0.         -0.          0.03265699  0.00627166  0.00781901 -0.03665669  0.          0.          0.18988217 -0.67004947 -0.         -0.
   0.         -0.         -0.27381761  0.65884047  0.          0.          0.         -0.          0.05611363 -0.01738298 -0.06561148  0.02051009  0.
   0.          0.        ]
 [-0.02262223 -0.00541931 -0.06379088 -0.         -0.         -0.          0.         -0.16181805  0.67507076 -0.          0.          0.         -0.
   0.         -0.          0.          0.          0.70374048 -0.00290958  0.01439876  0.10700863  0.         -0.         -0.         -0.          0.28275804
   0.06204693  0.01092968]
 [ 0.         -0.          0.          0.00627166 -0.03265699 -0.03665669 -0.00781901 -0.         -0.         -0.67004947 -0.18988217 -0.         -0.
  -0.         -0.          0.65884047  0.27381761 -0.          0.          0.         -0.          0.01738298  0.05611363 -0.02051009 -0.06561148 -0.
  -0.          0.        ]
 [ 0.          0.          0.          0.          0.          0.         -0.          0.          0.         -0.         -0.          0.          0.70632681
   0.          0.70788934 -0.          0.          0.          0.          0.          0.          0.          0.          0.         -0.          0.
   0.          0.        ]
 [-0.15909295 -0.29661301  0.09584198  0.         -0.         -0.          0.         -0.20512802 -0.00993928 -0.          0.         -0.         -0.
  -0.         -0.          0.          0.         -0.10021223 -0.68122917 -0.62980529  0.0099493  -0.         -0.         -0.         -0.          0.49262908
   0.83014621  0.73244151]
 [-0.23898736 -0.31363858  0.08903508 -0.          0.          0.         -0.         -0.1259242   0.00893196  0.         -0.          0.          0.
   0.          0.         -0.          0.         -0.00623833 -0.05521513  0.24308148 -0.0119471   0.          0.          0.          0.         -0.60283569
  -1.65926804 -1.61809649]
 [-0.26159307 -0.18521687  0.09416728 -0.          0.         -0.         -0.         -0.01219307 -0.02420543 -0.          0.         -0.         -0.
  -0.         -0.          0.         -0.          0.01746516  0.48357486  0.5739084   0.10986641  0.          0.          0.         -0.         -0.48592386
   0.97273441  1.74720403]
 [ 0.         -0.          0.          0.06918854 -0.36026966 -0.4083055  -0.08709309 -0.         -0.          0.0543471   0.01540117  0.          0.
   0.          0.         -0.05770515 -0.02398257  0.          0.         -0.         -0.          0.23801142  0.7683197  -0.24137713 -0.77216204 -0.
  -0.          0.        ]
 [ 0.          0.         -0.          0.36026966  0.06918854  0.08709309 -0.4083055   0.          0.         -0.01540117  0.0543471  -0.          0.
  -0.          0.          0.02398257 -0.05770515  0.         -0.         -0.         -0.          0.7683197  -0.23801142 -0.77216204  0.24137713 -0.
  -0.          0.        ]
 [ 0.05572433 -0.12083992  0.31248584  0.          0.         -0.          0.          0.45691248  0.10841885  0.         -0.         -0.          0.
   0.          0.         -0.          0.          0.2022105   0.06504737 -0.40624863 -0.8332365  -0.         -0.         -0.         -0.         -0.72455296
   0.07620939  0.12589737]
 [ 0.         -0.          0.          0.07544017 -0.39282237 -0.37523689 -0.08003943 -0.         -0.          0.00586064  0.00166082 -0.          0.
  -0.          0.         -0.00157123 -0.00065301  0.         -0.          0.          0.         -0.21973282 -0.70931495  0.26465266  0.84662015  0.
   0.          0.        ]
 [ 0.          0.         -0.          0.39282237  0.07544017  0.08003943 -0.37523689  0.          0.         -0.00166082  0.00586064  0.          0.
   0.          0.          0.00065301 -0.00157123  0.          0.          0.          0.         -0.70931495  0.21973282  0.84662015 -0.26465266  0.
  -0.         -0.        ]
 [ 0.11209092 -0.16335435  0.37740247 -0.          0.         -0.         -0.          0.29543359  0.03079128 -0.          0.          0.         -0.
   0.         -0.          0.         -0.          0.0012066   0.01101614  0.32618797  0.6808782   0.          0.          0.         -0.          1.34049811
  -0.11469419 -0.29774851]
 [-0.         -0.          0.          0.         -0.         -0.          0.          0.          0.          0.          0.         -0.70632681  0.
   0.70788934 -0.          0.          0.          0.          0.         -0.          0.          0.         -0.          0.         -0.          0.
   0.          0.        ]
 [ 0.         -0.          0.         -0.03265699 -0.00627166  0.00781901 -0.03665669  0.         -0.         -0.18988217  0.67004947  0.         -0.
  -0.         -0.         -0.27381761  0.65884047 -0.          0.          0.          0.         -0.05611363  0.01738298 -0.06561148  0.02051009 -0.
   0.          0.        ]
 [-0.02262223  0.00541931 -0.06379088  0.          0.         -0.          0.          0.16181805  0.67507076 -0.          0.         -0.          0.
  -0.          0.         -0.          0.         -0.70374048 -0.00290958 -0.01439876  0.10700863  0.          0.         -0.         -0.         -0.28275804
   0.06204693 -0.01092968]
 [-0.          0.         -0.         -0.00627166  0.03265699 -0.03665669 -0.00781901 -0.         -0.          0.67004947  0.18988217  0.          0.
  -0.          0.          0.65884047  0.27381761 -0.         -0.          0.          0.         -0.01738298 -0.05611363 -0.02051009 -0.06561148 -0.
  -0.          0.        ]
 [ 0.          0.          0.         -0.          0.          0.         -0.          0.          0.         -0.         -0.          0.          0.70632681
  -0.         -0.70788934  0.         -0.          0.          0.          0.         -0.         -0.          0.         -0.         -0.         -0.
  -0.         -0.        ]]
C (ortho)
[[-0.8719557  -0.42369373  0.0082954   0.15786315  0.          0.         -0.16764509 -0.         -0.          0.02130533  0.02102304  0.0144804  -0.03221722
   0.         -0.          0.          0.         -0.          0.          0.         -0.         -0.00389508 -0.          0.          0.          0.
   0.0700928  -0.00327632]
 [ 0.42845587 -0.79020579 -0.05868819  0.31437264 -0.          0.          0.04433764  0.          0.         -0.21029024 -0.01379485  0.14001303 -0.00725389
   0.         -0.          0.          0.         -0.          0.         -0.         -0.         -0.13983604 -0.         -0.          0.          0.
  -0.01064864  0.06343521]
 [ 0.18860223  0.07319269  0.14790598  0.11593942  0.         -0.         -0.87384154 -0.         -0.          0.04371446 -0.04435572 -0.01657741 -0.07576629
  -0.         -0.          0.          0.         -0.          0.          0.         -0.         -0.02378993 -0.          0.          0.          0.
   0.38667191 -0.01341675]
 [-0.         -0.         -0.         -0.          0.14220174  0.84949264 -0.          0.14592819 -0.02313761  0.         -0.         -0.         -0.
  -0.05011683 -0.00901099 -0.         -0.          0.         -0.         -0.00622442  0.02174359 -0.          0.44772016 -0.14843073  0.03369484  0.09790683
   0.          0.        ]
 [ 0.         -0.          0.         -0.         -0.84949264  0.14220174 -0.         -0.02313761 -0.14592819 -0.          0.          0.          0.
  -0.00901099  0.05011683  0.          0.         -0.         -0.         -0.02174359 -0.00622442  0.         -0.14843073 -0.44772016 -0.09790683  0.03369484
  -0.         -0.        ]
 [-0.          0.          0.          0.          0.14688913 -0.02768287  0.         -0.11449687 -0.83156606 -0.         -0.         -0.         -0.
  -0.00055047  0.00273922  0.          0.          0.         -0.          0.12366837  0.03268543 -0.          0.02759462  0.08929924 -0.46742633  0.17161701
  -0.          0.        ]
 [-0.         -0.         -0.         -0.          0.02768287  0.14688913  0.         -0.83156606  0.11449687  0.         -0.         -0.         -0.
   0.00273922  0.00055047  0.         -0.          0.         -0.         -0.03268543  0.12366837 -0.          0.08929924 -0.02759462 -0.17161701 -0.46742633
   0.          0.        ]
 [ 0.10917916 -0.11797946 -0.15312569  0.24644894 -0.          0.          0.062622    0.          0.          0.77418416  0.01025867  0.01795268  0.00406465
  -0.          0.          0.         -0.          0.         -0.          0.          0.          0.2858814   0.          0.         -0.         -0.
   0.01239789 -0.45207038]
 [-0.00836823 -0.01437711 -0.05470146 -0.03381241  0.         -0.         -0.05592258 -0.         -0.         -0.00334481  0.20606075  0.06335319  0.96396098
  -0.          0.         -0.         -0.          0.         -0.         -0.         -0.         -0.03237307 -0.         -0.          0.          0.
   0.12466297 -0.01284229]
 [ 0.          0.         -0.         -0.         -0.01185046  0.00305455 -0.         -0.00029131 -0.00410557  0.          0.          0.          0.
   0.25972848 -0.95968497 -0.          0.         -0.         -0.          0.06165183  0.01201037  0.         -0.01996053 -0.08384507 -0.00215364  0.00095625
   0.          0.        ]
 [ 0.         -0.          0.          0.         -0.00305455 -0.01185046 -0.         -0.00410557  0.00029131 -0.          0.         -0.         -0.
  -0.95968497 -0.25972848 -0.          0.          0.          0.         -0.01201037  0.06165183  0.         -0.08384507  0.01996053 -0.00095625 -0.00215364
  -0.          0.        ]
 [ 0.         -0.         -0.         -0.         -0.          0.         -0.          0.         -0.          0.          0.          0.         -0.
  -0.         -0.         -0.00795413 -0.88954519 -0.45647911  0.01651965 -0.          0.         -0.         -0.         -0.         -0.          0.
  -0.          0.        ]
 [-0.         -0.          0.         -0.         -0.          0.         -0.         -0.          0.         -0.         -0.         -0.          0.
  -0.         -0.          0.88954519 -0.00795413  0.01651965  0.45647911  0.         -0.         -0.          0.         -0.         -0.         -0.
  -0.          0.        ]
 [ 0.         -0.         -0.         -0.         -0.          0.         -0.          0.         -0.          0.          0.          0.         -0.
   0.         -0.         -0.00408425 -0.45675967  0.8889988  -0.03217222 -0.         -0.         -0.         -0.         -0.         -0.          0.
  -0.          0.        ]
 [ 0.          0.          0.         -0.         -0.          0.          0.         -0.          0.          0.         -0.          0.         -0.
  -0.         -0.          0.45675967 -0.00408425 -0.03217222 -0.8889988   0.         -0.          0.          0.          0.         -0.         -0.
   0.         -0.        ]
 [-0.         -0.         -0.         -0.         -0.00292502  0.00113453 -0.         -0.00123743  0.02636272 -0.          0.         -0.          0.
  -0.02548457  0.06342752 -0.         -0.          0.         -0.          0.9727758   0.0727612   0.         -0.00967464 -0.08304733  0.16326493 -0.09689316
  -0.         -0.        ]
 [ 0.         -0.          0.         -0.         -0.00113453 -0.00292502  0.          0.02636272  0.00123743 -0.          0.         -0.          0.
   0.06342752  0.02548457  0.         -0.          0.         -0.         -0.0727612   0.9727758   0.         -0.08304733  0.00967464  0.09689316  0.16326493
   0.         -0.        ]
 [ 0.01218943 -0.00019618 -0.03938753  0.05682023 -0.          0.          0.00099362  0.          0.         -0.07671652 -0.06136408  0.31970205  0.01514242
  -0.          0.          0.         -0.          0.          0.         -0.          0.          0.82156823  0.          0.         -0.         -0.
   0.07880735  0.44921694]
 [ 0.00194982  0.13555522  0.65209111  0.39652956 -0.          0.          0.18581097  0.          0.         -0.00326831  0.57828999  0.13131002 -0.07935671
  -0.         -0.          0.         -0.         -0.          0.          0.         -0.         -0.00825885 -0.         -0.          0.          0.
   0.08108799 -0.00484508]
 [-0.07490828  0.33605546 -0.37254395  0.47151453 -0.          0.          0.00999188  0.          0.          0.0914405  -0.11351148  0.55512085 -0.01855349
  -0.         -0.          0.          0.         -0.          0.         -0.          0.         -0.3797406  -0.         -0.          0.          0.
  -0.02250471  0.2139666 ]
 [ 0.0097147   0.01459008  0.1526347   0.11842146  0.          0.         -0.36436725 -0.         -0.          0.02683772  0.00275329  0.00171094  0.11056804
   0.          0.         -0.          0.         -0.         -0.         -0.          0.          0.07054573 -0.         -0.         -0.         -0.
  -0.90049751  0.02792401]
 [ 0.          0.          0.          0.         -0.13043824 -0.45961424 -0.         -0.08877555  0.00413777 -0.          0.          0.          0.
  -0.06257031 -0.01857431 -0.         -0.          0.         -0.         -0.00735946  0.04335699 -0.          0.83355884 -0.17718987  0.07585565  0.16024261
  -0.          0.        ]
 [ 0.          0.          0.         -0.         -0.45961424  0.13043824 -0.         -0.00413777 -0.08877555  0.          0.          0.          0.
   0.01857431 -0.06257031 -0.         -0.          0.          0.          0.04335699  0.00735946 -0.          0.17718987  0.83355884  0.16024261 -0.07585565
  -0.          0.        ]
 [-0.          0.         -0.         -0.         -0.02366497 -0.08257809 -0.          0.514231   -0.02264442 -0.          0.          0.         -0.
  -0.0034016  -0.0010193   0.         -0.          0.         -0.         -0.02640126  0.1579972  -0.          0.16418345 -0.03445999 -0.35313146 -0.74105078
   0.          0.        ]
 [ 0.         -0.         -0.         -0.         -0.08257809  0.02366497 -0.          0.02264442  0.514231    0.          0.          0.          0.
   0.0010193  -0.0034016  -0.         -0.          0.         -0.          0.1579972   0.02640126 -0.          0.03445999  0.16418345 -0.74105078  0.35313146
  -0.          0.        ]
 [ 0.04355765 -0.10736668  0.05551425 -0.0632222  -0.         -0.          0.02832114  0.         -0.          0.52119146  0.07897421 -0.33653925  0.00967541
  -0.          0.         -0.         -0.          0.         -0.         -0.          0.         -0.21205451 -0.         -0.          0.         -0.
   0.0109144   0.73646329]
 [-0.02812593  0.06727561  0.46651613  0.31189892 -0.          0.          0.17568926  0.          0.          0.00619059 -0.75927609 -0.15014227  0.21091251
  -0.         -0.         -0.         -0.          0.         -0.          0.          0.         -0.00695243  0.          0.         -0.          0.
   0.07268521 -0.00109593]
 [-0.00340028  0.17029505 -0.37227852  0.55030442 -0.          0.          0.01491891  0.          0.         -0.25958476  0.14498145 -0.64199748  0.01605033
   0.          0.         -0.         -0.          0.          0.         -0.          0.          0.16688597  0.          0.         -0.          0.
   0.01317317  0.0221924 ]]
[[-0.8719557  -0.42369373  0.0082954   0.15786315  0.         -0.          0.16764509 -0.         -0.         -0.02130533  0.02102304  0.0144804  -0.03221722
   0.          0.          0.          0.          0.          0.          0.          0.          0.00389508  0.          0.         -0.          0.
  -0.0700928   0.00327632]
 [-0.42845587  0.79020579  0.05868819 -0.31437264 -0.          0.          0.04433764  0.          0.         -0.21029024  0.01379485 -0.14001303  0.00725389
  -0.          0.          0.          0.          0.         -0.          0.         -0.         -0.13983604  0.          0.          0.          0.
  -0.01064864  0.06343521]
 [ 0.18860223  0.07319269  0.14790598  0.11593942  0.         -0.          0.87384154 -0.         -0.         -0.04371446 -0.04435572 -0.01657741 -0.07576629
   0.         -0.          0.          0.          0.          0.          0.         -0.          0.02378993  0.          0.         -0.          0.
  -0.38667191  0.01341675]
 [ 0.         -0.          0.         -0.          0.51002552  0.69406992  0.         -0.01571378  0.14691312 -0.         -0.          0.          0.
  -0.02001603  0.0468215  -0.         -0.          0.         -0.         -0.00914061 -0.02068759  0.          0.46925555 -0.04779389  0.10353906 -0.00086697
  -0.          0.        ]
 [ 0.         -0.          0.         -0.          0.69406992 -0.51002552 -0.         -0.14691312 -0.01571378 -0.          0.         -0.         -0.
  -0.0468215  -0.02001603  0.          0.          0.          0.          0.02068759 -0.00914061 -0.         -0.04779389 -0.46925555 -0.00086697 -0.10353906
  -0.          0.        ]
 [-0.          0.         -0.          0.          0.12223312 -0.08603385  0.          0.83629939  0.07221476  0.          0.          0.          0.
   0.00259096  0.00104559 -0.          0.          0.          0.          0.115923   -0.05407459  0.         -0.00757013 -0.09315852 -0.00599735  0.49789939
   0.         -0.        ]
 [ 0.         -0.         -0.          0.         -0.08603385 -0.12223312  0.         -0.07221476  0.83629939 -0.         -0.          0.          0.
  -0.00104559  0.00259096 -0.         -0.          0.          0.          0.05407459  0.115923    0.         -0.09315852  0.00757013  0.49789939  0.00599735
  -0.          0.        ]
 [-0.10917916  0.11797946  0.15312569 -0.24644894 -0.          0.          0.062622    0.          0.          0.77418416 -0.01025867 -0.01795268 -0.00406465
  -0.          0.         -0.         -0.         -0.         -0.         -0.          0.          0.2858814  -0.         -0.         -0.         -0.
   0.01239789 -0.45207038]
 [-0.00836823 -0.01437711 -0.05470146 -0.03381241  0.         -0.          0.05592258 -0.         -0.          0.00334481  0.20606075  0.06335319  0.96396098
   0.          0.          0.          0.         -0.          0.          0.          0.          0.03237307  0.         -0.         -0.          0.
  -0.12466297  0.01284229]
 [ 0.         -0.          0.         -0.          0.01045017 -0.0063685  -0.         -0.00411505 -0.00008291  0.          0.         -0.         -0.
   0.94449539  0.31045544 -0.          0.          0.         -0.         -0.05504753  0.03024842  0.         -0.00130068 -0.08617846  0.0001837  -0.00234922
   0.         -0.        ]
 [ 0.          0.         -0.          0.         -0.0063685  -0.01045017  0.          0.00008291 -0.00411505 -0.         -0.          0.         -0.
  -0.31045544  0.94449539 -0.          0.         -0.         -0.         -0.03024842 -0.05504753 -0.         -0.08617846  0.00130068 -0.00234922 -0.0001837
  -0.          0.        ]
 [-0.          0.         -0.          0.          0.          0.         -0.          0.         -0.          0.          0.         -0.         -0.
   0.          0.          0.02700686 -0.88917071 -0.45676081  0.00395431  0.          0.         -0.         -0.         -0.         -0.         -0.
  -0.          0.        ]
 [ 0.         -0.          0.         -0.         -0.         -0.         -0.         -0.          0.          0.         -0.         -0.         -0.
  -0.          0.          0.88917071  0.02700686  0.00395431  0.45676081 -0.         -0.          0.         -0.          0.          0.          0.
   0.         -0.        ]
 [-0.          0.         -0.          0.          0.          0.         -0.          0.          0.          0.          0.         -0.         -0.
   0.         -0.         -0.01386736  0.45656738 -0.88954742  0.00770107 -0.          0.         -0.         -0.         -0.          0.         -0.
  -0.          0.        ]
 [-0.          0.          0.         -0.         -0.         -0.         -0.         -0.          0.          0.          0.         -0.         -0.
  -0.          0.         -0.45656738 -0.01386736  0.00770107  0.88954742 -0.         -0.          0.         -0.          0.          0.          0.
   0.          0.        ]
 [ 0.         -0.          0.         -0.         -0.00285229  0.00130665 -0.         -0.02626616  0.00257163  0.          0.         -0.         -0.
   0.06699548  0.01356903 -0.          0.         -0.         -0.          0.79382076 -0.56695285  0.         -0.00856736  0.08316885  0.03693162 -0.18622507
  -0.          0.        ]
 [-0.          0.          0.         -0.          0.00130665  0.00285229 -0.         -0.00257163 -0.02626616  0.         -0.          0.         -0.
  -0.01356903  0.06699548  0.          0.          0.          0.          0.56695285  0.79382076 -0.          0.08316885  0.00856736 -0.18622507 -0.03693162
   0.         -0.        ]
 [-0.01218943  0.00019618  0.03938753 -0.05682023 -0.         -0.          0.00099362  0.         -0.         -0.07671652  0.06136408 -0.31970205 -0.01514242
  -0.          0.         -0.         -0.         -0.         -0.         -0.          0.          0.82156823 -0.         -0.         -0.         -0.
   0.07880735  0.44921694]
 [ 0.00194982  0.13555522  0.65209111  0.39652956 -0.         -0.         -0.18581097  0.          0.          0.00326831  0.57828999  0.13131002 -0.07935671
   0.          0.          0.          0.          0.          0.          0.          0.          0.00825885  0.          0.         -0.          0.
  -0.08108799  0.00484508]
 [ 0.07490828 -0.33605546  0.37254395 -0.47151453 -0.          0.          0.00999188  0.         -0.          0.0914405   0.11351148 -0.55512085  0.01855349
  -0.          0.          0.          0.          0.          0.          0.          0.         -0.3797406   0.          0.          0.          0.
  -0.02250471  0.2139666 ]
 [ 0.0097147   0.01459008  0.1526347   0.11842146  0.          0.          0.36436725  0.         -0.         -0.02683772  0.00275329  0.00171094  0.11056804
  -0.         -0.         -0.         -0.         -0.         -0.         -0.         -0.         -0.07054573 -0.         -0.          0.         -0.
   0.90049751 -0.02792401]
 [ 0.         -0.         -0.          0.         -0.23865676 -0.41388686  0.         -0.00036576 -0.08887118  0.         -0.          0.          0.
  -0.01887095  0.06248149 -0.         -0.         -0.         -0.         -0.02210726 -0.03801656  0.          0.8521476   0.00781413  0.17636325  0.01810462
  -0.          0.        ]
 [ 0.         -0.          0.         -0.          0.41388686 -0.23865676 -0.         -0.08887118  0.00036576 -0.          0.         -0.          0.
   0.06248149  0.01887095 -0.         -0.         -0.         -0.         -0.03801656  0.02210726  0.         -0.00781413  0.8521476  -0.01810462  0.17636325
   0.         -0.        ]
 [ 0.         -0.          0.         -0.          0.04271918  0.0745268  -0.         -0.0034405  -0.51471783  0.         -0.          0.         -0.
   0.00101796 -0.003402    0.         -0.          0.          0.          0.08088165  0.13826895  0.         -0.16774927 -0.00196917  0.81637917  0.08592526
  -0.          0.        ]
 [-0.         -0.          0.         -0.         -0.0745268   0.04271918 -0.         -0.51471783  0.0034405  -0.          0.         -0.          0.
  -0.003402   -0.00101796 -0.         -0.         -0.         -0.          0.13826895 -0.08088165  0.          0.00196917 -0.16774927 -0.08592526  0.81637917
   0.         -0.        ]
 [-0.04355765  0.10736668 -0.05551425  0.0632222   0.         -0.          0.02832114 -0.         -0.          0.52119146 -0.07897421  0.33653925 -0.00967541
   0.         -0.         -0.          0.          0.          0.          0.         -0.         -0.21205451  0.          0.          0.          0.
   0.0109144   0.73646329]
 [-0.02812593  0.06727561  0.46651613  0.31189892 -0.         -0.         -0.17568926  0.          0.         -0.00619059 -0.75927609 -0.15014227  0.21091251
   0.         -0.          0.          0.          0.          0.          0.         -0.          0.00695243  0.          0.         -0.          0.
  -0.07268521  0.00109593]
 [ 0.00340028 -0.17029505  0.37227852 -0.55030442 -0.          0.          0.01491891  0.          0.         -0.25958476 -0.14498145  0.64199748 -0.01605033
  -0.         -0.          0.         -0.         -0.          0.         -0.          0.          0.16688597 -0.         -0.         -0.         -0.
   0.01317317  0.0221924 ]]
grids:  [0.06237655 0.31939555 0.74529195 1.28265786 1.85893479 2.39630071 2.8221971  3.07921611] 
weights:  [0.15900941 0.34931531 0.49276925 0.56970235 0.56970235 0.49276925 0.34931531 0.15900941]
S = 0.0, Sz = 0.0
Wigner small d:  1
value : [1. 1. 1. 1. 1. 1. 1. 1.]
**** Start Cycle 1 ****
dm (ortho)
[[[ 0.76030674 -0.37359454 -0.16445279 ... -0.03798034  0.02452457  0.0029649 ]
  [-0.37359454  0.18357444  0.08080773 ...  0.01866253 -0.01205072 -0.00145687]
  [-0.16445279  0.08080773  0.0355708  ...  0.00821507 -0.00530461 -0.0006413 ]
  ...
  [-0.03798034  0.01866253  0.00821507 ...  0.00189727 -0.0012251  -0.00014811]
  [ 0.02452457 -0.01205072 -0.00530461 ... -0.0012251   0.00079107  0.00009564]
  [ 0.0029649  -0.00145687 -0.0006413  ... -0.00014811  0.00009564  0.00001156]]

 [[ 0.76030674  0.37359454 -0.16445279 ...  0.03798034  0.02452457 -0.0029649 ]
  [ 0.37359454  0.18357444 -0.08080773 ...  0.01866253  0.01205072 -0.00145687]
  [-0.16445279 -0.08080773  0.0355708  ... -0.00821507 -0.00530461  0.0006413 ]
  ...
  [ 0.03798034  0.01866253 -0.00821507 ...  0.00189727  0.0012251  -0.00014811]
  [ 0.02452457  0.01205072 -0.00530461 ...  0.0012251   0.00079107 -0.00009564]
  [-0.0029649  -0.00145687  0.0006413  ... -0.00014811 -0.00009564  0.00001156]]]
Fock (ortho)
 (array([[-0.27359284,  0.23005034,  0.30913446, -0.        ,  0.        , -0.        , -0.        ,  0.09580851, -0.05235574,  0.        , -0.        ,
         0.        , -0.        ,  0.        ,  0.        , -0.        ,  0.        ,  0.02088583,  0.08247183,  0.01445022, -0.20922426, -0.        ,
        -0.        ,  0.        ,  0.        ,  0.0116058 , -0.0533049 ,  0.00912272],
       [ 0.23005034,  0.18767864, -0.08688437,  0.        ,  0.        , -0.        ,  0.        , -0.45248459, -0.00082952, -0.        , -0.        ,
         0.        , -0.        ,  0.        ,  0.        , -0.        , -0.        , -0.15594061,  0.0847742 ,  0.53466047,  0.00122628,  0.        ,
        -0.        ,  0.        ,  0.        ,  0.04592985,  0.00853396, -0.17409507],
       [ 0.30913446, -0.08688437,  1.18745132, -0.        , -0.        ,  0.        , -0.        ,  0.01844416, -0.03464956,  0.        , -0.        ,
         0.        ,  0.        ,  0.        , -0.        , -0.        ,  0.        ,  0.00724632,  0.0168124 , -0.01231328, -1.19801608, -0.        ,
        -0.        , -0.        ,  0.        ,  0.00020532,  0.08653341, -0.00051829],
       [-0.        ,  0.        , -0.        ,  1.44591907,  0.        ,  0.00112084, -0.05488742,  0.        ,  0.        , -0.00057815,  0.00667423,
         0.        ,  0.        ,  0.        ,  0.        ,  0.00107035, -0.00516992, -0.        , -0.        , -0.        , -0.        ,  1.33337896,
        -0.14817061, -0.00465236,  0.00052909,  0.        ,  0.        ,  0.        ],
       [ 0.        ,  0.        , -0.        ,  0.        ,  1.44591907,  0.05488742,  0.00112084,  0.        , -0.        , -0.00667423, -0.00057815,
         0.        ,  0.        , -0.        ,  0.        ,  0.00516992,  0.00107035, -0.        ,  0.        ,  0.        ,  0.        , -0.14817061,
        -1.33337896,  0.00052909,  0.00465236, -0.        , -0.        ,  0.        ],
       [-0.        , -0.        ,  0.        ,  0.00112084,  0.05488742,  1.72875632, -0.        ,  0.        , -0.        , -0.00571325, -0.00037757,
        -0.        ,  0.        , -0.        ,  0.        ,  0.0201954 ,  0.00375287,  0.        ,  0.        , -0.        , -0.        , -0.00089379,
        -0.00987638,  0.1271512 ,  1.36591984,  0.        ,  0.        , -0.        ],
       [-0.        ,  0.        , -0.        , -0.05488742,  0.00112084, -0.        ,  1.72875632,  0.        ,  0.        ,  0.00037757, -0.00571325,
         0.        , -0.        ,  0.        , -0.        , -0.00375287,  0.0201954 , -0.        ,  0.        , -0.        ,  0.        , -0.00987638,
         0.00089379,  1.36591984, -0.1271512 ,  0.        ,  0.        ,  0.        ],
       [ 0.09580851, -0.45248459,  0.01844416,  0.        ,  0.        ,  0.        ,  0.        ,  2.02162588,  0.01501969,  0.        ,  0.        ,
        -0.        , -0.        , -0.        ,  0.        , -0.        ,  0.        , -0.09506223,  0.0425483 , -0.66144226, -0.01386252, -0.        ,
         0.        , -0.        ,  0.        , -1.27959131, -0.00096941, -0.05679837],
       [-0.05235574, -0.00082952, -0.03464956,  0.        , -0.        , -0.        ,  0.        ,  0.01501969,  3.20994666, -0.        ,  0.        ,
         0.        , -0.        ,  0.        ,  0.        , -0.        , -0.        , -0.01824943,  0.0794599 , -0.00131528, -0.10628993, -0.        ,
        -0.        , -0.        , -0.        , -0.00187637,  0.26911073, -0.00007228],
       [ 0.        , -0.        ,  0.        , -0.00057815, -0.00667423, -0.00571325,  0.00037757,  0.        , -0.        ,  3.32611099,  0.        ,
         0.        ,  0.        , -0.        , -0.        ,  0.02178439,  0.00257684, -0.        ,  0.        , -0.        , -0.        , -0.00130424,
        -0.0537472 , -0.00004308, -0.00160526, -0.        ,  0.        ,  0.        ],
       [-0.        , -0.        , -0.        ,  0.00667423, -0.00057815, -0.00037757, -0.00571325,  0.        ,  0.        ,  0.        ,  3.32611099,
        -0.        , -0.        , -0.        , -0.        , -0.00257684,  0.02178439,  0.        , -0.        ,  0.        ,  0.        , -0.0537472 ,
         0.00130424, -0.00160526,  0.00004308, -0.        , -0.        , -0.        ],
       [ 0.        ,  0.        ,  0.        ,  0.        ,  0.        , -0.        ,  0.        , -0.        ,  0.        ,  0.        , -0.        ,
         3.4378903 ,  0.        , -0.02300228,  0.        , -0.        ,  0.        ,  0.        ,  0.        ,  0.        ,  0.        ,  0.        ,
        -0.        , -0.        ,  0.        ,  0.        ,  0.        , -0.        ],
       [-0.        , -0.        ,  0.        ,  0.        ,  0.        ,  0.        , -0.        , -0.        , -0.        ,  0.        , -0.        ,
         0.        ,  3.4378903 , -0.        , -0.02300228,  0.        , -0.        ,  0.        , -0.        ,  0.        , -0.        , -0.        ,
         0.        ,  0.        , -0.        , -0.        , -0.        , -0.        ],
       [ 0.        ,  0.        ,  0.        ,  0.        , -0.        , -0.        ,  0.        , -0.        ,  0.        , -0.        , -0.        ,
        -0.02300228, -0.        ,  3.46649462, -0.        ,  0.        , -0.        ,  0.        ,  0.        ,  0.        , -0.        ,  0.        ,
        -0.        , -0.        ,  0.        ,  0.        , -0.        , -0.        ],
       [ 0.        ,  0.        , -0.        ,  0.        ,  0.        ,  0.        , -0.        ,  0.        ,  0.        , -0.        , -0.        ,
         0.        , -0.02300228, -0.        ,  3.46649462,  0.        , -0.        , -0.        ,  0.        ,  0.        ,  0.        , -0.        ,
         0.        ,  0.        , -0.        ,  0.        ,  0.        ,  0.        ],
       [-0.        , -0.        , -0.        ,  0.00107035,  0.00516992,  0.0201954 , -0.00375287, -0.        , -0.        ,  0.02178439, -0.00257684,
        -0.        ,  0.        ,  0.        ,  0.        ,  3.5863634 , -0.        , -0.        , -0.        , -0.        ,  0.        ,  0.00028006,
        -0.00298725,  0.00962055, -0.10553174, -0.        , -0.        , -0.        ],
       [ 0.        , -0.        ,  0.        , -0.00516992,  0.00107035,  0.00375287,  0.0201954 ,  0.        , -0.        ,  0.00257684,  0.02178439,
         0.        , -0.        , -0.        , -0.        , -0.        ,  3.5863634 ,  0.        ,  0.        ,  0.        , -0.        , -0.00298725,
        -0.00028006, -0.10553174, -0.00962055, -0.        ,  0.        ,  0.        ],
       [ 0.02088583, -0.15594061,  0.00724632, -0.        , -0.        ,  0.        , -0.        , -0.09506223, -0.01824943, -0.        ,  0.        ,
         0.        ,  0.        ,  0.        , -0.        , -0.        ,  0.        ,  3.76735698,  0.0141278 , -0.23833125, -0.00852696, -0.        ,
        -0.        ,  0.        , -0.        ,  0.51695059, -0.00266862,  0.04245429],
       [ 0.08247183,  0.0847742 ,  0.0168124 , -0.        ,  0.        ,  0.        ,  0.        ,  0.0425483 ,  0.0794599 ,  0.        , -0.        ,
         0.        , -0.        ,  0.        ,  0.        , -0.        ,  0.        ,  0.0141278 ,  1.17308312,  0.04236712, -0.31342338, -0.        ,
        -0.        ,  0.        ,  0.        , -0.01323688, -0.96603283, -0.01011734],
       [ 0.01445022,  0.53466047, -0.01231328, -0.        ,  0.        , -0.        , -0.        , -0.66144226, -0.00131528, -0.        ,  0.        ,
         0.        ,  0.        ,  0.        ,  0.        , -0.        ,  0.        , -0.23833125,  0.04236712,  1.76913807,  0.01122358, -0.        ,
        -0.        , -0.        , -0.        ,  0.5395698 , -0.01708244, -1.06129307],
       [-0.20922426,  0.00122628, -1.19801608, -0.        ,  0.        , -0.        ,  0.        , -0.01386252, -0.10628993, -0.        ,  0.        ,
         0.        , -0.        , -0.        ,  0.        ,  0.        , -0.        , -0.00852696, -0.31342338,  0.01122358,  3.44585439,  0.        ,
         0.        ,  0.        ,  0.        ,  0.01162662, -0.19814596, -0.00034444],
       [-0.        ,  0.        , -0.        ,  1.33337896, -0.14817061, -0.00089379, -0.00987638, -0.        , -0.        , -0.00130424, -0.0537472 ,
         0.        , -0.        ,  0.        , -0.        ,  0.00028006, -0.00298725, -0.        , -0.        , -0.        ,  0.        ,  3.10425317,
         0.        , -0.01913502,  0.00004915,  0.        , -0.        , -0.        ],
       [-0.        , -0.        , -0.        , -0.14817061, -1.33337896, -0.00987638,  0.00089379,  0.        , -0.        , -0.0537472 ,  0.00130424,
        -0.        ,  0.        , -0.        ,  0.        , -0.00298725, -0.00028006, -0.        , -0.        , -0.        ,  0.        ,  0.        ,
         3.10425317, -0.00004915, -0.01913502, -0.        ,  0.        , -0.        ],
       [ 0.        ,  0.        , -0.        , -0.00465236,  0.00052909,  0.1271512 ,  1.36591984, -0.        , -0.        , -0.00004308, -0.00160526,
        -0.        ,  0.        , -0.        ,  0.        ,  0.00962055, -0.10553174,  0.        ,  0.        , -0.        ,  0.        , -0.01913502,
        -0.00004915,  3.12547506,  0.        ,  0.        ,  0.        , -0.        ],
       [ 0.        ,  0.        ,  0.        ,  0.00052909,  0.00465236,  1.36591984, -0.1271512 ,  0.        , -0.        , -0.00160526,  0.00004308,
         0.        , -0.        ,  0.        , -0.        , -0.10553174, -0.00962055, -0.        ,  0.        , -0.        ,  0.        ,  0.00004915,
        -0.01913502,  0.        ,  3.12547506,  0.        ,  0.        , -0.        ],
       [ 0.0116058 ,  0.04592985,  0.00020532,  0.        , -0.        ,  0.        ,  0.        , -1.27959131, -0.00187637, -0.        , -0.        ,
         0.        , -0.        ,  0.        ,  0.        , -0.        , -0.        ,  0.51695059, -0.01323688,  0.5395698 ,  0.01162662,  0.        ,
        -0.        ,  0.        ,  0.        ,  3.30236901,  0.00828035,  0.35662355],
       [-0.0533049 ,  0.00853396,  0.08653341,  0.        , -0.        ,  0.        ,  0.        , -0.00096941,  0.26911073,  0.        , -0.        ,
         0.        , -0.        , -0.        ,  0.        , -0.        ,  0.        , -0.00266862, -0.96603283, -0.01708244, -0.19814596, -0.        ,
         0.        ,  0.        ,  0.        ,  0.00828035,  1.77842808,  0.01423904],
       [ 0.00912272, -0.17409507, -0.00051829,  0.        ,  0.        , -0.        ,  0.        , -0.05679837, -0.00007228,  0.        , -0.        ,
        -0.        , -0.        , -0.        ,  0.        , -0.        ,  0.        ,  0.04245429, -0.01011734, -1.06129307, -0.00034444, -0.        ,
        -0.        , -0.        , -0.        ,  0.35662355,  0.01423904,  1.52008351]]), array([[-0.27359284, -0.23005034,  0.30913446,  0.        ,  0.        , -0.        ,  0.        , -0.09580851, -0.05235574,  0.        , -0.        ,
         0.        ,  0.        ,  0.        , -0.        , -0.        ,  0.        , -0.02088583,  0.08247183, -0.01445022, -0.20922426, -0.        ,
        -0.        ,  0.        , -0.        , -0.0116058 , -0.0533049 , -0.00912272],
       [-0.23005034,  0.18767864,  0.08688437,  0.        ,  0.        , -0.        ,  0.        , -0.45248459,  0.00082952, -0.        , -0.        ,
         0.        ,  0.        ,  0.        , -0.        , -0.        , -0.        , -0.15594061, -0.0847742 ,  0.53466047, -0.00122628,  0.        ,
         0.        ,  0.        ,  0.        ,  0.04592985, -0.00853396, -0.17409507],
       [ 0.30913446,  0.08688437,  1.18745132, -0.        , -0.        ,  0.        , -0.        , -0.01844416, -0.03464956,  0.        , -0.        ,
         0.        , -0.        ,  0.        ,  0.        , -0.        ,  0.        , -0.00724632,  0.0168124 ,  0.01231328, -1.19801608, -0.        ,
        -0.        , -0.        ,  0.        , -0.00020532,  0.08653341,  0.00051829],
       [ 0.        ,  0.        , -0.        ,  1.44591907,  0.        , -0.00112084,  0.05488742,  0.        ,  0.        , -0.00057815,  0.00667423,
         0.        ,  0.        , -0.        ,  0.        , -0.00107035,  0.00516992, -0.        ,  0.        , -0.        , -0.        ,  1.33337896,
        -0.14817061,  0.00465236, -0.00052909,  0.        ,  0.        ,  0.        ],
       [ 0.        ,  0.        , -0.        ,  0.        ,  1.44591907, -0.05488742, -0.00112084,  0.        , -0.        , -0.00667423, -0.00057815,
         0.        ,  0.        , -0.        ,  0.        , -0.00516992, -0.00107035, -0.        ,  0.        ,  0.        ,  0.        , -0.14817061,
        -1.33337896, -0.00052909, -0.00465236, -0.        , -0.        ,  0.        ],
       [-0.        , -0.        ,  0.        , -0.00112084, -0.05488742,  1.72875632,  0.        ,  0.        , -0.        ,  0.00571325,  0.00037757,
        -0.        ,  0.        , -0.        ,  0.        ,  0.0201954 ,  0.00375287,  0.        ,  0.        , -0.        , -0.        ,  0.00089379,
         0.00987638,  0.1271512 ,  1.36591984,  0.        ,  0.        , -0.        ],
       [ 0.        ,  0.        , -0.        ,  0.05488742, -0.00112084,  0.        ,  1.72875632,  0.        ,  0.        , -0.00037757,  0.00571325,
         0.        , -0.        ,  0.        , -0.        , -0.00375287,  0.0201954 , -0.        ,  0.        , -0.        , -0.        ,  0.00987638,
        -0.00089379,  1.36591984, -0.1271512 ,  0.        ,  0.        ,  0.        ],
       [-0.09580851, -0.45248459, -0.01844416,  0.        ,  0.        ,  0.        ,  0.        ,  2.02162588, -0.01501969,  0.        ,  0.        ,
        -0.        ,  0.        , -0.        , -0.        , -0.        ,  0.        , -0.09506223, -0.0425483 , -0.66144226,  0.01386252, -0.        ,
         0.        , -0.        ,  0.        , -1.27959131,  0.00096941, -0.05679837],
       [-0.05235574,  0.00082952, -0.03464956,  0.        , -0.        , -0.        ,  0.        , -0.01501969,  3.20994666, -0.        ,  0.        ,
         0.        ,  0.        ,  0.        , -0.        , -0.        , -0.        ,  0.01824943,  0.0794599 ,  0.00131528, -0.10628993, -0.        ,
        -0.        , -0.        , -0.        ,  0.00187637,  0.26911073,  0.00007228],
       [ 0.        , -0.        ,  0.        , -0.00057815, -0.00667423,  0.00571325, -0.00037757,  0.        , -0.        ,  3.32611099,  0.        ,
         0.        ,  0.        , -0.        , -0.        , -0.02178439, -0.00257684, -0.        ,  0.        , -0.        , -0.        , -0.00130424,
        -0.0537472 ,  0.00004308,  0.00160526, -0.        ,  0.        ,  0.        ],
       [-0.        , -0.        , -0.        ,  0.00667423, -0.00057815,  0.00037757,  0.00571325,  0.        ,  0.        ,  0.        ,  3.32611099,
        -0.        , -0.        , -0.        , -0.        ,  0.00257684, -0.02178439,  0.        , -0.        ,  0.        ,  0.        , -0.0537472 ,
         0.00130424,  0.00160526, -0.00004308, -0.        , -0.        , -0.        ],
       [ 0.        ,  0.        ,  0.        ,  0.        ,  0.        , -0.        ,  0.        , -0.        ,  0.        ,  0.        , -0.        ,
         3.4378903 ,  0.        ,  0.02300228, -0.        , -0.        ,  0.        ,  0.        ,  0.        ,  0.        ,  0.        ,  0.        ,
        -0.        , -0.        ,  0.        ,  0.        ,  0.        , -0.        ],
       [ 0.        ,  0.        , -0.        ,  0.        ,  0.        ,  0.        , -0.        ,  0.        ,  0.        ,  0.        , -0.        ,
         0.        ,  3.4378903 ,  0.        ,  0.02300228, -0.        , -0.        ,  0.        ,  0.        ,  0.        ,  0.        , -0.        ,
         0.        ,  0.        , -0.        ,  0.        ,  0.        ,  0.        ],
       [ 0.        ,  0.        ,  0.        , -0.        , -0.        , -0.        ,  0.        , -0.        ,  0.        , -0.        , -0.        ,
         0.02300228,  0.        ,  3.46649462, -0.        ,  0.        , -0.        ,  0.        ,  0.        ,  0.        , -0.        ,  0.        ,
        -0.        , -0.        ,  0.        ,  0.        , -0.        , -0.        ],
       [-0.        , -0.        ,  0.        ,  0.        ,  0.        ,  0.        , -0.        , -0.        , -0.        , -0.        , -0.        ,
        -0.        ,  0.02300228, -0.        ,  3.46649462,  0.        , -0.        , -0.        , -0.        , -0.        ,  0.        , -0.        ,
         0.        ,  0.        , -0.        , -0.        , -0.        , -0.        ],
       [-0.        , -0.        , -0.        , -0.00107035, -0.00516992,  0.0201954 , -0.00375287, -0.        , -0.        , -0.02178439,  0.00257684,
        -0.        , -0.        ,  0.        ,  0.        ,  3.5863634 , -0.        , -0.        , -0.        , -0.        ,  0.        , -0.00028006,
         0.00298725,  0.00962055, -0.10553174, -0.        , -0.        , -0.        ],
       [ 0.        , -0.        ,  0.        ,  0.00516992, -0.00107035,  0.00375287,  0.0201954 ,  0.        , -0.        , -0.00257684, -0.02178439,
         0.        , -0.        , -0.        , -0.        , -0.        ,  3.5863634 ,  0.        ,  0.        ,  0.        , -0.        ,  0.00298725,
         0.00028006, -0.10553174, -0.00962055, -0.        ,  0.        ,  0.        ],
       [-0.02088583, -0.15594061, -0.00724632, -0.        , -0.        ,  0.        , -0.        , -0.09506223,  0.01824943, -0.        ,  0.        ,
         0.        ,  0.        ,  0.        , -0.        , -0.        ,  0.        ,  3.76735698, -0.0141278 , -0.23833125,  0.00852696,  0.        ,
        -0.        ,  0.        , -0.        ,  0.51695059,  0.00266862,  0.04245429],
       [ 0.08247183, -0.0847742 ,  0.0168124 ,  0.        ,  0.        ,  0.        ,  0.        , -0.0425483 ,  0.0794599 ,  0.        , -0.        ,
         0.        ,  0.        ,  0.        , -0.        , -0.        ,  0.        , -0.0141278 ,  1.17308312, -0.04236712, -0.31342338, -0.        ,
        -0.        ,  0.        ,  0.        ,  0.01323688, -0.96603283,  0.01011734],
       [-0.01445022,  0.53466047,  0.01231328, -0.        ,  0.        , -0.        , -0.        , -0.66144226,  0.00131528, -0.        ,  0.        ,
         0.        ,  0.        ,  0.        , -0.        , -0.        ,  0.        , -0.23833125, -0.04236712,  1.76913807, -0.01122358, -0.        ,
        -0.        , -0.        , -0.        ,  0.5395698 ,  0.01708244, -1.06129307],
       [-0.20922426, -0.00122628, -1.19801608, -0.        ,  0.        , -0.        , -0.        ,  0.01386252, -0.10628993, -0.        ,  0.        ,
         0.        ,  0.        , -0.        ,  0.        ,  0.        , -0.        ,  0.00852696, -0.31342338, -0.01122358,  3.44585439,  0.        ,
         0.        , -0.        ,  0.        , -0.01162662, -0.19814596,  0.00034444],
       [-0.        ,  0.        , -0.        ,  1.33337896, -0.14817061,  0.00089379,  0.00987638, -0.        , -0.        , -0.00130424, -0.0537472 ,
         0.        , -0.        ,  0.        , -0.        , -0.00028006,  0.00298725,  0.        , -0.        , -0.        ,  0.        ,  3.10425317,
         0.        ,  0.01913502, -0.00004915,  0.        , -0.        , -0.        ],
       [-0.        ,  0.        , -0.        , -0.14817061, -1.33337896,  0.00987638, -0.00089379,  0.        , -0.        , -0.0537472 ,  0.00130424,
        -0.        ,  0.        , -0.        ,  0.        ,  0.00298725,  0.00028006, -0.        , -0.        , -0.        ,  0.        ,  0.        ,
         3.10425317,  0.00004915,  0.01913502, -0.        ,  0.        , -0.        ],
       [ 0.        ,  0.        , -0.        ,  0.00465236, -0.00052909,  0.1271512 ,  1.36591984, -0.        , -0.        ,  0.00004308,  0.00160526,
        -0.        ,  0.        , -0.        ,  0.        ,  0.00962055, -0.10553174,  0.        ,  0.        , -0.        , -0.        ,  0.01913502,
         0.00004915,  3.12547506,  0.        ,  0.        ,  0.        , -0.        ],
       [-0.        ,  0.        ,  0.        , -0.00052909, -0.00465236,  1.36591984, -0.1271512 ,  0.        , -0.        ,  0.00160526, -0.00004308,
         0.        , -0.        ,  0.        , -0.        , -0.10553174, -0.00962055, -0.        ,  0.        , -0.        ,  0.        , -0.00004915,
         0.01913502,  0.        ,  3.12547506,  0.        ,  0.        , -0.        ],
       [-0.0116058 ,  0.04592985, -0.00020532,  0.        , -0.        ,  0.        ,  0.        , -1.27959131,  0.00187637, -0.        , -0.        ,
         0.        ,  0.        ,  0.        , -0.        , -0.        , -0.        ,  0.51695059,  0.01323688,  0.5395698 , -0.01162662,  0.        ,
        -0.        ,  0.        ,  0.        ,  3.30236901, -0.00828035,  0.35662355],
       [-0.0533049 , -0.00853396,  0.08653341,  0.        , -0.        ,  0.        ,  0.        ,  0.00096941,  0.26911073,  0.        , -0.        ,
         0.        ,  0.        , -0.        , -0.        , -0.        ,  0.        ,  0.00266862, -0.96603283,  0.01708244, -0.19814596, -0.        ,
         0.        ,  0.        ,  0.        , -0.00828035,  1.77842808, -0.01423904],
       [-0.00912272, -0.17409507,  0.00051829,  0.        ,  0.        , -0.        ,  0.        , -0.05679837,  0.00007228,  0.        , -0.        ,
        -0.        ,  0.        , -0.        , -0.        , -0.        ,  0.        ,  0.04245429,  0.01011734, -1.06129307,  0.00034444, -0.        ,
        -0.        , -0.        , -0.        ,  0.35662355, -0.01423904,  1.52008351]]))
E(UHF) =    -1.296674
NO eigenvalue
[-1. -0. -0. -0. -0. -0. -0. -0. -0. -0. -0. -0. -0. -0. -0.  0.  0.  0.  0.  0.  0.  0.  0.  0.  0.  0.  0.  0.] [-1. -0. -0. -0. -0. -0. -0. -0. -0. -0. -0. -0. -0. -0. -0. -0.  0.  0.  0.  0.  0.  0.  0.  0.  0.  0.  0.  0.]
NO vec
[[ 0.8719557   0.          0.13011709 ...  0.          0.          0.        ]
 [-0.42845587  0.         -0.16754622 ...  0.          0.          0.        ]
 [-0.18860223  0.          0.94369608 ...  0.          0.          0.        ]
 ...
 [ 0.          0.04355765  0.         ... -0.36111629  0.08669812 -0.0500298 ]
 [ 0.          0.02812593  0.         ... -0.58168268 -0.19459864 -0.09031269]
 [ 0.         -0.00340028  0.         ... -0.05026089  0.02740607  0.00431766]]
dm(NO)
[[ 1.  0.  0. ...  0.  0.  0.]
 [ 0.  1.  0. ... -0. -0.  0.]
 [ 0.  0.  0. ...  0.  0.  0.]
 ...
 [ 0.  0.  0. ... -0.  0. -0.]
 [ 0. -0.  0. ...  0. -0.  0.]
 [ 0.  0.  0. ...  0.  0. -0.]]
D(g) (NO)
[[ 0.99951369  0.01851265  0.         ...  0.00140289  0.0033789   0.0147365 ]
 [-0.01851265  0.99951369  0.00389446 ... -0.         -0.          0.        ]
 [ 0.         -0.00389446  0.99951369 ... -0.00508739 -0.00620904  0.02479007]
 ...
 [-0.00140289  0.          0.00508739 ...  0.99951369 -0.         -0.        ]
 [-0.0033789  -0.          0.00620904 ... -0.          0.99951369 -0.        ]
 [-0.0147365   0.         -0.02479007 ... -0.         -0.          0.99951369]]
...
N(g) (NO)
[[ 1.00014345 -0.01852432]
 [ 0.01852432  1.00014345]]
...
P(g) (NO)
[[ 1.          0.          0.         ... -0.         -0.          0.        ]
 [-0.          1.         -0.         ... -0.         -0.          0.        ]
 [-0.00007214 -0.00389502 -0.         ...  0.          0.         -0.        ]
 ...
 [-0.00140309  0.00002599 -0.         ... -0.         -0.          0.        ]
 [-0.00337939  0.00006259 -0.         ... -0.         -0.          0.        ]
 [-0.01473861  0.00027298 -0.         ... -0.         -0.          0.        ]]
...
Pg_ortho
[[ 0.76048519 -0.37368223 -0.16449139 ...  0.0004813   0.00031078 -0.00003757]
 [-0.37325062  0.18340544  0.08073334 ...  0.00092758  0.00059896 -0.00007241]
 [-0.16449139  0.0808267   0.03557915 ... -0.0001041  -0.00006722  0.00000813]
 ...
 [ 0.00188774 -0.00092758 -0.00040831 ...  0.00189552  0.00122397 -0.00014797]
 [-0.00031078  0.00015271  0.00006722 ...  0.00122539  0.00079125 -0.00009566]
 [-0.00014736  0.00007241  0.00003187 ... -0.00014797 -0.00009555  0.00001155]]
G(g) (NO)
[[ 0.33963929 -0.00208906  0.0401914  ...  0.00045839  0.00020544  0.00107513]
 [ 0.00208906  0.33963929  0.00001868 ... -0.03491768  0.00454107  0.09074769]
 [ 0.04019392  0.00257529  0.88953355 ... -0.00004876  0.00139548 -0.00235179]
 ...
 [ 0.00096674 -0.03492498 -0.00005188 ...  0.74105925 -0.02840682 -0.04471235]
 [ 0.00183203  0.00451889  0.00110017 ... -0.02840104  0.94286362  0.02076791]
 [ 0.00814016  0.09065899  0.00072099 ... -0.04469815  0.0207779   0.8794057 ]]
...
C(NO)
[[-1.          0.         -0.         ...  0.          0.          0.        ]
 [ 0.         -1.          0.         ...  0.          0.         -0.        ]
 [-0.          0.          0.15847439 ...  0.          0.          0.        ]
 ...
 [ 0.          0.          0.         ...  0.          0.02127965 -0.3547367 ]
 [ 0.          0.          0.         ... -0.          0.08146075  0.53505928]
 [ 0.         -0.          0.         ...  0.         -0.28344912 -0.03041168]]
detC 1.0000000000000007
detNg [1.00063007 1.01664744 1.0938959  1.301692   1.71169132 2.2816225  2.71132612 2.832235  ]
xg [0.99937033 0.98362516 0.91416377 0.76823089 0.58421748 0.4382846  0.36882321 0.35307805]
ciS 1.3524483714577737
[[-0.81813727  0.         -0.03753654 ...  0.          0.          0.        ]
 [ 0.         -0.81813727  0.         ...  0.03447111 -0.00107387 -0.07166119]
 [-0.03753654  0.          0.4448048  ...  0.          0.          0.        ]
 ...
 [ 0.          0.03447111  0.         ...  1.11330572 -0.68697544  0.03652829]
 [ 0.         -0.00107387  0.         ... -0.68697544  1.91471762 -0.33445454]
 [ 0.         -0.07166119  0.         ...  0.03652829 -0.33445454 -0.03638883]]
ciH -1.7689188869688846
S2 = 0.000000
X(g)
[[ 2.          0.         -0.00007214 ...  0.00140309  0.00337939  0.01473861]
 [-0.          2.          0.00389502 ...  0.00002599  0.00006259  0.00027298]
 [-0.00007214 -0.00389502  0.         ...  0.          0.          0.        ]
 ...
 [-0.00140309  0.00002599  0.         ...  0.          0.          0.        ]
 [-0.00337939  0.00006259  0.         ...  0.          0.          0.        ]
 [-0.01473861  0.00027298  0.         ...  0.          0.          0.        ]]
X(g) int
[[ 2.          0.         -0.0548218  ...  0.02612592  0.06292511  0.27443692]
 [-0.          2.          0.07252628 ...  0.01974829  0.04756438  0.20744378]
 [-0.0548218  -0.07252628  0.         ...  0.          0.          0.        ]
 ...
 [-0.02612592  0.01974829  0.         ...  0.          0.          0.        ]
 [-0.06292511  0.04756438  0.         ...  0.          0.          0.        ]
 [-0.27443692  0.20744378  0.         ...  0.          0.          0.        ]]
Hsp + Hph =  -1.3079381988254433
Feff (mod,ortho)
[[-0.25612847  0.24397395  0.3036747  ...  0.          0.          0.        ]
 [ 0.24397395  0.16977852 -0.0890694  ...  0.          0.          0.        ]
 [ 0.3036747  -0.0890694   1.18899612 ...  0.          0.          0.        ]
 ...
 [ 0.          0.          0.         ...  3.30245362 -0.00819437  0.35653578]
 [ 0.          0.          0.         ... -0.00819437  1.77850384 -0.01429816]
 [ 0.          0.          0.         ...  0.35653578 -0.01429816  1.5200967 ]]
E(SUHF) =     -1.01395086
e_a, e_b
[-0.48255212  0.05872898  0.36415711  0.47348596  0.68956245  0.68956245  0.7253097   0.89352946  0.89352946  1.23195675  2.44573113  2.65674149  3.25425262
  3.32122512  3.32122512  3.42510637  3.42510637  3.47927856  3.47927856  3.57306224  3.57306224  3.74574625  3.84901942  3.84901942  3.99047933  3.99047933
  4.03873963  4.57712533] [-0.48255212  0.05872898  0.36415711  0.47348596  0.68956245  0.68956245  0.7253097   0.89352946  0.89352946  1.23195675  2.44573113  2.65674149  3.25425262
  3.32122512  3.32122512  3.42510637  3.42510637  3.47927856  3.47927856  3.57306224  3.57306224  3.74574625  3.84901942  3.84901942  3.99047933  3.99047933
  4.03873963  4.57712533]
P_a, P_b
[[ 0.69723618 -0.41089712 -0.15459245  0.         -0.         -0.          0.         -0.10772589  0.00733361  0.         -0.         -0.          0.
  -0.         -0.          0.         -0.         -0.012563   -0.00978745  0.06589007 -0.00981945 -0.         -0.          0.         -0.         -0.041041
   0.01810604 -0.00048169]
 [-0.41089712  0.24215101  0.09110484 -0.          0.          0.         -0.          0.06348531 -0.00432186 -0.          0.          0.         -0.
   0.          0.         -0.          0.          0.00740366  0.00576797 -0.03883052  0.00578683  0.          0.         -0.          0.          0.02418639
  -0.0106703   0.00028387]
 [-0.15459245  0.09110484  0.03427651 -0.          0.          0.         -0.          0.02388518 -0.00162602 -0.          0.          0.         -0.
   0.          0.         -0.          0.          0.00278549  0.00217009 -0.01460926  0.00217719  0.          0.         -0.          0.          0.00909968
  -0.0040145   0.0001068 ]
 [ 0.         -0.         -0.          0.         -0.         -0.          0.         -0.          0.          0.         -0.         -0.          0.
  -0.         -0.          0.         -0.         -0.         -0.          0.         -0.         -0.         -0.          0.         -0.         -0.
   0.         -0.        ]
 [-0.          0.          0.         -0.          0.          0.         -0.          0.         -0.         -0.          0.          0.         -0.
   0.          0.         -0.          0.          0.          0.         -0.          0.          0.          0.         -0.          0.          0.
  -0.          0.        ]
 [-0.          0.          0.         -0.          0.          0.         -0.          0.         -0.         -0.          0.          0.         -0.
   0.          0.         -0.          0.          0.          0.         -0.          0.          0.          0.         -0.          0.          0.
  -0.          0.        ]
 [ 0.         -0.         -0.          0.         -0.         -0.          0.         -0.          0.          0.         -0.         -0.          0.
  -0.         -0.          0.         -0.         -0.         -0.          0.         -0.         -0.         -0.          0.         -0.         -0.
   0.         -0.        ]
 [-0.10772589  0.06348531  0.02388518 -0.          0.          0.         -0.          0.0166441  -0.00113307 -0.          0.          0.         -0.
   0.          0.         -0.          0.          0.00194104  0.0015122  -0.01018029  0.00151715  0.          0.         -0.          0.          0.00634101
  -0.00279746  0.00007442]
 [ 0.00733361 -0.00432186 -0.00162602  0.         -0.         -0.          0.         -0.00113307  0.00007714  0.         -0.         -0.          0.
  -0.         -0.          0.         -0.         -0.00013214 -0.00010295  0.00069304 -0.00010328 -0.         -0.          0.         -0.         -0.00043167
   0.00019044 -0.00000507]
 [ 0.         -0.         -0.          0.         -0.         -0.          0.         -0.          0.          0.         -0.         -0.          0.
  -0.         -0.          0.         -0.         -0.         -0.          0.         -0.         -0.         -0.          0.         -0.         -0.
   0.         -0.        ]
 [-0.          0.          0.         -0.          0.          0.         -0.          0.         -0.         -0.          0.          0.         -0.
   0.          0.         -0.          0.          0.          0.         -0.          0.          0.          0.         -0.          0.          0.
  -0.          0.        ]
 [-0.          0.          0.         -0.          0.          0.         -0.          0.         -0.         -0.          0.          0.         -0.
   0.          0.         -0.          0.          0.          0.         -0.          0.          0.          0.         -0.          0.          0.
  -0.          0.        ]
 [ 0.         -0.         -0.          0.         -0.         -0.          0.         -0.          0.          0.         -0.         -0.          0.
  -0.         -0.          0.         -0.         -0.         -0.          0.         -0.         -0.         -0.          0.         -0.         -0.
   0.         -0.        ]
 [-0.          0.          0.         -0.          0.          0.         -0.          0.         -0.         -0.          0.          0.         -0.
   0.          0.         -0.          0.          0.          0.         -0.          0.          0.          0.         -0.          0.          0.
  -0.          0.        ]
 [-0.          0.          0.         -0.          0.          0.         -0.          0.         -0.         -0.          0.          0.         -0.
   0.          0.         -0.          0.          0.          0.         -0.          0.          0.          0.         -0.          0.          0.
  -0.          0.        ]
 [ 0.         -0.         -0.          0.         -0.         -0.          0.         -0.          0.          0.         -0.         -0.          0.
  -0.         -0.          0.         -0.         -0.         -0.          0.         -0.         -0.         -0.          0.         -0.         -0.
   0.         -0.        ]
 [-0.          0.          0.         -0.          0.          0.         -0.          0.         -0.         -0.          0.          0.         -0.
   0.          0.         -0.          0.          0.          0.         -0.          0.          0.          0.         -0.          0.          0.
  -0.          0.        ]
 [-0.012563    0.00740366  0.00278549 -0.          0.          0.         -0.          0.00194104 -0.00013214 -0.          0.          0.         -0.
   0.          0.         -0.          0.          0.00022636  0.00017635 -0.00118723  0.00017693  0.          0.         -0.          0.          0.00073949
  -0.00032624  0.00000868]
 [-0.00978745  0.00576797  0.00217009 -0.          0.          0.         -0.          0.0015122  -0.00010295 -0.          0.          0.         -0.
   0.          0.         -0.          0.          0.00017635  0.00013739 -0.00092493  0.00013784  0.          0.         -0.          0.          0.00057611
  -0.00025416  0.00000676]
 [ 0.06589007 -0.03883052 -0.01460926  0.         -0.         -0.          0.         -0.01018029  0.00069304  0.         -0.         -0.          0.
  -0.         -0.          0.         -0.         -0.00118723 -0.00092493  0.00622673 -0.00092796 -0.         -0.          0.         -0.         -0.00387845
   0.00171105 -0.00004552]
 [-0.00981945  0.00578683  0.00217719 -0.          0.          0.         -0.          0.00151715 -0.00010328 -0.          0.          0.         -0.
   0.          0.         -0.          0.          0.00017693  0.00013784 -0.00092796  0.00013829  0.          0.         -0.          0.          0.000578
  -0.00025499  0.00000678]
 [-0.          0.          0.         -0.          0.          0.         -0.          0.         -0.         -0.          0.          0.         -0.
   0.          0.         -0.          0.          0.          0.         -0.          0.          0.          0.         -0.          0.          0.
  -0.          0.        ]
 [-0.          0.          0.         -0.          0.          0.         -0.          0.         -0.         -0.          0.          0.         -0.
   0.          0.         -0.          0.          0.          0.         -0.          0.          0.          0.         -0.          0.          0.
  -0.          0.        ]
 [ 0.         -0.         -0.          0.         -0.         -0.          0.         -0.          0.          0.         -0.         -0.          0.
  -0.         -0.          0.         -0.         -0.         -0.          0.         -0.         -0.         -0.          0.         -0.         -0.
   0.         -0.        ]
 [-0.          0.          0.         -0.          0.          0.         -0.          0.         -0.         -0.          0.          0.         -0.
   0.          0.         -0.          0.          0.          0.         -0.          0.          0.          0.         -0.          0.          0.
  -0.          0.        ]
 [-0.041041    0.02418639  0.00909968 -0.          0.          0.         -0.          0.00634101 -0.00043167 -0.          0.          0.         -0.
   0.          0.         -0.          0.          0.00073949  0.00057611 -0.00387845  0.000578    0.          0.         -0.          0.          0.00241577
  -0.00106577  0.00002835]
 [ 0.01810604 -0.0106703  -0.0040145   0.         -0.         -0.          0.         -0.00279746  0.00019044  0.         -0.         -0.          0.
  -0.         -0.          0.         -0.         -0.00032624 -0.00025416  0.00171105 -0.00025499 -0.         -0.          0.         -0.         -0.00106577
   0.00047018 -0.00001251]
 [-0.00048169  0.00028387  0.0001068  -0.          0.          0.         -0.          0.00007442 -0.00000507 -0.          0.          0.         -0.
   0.          0.         -0.          0.          0.00000868  0.00000676 -0.00004552  0.00000678  0.          0.         -0.          0.          0.00002835
  -0.00001251  0.00000033]] 
 [[ 0.69723618  0.41089712 -0.15459245 -0.         -0.          0.         -0.          0.10772589  0.00733361 -0.          0.          0.         -0.
   0.          0.         -0.          0.          0.012563   -0.00978745 -0.06589007 -0.00981945 -0.         -0.         -0.         -0.          0.041041
   0.01810604  0.00048169]
 [ 0.41089712  0.24215101 -0.09110484 -0.         -0.          0.         -0.          0.06348531  0.00432186 -0.          0.          0.         -0.
   0.          0.         -0.          0.          0.00740366 -0.00576797 -0.03883052 -0.00578683 -0.         -0.         -0.         -0.          0.02418639
   0.0106703   0.00028387]
 [-0.15459245 -0.09110484  0.03427651  0.          0.         -0.          0.         -0.02388518 -0.00162602  0.         -0.         -0.          0.
  -0.         -0.          0.         -0.         -0.00278549  0.00217009  0.01460926  0.00217719  0.          0.          0.          0.         -0.00909968
  -0.0040145  -0.0001068 ]
 [-0.         -0.          0.          0.          0.         -0.          0.         -0.         -0.          0.         -0.         -0.          0.
  -0.         -0.          0.         -0.         -0.          0.          0.          0.          0.          0.          0.          0.         -0.
  -0.         -0.        ]
 [-0.         -0.          0.          0.          0.         -0.          0.         -0.         -0.          0.         -0.         -0.          0.
  -0.         -0.          0.         -0.         -0.          0.          0.          0.          0.          0.          0.          0.         -0.
  -0.         -0.        ]
 [ 0.          0.         -0.         -0.         -0.          0.         -0.          0.          0.         -0.          0.          0.         -0.
   0.          0.         -0.          0.          0.         -0.         -0.         -0.         -0.         -0.         -0.         -0.          0.
   0.          0.        ]
 [-0.         -0.          0.          0.          0.         -0.          0.         -0.         -0.          0.         -0.         -0.          0.
  -0.         -0.          0.         -0.         -0.          0.          0.          0.          0.          0.          0.          0.         -0.
  -0.         -0.        ]
 [ 0.10772589  0.06348531 -0.02388518 -0.         -0.          0.         -0.          0.0166441   0.00113307 -0.          0.          0.         -0.
   0.          0.         -0.          0.          0.00194104 -0.0015122  -0.01018029 -0.00151715 -0.         -0.         -0.         -0.          0.00634101
   0.00279746  0.00007442]
 [ 0.00733361  0.00432186 -0.00162602 -0.         -0.          0.         -0.          0.00113307  0.00007714 -0.          0.          0.         -0.
   0.          0.         -0.          0.          0.00013214 -0.00010295 -0.00069304 -0.00010328 -0.         -0.         -0.         -0.          0.00043167
   0.00019044  0.00000507]
 [-0.         -0.          0.          0.          0.         -0.          0.         -0.         -0.          0.         -0.         -0.          0.
  -0.         -0.          0.         -0.         -0.          0.          0.          0.          0.          0.          0.          0.         -0.
  -0.         -0.        ]
 [ 0.          0.         -0.         -0.         -0.          0.         -0.          0.          0.         -0.          0.          0.         -0.
   0.          0.         -0.          0.          0.         -0.         -0.         -0.         -0.         -0.         -0.         -0.          0.
   0.          0.        ]
 [ 0.          0.         -0.         -0.         -0.          0.         -0.          0.          0.         -0.          0.          0.         -0.
   0.          0.         -0.          0.          0.         -0.         -0.         -0.         -0.         -0.         -0.         -0.          0.
   0.          0.        ]
 [-0.         -0.          0.          0.          0.         -0.          0.         -0.         -0.          0.         -0.         -0.          0.
  -0.         -0.          0.         -0.         -0.          0.          0.          0.          0.          0.          0.          0.         -0.
  -0.         -0.        ]
 [ 0.          0.         -0.         -0.         -0.          0.         -0.          0.          0.         -0.          0.          0.         -0.
   0.          0.         -0.          0.          0.         -0.         -0.         -0.         -0.         -0.         -0.         -0.          0.
   0.          0.        ]
 [ 0.          0.         -0.         -0.         -0.          0.         -0.          0.          0.         -0.          0.          0.         -0.
   0.          0.         -0.          0.          0.         -0.         -0.         -0.         -0.         -0.         -0.         -0.          0.
   0.          0.        ]
 [-0.         -0.          0.          0.          0.         -0.          0.         -0.         -0.          0.         -0.         -0.          0.
  -0.         -0.          0.         -0.         -0.          0.          0.          0.          0.          0.          0.          0.         -0.
  -0.         -0.        ]
 [ 0.          0.         -0.         -0.         -0.          0.         -0.          0.          0.         -0.          0.          0.         -0.
   0.          0.         -0.          0.          0.         -0.         -0.         -0.         -0.         -0.         -0.         -0.          0.
   0.          0.        ]
 [ 0.012563    0.00740366 -0.00278549 -0.         -0.          0.         -0.          0.00194104  0.00013214 -0.          0.          0.         -0.
   0.          0.         -0.          0.          0.00022636 -0.00017635 -0.00118723 -0.00017693 -0.         -0.         -0.         -0.          0.00073949
   0.00032624  0.00000868]
 [-0.00978745 -0.00576797  0.00217009  0.          0.         -0.          0.         -0.0015122  -0.00010295  0.         -0.         -0.          0.
  -0.         -0.          0.         -0.         -0.00017635  0.00013739  0.00092493  0.00013784  0.          0.          0.          0.         -0.00057611
  -0.00025416 -0.00000676]
 [-0.06589007 -0.03883052  0.01460926  0.          0.         -0.          0.         -0.01018029 -0.00069304  0.         -0.         -0.          0.
  -0.         -0.          0.         -0.         -0.00118723  0.00092493  0.00622673  0.00092796  0.          0.          0.          0.         -0.00387845
  -0.00171105 -0.00004552]
 [-0.00981945 -0.00578683  0.00217719  0.          0.         -0.          0.         -0.00151715 -0.00010328  0.         -0.         -0.          0.
  -0.         -0.          0.         -0.         -0.00017693  0.00013784  0.00092796  0.00013829  0.          0.          0.          0.         -0.000578
  -0.00025499 -0.00000678]
 [-0.         -0.          0.          0.          0.         -0.          0.         -0.         -0.          0.         -0.         -0.          0.
  -0.         -0.          0.         -0.         -0.          0.          0.          0.          0.          0.          0.          0.         -0.
  -0.         -0.        ]
 [-0.         -0.          0.          0.          0.         -0.          0.         -0.         -0.          0.         -0.         -0.          0.
  -0.         -0.          0.         -0.         -0.          0.          0.          0.          0.          0.          0.          0.         -0.
  -0.         -0.        ]
 [-0.         -0.          0.          0.          0.         -0.          0.         -0.         -0.          0.         -0.         -0.          0.
  -0.         -0.          0.         -0.         -0.          0.          0.          0.          0.          0.          0.          0.         -0.
  -0.         -0.        ]
 [-0.         -0.          0.          0.          0.         -0.          0.         -0.         -0.          0.         -0.         -0.          0.
  -0.         -0.          0.         -0.         -0.          0.          0.          0.          0.          0.          0.          0.         -0.
  -0.         -0.        ]
 [ 0.041041    0.02418639 -0.00909968 -0.         -0.          0.         -0.          0.00634101  0.00043167 -0.          0.          0.         -0.
   0.          0.         -0.          0.          0.00073949 -0.00057611 -0.00387845 -0.000578   -0.         -0.         -0.         -0.          0.00241577
   0.00106577  0.00002835]
 [ 0.01810604  0.0106703  -0.0040145  -0.         -0.          0.         -0.          0.00279746  0.00019044 -0.          0.          0.         -0.
   0.          0.         -0.          0.          0.00032624 -0.00025416 -0.00171105 -0.00025499 -0.         -0.         -0.         -0.          0.00106577
   0.00047018  0.00001251]
 [ 0.00048169  0.00028387 -0.0001068  -0.         -0.          0.         -0.          0.00007442  0.00000507 -0.          0.          0.         -0.
   0.          0.         -0.          0.          0.00000868 -0.00000676 -0.00004552 -0.00000678 -0.         -0.         -0.         -0.          0.00002835
[...]
 [-0.56475354  0.27374359  0.         ...  0.          0.          0.        ]]
Hsp + Hph =  -1.3233237113759593
Feff (mod,ortho)
[[-0.2302672   0.27066638  0.30765203 ...  0.          0.          0.        ]
 [ 0.27066638  0.1622453  -0.10278207 ...  0.          0.          0.        ]
 [ 0.30765203 -0.10278207  1.19392441 ...  0.          0.          0.        ]
 ...
 [ 0.          0.          0.         ...  3.30557509 -0.00991097  0.35629134]
 [ 0.          0.          0.         ... -0.00991097  1.78369767 -0.01702961]
 [ 0.          0.          0.         ...  0.35629134 -0.01702961  1.52448611]]
E(SUHF) =     -1.02933637
e_a, e_b
[-0.49877295  0.07478808  0.359179    0.48777175  0.69141749  0.69141749  0.72900568  0.89876417  0.89876417  1.23632028  2.45051231  2.67177141  3.26141901
  3.32871213  3.32871213  3.42937274  3.42937274  3.49051483  3.49051483  3.57866549  3.57866549  3.7502539   3.85651642  3.85651642  4.00592214  4.00592214
  4.0494556   4.58827849] [-0.49877295  0.07478808  0.359179    0.48777175  0.69141749  0.69141749  0.72900568  0.89876417  0.89876417  1.23632028  2.45051231  2.67177141  3.26141901
  3.32871213  3.32871213  3.42937274  3.42937274  3.49051483  3.49051483  3.57866549  3.57866549  3.7502539   3.85651642  3.85651642  4.00592214  4.00592214
  4.0494556   4.58827849]
P_a, P_b
[[ 0.65439331 -0.42744274 -0.151371   -0.          0.         -0.         -0.         -0.12087776  0.00656961  0.         -0.         -0.          0.
  -0.         -0.         -0.         -0.         -0.01507106  0.00177369  0.05644524 -0.0106171   0.          0.          0.          0.         -0.04265281
   0.02138709 -0.00904964]
 [-0.42744274  0.27920105  0.09887393  0.         -0.          0.          0.          0.07895607 -0.0042912  -0.          0.          0.         -0.
   0.          0.          0.          0.          0.00984425 -0.00115856 -0.03686943  0.00693498 -0.         -0.         -0.         -0.          0.02786036
  -0.01396982  0.00591113]
 [-0.151371    0.09887393  0.03501439  0.         -0.          0.          0.          0.02796084 -0.00151965 -0.          0.          0.         -0.
   0.          0.          0.          0.          0.00348616 -0.00041028 -0.01305663  0.0024559  -0.         -0.         -0.         -0.          0.00986623
  -0.00494716  0.00209332]
 [-0.          0.          0.          0.         -0.          0.          0.          0.         -0.         -0.          0.          0.         -0.
   0.          0.          0.          0.          0.         -0.         -0.          0.         -0.         -0.         -0.         -0.          0.
  -0.          0.        ]
 [ 0.         -0.         -0.         -0.          0.         -0.         -0.         -0.          0.          0.         -0.         -0.          0.
  -0.         -0.         -0.         -0.         -0.          0.          0.         -0.          0.          0.          0.          0.         -0.
   0.         -0.        ]
 [-0.          0.          0.          0.         -0.          0.          0.          0.         -0.         -0.          0.          0.         -0.
   0.          0.          0.          0.          0.         -0.         -0.          0.         -0.         -0.         -0.         -0.          0.
  -0.          0.        ]
 [-0.          0.          0.          0.         -0.          0.          0.          0.         -0.         -0.          0.          0.         -0.
   0.          0.          0.          0.          0.         -0.         -0.          0.         -0.         -0.         -0.         -0.          0.
  -0.          0.        ]
 [-0.12087776  0.07895607  0.02796084  0.         -0.          0.          0.          0.02232821 -0.00121352 -0.          0.          0.         -0.
   0.          0.          0.          0.          0.00278388 -0.00032763 -0.01042641  0.00196116 -0.         -0.         -0.         -0.          0.00787871
  -0.00395057  0.00167163]
 [ 0.00656961 -0.0042912  -0.00151965 -0.          0.         -0.         -0.         -0.00121352  0.00006595  0.         -0.         -0.          0.
  -0.         -0.         -0.         -0.         -0.0001513   0.00001781  0.00056667 -0.00010659  0.          0.          0.          0.         -0.0004282
   0.00021471 -0.00009085]
 [ 0.         -0.         -0.         -0.          0.         -0.         -0.         -0.          0.          0.         -0.         -0.          0.
  -0.         -0.         -0.         -0.         -0.          0.          0.         -0.          0.          0.          0.          0.         -0.
   0.         -0.        ]
 [-0.          0.          0.          0.         -0.          0.          0.          0.         -0.         -0.          0.          0.         -0.
   0.          0.          0.          0.          0.         -0.         -0.          0.         -0.         -0.         -0.         -0.          0.
  -0.          0.        ]
 [-0.          0.          0.          0.         -0.          0.          0.          0.         -0.         -0.          0.          0.         -0.
   0.          0.          0.          0.          0.         -0.         -0.          0.         -0.         -0.         -0.         -0.          0.
  -0.          0.        ]
 [ 0.         -0.         -0.         -0.          0.         -0.         -0.         -0.          0.          0.         -0.         -0.          0.
  -0.         -0.         -0.         -0.         -0.          0.          0.         -0.          0.          0.          0.          0.         -0.
   0.         -0.        ]
 [-0.          0.          0.          0.         -0.          0.          0.          0.         -0.         -0.          0.          0.         -0.
   0.          0.          0.          0.          0.         -0.         -0.          0.         -0.         -0.         -0.         -0.          0.
  -0.          0.        ]
 [-0.          0.          0.          0.         -0.          0.          0.          0.         -0.         -0.          0.          0.         -0.
   0.          0.          0.          0.          0.         -0.         -0.          0.         -0.         -0.         -0.         -0.          0.
  -0.          0.        ]
 [-0.          0.          0.          0.         -0.          0.          0.          0.         -0.         -0.          0.          0.         -0.
   0.          0.          0.          0.          0.         -0.         -0.          0.         -0.         -0.         -0.         -0.          0.
  -0.          0.        ]
 [-0.          0.          0.          0.         -0.          0.          0.          0.         -0.         -0.          0.          0.         -0.
   0.          0.          0.          0.          0.         -0.         -0.          0.         -0.         -0.         -0.         -0.          0.
  -0.          0.        ]
 [-0.01507106  0.00984425  0.00348616  0.         -0.          0.          0.          0.00278388 -0.0001513  -0.          0.          0.         -0.
   0.          0.          0.          0.          0.0003471  -0.00004085 -0.00129997  0.00024452 -0.         -0.         -0.         -0.          0.00098232
  -0.00049256  0.00020842]
 [ 0.00177369 -0.00115856 -0.00041028 -0.          0.         -0.         -0.         -0.00032763  0.00001781  0.         -0.         -0.          0.
  -0.         -0.         -0.         -0.         -0.00004085  0.00000481  0.00015299 -0.00002878  0.          0.          0.          0.         -0.00011561
   0.00005797 -0.00002453]
 [ 0.05644524 -0.03686943 -0.01305663 -0.          0.         -0.         -0.         -0.01042641  0.00056667  0.         -0.         -0.          0.
  -0.         -0.         -0.         -0.         -0.00129997  0.00015299  0.00486873 -0.00091579  0.          0.          0.          0.         -0.00367905
   0.00184476 -0.00078058]
 [-0.0106171   0.00693498  0.0024559   0.         -0.          0.          0.          0.00196116 -0.00010659 -0.          0.          0.         -0.
   0.          0.          0.          0.          0.00024452 -0.00002878 -0.00091579  0.00017226 -0.         -0.         -0.         -0.          0.00069201
  -0.00034699  0.00014682]
 [ 0.         -0.         -0.         -0.          0.         -0.         -0.         -0.          0.          0.         -0.         -0.          0.
  -0.         -0.         -0.         -0.         -0.          0.          0.         -0.          0.          0.          0.          0.         -0.
   0.         -0.        ]
 [ 0.         -0.         -0.         -0.          0.         -0.         -0.         -0.          0.          0.         -0.         -0.          0.
  -0.         -0.         -0.         -0.         -0.          0.          0.         -0.          0.          0.          0.          0.         -0.
   0.         -0.        ]
 [ 0.         -0.         -0.         -0.          0.         -0.         -0.         -0.          0.          0.         -0.         -0.          0.
  -0.         -0.         -0.         -0.         -0.          0.          0.         -0.          0.          0.          0.          0.         -0.
   0.         -0.        ]
 [ 0.         -0.         -0.         -0.          0.         -0.         -0.         -0.          0.          0.         -0.         -0.          0.
  -0.         -0.         -0.         -0.         -0.          0.          0.         -0.          0.          0.          0.          0.         -0.
   0.         -0.        ]
 [-0.04265281  0.02786036  0.00986623  0.         -0.          0.          0.          0.00787871 -0.0004282  -0.          0.          0.         -0.
   0.          0.          0.          0.          0.00098232 -0.00011561 -0.00367905  0.00069201 -0.         -0.         -0.         -0.          0.00278007
  -0.00139399  0.00058985]
 [ 0.02138709 -0.01396982 -0.00494716 -0.          0.         -0.         -0.         -0.00395057  0.00021471  0.         -0.         -0.          0.
  -0.         -0.         -0.         -0.         -0.00049256  0.00005797  0.00184476 -0.00034699  0.          0.          0.          0.         -0.00139399
   0.00069898 -0.00029576]
 [-0.00904964  0.00591113  0.00209332  0.         -0.          0.          0.          0.00167163 -0.00009085 -0.          0.          0.         -0.
   0.          0.          0.          0.          0.00020842 -0.00002453 -0.00078058  0.00014682 -0.         -0.         -0.         -0.          0.00058985
  -0.00029576  0.00012515]] 
 [[ 0.65439331  0.42744274 -0.151371   -0.         -0.          0.          0.          0.12087776  0.00656961 -0.          0.          0.         -0.
   0.          0.          0.          0.          0.01507106  0.00177369 -0.05644524 -0.0106171  -0.         -0.         -0.         -0.          0.04265281
   0.02138709  0.00904964]
 [ 0.42744274  0.27920105 -0.09887393 -0.         -0.          0.          0.          0.07895607  0.0042912  -0.          0.          0.         -0.
   0.          0.          0.          0.          0.00984425  0.00115856 -0.03686943 -0.00693498 -0.         -0.         -0.         -0.          0.02786036
   0.01396982  0.00591113]
 [-0.151371   -0.09887393  0.03501439  0.          0.         -0.         -0.         -0.02796084 -0.00151965  0.         -0.         -0.          0.
  -0.         -0.         -0.         -0.         -0.00348616 -0.00041028  0.01305663  0.0024559   0.          0.          0.          0.         -0.00986623
  -0.00494716 -0.00209332]
 [-0.         -0.          0.          0.          0.         -0.         -0.         -0.         -0.          0.         -0.         -0.          0.
  -0.         -0.         -0.         -0.         -0.         -0.          0.          0.          0.          0.          0.          0.         -0.
  -0.         -0.        ]
 [-0.         -0.          0.          0.          0.         -0.         -0.         -0.         -0.          0.         -0.         -0.          0.
  -0.         -0.         -0.         -0.         -0.         -0.          0.          0.          0.          0.          0.          0.         -0.
  -0.         -0.        ]
 [ 0.          0.         -0.         -0.         -0.          0.          0.          0.          0.         -0.          0.          0.         -0.
   0.          0.          0.          0.          0.          0.         -0.         -0.         -0.         -0.         -0.         -0.          0.
   0.          0.        ]
 [ 0.          0.         -0.         -0.         -0.          0.          0.          0.          0.         -0.          0.          0.         -0.
   0.          0.          0.          0.          0.          0.         -0.         -0.         -0.         -0.         -0.         -0.          0.
   0.          0.        ]
 [ 0.12087776  0.07895607 -0.02796084 -0.         -0.          0.          0.          0.02232821  0.00121352 -0.          0.          0.         -0.
   0.          0.          0.          0.          0.00278388  0.00032763 -0.01042641 -0.00196116 -0.         -0.         -0.         -0.          0.00787871
   0.00395057  0.00167163]
 [ 0.00656961  0.0042912  -0.00151965 -0.         -0.          0.          0.          0.00121352  0.00006595 -0.          0.          0.         -0.
   0.          0.          0.          0.          0.0001513   0.00001781 -0.00056667 -0.00010659 -0.         -0.         -0.         -0.          0.0004282
   0.00021471  0.00009085]
 [-0.         -0.          0.          0.          0.         -0.         -0.         -0.         -0.          0.         -0.         -0.          0.
  -0.         -0.         -0.         -0.         -0.         -0.          0.          0.          0.          0.          0.          0.         -0.
  -0.         -0.        ]
 [ 0.          0.         -0.         -0.         -0.          0.          0.          0.          0.         -0.          0.          0.         -0.
   0.          0.          0.          0.          0.          0.         -0.         -0.         -0.         -0.         -0.         -0.          0.
   0.          0.        ]
 [ 0.          0.         -0.         -0.         -0.          0.          0.          0.          0.         -0.          0.          0.         -0.
   0.          0.          0.          0.          0.          0.         -0.         -0.         -0.         -0.         -0.         -0.          0.
   0.          0.        ]
 [-0.         -0.          0.          0.          0.         -0.         -0.         -0.         -0.          0.         -0.         -0.          0.
  -0.         -0.         -0.         -0.         -0.         -0.          0.          0.          0.          0.          0.          0.         -0.
  -0.         -0.        ]
 [ 0.          0.         -0.         -0.         -0.          0.          0.          0.          0.         -0.          0.          0.         -0.
   0.          0.          0.          0.          0.          0.         -0.         -0.         -0.         -0.         -0.         -0.          0.
   0.          0.        ]
 [ 0.          0.         -0.         -0.         -0.          0.          0.          0.          0.         -0.          0.          0.         -0.
   0.          0.          0.          0.          0.          0.         -0.         -0.         -0.         -0.         -0.         -0.          0.
   0.          0.        ]
 [ 0.          0.         -0.         -0.         -0.          0.          0.          0.          0.         -0.          0.          0.         -0.
   0.          0.          0.          0.          0.          0.         -0.         -0.         -0.         -0.         -0.         -0.          0.
   0.          0.        ]
 [ 0.          0.         -0.         -0.         -0.          0.          0.          0.          0.         -0.          0.          0.         -0.
   0.          0.          0.          0.          0.          0.         -0.         -0.         -0.         -0.         -0.         -0.          0.
   0.          0.        ]
 [ 0.01507106  0.00984425 -0.00348616 -0.         -0.          0.          0.          0.00278388  0.0001513  -0.          0.          0.         -0.
   0.          0.          0.          0.          0.0003471   0.00004085 -0.00129997 -0.00024452 -0.         -0.         -0.         -0.          0.00098232
   0.00049256  0.00020842]
 [ 0.00177369  0.00115856 -0.00041028 -0.         -0.          0.          0.          0.00032763  0.00001781 -0.          0.          0.         -0.
   0.          0.          0.          0.          0.00004085  0.00000481 -0.00015299 -0.00002878 -0.         -0.         -0.         -0.          0.00011561
   0.00005797  0.00002453]
 [-0.05644524 -0.03686943  0.01305663  0.          0.         -0.         -0.         -0.01042641 -0.00056667  0.         -0.         -0.          0.
  -0.         -0.         -0.         -0.         -0.00129997 -0.00015299  0.00486873  0.00091579  0.          0.          0.          0.         -0.00367905
  -0.00184476 -0.00078058]
 [-0.0106171  -0.00693498  0.0024559   0.          0.         -0.         -0.         -0.00196116 -0.00010659  0.         -0.         -0.          0.
  -0.         -0.         -0.         -0.         -0.00024452 -0.00002878  0.00091579  0.00017226  0.          0.          0.          0.         -0.00069201
  -0.00034699 -0.00014682]
 [-0.         -0.          0.          0.          0.         -0.         -0.         -0.         -0.          0.         -0.         -0.          0.
  -0.         -0.         -0.         -0.         -0.         -0.          0.          0.          0.          0.          0.          0.         -0.
  -0.         -0.        ]
 [-0.         -0.          0.          0.          0.         -0.         -0.         -0.         -0.          0.         -0.         -0.          0.
  -0.         -0.         -0.         -0.         -0.         -0.          0.          0.          0.          0.          0.          0.         -0.
  -0.         -0.        ]
 [-0.         -0.          0.          0.          0.         -0.         -0.         -0.         -0.          0.         -0.         -0.          0.
  -0.         -0.         -0.         -0.         -0.         -0.          0.          0.          0.          0.          0.          0.         -0.
  -0.         -0.        ]
 [-0.         -0.          0.          0.          0.         -0.         -0.         -0.         -0.          0.         -0.         -0.          0.
  -0.         -0.         -0.         -0.         -0.         -0.          0.          0.          0.          0.          0.          0.         -0.
  -0.         -0.        ]
 [ 0.04265281  0.02786036 -0.00986623 -0.         -0.          0.          0.          0.00787871  0.0004282  -0.          0.          0.         -0.
   0.          0.          0.          0.          0.00098232  0.00011561 -0.00367905 -0.00069201 -0.         -0.         -0.         -0.          0.00278007
   0.00139399  0.00058985]
 [ 0.02138709  0.01396982 -0.00494716 -0.         -0.          0.          0.          0.00395057  0.00021471 -0.          0.          0.         -0.
   0.          0.          0.          0.          0.00049256  0.00005797 -0.00184476 -0.00034699 -0.         -0.         -0.         -0.          0.00139399
   0.00069898  0.00029576]
 [ 0.00904964  0.00591113 -0.00209332 -0.         -0.          0.          0.          0.00167163  0.00009085 -0.          0.          0.         -0.
   0.          0.          0.          0.          0.00020842  0.00002453 -0.00078058 -0.00014682 -0.         -0.         -0.         -0.          0.00058985
   0.00029576  0.00012515]]

***************
SUHF converged at cycle 12
Final E(SUHF) =     -1.02933637, delta E = -4.13996e-09
