#INFO: **** input file is /share/home/srwang/ExSCF/test/pytest/scan_h2/scan_suhf.py ****
#import phf
from pyscf import lib
#import scipy
import numpy as np
import sys, os, contextlib

from pyphf import util, sudft

#xyz = 'h2.xyz' #sys.argv[1]
fch = 'test_uhf.fchk' #sys.argv[2]
#bas = '../h2.bas'
bas = 'cc-pvtz'

lib.num_threads(8)

for r in np.arange(0.5, 2.55, 0.1):
    output = 'suhf/suhf_%.1f_diis.out' % r
    os.system("echo '\n' > %s" % output)
    with open(output, 'w', encoding='utf-8') as f:
        with contextlib.redirect_stdout(f):
            xyz = '''H 0.0 0.0 0.0; H 0.0 0.0 %f'''%r
            mf = util.guess_from_fchk(xyz, bas, fch)
            #mf = util.guess(xyz, bas)
            #f.flush()
            mf2 = util.SUHF(mf)
            #mf2.cut_no = False
            mf2.debug = False
            #mf2.max_cycle = 50
            mf2.diis_on = True
            #mf2.output = 'sudft_%.1f.out'%r
            mf2.kernel()
            
            #mf3 = sudft.SUDFT(mf2)
            #mf3.suxc = 'TPSS'
            #mf3.kernel()
                    
#INFO: ******************** input file end ********************


System: uname_result(system='Linux', node='xcluster', release='3.10.0-693.el7.x86_64', version='#1 SMP Thu Jul 6 19:56:57 EDT 2017', machine='x86_64', processor='x86_64')  Threads 8
Python 3.7.4 (default, Aug 13 2019, 20:35:49) 
[GCC 7.3.0]
numpy 1.17.2  scipy 1.4.1
Date: Mon Nov 23 19:26:56 2020
PySCF version 1.7.5
PySCF path  /share/home/srwang/pyscf-1.7.5/pyscf

[CONFIG] conf_file None
[INPUT] verbose = 4
[INPUT] num. atoms = 2
[INPUT] num. electrons = 2
[INPUT] charge = 0
[INPUT] spin (= nelec alpha-beta = 2S) = 0
[INPUT] symmetry False subgroup None
[INPUT] Mole.unit = angstrom
[INPUT]  1 H      0.000000000000   0.000000000000   0.000000000000 AA    0.000000000000   0.000000000000   0.000000000000 Bohr
[INPUT]  2 H      0.000000000000   0.000000000000   0.700000000000 AA    0.000000000000   0.000000000000   1.322808287196 Bohr

nuclear repulsion = 0.755967444171429
number of shells = 12
number of NR pGTOs = 32
number of NR cGTOs = 28
basis = cc-pvtz
ecp = {}
CPU time:       176.91


******** <class 'pyscf.scf.uhf.UHF'> ********
method = UHF
initial guess = minao
damping factor = 0
level_shift factor = 0
DIIS = <class 'pyscf.scf.diis.CDIIS'>
diis_start_cycle = 1
diis_space = 8
SCF conv_tol = 1e-09
SCF conv_tol_grad = None
SCF max_cycles = 1
direct_scf = True
direct_scf_tol = 1e-13
chkfile to save SCF result = /share/home/srwang/ExSCF/test/pytest/scan_h2/tmp2y5xseus
max_memory 4000 MB (current use 125 MB)
number electrons alpha = 1  beta = 1
Set gradient conv threshold to 3.16228e-05
init E= -0.823356274825295
  alpha nocc = 1  HOMO = -0.568731391355296  LUMO = 0.145787911648173
  beta  nocc = 1  HOMO = -0.575714068470887  LUMO = 0.145700899373506
cycle= 1 E= -1.13106395405129  delta_E= -0.308  |g|= 0.0327  |ddm|= 0.333
SCF not converged.
SCF energy = -1.13106395405129 after 1 cycles  <S^2> = 1.5253886e-05  2S+1 = 1.0000305


******** <class 'pyscf.scf.uhf.UHF'> ********
method = UHF
initial guess = minao
damping factor = 0
level_shift factor = 0
DIIS = <class 'pyscf.scf.diis.CDIIS'>
diis_start_cycle = 1
diis_space = 8
SCF conv_tol = 1e-09
SCF conv_tol_grad = None
SCF max_cycles = 1
direct_scf = True
direct_scf_tol = 1e-13
chkfile to save SCF result = /share/home/srwang/ExSCF/test/pytest/scan_h2/tmp2y5xseus
max_memory 4000 MB (current use 125 MB)
number electrons alpha = 1  beta = 1
Set gradient conv threshold to 3.16228e-05
init E= -1.23767093858953
  alpha nocc = 1  HOMO = -0.563521108909956  LUMO = 0.247158214674512
  beta  nocc = 1  HOMO = -0.563521108909957  LUMO = 0.247158214674511
cycle= 1 E= -1.11377050071513  delta_E= 0.124  |g|= 0.0985  |ddm|= 0.185
SCF not converged.
SCF energy = -1.11377050071513 after 1 cycles  <S^2> = 0.088956256  2S+1 = 1.164399

******** <class 'pyphf.util.SUHF'> ********
max_cycle = 70
verbose: normal
DIIS: <class 'pyscf.scf.diis.CDIIS'>
diis_start_cyc = 40
SVD: S^(-1/2)
[[ -0.15773471  -0.           0.           0.21652785   0.1051747    0.          -0.          -0.          -0.          -0.28571235   0.11219504  -0.
   -0.          -0.32322796  -0.          -0.          -0.          -0.           0.66187725   0.           0.          -0.25663538  -0.          -0.
    1.56242564  -1.79002487   0.19070935  -0.80185588]
 [ -0.21145885  -0.           0.           0.13910921  -0.07971247   0.          -0.          -0.           0.           0.01693086  -0.06977102  -0.
   -0.          -0.19413325  -0.          -0.           0.          -0.          -0.28728647  -0.          -0.           1.25937861   0.          -0.
   -0.89192212   0.09460117   0.13663009 -18.32694163]
 [ -0.18999203  -0.           0.           0.04742351  -0.23424449  -0.           0.           0.           0.           0.18191201  -0.046311     0.
   -0.           0.43027614   0.           0.           0.           0.          -0.2839713   -0.           0.          -0.8223188   -0.           0.
    0.27173405  -0.63081858  -3.51187775   1.23044325]
 [  0.          -0.13222442   0.22213168  -0.           0.          -0.          -0.           0.01315909   0.39987559   0.           0.          -0.01096553
   -0.01097713   0.          -0.           0.          -0.06822793  -0.83856375  -0.           0.85256164   0.71390566  -0.           0.56787617  -0.09463124
    0.           0.           0.          -0.        ]
 [  0.          -0.22213168  -0.13222442  -0.           0.          -0.           0.           0.39987559  -0.01315909   0.           0.          -0.01097713
    0.01096553   0.          -0.          -0.          -0.83856375   0.06822793   0.          -0.71390566   0.85256164  -0.           0.09463124   0.56787617
   -0.          -0.           0.          -0.        ]
 [ -0.06740862   0.          -0.          -0.17678499   0.40063078   0.          -0.          -0.          -0.           0.11471165   0.18786528   0.
    0.           0.48988712  -0.          -0.           0.           0.          -0.63512774   0.          -0.           0.4277188   -0.          -0.
    0.22562197  -1.7770864    0.89055952  -0.5679591 ]
 [ -0.          -0.15151471   0.25453858  -0.          -0.          -0.           0.           0.00707481   0.21498768   0.           0.          -0.22024096
   -0.22047382  -0.           0.          -0.           0.04660976   0.57286298   0.          -0.69343026  -0.58065454  -0.           1.74983481  -0.29159356
    0.           0.           0.          -0.        ]
 [ -0.          -0.25453858  -0.15151471  -0.           0.          -0.           0.           0.21498768  -0.00707481   0.           0.          -0.22047382
    0.22024096  -0.          -0.           0.           0.57286298  -0.04660976   0.           0.58065454  -0.69343026  -0.           0.29159356   1.74983481
    0.          -0.           0.          -0.        ]
 [ -0.08212321   0.          -0.          -0.30707077   0.21330434   0.          -0.          -0.          -0.           0.15534675   0.19843431   0.
    0.          -0.3749115   -0.          -0.           0.          -0.           0.57809343   0.          -0.          -1.09417198   0.          -0.
   -1.18032648   0.09175937  -0.97454554  -7.92372829]
 [  0.           0.           0.           0.           0.           0.59833737  -0.00000002   0.           0.           0.           0.           0.
   -0.           0.          -0.90988535  -0.02777699  -0.           0.           0.          -0.          -0.           0.          -0.          -0.
    0.           0.          -0.           0.        ]
 [ -0.          -0.14223622  -0.08466646  -0.          -0.           0.          -0.          -0.39837408   0.01310968  -0.          -0.           0.41169162
   -0.4112568   -0.          -0.          -0.           0.28442713  -0.0231418    0.          -0.40323877   0.48155649  -0.           0.25235012   1.51433734
   -0.          -0.           0.           0.        ]
 [ -0.02570777   0.          -0.          -0.1399761    0.00963082   0.          -0.           0.           0.          -0.52767646  -0.58405546  -0.
   -0.           0.31324165   0.           0.           0.           0.           0.17609583   0.          -0.          -0.33326318   0.          -0.
   -1.07935843  -0.84557575   0.25412712  -0.93706391]
 [ -0.          -0.08466646   0.14223622  -0.          -0.           0.           0.          -0.01310968  -0.39837408  -0.          -0.           0.4112568
    0.41169162  -0.           0.           0.           0.0231418    0.28442713  -0.           0.48155649   0.40323877  -0.           1.51433734  -0.25235012
    0.           0.           0.          -0.        ]
 [  0.           0.           0.           0.           0.           0.00000002   0.59833737  -0.           0.           0.           0.           0.
    0.           0.           0.02777699  -0.90988535  -0.          -0.           0.           0.          -0.           0.           0.           0.
    0.           0.           0.           0.        ]
 [ -0.15773471   0.          -0.          -0.21652785   0.1051747   -0.           0.           0.           0.          -0.28571235  -0.11219504  -0.
   -0.          -0.32322796  -0.          -0.          -0.          -0.          -0.66187725  -0.           0.          -0.25663538  -0.           0.
    1.56242564   1.79002487  -0.19070935   0.80185588]
 [ -0.21145885   0.          -0.          -0.13910921  -0.07971247  -0.           0.          -0.          -0.           0.01693086   0.06977102  -0.
    0.          -0.19413325   0.           0.          -0.           0.           0.28728647   0.          -0.           1.25937861   0.          -0.
   -0.89192212  -0.09460117  -0.13663009  18.32694163]
 [ -0.18999203   0.          -0.          -0.04742351  -0.23424449   0.          -0.          -0.           0.           0.18191201   0.046311     0.
    0.           0.43027614  -0.          -0.           0.           0.           0.2839713    0.          -0.          -0.8223188   -0.           0.
    0.27173405   0.63081858   3.51187775  -1.23044325]
 [ -0.          -0.13222442   0.22213168  -0.          -0.           0.           0.          -0.01315909  -0.39987559  -0.          -0.          -0.01096553
   -0.01097713   0.          -0.           0.          -0.06822793  -0.83856375   0.          -0.85256164  -0.71390566   0.          -0.56787617   0.09463124
   -0.          -0.          -0.           0.        ]
 [  0.          -0.22213168  -0.13222442  -0.          -0.           0.          -0.          -0.39987559   0.01315909  -0.          -0.          -0.01097713
    0.01096553   0.           0.          -0.          -0.83856375   0.06822793   0.           0.71390566  -0.85256164   0.          -0.09463124  -0.56787617
    0.           0.          -0.          -0.        ]
 [  0.06740862   0.          -0.          -0.17678499  -0.40063078   0.          -0.          -0.           0.          -0.11471165   0.18786528   0.
    0.          -0.48988712   0.           0.          -0.          -0.          -0.63512774   0.           0.          -0.4277188    0.          -0.
   -0.22562197  -1.7770864    0.89055952  -0.5679591 ]
 [ -0.          -0.15151471   0.25453858  -0.          -0.           0.           0.          -0.00707481  -0.21498768   0.           0.          -0.22024096
   -0.22047382  -0.           0.          -0.           0.04660976   0.57286298  -0.           0.69343026   0.58065454   0.          -1.74983481   0.29159356
   -0.          -0.          -0.           0.        ]
 [  0.          -0.25453858  -0.15151471  -0.          -0.           0.          -0.          -0.21498768   0.00707481   0.           0.          -0.22047382
    0.22024096   0.           0.           0.           0.57286298  -0.04660976  -0.          -0.58065454   0.69343026   0.          -0.29159356  -1.74983481
   -0.           0.          -0.           0.        ]
 [  0.08212321   0.          -0.          -0.30707077  -0.21330434  -0.          -0.          -0.           0.          -0.15534675   0.19843431   0.
    0.           0.3749115   -0.          -0.           0.           0.           0.57809343  -0.           0.           1.09417198  -0.           0.
    1.18032648   0.09175937  -0.97454554  -7.92372829]
 [ -0.          -0.           0.          -0.           0.           0.59833737  -0.00000002   0.           0.          -0.          -0.          -0.
   -0.          -0.           0.90988535   0.02777699   0.          -0.           0.           0.          -0.           0.          -0.           0.
    0.           0.           0.          -0.        ]
 [  0.           0.14223622   0.08466646   0.          -0.           0.          -0.          -0.39837408   0.01310968   0.           0.          -0.41169162
    0.4112568    0.           0.          -0.          -0.28442713   0.0231418    0.          -0.40323877   0.48155649  -0.           0.25235012   1.51433734
   -0.          -0.           0.          -0.        ]
 [ -0.02570777  -0.           0.           0.1399761    0.00963082  -0.           0.          -0.           0.          -0.52767646   0.58405546   0.
    0.           0.31324165   0.           0.           0.           0.          -0.17609583  -0.          -0.          -0.33326318   0.          -0.
   -1.07935843   0.84557575  -0.25412712   0.93706391]
 [  0.           0.08466646  -0.14223622   0.           0.           0.           0.          -0.01310968  -0.39837408   0.           0.          -0.4112568
   -0.41169162   0.          -0.           0.          -0.0231418   -0.28442713  -0.           0.48155649   0.40323877  -0.           1.51433734  -0.25235012
    0.           0.           0.          -0.        ]
 [  0.           0.           0.           0.           0.           0.00000002   0.59833737  -0.           0.           0.           0.           0.
   -0.           0.          -0.02777699   0.90988535  -0.          -0.          -0.           0.           0.          -0.          -0.           0.
   -0.          -0.          -0.          -0.        ]]
C (ortho)
[[-0.9790698  -0.11451319 -0.00201848 -0.09837875 -0.          0.         -0.09788548  0.         -0.         -0.00322447 -0.0064522   0.03752484  0.
  -0.          0.         -0.          0.07460487 -0.         -0.         -0.         -0.         -0.          0.         -0.00051202 -0.          0.
   0.04485409  0.00261862]
 [-0.          0.         -0.          0.         -0.25186929 -0.80557563  0.         -0.00349548 -0.04038034  0.          0.         -0.         -0.
  -0.         -0.26936906 -0.46012244 -0.         -0.02128754  0.00050862 -0.          0.         -0.00639179  0.03437945 -0.          0.004169   -0.00101246
  -0.          0.        ]
 [ 0.         -0.         -0.         -0.          0.80557563 -0.25186929 -0.          0.04038034 -0.00349548  0.         -0.          0.          0.
  -0.          0.46012244 -0.26936906 -0.          0.00050862  0.02128754  0.         -0.         -0.03437945 -0.00639179 -0.         -0.00101246 -0.004169
  -0.         -0.        ]
 [ 0.14478339 -0.55091653 -0.02291499 -0.76566508 -0.         -0.          0.03173645 -0.         -0.         -0.04722095 -0.24826786  0.14732086  0.
  -0.         -0.         -0.         -0.00932378 -0.         -0.         -0.         -0.          0.          0.         -0.03585123  0.          0.
  -0.00289747 -0.02833038]
 [-0.11509635 -0.03162049 -0.50541255  0.0402964   0.          0.          0.60186929 -0.          0.         -0.01031149 -0.11536595 -0.23648346  0.
  -0.         -0.          0.         -0.5164043   0.          0.          0.         -0.          0.         -0.          0.00824467  0.         -0.
  -0.17420261 -0.00356437]
 [-0.          0.         -0.          0.         -0.         -0.         -0.          0.          0.         -0.          0.          0.          0.97523791
  -0.22071853 -0.          0.         -0.          0.          0.          0.0139335   0.00045246 -0.          0.          0.         -0.         -0.
  -0.          0.        ]
 [-0.         -0.          0.         -0.          0.          0.         -0.          0.         -0.          0.          0.         -0.          0.22071853
   0.97523791  0.         -0.         -0.          0.          0.         -0.00045246  0.0139335  -0.         -0.          0.         -0.         -0.
   0.          0.        ]
 [ 0.         -0.          0.         -0.         -0.00736869  0.03616567  0.          0.2767212  -0.62354265 -0.          0.         -0.          0.
  -0.          0.00051711  0.02018632 -0.         -0.62091143  0.3620643   0.          0.          0.0281236  -0.03422528  0.          0.08802034 -0.08073716
   0.         -0.        ]
 [ 0.          0.          0.         -0.          0.03616567  0.00736869 -0.         -0.62354265 -0.2767212   0.         -0.         -0.          0.
   0.          0.02018632 -0.00051711 -0.         -0.3620643  -0.62091143  0.          0.         -0.03422528 -0.0281236   0.          0.08073716  0.08802034
  -0.         -0.        ]
 [-0.03567409  0.02607597  0.37970942 -0.00832225  0.         -0.          0.41160275 -0.          0.         -0.00161333  0.33753871  0.61446515 -0.
   0.         -0.          0.         -0.3375762   0.          0.          0.         -0.          0.         -0.          0.00800121 -0.          0.
   0.28081109  0.00175877]
 [-0.02044298  0.22905799 -0.01519551  0.05257059  0.          0.          0.00826084  0.         -0.          0.38989593 -0.51134335  0.27827595 -0.
   0.         -0.          0.         -0.01234716 -0.          0.          0.          0.          0.         -0.         -0.65522184 -0.          0.
  -0.00304348  0.15377246]
 [-0.         -0.          0.          0.         -0.21768622 -0.35427813  0.         -0.00623635 -0.01795495  0.          0.          0.          0.
   0.          0.43049675  0.43727681  0.          0.05331078  0.01214882  0.         -0.         -0.04285533 -0.66735745 -0.         -0.00279188 -0.0000271
  -0.          0.        ]
 [-0.         -0.          0.          0.         -0.35427813  0.21768622  0.         -0.01795495  0.00623635  0.         -0.          0.          0.
  -0.          0.43727681 -0.43049675 -0.         -0.01214882  0.05331078 -0.          0.         -0.66735745  0.04285533 -0.          0.0000271  -0.00279188
   0.          0.        ]
 [-0.05021223  0.02709145  0.61819648 -0.04935082 -0.         -0.         -0.19020727  0.          0.          0.00017071 -0.14041306 -0.24581627  0.
  -0.         -0.          0.         -0.51501715  0.          0.          0.         -0.          0.         -0.          0.00723386  0.         -0.
  -0.48013036 -0.00139223]
 [-0.         -0.          0.         -0.         -0.         -0.         -0.         -0.          0.          0.          0.         -0.         -0.01349673
   0.00349076 -0.         -0.          0.          0.         -0.          0.99990093  0.00194282 -0.          0.         -0.          0.         -0.
  -0.          0.        ]
 [-0.         -0.          0.         -0.         -0.         -0.          0.          0.         -0.          0.         -0.         -0.         -0.00349076
  -0.01349673  0.         -0.         -0.          0.         -0.         -0.00194282  0.99990093  0.         -0.          0.          0.         -0.
   0.          0.        ]
 [-0.         -0.          0.         -0.         -0.05097479  0.33120478 -0.         -0.00724556  0.01871464 -0.          0.          0.         -0.
  -0.         -0.04294522 -0.58007289  0.          0.02481172 -0.01290544  0.         -0.          0.44189632 -0.59406159 -0.          0.00239117 -0.00198957
  -0.          0.        ]
 [-0.          0.          0.         -0.          0.33120478  0.05097479 -0.          0.01871464  0.00724556 -0.          0.         -0.         -0.
  -0.         -0.58007289  0.04294522  0.          0.01290544  0.02481172 -0.         -0.         -0.59406159 -0.44189632 -0.          0.00198957  0.00239117
  -0.         -0.        ]
 [-0.02585449  0.43810307 -0.03904151 -0.08523295  0.         -0.         -0.00473434 -0.         -0.         -0.24755902 -0.5658424   0.31154309 -0.
   0.         -0.         -0.          0.00344621  0.          0.          0.          0.          0.         -0.          0.56393428  0.         -0.
  -0.00138948 -0.04503417]
 [-0.          0.         -0.          0.         -0.02124693  0.01061212  0.          0.52743434 -0.13273414 -0.         -0.          0.          0.
   0.          0.01275244 -0.01052137 -0.          0.05334404 -0.38893497  0.         -0.         -0.02070632 -0.00048934  0.          0.05776235  0.73856334
  -0.          0.        ]
 [ 0.         -0.         -0.          0.         -0.01061212 -0.02124693 -0.          0.13273414  0.52743434  0.         -0.          0.         -0.
  -0.          0.01052137  0.01275244 -0.         -0.38893497 -0.05334404  0.          0.          0.00048934 -0.02070632 -0.          0.73856334 -0.05776235
   0.          0.        ]
 [ 0.03812293 -0.027717   -0.4433471   0.02150759 -0.          0.         -0.63570829  0.         -0.          0.01776997  0.18787106  0.33076409 -0.
   0.         -0.          0.         -0.50139319  0.          0.          0.          0.          0.         -0.          0.00713851 -0.          0.
  -0.01310538  0.00034602]
 [-0.         -0.         -0.          0.          0.02035836  0.00858378  0.         -0.39693448 -0.2808039   0.          0.          0.         -0.
   0.         -0.01319003 -0.00229687  0.          0.37846491  0.4263819  -0.         -0.          0.02002343  0.02451296 -0.          0.53388611  0.38968111
  -0.          0.        ]
 [ 0.          0.          0.         -0.         -0.00858378  0.02035836 -0.          0.2808039  -0.39693448  0.         -0.         -0.         -0.
   0.          0.00229687 -0.01319003 -0.          0.4263819  -0.37846491  0.         -0.         -0.02451296  0.02002343 -0.          0.38968111 -0.53388611
   0.         -0.        ]
 [ 0.01307472  0.00526182  0.11871481 -0.01404482 -0.         -0.         -0.13054542 -0.         -0.         -0.00066943 -0.22540944 -0.40343494  0.
  -0.         -0.          0.         -0.31116194  0.          0.          0.         -0.          0.         -0.          0.00164006  0.          0.
   0.81121486 -0.00227675]
 [-0.01413953  0.22117454 -0.02062758 -0.16987419 -0.         -0.          0.00436725 -0.          0.          0.25866146  0.07114362 -0.03625034  0.
  -0.          0.          0.          0.0024229  -0.          0.          0.          0.          0.          0.         -0.06794374 -0.          0.
   0.00001628 -0.9185187 ]
 [-0.02210473  0.62104408 -0.06921383 -0.58255221 -0.         -0.          0.00230992 -0.         -0.         -0.14899965  0.33248324 -0.17762144 -0.
   0.          0.          0.         -0.00312618 -0.          0.          0.          0.          0.          0.         -0.18887749  0.         -0.
   0.00059418  0.26395541]
 [-0.00444952 -0.03394469  0.00786091  0.14504333 -0.         -0.         -0.0169339   0.          0.         -0.83362081 -0.08945842  0.0587049   0.
  -0.          0.         -0.         -0.00875082 -0.         -0.         -0.         -0.          0.         -0.         -0.45918174 -0.         -0.
  -0.00053915 -0.2452435 ]]
[[-0.9790698  -0.11451319 -0.00201848 -0.09837875 -0.          0.          0.09788548 -0.         -0.         -0.00322447 -0.0064522   0.03752484 -0.
   0.          0.          0.         -0.07460487  0.          0.          0.         -0.         -0.         -0.         -0.00051202  0.          0.
   0.04485409  0.00261862]
 [ 0.         -0.          0.         -0.         -0.70643107 -0.46189325  0.         -0.04034009  0.00393286  0.         -0.         -0.         -0.
  -0.          0.03396623 -0.53208895 -0.         -0.02125927  0.00120895 -0.         -0.         -0.03431431  0.00673272 -0.         -0.00429013 -0.00002071
  -0.         -0.        ]
 [-0.          0.          0.          0.         -0.46189325  0.70643107 -0.          0.00393286  0.04034009 -0.          0.         -0.          0.
  -0.          0.53208895  0.03396623  0.          0.00120895  0.02125927 -0.          0.          0.00673272  0.03431431  0.         -0.00002071  0.00429013
  -0.          0.        ]
 [-0.14478339  0.55091653  0.02291499  0.76566508  0.         -0.          0.03173645 -0.         -0.          0.04722095  0.24826786 -0.14732086  0.
  -0.         -0.         -0.         -0.00932378  0.         -0.          0.         -0.         -0.         -0.          0.03585123 -0.         -0.
   0.00289747  0.02833038]
 [-0.11509635 -0.03162049 -0.50541255  0.0402964  -0.         -0.         -0.60186929 -0.         -0.         -0.01031149 -0.11536595 -0.23648346  0.
   0.         -0.         -0.          0.5164043  -0.         -0.         -0.          0.          0.          0.          0.00824467  0.         -0.
  -0.17420261 -0.00356437]
 [ 0.         -0.         -0.         -0.          0.         -0.          0.         -0.         -0.          0.          0.          0.          0.99454369
   0.10338516 -0.         -0.          0.         -0.         -0.          0.01393934  0.00020524 -0.          0.         -0.          0.         -0.
  -0.         -0.        ]
 [ 0.         -0.         -0.         -0.          0.          0.         -0.          0.         -0.         -0.         -0.          0.         -0.10338516
   0.99454369  0.         -0.         -0.         -0.         -0.         -0.00020524  0.01393934  0.          0.          0.          0.         -0.
  -0.         -0.        ]
 [ 0.          0.         -0.         -0.         -0.03680483 -0.00276722 -0.          0.56256708 -0.38587347 -0.         -0.          0.          0.
  -0.          0.0108589  -0.01702467  0.          0.60865896 -0.38230333 -0.         -0.         -0.03394444  0.02846193 -0.          0.10486495 -0.05717875
   0.          0.        ]
 [-0.         -0.         -0.         -0.          0.00276722 -0.03680483 -0.          0.38587347  0.56256708 -0.         -0.          0.          0.
   0.         -0.01702467 -0.0108589   0.          0.38230333  0.60865896  0.          0.         -0.02846193 -0.03394444 -0.          0.05717875  0.10486495
  -0.          0.        ]
 [-0.03567409  0.02607597  0.37970942 -0.00832225  0.         -0.         -0.41160275  0.         -0.         -0.00161333  0.33753871  0.61446515 -0.
  -0.         -0.         -0.          0.3375762  -0.          0.         -0.         -0.          0.         -0.          0.00800121  0.          0.
   0.28081109  0.00175877]
 [ 0.02044298 -0.22905799  0.01519551 -0.05257059  0.         -0.          0.00826084  0.         -0.         -0.38989593  0.51134335 -0.27827595 -0.
  -0.         -0.         -0.         -0.01234716  0.          0.         -0.         -0.         -0.         -0.          0.65522184  0.          0.
   0.00304348 -0.15377246]
 [ 0.         -0.          0.          0.         -0.28153549 -0.30600335  0.         -0.01879156 -0.00285474  0.          0.         -0.          0.
   0.          0.11239166  0.6032467   0.          0.05368174  0.01038769  0.          0.          0.66774996  0.03622901  0.          0.00270328  0.00069826
   0.         -0.        ]
 [ 0.         -0.          0.          0.          0.30600335 -0.28153549  0.          0.00285474 -0.01879156  0.          0.         -0.         -0.
  -0.          0.6032467  -0.11239166 -0.         -0.01038769  0.05368174 -0.          0.         -0.03622901  0.66774996  0.         -0.00069826  0.00270328
   0.         -0.        ]
 [-0.05021223  0.02709145  0.61819648 -0.04935082  0.          0.          0.19020727  0.          0.          0.00017071 -0.14041306 -0.24581627  0.
   0.          0.         -0.          0.51501715  0.          0.          0.          0.         -0.         -0.          0.00723386  0.         -0.
  -0.48013036 -0.00139223]
 [-0.          0.          0.          0.         -0.          0.          0.         -0.         -0.          0.         -0.         -0.          0.01390366
   0.00101764 -0.         -0.         -0.          0.         -0.         -0.99977808  0.01579368  0.         -0.          0.         -0.         -0.
  -0.         -0.        ]
 [ 0.          0.          0.         -0.          0.         -0.          0.          0.         -0.          0.         -0.         -0.         -0.00101764
   0.01390366  0.         -0.         -0.          0.          0.         -0.01579368 -0.99977808  0.          0.          0.         -0.         -0.
  -0.         -0.        ]
 [-0.          0.          0.         -0.          0.3325591   0.04122475  0.          0.01707797 -0.01053939  0.         -0.         -0.          0.
  -0.          0.28875624 -0.50492443 -0.          0.02437354 -0.01371504  0.          0.          0.58964605 -0.44777122 -0.         -0.00279974  0.00135557
  -0.          0.        ]
 [-0.          0.          0.         -0.         -0.04122475  0.3325591  -0.          0.01053939  0.01707797 -0.          0.         -0.         -0.
  -0.         -0.50492443 -0.28875624 -0.          0.01371504  0.02437354 -0.          0.          0.44777122  0.58964605 -0.         -0.00135557 -0.00279974
  -0.          0.        ]
 [ 0.02585449 -0.43810307  0.03904151  0.08523295 -0.          0.         -0.00473434  0.          0.          0.24755902  0.5658424  -0.31154309 -0.
  -0.          0.          0.          0.00344621  0.         -0.          0.         -0.         -0.          0.         -0.56393428 -0.         -0.
   0.00138948  0.04503417]
 [ 0.         -0.          0.          0.         -0.0160012   0.01755023  0.          0.03424529 -0.5428007   0.         -0.         -0.         -0.
   0.         -0.01645568  0.00159197 -0.         -0.04051468  0.39047991 -0.          0.         -0.00069485 -0.02070044  0.         -0.12169555  0.73075474
  -0.         -0.        ]
 [ 0.         -0.          0.         -0.          0.01755023  0.0160012  -0.         -0.5428007  -0.03424529 -0.          0.          0.         -0.
  -0.         -0.00159197 -0.01645568 -0.          0.39047991  0.04051468 -0.         -0.         -0.02070044  0.00069485 -0.          0.73075474  0.12169555
   0.         -0.        ]
 [ 0.03812293 -0.027717   -0.4433471   0.02150759 -0.          0.          0.63570829 -0.          0.          0.01776997  0.18787106  0.33076409 -0.
  -0.          0.         -0.          0.50139319  0.          0.         -0.         -0.         -0.         -0.          0.00713851 -0.          0.
  -0.01310538  0.00034602]
 [-0.          0.         -0.         -0.         -0.00271015 -0.02192713 -0.          0.34853041  0.33901971  0.          0.          0.         -0.
  -0.          0.00965088  0.00927971 -0.         -0.39229278 -0.41369504 -0.         -0.          0.02471051  0.01977913 -0.          0.42440208  0.50672342
  -0.         -0.        ]
 [ 0.         -0.          0.          0.         -0.02192713  0.00271015  0.          0.33901971 -0.34853041 -0.         -0.         -0.         -0.
   0.         -0.00927971  0.00965088  0.         -0.41369504  0.39229278 -0.          0.          0.01977913 -0.02471051  0.          0.50672342 -0.42440208
   0.          0.        ]
 [ 0.01307472  0.00526182  0.11871481 -0.01404482 -0.          0.          0.13054542  0.          0.         -0.00066943 -0.22540944 -0.40343494  0.
   0.          0.          0.          0.31116194 -0.         -0.          0.          0.         -0.          0.          0.00164006  0.          0.
   0.81121486 -0.00227675]
 [ 0.01413953 -0.22117454  0.02062758  0.16987419 -0.         -0.          0.00436725 -0.          0.         -0.25866146 -0.07114362  0.03625034  0.
   0.          0.         -0.          0.0024229   0.         -0.         -0.         -0.          0.         -0.          0.06794374 -0.          0.
  -0.00001628  0.9185187 ]
 [ 0.02210473 -0.62104408  0.06921383  0.58255221  0.          0.          0.00230992  0.          0.          0.14899965 -0.33248324  0.17762144 -0.
  -0.         -0.          0.         -0.00312618 -0.         -0.         -0.         -0.          0.         -0.          0.18887749  0.         -0.
  -0.00059418 -0.26395541]
 [ 0.00444952  0.03394469 -0.00786091 -0.14504333  0.          0.         -0.0169339  -0.         -0.          0.83362081  0.08945842 -0.0587049   0.
   0.          0.          0.         -0.00875082  0.          0.          0.          0.         -0.         -0.          0.45918174 -0.         -0.
   0.00053915  0.2452435 ]]
grids:  [0.06237655 0.31939555 0.74529195 1.28265786 1.85893479 2.39630071 2.8221971  3.07921611] 
weights:  [0.15900941 0.34931531 0.49276925 0.56970235 0.56970235 0.49276925 0.34931531 0.15900941]
S = 0.0, Sz = 0.0
Wigner small d:  1
value : [1. 1. 1. 1. 1. 1. 1. 1.]
**** Start Cycle 1 ****
dm (ortho)
[[[ 0.95857767  0.         -0.         ...  0.01384358  0.02164207  0.00435639]
  [ 0.          0.         -0.         ...  0.          0.          0.        ]
  [-0.         -0.          0.         ... -0.         -0.         -0.        ]
  ...
  [ 0.01384358  0.         -0.         ...  0.00019993  0.00031255  0.00006291]
  [ 0.02164207  0.         -0.         ...  0.00031255  0.00048862  0.00009836]
  [ 0.00435639  0.         -0.         ...  0.00006291  0.00009836  0.0000198 ]]

 [[ 0.95857767 -0.          0.         ... -0.01384358 -0.02164207 -0.00435639]
  [-0.          0.         -0.         ...  0.          0.          0.        ]
  [ 0.         -0.          0.         ... -0.         -0.         -0.        ]
  ...
  [-0.01384358  0.         -0.         ...  0.00019993  0.00031255  0.00006291]
  [-0.02164207  0.         -0.         ...  0.00031255  0.00048862  0.00009836]
  [-0.00435639  0.         -0.         ...  0.00006291  0.00009836  0.0000198 ]]]
Fock (ortho)
 (array([[-0.55945248, -0.        ,  0.        ,  0.10542085, -0.31207988, -0.        , -0.        ,  0.        ,  0.        , -0.0584333 ,  0.00464335,
        -0.        , -0.        , -0.31254663,  0.        , -0.        , -0.        , -0.        ,  0.00966649, -0.        ,  0.        , -0.02193032,
        -0.        ,  0.        ,  0.13056049, -0.01361899, -0.0024263 , -0.00287649],
       [-0.        ,  1.4546472 , -0.        ,  0.        ,  0.        ,  0.        ,  0.        ,  0.01624157,  0.00895789,  0.        , -0.        ,
        -0.94389961,  0.23895552, -0.        ,  0.        ,  0.        ,  0.67263078,  0.32969057, -0.        , -0.00068342,  0.00422972,  0.        ,
         0.0034066 ,  0.00402771,  0.        , -0.        , -0.        , -0.        ],
       [ 0.        , -0.        ,  1.4546472 , -0.        ,  0.        ,  0.        , -0.        ,  0.00895789, -0.01624157, -0.        ,  0.        ,
         0.23895552,  0.94389961,  0.        , -0.        ,  0.        ,  0.32969057, -0.67263078,  0.        , -0.00422972, -0.00068342,  0.        ,
        -0.00402771,  0.0034066 , -0.        ,  0.        , -0.        ,  0.        ],
       [ 0.10542085,  0.        , -0.        ,  0.62294474,  0.01092915,  0.        ,  0.        , -0.        ,  0.        ,  0.03151183,  0.39905679,
        -0.        , -0.        ,  0.0246187 , -0.        , -0.        ,  0.        ,  0.        ,  0.36614891,  0.        ,  0.        , -0.00544596,
         0.        ,  0.        , -0.01091707,  0.18827551, -0.02733817,  0.19095963],
       [-0.31207988,  0.        ,  0.        ,  0.01092915,  1.78250538, -0.        ,  0.        , -0.        , -0.        ,  0.12690298, -0.01442614,
         0.        ,  0.        ,  1.427702  , -0.        , -0.        ,  0.        ,  0.        , -0.00307158,  0.        , -0.        ,  0.37778888,
         0.        ,  0.        , -0.07382448,  0.00823028, -0.00208639,  0.00051636],
       [-0.        ,  0.        ,  0.        ,  0.        , -0.        ,  3.15423818,  0.        ,  0.        ,  0.        , -0.        ,  0.        ,
        -0.        , -0.        ,  0.        ,  0.00863143,  0.0002635 ,  0.        , -0.        , -0.        , -0.        , -0.        ,  0.        ,
         0.        , -0.        ,  0.        ,  0.        , -0.        ,  0.        ],
       [-0.        ,  0.        , -0.        ,  0.        ,  0.        ,  0.        ,  3.15423818, -0.        ,  0.        , -0.        , -0.        ,
         0.        ,  0.        , -0.        , -0.0002635 ,  0.00863143, -0.        , -0.        , -0.        , -0.        , -0.        ,  0.        ,
         0.        , -0.        , -0.        ,  0.        ,  0.        ,  0.        ],
       [ 0.        ,  0.01624157,  0.00895789, -0.        , -0.        ,  0.        , -0.        ,  2.58812349,  0.        , -0.        ,  0.        ,
         0.00747173, -0.00698824,  0.        , -0.        ,  0.        ,  0.00948779, -0.0004585 ,  0.        , -0.73491717,  0.93873022,  0.        ,
        -0.14624496, -0.72885996, -0.        ,  0.        ,  0.        , -0.        ],
       [ 0.        ,  0.00895789, -0.01624157,  0.        , -0.        ,  0.        ,  0.        ,  0.        ,  2.58812349, -0.        ,  0.        ,
         0.00698824,  0.00747173,  0.        ,  0.        , -0.        ,  0.0004585 ,  0.00948779, -0.        ,  0.93873022,  0.73491717,  0.        ,
        -0.72885996,  0.14624496, -0.        ,  0.        ,  0.        ,  0.        ],
       [-0.0584333 ,  0.        , -0.        ,  0.03151183,  0.12690298, -0.        , -0.        , -0.        , -0.        ,  2.26302643, -0.00306868,
        -0.        , -0.        , -0.65473601, -0.        , -0.        , -0.        , -0.        ,  0.01530862, -0.        ,  0.        ,  0.89000948,
        -0.        ,  0.        ,  0.93152503, -0.00912026, -0.0000366 , -0.00045018],
       [ 0.00464335, -0.        ,  0.        ,  0.39905679, -0.01442614,  0.        , -0.        ,  0.        ,  0.        , -0.00306868,  3.24457934,
         0.        ,  0.        ,  0.00324608,  0.        ,  0.        , -0.        , -0.        , -1.07125761,  0.        ,  0.        ,  0.00291127,
         0.        , -0.        , -0.00689472, -0.75294176,  0.28535422,  0.81569387],
       [-0.        , -0.94389961,  0.23895552, -0.        ,  0.        , -0.        ,  0.        ,  0.00747173,  0.00698824, -0.        ,  0.        ,
         3.25798078, -0.        , -0.        ,  0.        , -0.        ,  0.56498978,  0.47945524, -0.        , -0.00040969, -0.00465649,  0.        ,
        -0.0015246 , -0.00109027,  0.        , -0.        ,  0.        ,  0.        ],
       [-0.        ,  0.23895552,  0.94389961, -0.        ,  0.        , -0.        ,  0.        , -0.00698824,  0.00747173, -0.        ,  0.        ,
         0.        ,  3.25798078, -0.        ,  0.        ,  0.        , -0.47945524,  0.56498978, -0.        , -0.00465649,  0.00040969,  0.        ,
        -0.00109027,  0.0015246 ,  0.        , -0.        , -0.        , -0.        ],
       [-0.31254663, -0.        ,  0.        ,  0.0246187 ,  1.427702  ,  0.        , -0.        ,  0.        ,  0.        , -0.65473601,  0.00324608,
        -0.        , -0.        ,  2.68500677,  0.        ,  0.        , -0.        , -0.        ,  0.01064369,  0.        , -0.        ,  0.77894553,
         0.        , -0.        , -1.36626863,  0.00109961, -0.00126769, -0.00050059],
       [ 0.        ,  0.        , -0.        , -0.        , -0.        ,  0.00863143, -0.0002635 , -0.        ,  0.        , -0.        ,  0.        ,
         0.        ,  0.        ,  0.        ,  4.1045973 ,  0.        ,  0.        , -0.        ,  0.        ,  0.        ,  0.        ,  0.        ,
         0.        ,  0.        ,  0.        ,  0.        ,  0.        , -0.        ],
       [-0.        ,  0.        ,  0.        , -0.        , -0.        ,  0.0002635 ,  0.00863143,  0.        , -0.        , -0.        ,  0.        ,
        -0.        ,  0.        ,  0.        ,  0.        ,  4.1045973 ,  0.        , -0.        , -0.        , -0.        ,  0.        ,  0.        ,
        -0.        , -0.        ,  0.        ,  0.        ,  0.        , -0.        ],
       [-0.        ,  0.67263078,  0.32969057,  0.        ,  0.        ,  0.        , -0.        ,  0.00948779,  0.0004585 , -0.        , -0.        ,
         0.56498978, -0.47945524, -0.        ,  0.        ,  0.        ,  3.4973973 ,  0.        , -0.        , -0.00335503,  0.00474021,  0.        ,
        -0.00046127, -0.00183472,  0.        ,  0.        ,  0.        ,  0.        ],
       [-0.        ,  0.32969057, -0.67263078,  0.        ,  0.        , -0.        , -0.        , -0.0004585 ,  0.00948779, -0.        , -0.        ,
         0.47945524,  0.56498978, -0.        , -0.        , -0.        ,  0.        ,  3.4973973 , -0.        ,  0.00474021,  0.00335503,  0.        ,
        -0.00183472,  0.00046127, -0.        , -0.        , -0.        , -0.        ],
       [ 0.00966649, -0.        ,  0.        ,  0.36614891, -0.00307158, -0.        , -0.        ,  0.        , -0.        ,  0.01530862, -1.07125761,
        -0.        , -0.        ,  0.01064369,  0.        , -0.        , -0.        , -0.        ,  2.62934918, -0.        ,  0.        ,  0.00728   ,
         0.        , -0.        , -0.00546946, -0.07877253, -1.02567618, -0.69212347],
       [-0.        , -0.00068342, -0.00422972,  0.        ,  0.        , -0.        , -0.        , -0.73491717,  0.93873022, -0.        ,  0.        ,
        -0.00040969, -0.00465649,  0.        ,  0.        , -0.        , -0.00335503,  0.00474021, -0.        ,  4.14488456, -0.        ,  0.        ,
         1.11386195, -1.2996804 ,  0.        ,  0.        , -0.        , -0.        ],
       [ 0.        ,  0.00422972, -0.00068342,  0.        , -0.        , -0.        , -0.        ,  0.93873022,  0.73491717,  0.        ,  0.        ,
        -0.00465649,  0.00040969, -0.        ,  0.        ,  0.        ,  0.00474021,  0.00335503,  0.        , -0.        ,  4.14488456, -0.        ,
         1.2996804 ,  1.11386195,  0.        , -0.        ,  0.        , -0.        ],
       [-0.02193032,  0.        ,  0.        , -0.00544596,  0.37778888,  0.        ,  0.        ,  0.        ,  0.        ,  0.89000948,  0.00291127,
         0.        ,  0.        ,  0.77894553,  0.        ,  0.        ,  0.        ,  0.        ,  0.00728   ,  0.        , -0.        ,  1.77602391,
        -0.        , -0.        ,  0.16577225, -0.00211039, -0.00139034, -0.00160398],
       [-0.        ,  0.0034066 , -0.00402771,  0.        ,  0.        ,  0.        ,  0.        , -0.14624496, -0.72885996, -0.        ,  0.        ,
        -0.0015246 , -0.00109027,  0.        ,  0.        , -0.        , -0.00046127, -0.00183472,  0.        ,  1.11386195,  1.2996804 , -0.        ,
         4.08155787, -0.        , -0.        ,  0.        ,  0.        , -0.        ],
       [ 0.        ,  0.00402771,  0.0034066 ,  0.        ,  0.        , -0.        , -0.        , -0.72885996,  0.14624496,  0.        , -0.        ,
        -0.00109027,  0.0015246 , -0.        ,  0.        , -0.        , -0.00183472,  0.00046127, -0.        , -1.2996804 ,  1.11386195, -0.        ,
        -0.        ,  4.08155787,  0.        ,  0.        ,  0.        ,  0.        ],
       [ 0.13056049,  0.        , -0.        , -0.01091707, -0.07382448,  0.        , -0.        , -0.        , -0.        ,  0.93152503, -0.00689472,
         0.        ,  0.        , -1.36626863,  0.        ,  0.        ,  0.        , -0.        , -0.00546946,  0.        ,  0.        ,  0.16577225,
        -0.        ,  0.        ,  4.79953811,  0.00636008,  0.00060111,  0.00029526],
       [-0.01361899, -0.        ,  0.        ,  0.18827551,  0.00823028,  0.        ,  0.        ,  0.        ,  0.        , -0.00912026, -0.75294176,
        -0.        , -0.        ,  0.00109961,  0.        ,  0.        ,  0.        , -0.        , -0.07877253,  0.        , -0.        , -0.00211039,
         0.        ,  0.        ,  0.00636008,  6.21494387, -1.5768422 ,  1.39650036],
       [-0.0024263 , -0.        , -0.        , -0.02733817, -0.00208639, -0.        ,  0.        ,  0.        ,  0.        , -0.0000366 ,  0.28535422,
         0.        , -0.        , -0.00126769,  0.        ,  0.        ,  0.        , -0.        , -1.02567618, -0.        ,  0.        , -0.00139034,
         0.        ,  0.        ,  0.00060111, -1.5768422 ,  1.33847592, -0.01481133],
       [-0.00287649, -0.        ,  0.        ,  0.19095963,  0.00051636,  0.        ,  0.        , -0.        ,  0.        , -0.00045018,  0.81569387,
         0.        , -0.        , -0.00050059, -0.        , -0.        ,  0.        , -0.        , -0.69212347, -0.        , -0.        , -0.00160398,
        -0.        ,  0.        ,  0.00029526,  1.39650036, -0.01481133,  2.5531682 ]]), array([[-0.55945248,  0.        , -0.        , -0.10542085, -0.31207988,  0.        ,  0.        ,  0.        ,  0.        , -0.0584333 , -0.00464335,
        -0.        , -0.        , -0.31254663, -0.        ,  0.        , -0.        , -0.        , -0.00966649, -0.        ,  0.        , -0.02193032,
        -0.        ,  0.        ,  0.13056049,  0.01361899,  0.0024263 ,  0.00287649],
       [ 0.        ,  1.4546472 , -0.        ,  0.        ,  0.        ,  0.        ,  0.        , -0.01624157, -0.00895789,  0.        , -0.        ,
        -0.94389961,  0.23895552,  0.        ,  0.        ,  0.        ,  0.67263078,  0.32969057, -0.        ,  0.00068342, -0.00422972,  0.        ,
        -0.0034066 , -0.00402771,  0.        , -0.        , -0.        , -0.        ],
       [-0.        , -0.        ,  1.4546472 , -0.        , -0.        ,  0.        , -0.        , -0.00895789,  0.01624157, -0.        ,  0.        ,
         0.23895552,  0.94389961,  0.        , -0.        ,  0.        ,  0.32969057, -0.67263078,  0.        ,  0.00422972,  0.00068342,  0.        ,
         0.00402771, -0.0034066 ,  0.        ,  0.        , -0.        ,  0.        ],
       [-0.10542085,  0.        , -0.        ,  0.62294474, -0.01092915, -0.        ,  0.        , -0.        , -0.        , -0.03151183,  0.39905679,
        -0.        , -0.        , -0.0246187 , -0.        ,  0.        ,  0.        ,  0.        ,  0.36614891, -0.        ,  0.        ,  0.00544596,
        -0.        ,  0.        ,  0.01091707,  0.18827551, -0.02733817,  0.19095963],
       [-0.31207988,  0.        , -0.        , -0.01092915,  1.78250538, -0.        , -0.        , -0.        , -0.        ,  0.12690298,  0.01442614,
         0.        , -0.        ,  1.427702  , -0.        , -0.        ,  0.        ,  0.        ,  0.00307158,  0.        , -0.        ,  0.37778888,
         0.        , -0.        , -0.07382448, -0.00823028,  0.00208639, -0.00051636],
       [ 0.        ,  0.        ,  0.        , -0.        , -0.        ,  3.15423818,  0.        ,  0.        ,  0.        , -0.        ,  0.        ,
         0.        , -0.        ,  0.        , -0.00863143, -0.0002635 ,  0.        , -0.        , -0.        , -0.        , -0.        ,  0.        ,
         0.        , -0.        ,  0.        ,  0.        , -0.        ,  0.        ],
       [ 0.        ,  0.        , -0.        ,  0.        , -0.        ,  0.        ,  3.15423818, -0.        ,  0.        ,  0.        ,  0.        ,
         0.        ,  0.        ,  0.        ,  0.0002635 , -0.00863143, -0.        , -0.        , -0.        , -0.        , -0.        , -0.        ,
         0.        , -0.        , -0.        ,  0.        ,  0.        ,  0.        ],
       [ 0.        , -0.01624157, -0.00895789, -0.        , -0.        ,  0.        , -0.        ,  2.58812349,  0.        , -0.        ,  0.        ,
        -0.00747173,  0.00698824,  0.        , -0.        ,  0.        , -0.00948779,  0.0004585 ,  0.        , -0.73491717,  0.93873022,  0.        ,
        -0.14624496, -0.72885996, -0.        ,  0.        ,  0.        , -0.        ],
       [ 0.        , -0.00895789,  0.01624157, -0.        , -0.        ,  0.        ,  0.        ,  0.        ,  2.58812349, -0.        ,  0.        ,
        -0.00698824, -0.00747173,  0.        ,  0.        , -0.        , -0.0004585 , -0.00948779, -0.        ,  0.93873022,  0.73491717,  0.        ,
        -0.72885996,  0.14624496, -0.        ,  0.        ,  0.        ,  0.        ],
       [-0.0584333 ,  0.        , -0.        , -0.03151183,  0.12690298, -0.        ,  0.        , -0.        , -0.        ,  2.26302643,  0.00306868,
        -0.        , -0.        , -0.65473601, -0.        , -0.        , -0.        , -0.        , -0.01530862, -0.        ,  0.        ,  0.89000948,
        -0.        ,  0.        ,  0.93152503,  0.00912026,  0.0000366 ,  0.00045018],
       [-0.00464335, -0.        ,  0.        ,  0.39905679,  0.01442614,  0.        ,  0.        ,  0.        ,  0.        ,  0.00306868,  3.24457934,
         0.        ,  0.        , -0.00324608,  0.        ,  0.        , -0.        , -0.        , -1.07125761,  0.        ,  0.        , -0.00291127,
         0.        , -0.        ,  0.00689472, -0.75294176,  0.28535422,  0.81569387],
       [-0.        , -0.94389961,  0.23895552, -0.        ,  0.        ,  0.        ,  0.        , -0.00747173, -0.00698824, -0.        ,  0.        ,
         3.25798078,  0.        , -0.        ,  0.        , -0.        ,  0.56498978,  0.47945524, -0.        ,  0.00040969,  0.00465649,  0.        ,
         0.0015246 ,  0.00109027,  0.        , -0.        ,  0.        ,  0.        ],
       [-0.        ,  0.23895552,  0.94389961, -0.        , -0.        , -0.        ,  0.        ,  0.00698824, -0.00747173, -0.        ,  0.        ,
         0.        ,  3.25798078, -0.        ,  0.        ,  0.        , -0.47945524,  0.56498978, -0.        ,  0.00465649, -0.00040969,  0.        ,
         0.00109027, -0.0015246 ,  0.        , -0.        , -0.        , -0.        ],
       [-0.31254663,  0.        ,  0.        , -0.0246187 ,  1.427702  ,  0.        ,  0.        ,  0.        ,  0.        , -0.65473601, -0.00324608,
        -0.        , -0.        ,  2.68500677,  0.        ,  0.        , -0.        , -0.        , -0.01064369,  0.        , -0.        ,  0.77894553,
         0.        , -0.        , -1.36626863, -0.00109961,  0.00126769,  0.00050059],
       [-0.        ,  0.        , -0.        , -0.        , -0.        , -0.00863143,  0.0002635 , -0.        ,  0.        , -0.        ,  0.        ,
         0.        ,  0.        ,  0.        ,  4.1045973 ,  0.        ,  0.        , -0.        ,  0.        ,  0.        ,  0.        ,  0.        ,
         0.        ,  0.        ,  0.        ,  0.        ,  0.        , -0.        ],
       [ 0.        ,  0.        ,  0.        ,  0.        , -0.        , -0.0002635 , -0.00863143,  0.        , -0.        , -0.        ,  0.        ,
        -0.        ,  0.        ,  0.        ,  0.        ,  4.1045973 ,  0.        ,  0.        , -0.        , -0.        ,  0.        ,  0.        ,
        -0.        , -0.        ,  0.        ,  0.        ,  0.        , -0.        ],
       [-0.        ,  0.67263078,  0.32969057,  0.        ,  0.        ,  0.        , -0.        , -0.00948779, -0.0004585 , -0.        , -0.        ,
         0.56498978, -0.47945524, -0.        ,  0.        ,  0.        ,  3.4973973 ,  0.        , -0.        ,  0.00335503, -0.00474021,  0.        ,
         0.00046127,  0.00183472,  0.        ,  0.        ,  0.        ,  0.        ],
       [-0.        ,  0.32969057, -0.67263078,  0.        ,  0.        , -0.        , -0.        ,  0.0004585 , -0.00948779, -0.        , -0.        ,
         0.47945524,  0.56498978, -0.        , -0.        ,  0.        ,  0.        ,  3.4973973 , -0.        , -0.00474021, -0.00335503,  0.        ,
         0.00183472, -0.00046127, -0.        , -0.        , -0.        , -0.        ],
       [-0.00966649, -0.        ,  0.        ,  0.36614891,  0.00307158, -0.        , -0.        ,  0.        , -0.        , -0.01530862, -1.07125761,
        -0.        , -0.        , -0.01064369,  0.        , -0.        , -0.        , -0.        ,  2.62934918, -0.        ,  0.        , -0.00728   ,
         0.        , -0.        ,  0.00546946, -0.07877253, -1.02567618, -0.69212347],
       [-0.        ,  0.00068342,  0.00422972, -0.        ,  0.        , -0.        , -0.        , -0.73491717,  0.93873022, -0.        ,  0.        ,
         0.00040969,  0.00465649,  0.        ,  0.        , -0.        ,  0.00335503, -0.00474021, -0.        ,  4.14488456, -0.        ,  0.        ,
         1.11386195, -1.2996804 ,  0.        ,  0.        , -0.        , -0.        ],
       [ 0.        , -0.00422972,  0.00068342,  0.        , -0.        , -0.        , -0.        ,  0.93873022,  0.73491717,  0.        ,  0.        ,
         0.00465649, -0.00040969, -0.        ,  0.        ,  0.        , -0.00474021, -0.00335503,  0.        , -0.        ,  4.14488456, -0.        ,
         1.2996804 ,  1.11386195,  0.        , -0.        ,  0.        , -0.        ],
       [-0.02193032,  0.        ,  0.        ,  0.00544596,  0.37778888,  0.        , -0.        ,  0.        ,  0.        ,  0.89000948, -0.00291127,
         0.        ,  0.        ,  0.77894553,  0.        ,  0.        ,  0.        ,  0.        , -0.00728   ,  0.        , -0.        ,  1.77602391,
        -0.        , -0.        ,  0.16577225,  0.00211039,  0.00139034,  0.00160398],
       [-0.        , -0.0034066 ,  0.00402771, -0.        ,  0.        ,  0.        ,  0.        , -0.14624496, -0.72885996, -0.        ,  0.        ,
         0.0015246 ,  0.00109027,  0.        ,  0.        , -0.        ,  0.00046127,  0.00183472,  0.        ,  1.11386195,  1.2996804 , -0.        ,
         4.08155787, -0.        , -0.        ,  0.        ,  0.        , -0.        ],
       [ 0.        , -0.00402771, -0.0034066 ,  0.        , -0.        , -0.        , -0.        , -0.72885996,  0.14624496,  0.        , -0.        ,
         0.00109027, -0.0015246 , -0.        ,  0.        , -0.        ,  0.00183472, -0.00046127, -0.        , -1.2996804 ,  1.11386195, -0.        ,
        -0.        ,  4.08155787,  0.        ,  0.        ,  0.        ,  0.        ],
       [ 0.13056049,  0.        ,  0.        ,  0.01091707, -0.07382448,  0.        , -0.        , -0.        , -0.        ,  0.93152503,  0.00689472,
         0.        ,  0.        , -1.36626863,  0.        ,  0.        ,  0.        , -0.        ,  0.00546946,  0.        ,  0.        ,  0.16577225,
        -0.        ,  0.        ,  4.79953811, -0.00636008, -0.00060111, -0.00029526],
       [ 0.01361899, -0.        ,  0.        ,  0.18827551, -0.00823028,  0.        ,  0.        ,  0.        ,  0.        ,  0.00912026, -0.75294176,
        -0.        , -0.        , -0.00109961,  0.        ,  0.        ,  0.        , -0.        , -0.07877253,  0.        , -0.        ,  0.00211039,
         0.        ,  0.        , -0.00636008,  6.21494387, -1.5768422 ,  1.39650036],
       [ 0.0024263 , -0.        , -0.        , -0.02733817,  0.00208639, -0.        ,  0.        ,  0.        ,  0.        ,  0.0000366 ,  0.28535422,
         0.        , -0.        ,  0.00126769,  0.        ,  0.        ,  0.        , -0.        , -1.02567618, -0.        ,  0.        ,  0.00139034,
         0.        ,  0.        , -0.00060111, -1.5768422 ,  1.33847592, -0.01481133],
       [ 0.00287649, -0.        ,  0.        ,  0.19095963, -0.00051636,  0.        ,  0.        , -0.        ,  0.        ,  0.00045018,  0.81569387,
         0.        , -0.        ,  0.00050059, -0.        , -0.        ,  0.        , -0.        , -0.69212347, -0.        , -0.        ,  0.00160398,
        -0.        ,  0.        , -0.00029526,  1.39650036, -0.01481133,  2.5531682 ]]))
E(UHF) =    -1.869738
NO eigenvalue
[-1. -0. -0. -0. -0. -0. -0. -0. -0. -0. -0. -0.  0.  0.  0.  0.  0.  0.  0.  0.  0.  0.  0.  0.  0.  0.  0.  0.] [-1. -0. -0. -0. -0. -0. -0. -0. -0. -0. -0. -0. -0.  0.  0.  0.  0.  0.  0.  0.  0.  0.  0.  0.  0.  0.  0.  0.]
NO vec
[[ 0.9790698   0.          0.07424775 ...  0.          0.          0.        ]
 [ 0.          0.          0.76357604 ...  0.          0.          0.        ]
 [-0.          0.         -0.         ...  0.          0.          0.        ]
 ...
 [ 0.         -0.01413953  0.         ...  0.34011885 -0.02570562 -0.01134938]
 [ 0.         -0.02210473  0.         ... -0.08573802  0.07061627  0.07230394]
 [ 0.         -0.00444952  0.         ... -0.10298361  0.00024441  0.01343969]]
dm(NO)
[[ 1.  0.  0. ...  0.  0.  0.]
 [ 0.  1.  0. ...  0. -0.  0.]
 [ 0.  0.  0. ...  0.  0.  0.]
 ...
 [ 0. -0.  0. ... -0.  0. -0.]
 [ 0.  0.  0. ...  0. -0.  0.]
 [ 0.  0.  0. ...  0.  0. -0.]]
D(g) (NO)
[[ 0.99951369  0.02976395  0.         ...  0.00055333 -0.00129811  0.00378087]
 [-0.02976395  0.99951369 -0.00563136 ...  0.         -0.         -0.        ]
 [ 0.          0.00563136  0.99951369 ... -0.00022778 -0.00408717 -0.02169612]
 ...
 [-0.00055333  0.          0.00022778 ...  0.99951369 -0.          0.        ]
 [ 0.00129811 -0.          0.00408717 ... -0.          0.99951369  0.        ]
 [-0.00378087  0.          0.02169612 ...  0.          0.          0.99951369]]
...
N(g) (NO)
[[ 0.99960015 -0.02976652]
 [ 0.02976652  0.99960015]]
...
P(g) (NO)
[[ 1.         -0.          0.         ...  0.         -0.         -0.        ]
 [ 0.          1.          0.         ...  0.         -0.          0.        ]
 [ 0.00016763  0.00562911  0.         ...  0.         -0.          0.        ]
 ...
 [-0.00055311  0.00001647 -0.         ...  0.         -0.          0.        ]
 [ 0.00129759 -0.00003864  0.         ... -0.          0.         -0.        ]
 [-0.00377936  0.00011254 -0.         ...  0.         -0.          0.        ]]
...
Pg_ortho
[[ 0.95861817  0.         -0.         ... -0.00001964 -0.0000307  -0.00000618]
 [ 0.          0.         -0.         ...  0.          0.          0.        ]
 [-0.         -0.          0.         ... -0.         -0.         -0.        ]
 ...
 [-0.00084339 -0.          0.         ...  0.00019956  0.00031198  0.0000628 ]
 [-0.0013185  -0.          0.         ...  0.00031198  0.00048773  0.00009818]
 [-0.0002654  -0.          0.         ...  0.0000628   0.00009818  0.00001976]]
G(g) (NO)
[[ 0.62822378 -0.00046575  0.01337289 ... -0.00004195 -0.00008735  0.00049113]
 [ 0.00046575  0.62822378 -0.00076282 ...  0.06746825 -0.09818248  0.11033715]
 [ 0.01329775 -0.00348054  1.17826413 ... -0.00038336  0.00056817  0.0000674 ]
 ...
 [ 0.00043651  0.06746315 -0.00029455 ...  1.16415422  0.02150584  0.11098984]
 [-0.0009997  -0.09816372  0.00027032 ...  0.02150584  0.92197512  0.14610598]
 [ 0.00221341  0.11028361  0.0001365  ...  0.110988    0.14610761  1.20214687]]
...
C(NO)
[[-1.          0.          0.         ...  0.          0.          0.        ]
 [ 0.         -1.          0.         ...  0.          0.         -0.        ]
 [-0.          0.         -0.37394363 ...  0.          0.          0.        ]
 ...
 [ 0.          0.          0.         ...  0.00000004  0.3991288   0.25561324]
 [ 0.         -0.          0.         ...  0.00000563  0.14640916 -0.04291608]
 [ 0.          0.          0.         ...  0.00000962  0.20348007 -0.05039021]]
detC 1.0000000000000002
detNg [1.00008651 1.00225454 1.0119323  1.03288592 1.06057741 1.08361693 1.09493861 1.09753793]
xg [0.9999135  0.99775054 0.9882084  0.96816113 0.94288261 0.92283534 0.91329321 0.91113024]
ciS 1.9110437443557466
[[-1.24897393  0.         -0.04339747 ...  0.          0.          0.        ]
 [ 0.         -1.24897393  0.         ... -0.08741625  0.12698206 -0.15159354]
 [-0.04339747  0.         -0.00726373 ...  0.          0.          0.        ]
 ...
 [ 0.         -0.08741625  0.         ...  1.79831738  0.33173427  0.26521929]
 [ 0.          0.12698206  0.         ...  0.33173427  0.81318835  0.75304516]
 [ 0.         -0.15159354  0.         ...  0.26521929  0.75304516  0.40444731]]
ciH -3.6124244977910247
S2 = -0.000000
X(g)
[[ 2.         -0.          0.00016763 ...  0.00055311 -0.00129759  0.00377936]
 [ 0.          2.         -0.00562911 ...  0.00001647 -0.00003864  0.00011254]
 [ 0.00016763  0.00562911  0.         ...  0.          0.          0.        ]
 ...
 [-0.00055311  0.00001647  0.         ...  0.          0.          0.        ]
 [ 0.00129759 -0.00003864  0.         ...  0.          0.          0.        ]
 [-0.00377936  0.00011254  0.         ...  0.          0.          0.        ]]
X(g) int
[[ 2.          0.          0.09019686 ...  0.00729256 -0.01710844  0.04982991]
 [-0.          2.         -0.07421841 ...  0.00886257 -0.02079171  0.06055777]
 [ 0.09019686  0.07421841  0.         ...  0.          0.          0.        ]
 ...
 [-0.00729256  0.00886257  0.         ...  0.          0.          0.        ]
 [ 0.01710844 -0.02079171  0.         ...  0.          0.          0.        ]
 [-0.04982991  0.06055777  0.         ...  0.          0.          0.        ]]
Hsp + Hph =  -1.8902887537034632
Feff (mod,ortho)
[[-0.54022046 -0.          0.         ...  0.          0.          0.        ]
 [-0.          1.4546472  -0.         ...  0.          0.          0.        ]
 [ 0.         -0.          1.4546472  ...  0.          0.          0.        ]
 ...
 [ 0.          0.          0.         ...  6.21456662 -1.57715237  1.39640916]
 [ 0.          0.          0.         ... -1.57715237  1.33842811 -0.01486594]
 [ 0.          0.          0.         ...  1.39640916 -0.01486594  2.55314815]]
E(SUHF) =     -1.13432131
e_a, e_b
[-0.62248406  0.16598103  0.29651152  0.64502867  0.67980476  0.67980476  1.09581007  1.1154177   1.1154177   1.53608529  2.31662179  2.36386415  3.15415972
  3.15415972  3.39905283  3.39905283  3.66234089  3.83433283  3.83433283  4.10467576  4.10467576  4.13098012  4.13098012  4.76992875  5.86500296  5.86500296
  5.94963646  7.1707848 ] [-0.62248406  0.16598103  0.29651152  0.64502867  0.67980476  0.67980476  1.09581007  1.1154177   1.1154177   1.53608529  2.31662179  2.36386415  3.15415972
  3.15415972  3.39905283  3.39905283  3.66234089  3.83433283  3.83433283  4.10467576  4.10467576  4.13098012  4.13098012  4.76992875  5.86500296  5.86500296
  5.94963646  7.1707848 ]
P_a, P_b
[[ 0.95449287  0.         -0.         -0.15648713  0.08734985  0.          0.         -0.         -0.          0.05005724  0.02107148  0.          0.
   0.06900741  0.          0.          0.          0.          0.02592613  0.         -0.         -0.04544276  0.         -0.         -0.01179055  0.01480165
   0.02209225  0.00478245]
 [ 0.          0.         -0.         -0.          0.          0.          0.         -0.         -0.          0.          0.          0.          0.
   0.          0.          0.          0.          0.          0.          0.         -0.         -0.          0.         -0.         -0.          0.
   0.          0.        ]
 [-0.         -0.          0.          0.         -0.         -0.         -0.          0.          0.         -0.         -0.         -0.         -0.
  -0.         -0.         -0.         -0.         -0.         -0.         -0.          0.          0.         -0.          0.          0.         -0.
  -0.         -0.        ]
 [-0.15648713 -0.          0.          0.02565574 -0.01432083 -0.         -0.          0.          0.         -0.00820678 -0.00345462 -0.         -0.
  -0.01131362 -0.         -0.         -0.         -0.         -0.00425054 -0.          0.          0.00745025 -0.          0.          0.00193304 -0.0024267
  -0.00362198 -0.00078407]
 [ 0.08734985  0.         -0.         -0.01432083  0.00799377  0.          0.         -0.         -0.          0.00458096  0.00192834  0.          0.
   0.00631517  0.          0.          0.          0.          0.00237261  0.         -0.         -0.00415867  0.         -0.         -0.00107901  0.00135456
   0.00202176  0.00043766]
 [ 0.          0.         -0.         -0.          0.          0.          0.         -0.         -0.          0.          0.          0.          0.
   0.          0.          0.          0.          0.          0.          0.         -0.         -0.          0.         -0.         -0.          0.
   0.          0.        ]
 [ 0.          0.         -0.         -0.          0.          0.          0.         -0.         -0.          0.          0.          0.          0.
   0.          0.          0.          0.          0.          0.          0.         -0.         -0.          0.         -0.         -0.          0.
   0.          0.        ]
 [-0.         -0.          0.          0.         -0.         -0.         -0.          0.          0.         -0.         -0.         -0.         -0.
  -0.         -0.         -0.         -0.         -0.         -0.         -0.          0.          0.         -0.          0.          0.         -0.
  -0.         -0.        ]
 [-0.         -0.          0.          0.         -0.         -0.         -0.          0.          0.         -0.         -0.         -0.         -0.
  -0.         -0.         -0.         -0.         -0.         -0.         -0.          0.          0.         -0.          0.          0.         -0.
  -0.         -0.        ]
 [ 0.05005724  0.         -0.         -0.00820678  0.00458096  0.          0.         -0.         -0.          0.00262519  0.00110507  0.          0.
   0.00361901  0.          0.          0.          0.          0.00135966  0.         -0.         -0.00238319  0.         -0.         -0.00061834  0.00077625
   0.0011586   0.00025081]
 [ 0.02107148  0.         -0.         -0.00345462  0.00192834  0.          0.         -0.         -0.          0.00110507  0.00046518  0.          0.
   0.00152341  0.          0.          0.          0.          0.00057235  0.         -0.         -0.0010032   0.         -0.         -0.00026029  0.00032676
   0.00048771  0.00010558]
 [ 0.          0.         -0.         -0.          0.          0.          0.         -0.         -0.          0.          0.          0.          0.
   0.          0.          0.          0.          0.          0.          0.         -0.         -0.          0.         -0.         -0.          0.
   0.          0.        ]
 [ 0.          0.         -0.         -0.          0.          0.          0.         -0.         -0.          0.          0.          0.          0.
   0.          0.          0.          0.          0.          0.          0.         -0.         -0.          0.         -0.         -0.          0.
   0.          0.        ]
 [ 0.06900741  0.         -0.         -0.01131362  0.00631517  0.          0.         -0.         -0.          0.00361901  0.00152341  0.          0.
   0.00498906  0.          0.          0.          0.          0.00187439  0.         -0.         -0.0032854   0.         -0.         -0.00085243  0.00107012
   0.00159721  0.00034576]
 [ 0.          0.         -0.         -0.          0.          0.          0.         -0.         -0.          0.          0.          0.          0.
   0.          0.          0.          0.          0.          0.          0.         -0.         -0.          0.         -0.         -0.          0.
   0.          0.        ]
 [ 0.          0.         -0.         -0.          0.          0.          0.         -0.         -0.          0.          0.          0.          0.
   0.          0.          0.          0.          0.          0.          0.         -0.         -0.          0.         -0.         -0.          0.
   0.          0.        ]
 [ 0.          0.         -0.         -0.          0.          0.          0.         -0.         -0.          0.          0.          0.          0.
   0.          0.          0.          0.          0.          0.          0.         -0.         -0.          0.         -0.         -0.          0.
   0.          0.        ]
 [ 0.          0.         -0.         -0.          0.          0.          0.         -0.         -0.          0.          0.          0.          0.
   0.          0.          0.          0.          0.          0.          0.         -0.         -0.          0.         -0.         -0.          0.
   0.          0.        ]
 [ 0.02592613  0.         -0.         -0.00425054  0.00237261  0.          0.         -0.         -0.          0.00135966  0.00057235  0.          0.
   0.00187439  0.          0.          0.          0.          0.00070421  0.         -0.         -0.00123433  0.         -0.         -0.00032026  0.00040205
   0.00060007  0.0001299 ]
 [ 0.          0.         -0.         -0.          0.          0.          0.         -0.         -0.          0.          0.          0.          0.
   0.          0.          0.          0.          0.          0.          0.         -0.         -0.          0.         -0.         -0.          0.
   0.          0.        ]
 [-0.         -0.          0.          0.         -0.         -0.         -0.          0.          0.         -0.         -0.         -0.         -0.
  -0.         -0.         -0.         -0.         -0.         -0.         -0.          0.          0.         -0.          0.          0.         -0.
  -0.         -0.        ]
 [-0.04544276 -0.          0.          0.00745025 -0.00415867 -0.         -0.          0.          0.         -0.00238319 -0.0010032  -0.         -0.
  -0.0032854  -0.         -0.         -0.         -0.         -0.00123433 -0.          0.          0.0021635  -0.          0.          0.00056134 -0.0007047
  -0.0010518  -0.00022769]
 [ 0.          0.         -0.         -0.          0.          0.          0.         -0.         -0.          0.          0.          0.          0.
   0.          0.          0.          0.          0.          0.          0.         -0.         -0.          0.         -0.         -0.          0.
   0.          0.        ]
 [-0.         -0.          0.          0.         -0.         -0.         -0.          0.          0.         -0.         -0.         -0.         -0.
  -0.         -0.         -0.         -0.         -0.         -0.         -0.          0.          0.         -0.          0.          0.         -0.
  -0.         -0.        ]
 [-0.01179055 -0.          0.          0.00193304 -0.00107901 -0.         -0.          0.          0.         -0.00061834 -0.00026029 -0.         -0.
  -0.00085243 -0.         -0.         -0.         -0.         -0.00032026 -0.          0.          0.00056134 -0.          0.          0.00014564 -0.00018284
  -0.0002729  -0.00005908]
 [ 0.01480165  0.         -0.         -0.0024267   0.00135456  0.          0.         -0.         -0.          0.00077625  0.00032676  0.          0.
   0.00107012  0.          0.          0.          0.          0.00040205  0.         -0.         -0.0007047   0.         -0.         -0.00018284  0.00022953
   0.00034259  0.00007416]
 [ 0.02209225  0.         -0.         -0.00362198  0.00202176  0.          0.         -0.         -0.          0.0011586   0.00048771  0.          0.
   0.00159721  0.          0.          0.          0.          0.00060007  0.         -0.         -0.0010518   0.         -0.         -0.0002729   0.00034259
   0.00051134  0.00011069]
 [ 0.00478245  0.         -0.         -0.00078407  0.00043766  0.          0.         -0.         -0.          0.00025081  0.00010558  0.          0.
   0.00034576  0.          0.          0.          0.          0.0001299   0.         -0.         -0.00022769  0.         -0.         -0.00005908  0.00007416
   0.00011069  0.00002396]] 
 [[ 0.95449287 -0.          0.          0.15648713  0.08734985  0.         -0.          0.          0.          0.05005724 -0.02107148  0.          0.
   0.06900741  0.         -0.          0.          0.         -0.02592613 -0.         -0.         -0.04544276  0.         -0.         -0.01179055 -0.01480165
  -0.02209225 -0.00478245]
 [-0.          0.         -0.         -0.         -0.         -0.          0.         -0.         -0.         -0.          0.         -0.         -0.
  -0.         -0.          0.         -0.         -0.          0.          0.          0.          0.         -0.          0.          0.          0.
   0.          0.        ]
 [ 0.         -0.          0.          0.          0.          0.         -0.          0.          0.          0.         -0.          0.          0.
   0.          0.         -0.          0.          0.         -0.         -0.         -0.         -0.          0.         -0.         -0.         -0.
  -0.         -0.        ]
 [ 0.15648713 -0.          0.          0.02565574  0.01432083  0.         -0.          0.          0.          0.00820678 -0.00345462  0.          0.
   0.01131362  0.         -0.          0.          0.         -0.00425054 -0.         -0.         -0.00745025  0.         -0.         -0.00193304 -0.0024267
  -0.00362198 -0.00078407]
 [ 0.08734985 -0.          0.          0.01432083  0.00799377  0.         -0.          0.          0.          0.00458096 -0.00192834  0.          0.
   0.00631517  0.         -0.          0.          0.         -0.00237261 -0.         -0.         -0.00415867  0.         -0.         -0.00107901 -0.00135456
  -0.00202176 -0.00043766]
 [ 0.         -0.          0.          0.          0.          0.         -0.          0.          0.          0.         -0.          0.          0.
   0.          0.         -0.          0.          0.         -0.         -0.         -0.         -0.          0.         -0.         -0.         -0.
  -0.         -0.        ]
 [-0.          0.         -0.         -0.         -0.         -0.          0.         -0.         -0.         -0.          0.         -0.         -0.
  -0.         -0.          0.         -0.         -0.          0.          0.          0.          0.         -0.          0.          0.          0.
   0.          0.        ]
 [ 0.         -0.          0.          0.          0.          0.         -0.          0.          0.          0.         -0.          0.          0.
   0.          0.         -0.          0.          0.         -0.         -0.         -0.         -0.          0.         -0.         -0.         -0.
  -0.         -0.        ]
 [ 0.         -0.          0.          0.          0.          0.         -0.          0.          0.          0.         -0.          0.          0.
   0.          0.         -0.          0.          0.         -0.         -0.         -0.         -0.          0.         -0.         -0.         -0.
  -0.         -0.        ]
 [ 0.05005724 -0.          0.          0.00820678  0.00458096  0.         -0.          0.          0.          0.00262519 -0.00110507  0.          0.
   0.00361901  0.         -0.          0.          0.         -0.00135966 -0.         -0.         -0.00238319  0.         -0.         -0.00061834 -0.00077625
  -0.0011586  -0.00025081]
 [-0.02107148  0.         -0.         -0.00345462 -0.00192834 -0.          0.         -0.         -0.         -0.00110507  0.00046518 -0.         -0.
  -0.00152341 -0.          0.         -0.         -0.          0.00057235  0.          0.          0.0010032  -0.          0.          0.00026029  0.00032676
   0.00048771  0.00010558]
 [ 0.         -0.          0.          0.          0.          0.         -0.          0.          0.          0.         -0.          0.          0.
   0.          0.         -0.          0.          0.         -0.         -0.         -0.         -0.          0.         -0.         -0.         -0.
  -0.         -0.        ]
 [ 0.         -0.          0.          0.          0.          0.         -0.          0.          0.          0.         -0.          0.          0.
   0.          0.         -0.          0.          0.         -0.         -0.         -0.         -0.          0.         -0.         -0.         -0.
  -0.         -0.        ]
 [ 0.06900741 -0.          0.          0.01131362  0.00631517  0.         -0.          0.          0.          0.00361901 -0.00152341  0.          0.
   0.00498906  0.         -0.          0.          0.         -0.00187439 -0.         -0.         -0.0032854   0.         -0.         -0.00085243 -0.00107012
  -0.00159721 -0.00034576]
 [ 0.         -0.          0.          0.          0.          0.         -0.          0.          0.          0.         -0.          0.          0.
   0.          0.         -0.          0.          0.         -0.         -0.         -0.         -0.          0.         -0.         -0.         -0.
  -0.         -0.        ]
 [-0.          0.         -0.         -0.         -0.         -0.          0.         -0.         -0.         -0.          0.         -0.         -0.
  -0.         -0.          0.         -0.         -0.          0.          0.          0.          0.         -0.          0.          0.          0.
   0.          0.        ]
 [ 0.         -0.          0.          0.          0.          0.         -0.          0.          0.          0.         -0.          0.          0.
   0.          0.         -0.          0.          0.         -0.         -0.         -0.         -0.          0.         -0.         -0.         -0.
  -0.         -0.        ]
 [ 0.         -0.          0.          0.          0.          0.         -0.          0.          0.          0.         -0.          0.          0.
   0.          0.         -0.          0.          0.         -0.         -0.         -0.         -0.          0.         -0.         -0.         -0.
  -0.         -0.        ]
 [-0.02592613  0.         -0.         -0.00425054 -0.00237261 -0.          0.         -0.         -0.         -0.00135966  0.00057235 -0.         -0.
  -0.00187439 -0.          0.         -0.         -0.          0.00070421  0.          0.          0.00123433 -0.          0.          0.00032026  0.00040205
   0.00060007  0.0001299 ]
 [-0.          0.         -0.         -0.         -0.         -0.          0.         -0.         -0.         -0.          0.         -0.         -0.
  -0.         -0.          0.         -0.         -0.          0.          0.          0.          0.         -0.          0.          0.          0.
   0.          0.        ]
 [-0.          0.         -0.         -0.         -0.         -0.          0.         -0.         -0.         -0.          0.         -0.         -0.
  -0.         -0.          0.         -0.         -0.          0.          0.          0.          0.         -0.          0.          0.          0.
   0.          0.        ]
 [-0.04544276  0.         -0.         -0.00745025 -0.00415867 -0.          0.         -0.         -0.         -0.00238319  0.0010032  -0.         -0.
  -0.0032854  -0.          0.         -0.         -0.          0.00123433  0.          0.          0.0021635  -0.          0.          0.00056134  0.0007047
   0.0010518   0.00022769]
 [ 0.         -0.          0.          0.          0.          0.         -0.          0.          0.          0.         -0.          0.          0.
   0.          0.         -0.          0.          0.         -0.         -0.         -0.         -0.          0.         -0.         -0.         -0.
  -0.         -0.        ]
 [-0.          0.         -0.         -0.         -0.         -0.          0.         -0.         -0.         -0.          0.         -0.         -0.
  -0.         -0.          0.         -0.         -0.          0.          0.          0.          0.         -0.          0.          0.          0.
   0.          0.        ]
 [-0.01179055  0.         -0.         -0.00193304 -0.00107901 -0.          0.         -0.         -0.         -0.00061834  0.00026029 -0.         -0.
  -0.00085243 -0.          0.         -0.         -0.          0.00032026  0.          0.          0.00056134 -0.          0.          0.00014564  0.00018284
   0.0002729   0.00005908]
 [-0.01480165  0.         -0.         -0.0024267  -0.00135456 -0.          0.         -0.         -0.         -0.00077625  0.00032676 -0.         -0.
[...]
  [ 0.01237501 -0.         -0.         ... -1.58456133  1.34501757 -0.01448232]
  [-0.00560071 -0.          0.         ...  1.40281205 -0.01448232  2.56305899]]

 [[-0.41978454  0.         -0.         ...  0.09630849 -0.01237501  0.00560071]
  [ 0.          1.48808613  0.         ... -0.         -0.         -0.        ]
  [-0.          0.          1.48808613 ...  0.         -0.          0.        ]
  ...
  [ 0.09630849 -0.          0.         ...  6.25459519 -1.58456133  1.40281205]
  [-0.01237501 -0.         -0.         ... -1.58456133  1.34501757 -0.01448232]
  [ 0.00560071 -0.          0.         ...  1.40281205 -0.01448232  2.56305899]]]
e_a, e_b
[-0.5900536   0.17723683  0.30084218  0.65802346  0.69957605  0.69957605  1.11160912  1.12881331  1.12881331  1.54520795  2.31120473  2.4196707   3.18143192
  3.18143192  3.43356203  3.43356203  3.69657894  3.86310221  3.86310221  4.13102588  4.13102588  4.16339317  4.16339317  4.80206885  5.89915169  5.89915169
  5.98607013  7.21771544] [-0.5900536   0.17723683  0.30084218  0.65802346  0.69957605  0.69957605  1.11160912  1.12881331  1.12881331  1.54520795  2.31120473  2.4196707   3.18143192
  3.18143192  3.43356203  3.43356203  3.69657894  3.86310221  3.86310221  4.13102588  4.13102588  4.16339317  4.16339317  4.80206885  5.89915169  5.89915169
  5.98607013  7.21771544]
P_a, P_b
[[ 0.8877398   0.         -0.         -0.28732333  0.07731897 -0.          0.         -0.          0.          0.05428297  0.00341856 -0.         -0.
   0.0723417   0.          0.          0.          0.         -0.00980394  0.         -0.         -0.04746297  0.          0.         -0.01089563  0.02038319
   0.00073142  0.00704994]
 [ 0.          0.         -0.         -0.          0.         -0.          0.         -0.          0.          0.          0.         -0.         -0.
   0.          0.          0.          0.          0.         -0.          0.         -0.         -0.          0.          0.         -0.          0.
   0.          0.        ]
 [-0.         -0.          0.          0.         -0.          0.         -0.          0.         -0.         -0.         -0.          0.          0.
  -0.         -0.         -0.         -0.         -0.          0.         -0.          0.          0.         -0.         -0.          0.         -0.
  -0.         -0.        ]
 [-0.28732333 -0.          0.          0.09299425 -0.02502484  0.         -0.          0.         -0.         -0.01756907 -0.00110644  0.          0.
  -0.02341391 -0.         -0.         -0.         -0.          0.00317311 -0.          0.          0.01536173 -0.         -0.          0.00352645 -0.00659717
  -0.00023673 -0.00228176]
 [ 0.07731897  0.         -0.         -0.02502484  0.00673421 -0.          0.         -0.          0.          0.00472785  0.00029774 -0.         -0.
   0.0063007   0.          0.          0.          0.         -0.00085389  0.         -0.         -0.00413386  0.          0.         -0.00094897  0.0017753
   0.0000637   0.00061402]
 [-0.         -0.          0.          0.         -0.          0.         -0.          0.         -0.         -0.         -0.          0.          0.
  -0.         -0.         -0.         -0.         -0.          0.         -0.          0.          0.         -0.         -0.          0.         -0.
  -0.         -0.        ]
 [ 0.          0.         -0.         -0.          0.         -0.          0.         -0.          0.          0.          0.         -0.         -0.
   0.          0.          0.          0.          0.         -0.          0.         -0.         -0.          0.          0.         -0.          0.
   0.          0.        ]
 [-0.         -0.          0.          0.         -0.          0.         -0.          0.         -0.         -0.         -0.          0.          0.
  -0.         -0.         -0.         -0.         -0.          0.         -0.          0.          0.         -0.         -0.          0.         -0.
  -0.         -0.        ]
 [ 0.          0.         -0.         -0.          0.         -0.          0.         -0.          0.          0.          0.         -0.         -0.
   0.          0.          0.          0.          0.         -0.          0.         -0.         -0.          0.          0.         -0.          0.
   0.          0.        ]
 [ 0.05428297  0.         -0.         -0.01756907  0.00472785 -0.          0.         -0.          0.          0.00331926  0.00020904 -0.         -0.
   0.00442351  0.          0.          0.          0.         -0.00059949  0.         -0.         -0.00290224  0.          0.         -0.00066624  0.00124638
   0.00004472  0.00043109]
 [ 0.00341856  0.         -0.         -0.00110644  0.00029774 -0.          0.         -0.          0.          0.00020904  0.00001316 -0.         -0.
   0.00027858  0.          0.          0.          0.         -0.00003775  0.         -0.         -0.00018277  0.          0.         -0.00004196  0.00007849
   0.00000282  0.00002715]
 [-0.         -0.          0.          0.         -0.          0.         -0.          0.         -0.         -0.         -0.          0.          0.
  -0.         -0.         -0.         -0.         -0.          0.         -0.          0.          0.         -0.         -0.          0.         -0.
  -0.         -0.        ]
 [-0.         -0.          0.          0.         -0.          0.         -0.          0.         -0.         -0.         -0.          0.          0.
  -0.         -0.         -0.         -0.         -0.          0.         -0.          0.          0.         -0.         -0.          0.         -0.
  -0.         -0.        ]
 [ 0.0723417   0.         -0.         -0.02341391  0.0063007  -0.          0.         -0.          0.          0.00442351  0.00027858 -0.         -0.
   0.00589511  0.          0.          0.          0.         -0.00079892  0.         -0.         -0.00386775  0.          0.         -0.00088788  0.00166102
   0.0000596   0.0005745 ]
 [ 0.          0.         -0.         -0.          0.         -0.          0.         -0.          0.          0.          0.         -0.         -0.
   0.          0.          0.          0.          0.         -0.          0.         -0.         -0.          0.          0.         -0.          0.
   0.          0.        ]
 [ 0.          0.         -0.         -0.          0.         -0.          0.         -0.          0.          0.          0.         -0.         -0.
   0.          0.          0.          0.          0.         -0.          0.         -0.         -0.          0.          0.         -0.          0.
   0.          0.        ]
 [ 0.          0.         -0.         -0.          0.         -0.          0.         -0.          0.          0.          0.         -0.         -0.
   0.          0.          0.          0.          0.         -0.          0.         -0.         -0.          0.          0.         -0.          0.
   0.          0.        ]
 [ 0.          0.         -0.         -0.          0.         -0.          0.         -0.          0.          0.          0.         -0.         -0.
   0.          0.          0.          0.          0.         -0.          0.         -0.         -0.          0.          0.         -0.          0.
   0.          0.        ]
 [-0.00980394 -0.          0.          0.00317311 -0.00085389  0.         -0.          0.         -0.         -0.00059949 -0.00003775  0.          0.
  -0.00079892 -0.         -0.         -0.         -0.          0.00010827 -0.          0.          0.00052417 -0.         -0.          0.00012033 -0.00022511
  -0.00000808 -0.00007786]
 [ 0.          0.         -0.         -0.          0.         -0.          0.         -0.          0.          0.          0.         -0.         -0.
   0.          0.          0.          0.          0.         -0.          0.         -0.         -0.          0.          0.         -0.          0.
   0.          0.        ]
 [-0.         -0.          0.          0.         -0.          0.         -0.          0.         -0.         -0.         -0.          0.          0.
  -0.         -0.         -0.         -0.         -0.          0.         -0.          0.          0.         -0.         -0.          0.         -0.
  -0.         -0.        ]
 [-0.04746297 -0.          0.          0.01536173 -0.00413386  0.         -0.          0.         -0.         -0.00290224 -0.00018277  0.          0.
  -0.00386775 -0.         -0.         -0.         -0.          0.00052417 -0.          0.          0.00253761 -0.         -0.          0.00058253 -0.00108979
  -0.00003911 -0.00037692]
 [ 0.          0.         -0.         -0.          0.         -0.          0.         -0.          0.          0.          0.         -0.         -0.
   0.          0.          0.          0.          0.         -0.          0.         -0.         -0.          0.          0.         -0.          0.
   0.          0.        ]
 [ 0.          0.         -0.         -0.          0.         -0.          0.         -0.          0.          0.          0.         -0.         -0.
   0.          0.          0.          0.          0.         -0.          0.         -0.         -0.          0.          0.         -0.          0.
   0.          0.        ]
 [-0.01089563 -0.          0.          0.00352645 -0.00094897  0.         -0.          0.         -0.         -0.00066624 -0.00004196  0.          0.
  -0.00088788 -0.         -0.         -0.         -0.          0.00012033 -0.          0.          0.00058253 -0.         -0.          0.00013373 -0.00025017
  -0.00000898 -0.00008653]
 [ 0.02038319  0.         -0.         -0.00659717  0.0017753  -0.          0.         -0.          0.          0.00124638  0.00007849 -0.         -0.
   0.00166102  0.          0.          0.          0.         -0.00022511  0.         -0.         -0.00108979  0.          0.         -0.00025017  0.00046801
   0.00001679  0.00016187]
 [ 0.00073142  0.         -0.         -0.00023673  0.0000637  -0.          0.         -0.          0.          0.00004472  0.00000282 -0.         -0.
   0.0000596   0.          0.          0.          0.         -0.00000808  0.         -0.         -0.00003911  0.          0.         -0.00000898  0.00001679
   0.0000006   0.00000581]
 [ 0.00704994  0.         -0.         -0.00228176  0.00061402 -0.          0.         -0.          0.          0.00043109  0.00002715 -0.         -0.
   0.0005745   0.          0.          0.          0.         -0.00007786  0.         -0.         -0.00037692  0.          0.         -0.00008653  0.00016187
   0.00000581  0.00005599]] 
 [[ 0.8877398  -0.          0.          0.28732333  0.07731897 -0.          0.         -0.          0.          0.05428297 -0.00341856  0.          0.
   0.0723417   0.         -0.         -0.         -0.          0.00980394  0.         -0.         -0.04746297  0.         -0.         -0.01089563 -0.02038319
  -0.00073142 -0.00704994]
 [-0.          0.         -0.         -0.         -0.          0.         -0.          0.         -0.         -0.          0.         -0.         -0.
  -0.         -0.          0.          0.          0.         -0.         -0.          0.          0.         -0.          0.          0.          0.
   0.          0.        ]
 [ 0.         -0.          0.          0.          0.         -0.          0.         -0.          0.          0.         -0.          0.          0.
   0.          0.         -0.         -0.         -0.          0.          0.         -0.         -0.          0.         -0.         -0.         -0.
  -0.         -0.        ]
 [ 0.28732333 -0.          0.          0.09299425  0.02502484 -0.          0.         -0.          0.          0.01756907 -0.00110644  0.          0.
   0.02341391  0.         -0.         -0.         -0.          0.00317311  0.         -0.         -0.01536173  0.         -0.         -0.00352645 -0.00659717
  -0.00023673 -0.00228176]
 [ 0.07731897 -0.          0.          0.02502484  0.00673421 -0.          0.         -0.          0.          0.00472785 -0.00029774  0.          0.
   0.0063007   0.         -0.         -0.         -0.          0.00085389  0.         -0.         -0.00413386  0.         -0.         -0.00094897 -0.0017753
  -0.0000637  -0.00061402]
 [-0.          0.         -0.         -0.         -0.          0.         -0.          0.         -0.         -0.          0.         -0.         -0.
  -0.         -0.          0.          0.          0.         -0.         -0.          0.          0.         -0.          0.          0.          0.
   0.          0.        ]
 [ 0.         -0.          0.          0.          0.         -0.          0.         -0.          0.          0.         -0.          0.          0.
   0.          0.         -0.         -0.         -0.          0.          0.         -0.         -0.          0.         -0.         -0.         -0.
  -0.         -0.        ]
 [-0.          0.         -0.         -0.         -0.          0.         -0.          0.         -0.         -0.          0.         -0.         -0.
  -0.         -0.          0.          0.          0.         -0.         -0.          0.          0.         -0.          0.          0.          0.
   0.          0.        ]
 [ 0.         -0.          0.          0.          0.         -0.          0.         -0.          0.          0.         -0.          0.          0.
   0.          0.         -0.         -0.         -0.          0.          0.         -0.         -0.          0.         -0.         -0.         -0.
  -0.         -0.        ]
 [ 0.05428297 -0.          0.          0.01756907  0.00472785 -0.          0.         -0.          0.          0.00331926 -0.00020904  0.          0.
   0.00442351  0.         -0.         -0.         -0.          0.00059949  0.         -0.         -0.00290224  0.         -0.         -0.00066624 -0.00124638
  -0.00004472 -0.00043109]
 [-0.00341856  0.         -0.         -0.00110644 -0.00029774  0.         -0.          0.         -0.         -0.00020904  0.00001316 -0.         -0.
  -0.00027858 -0.          0.          0.          0.         -0.00003775 -0.          0.          0.00018277 -0.          0.          0.00004196  0.00007849
   0.00000282  0.00002715]
 [ 0.         -0.          0.          0.          0.         -0.          0.         -0.          0.          0.         -0.          0.          0.
   0.          0.         -0.         -0.         -0.          0.          0.         -0.         -0.          0.         -0.         -0.         -0.
  -0.         -0.        ]
 [ 0.         -0.          0.          0.          0.         -0.          0.         -0.          0.          0.         -0.          0.          0.
   0.          0.         -0.         -0.         -0.          0.          0.         -0.         -0.          0.         -0.         -0.         -0.
  -0.         -0.        ]
 [ 0.0723417  -0.          0.          0.02341391  0.0063007  -0.          0.         -0.          0.          0.00442351 -0.00027858  0.          0.
   0.00589511  0.         -0.         -0.         -0.          0.00079892  0.         -0.         -0.00386775  0.         -0.         -0.00088788 -0.00166102
  -0.0000596  -0.0005745 ]
 [ 0.         -0.          0.          0.          0.         -0.          0.         -0.          0.          0.         -0.          0.          0.
   0.          0.         -0.         -0.         -0.          0.          0.         -0.         -0.          0.         -0.         -0.         -0.
  -0.         -0.        ]
 [-0.          0.         -0.         -0.         -0.          0.         -0.          0.         -0.         -0.          0.         -0.         -0.
  -0.         -0.          0.          0.          0.         -0.         -0.          0.          0.         -0.          0.          0.          0.
   0.          0.        ]
 [-0.          0.         -0.         -0.         -0.          0.         -0.          0.         -0.         -0.          0.         -0.         -0.
  -0.         -0.          0.          0.          0.         -0.         -0.          0.          0.         -0.          0.          0.          0.
   0.          0.        ]
 [-0.          0.         -0.         -0.         -0.          0.         -0.          0.         -0.         -0.          0.         -0.         -0.
  -0.         -0.          0.          0.          0.         -0.         -0.          0.          0.         -0.          0.          0.          0.
   0.          0.        ]
 [ 0.00980394 -0.          0.          0.00317311  0.00085389 -0.          0.         -0.          0.          0.00059949 -0.00003775  0.          0.
   0.00079892  0.         -0.         -0.         -0.          0.00010827  0.         -0.         -0.00052417  0.         -0.         -0.00012033 -0.00022511
  -0.00000808 -0.00007786]
 [ 0.         -0.          0.          0.          0.         -0.          0.         -0.          0.          0.         -0.          0.          0.
   0.          0.         -0.         -0.         -0.          0.          0.         -0.         -0.          0.         -0.         -0.         -0.
  -0.         -0.        ]
 [-0.          0.         -0.         -0.         -0.          0.         -0.          0.         -0.         -0.          0.         -0.         -0.
  -0.         -0.          0.          0.          0.         -0.         -0.          0.          0.         -0.          0.          0.          0.
   0.          0.        ]
 [-0.04746297  0.         -0.         -0.01536173 -0.00413386  0.         -0.          0.         -0.         -0.00290224  0.00018277 -0.         -0.
  -0.00386775 -0.          0.          0.          0.         -0.00052417 -0.          0.          0.00253761 -0.          0.          0.00058253  0.00108979
   0.00003911  0.00037692]
 [ 0.         -0.          0.          0.          0.         -0.          0.         -0.          0.          0.         -0.          0.          0.
   0.          0.         -0.         -0.         -0.          0.          0.         -0.         -0.          0.         -0.         -0.         -0.
  -0.         -0.        ]
 [-0.          0.         -0.         -0.         -0.          0.         -0.          0.         -0.         -0.          0.         -0.         -0.
  -0.         -0.          0.          0.          0.         -0.         -0.          0.          0.         -0.          0.          0.          0.
   0.          0.        ]
 [-0.01089563  0.         -0.         -0.00352645 -0.00094897  0.         -0.          0.         -0.         -0.00066624  0.00004196 -0.         -0.
  -0.00088788 -0.          0.          0.          0.         -0.00012033 -0.          0.          0.00058253 -0.          0.          0.00013373  0.00025017
   0.00000898  0.00008653]
 [-0.02038319  0.         -0.         -0.00659717 -0.0017753   0.         -0.          0.         -0.         -0.00124638  0.00007849 -0.         -0.
  -0.00166102 -0.          0.          0.          0.         -0.00022511 -0.          0.          0.00108979 -0.          0.          0.00025017  0.00046801
   0.00001679  0.00016187]
 [-0.00073142  0.         -0.         -0.00023673 -0.0000637   0.         -0.          0.         -0.         -0.00004472  0.00000282 -0.         -0.
  -0.0000596  -0.          0.          0.          0.         -0.00000808 -0.          0.          0.00003911 -0.          0.          0.00000898  0.00001679
   0.0000006   0.00000581]
 [-0.00704994  0.         -0.         -0.00228176 -0.00061402  0.         -0.          0.         -0.         -0.00043109  0.00002715 -0.         -0.
  -0.0005745  -0.          0.          0.          0.         -0.00007786 -0.          0.          0.00037692 -0.          0.          0.00008653  0.00016187
   0.00000581  0.00005599]]

***************
SUHF converged at cycle 43
Final E(SUHF) =     -1.14944498, delta E = -3.33357e-09
