#INFO: **** input file is /share/home/srwang/ExSCF/test/pytest/scan_h2/scan_suhf.py ****
#import phf
from pyscf import lib
#import scipy
import numpy as np
import sys, os, contextlib

from pyphf import util, sudft

#xyz = 'h2.xyz' #sys.argv[1]
fch = 'test_uhf.fchk' #sys.argv[2]
#bas = '../h2.bas'
bas = 'cc-pvtz'

lib.num_threads(8)

for r in np.arange(0.5, 2.55, 0.1):
    output = 'suhf/suhf_%.1f_diis.out' % r
    os.system("echo '\n' > %s" % output)
    with open(output, 'w', encoding='utf-8') as f:
        with contextlib.redirect_stdout(f):
            xyz = '''H 0.0 0.0 0.0; H 0.0 0.0 %f'''%r
            mf = util.guess_from_fchk(xyz, bas, fch)
            #mf = util.guess(xyz, bas)
            #f.flush()
            mf2 = util.SUHF(mf)
            #mf2.cut_no = False
            mf2.debug = False
            #mf2.max_cycle = 50
            mf2.diis_on = True
            #mf2.output = 'sudft_%.1f.out'%r
            mf2.kernel()
            
            #mf3 = sudft.SUDFT(mf2)
            #mf3.suxc = 'TPSS'
            #mf3.kernel()
                    
#INFO: ******************** input file end ********************


System: uname_result(system='Linux', node='xcluster', release='3.10.0-693.el7.x86_64', version='#1 SMP Thu Jul 6 19:56:57 EDT 2017', machine='x86_64', processor='x86_64')  Threads 8
Python 3.7.4 (default, Aug 13 2019, 20:35:49) 
[GCC 7.3.0]
numpy 1.17.2  scipy 1.4.1
Date: Mon Nov 23 19:28:15 2020
PySCF version 1.7.5
PySCF path  /share/home/srwang/pyscf-1.7.5/pyscf

[CONFIG] conf_file None
[INPUT] verbose = 4
[INPUT] num. atoms = 2
[INPUT] num. electrons = 2
[INPUT] charge = 0
[INPUT] spin (= nelec alpha-beta = 2S) = 0
[INPUT] symmetry False subgroup None
[INPUT] Mole.unit = angstrom
[INPUT]  1 H      0.000000000000   0.000000000000   0.000000000000 AA    0.000000000000   0.000000000000   0.000000000000 Bohr
[INPUT]  2 H      0.000000000000   0.000000000000   2.000000000000 AA    0.000000000000   0.000000000000   3.779452249130 Bohr

nuclear repulsion = 0.26458860546
number of shells = 12
number of NR pGTOs = 32
number of NR cGTOs = 28
basis = cc-pvtz
ecp = {}
CPU time:       807.92


******** <class 'pyscf.scf.uhf.UHF'> ********
method = UHF
initial guess = minao
damping factor = 0
level_shift factor = 0
DIIS = <class 'pyscf.scf.diis.CDIIS'>
diis_start_cycle = 1
diis_space = 8
SCF conv_tol = 1e-09
SCF conv_tol_grad = None
SCF max_cycles = 1
direct_scf = True
direct_scf_tol = 1e-13
chkfile to save SCF result = /share/home/srwang/ExSCF/test/pytest/scan_h2/tmpud277yh_
max_memory 4000 MB (current use 125 MB)
number electrons alpha = 1  beta = 1
Set gradient conv threshold to 3.16228e-05
init E= -0.653398255934233
  alpha nocc = 1  HOMO = -0.255236700787304  LUMO = -0.101882778534493
  beta  nocc = 1  HOMO = -0.253756675067736  LUMO = -0.101501802249921
cycle= 1 E= -0.923861886515737  delta_E= -0.27  |g|= 0.0343  |ddm|= 0.424
SCF not converged.
SCF energy = -0.923861886515737 after 1 cycles  <S^2> = 2.4434253e-07  2S+1 = 1.0000005


******** <class 'pyscf.scf.uhf.UHF'> ********
method = UHF
initial guess = minao
damping factor = 0
level_shift factor = 0
DIIS = <class 'pyscf.scf.diis.CDIIS'>
diis_start_cycle = 1
diis_space = 8
SCF conv_tol = 1e-09
SCF conv_tol_grad = None
SCF max_cycles = 1
direct_scf = True
direct_scf_tol = 1e-13
chkfile to save SCF result = /share/home/srwang/ExSCF/test/pytest/scan_h2/tmpud277yh_
max_memory 4000 MB (current use 125 MB)
number electrons alpha = 1  beta = 1
Set gradient conv threshold to 3.16228e-05
init E= -0.899528750533982
  alpha nocc = 1  HOMO = -0.490301616198471  LUMO = -0.0172398103707789
  beta  nocc = 1  HOMO = -0.490301616198472  LUMO = -0.01723981037078
cycle= 1 E= -0.996436369405894  delta_E= -0.0969  |g|= 0.0463  |ddm|= 0.0974
SCF not converged.
SCF energy = -0.996436369405894 after 1 cycles  <S^2> = 0.73441737  2S+1 = 1.9843562

******** <class 'pyphf.util.SUHF'> ********
max_cycle = 70
verbose: normal
DIIS: <class 'pyscf.scf.diis.CDIIS'>
diis_start_cyc = 40
SVD: S^(-1/2)
[[-0.17170134  0.29459894  0.09144968 -0.          0.         -0.          0.          0.16691485 -0.02588288  0.         -0.          0.         -0.
   0.          0.          0.          0.          0.06257547 -0.67057333  0.63904788  0.06298218 -0.         -0.         -0.         -0.          0.45597338
  -0.83881731  0.72930872]
 [-0.24882074  0.31893014  0.08020399  0.         -0.          0.          0.          0.11257545  0.0011357  -0.          0.         -0.          0.
  -0.         -0.         -0.          0.          0.00709992 -0.04886652 -0.22135712 -0.00229648  0.          0.          0.          0.         -0.45035918
   1.67016411 -1.6206081 ]
 [-0.27314413  0.20022941  0.06284648 -0.         -0.         -0.          0.          0.01041502 -0.00677852 -0.         -0.          0.         -0.
   0.         -0.         -0.         -0.         -0.01664224  0.48388517 -0.5874212  -0.12906879  0.          0.          0.          0.         -0.3410198
  -0.98344571  1.66141258]
 [ 0.          0.         -0.         -0.21986635 -0.30792738 -0.1671028   0.37205096 -0.         -0.          0.02988198  0.00402757  0.         -0.
   0.         -0.          0.0293511  -0.01097146  0.         -0.         -0.          0.         -0.77375409  0.21225254 -0.80323201  0.10776633 -0.
   0.         -0.        ]
 [ 0.         -0.          0.         -0.30792738  0.21986635 -0.37205096 -0.1671028   0.         -0.          0.00402757 -0.02988198 -0.          0.
  -0.          0.          0.01097146  0.0293511  -0.          0.          0.         -0.         -0.21225254 -0.77375409 -0.10776633 -0.80323201 -0.
  -0.         -0.        ]
 [-0.04709673 -0.0982759  -0.32865266 -0.         -0.         -0.          0.          0.44519842 -0.08923065 -0.          0.          0.         -0.
   0.          0.         -0.         -0.          0.12058933 -0.11553191 -0.37673022 -0.80566489  0.          0.          0.          0.          0.74624231
   0.04967082 -0.15104716]
 [-0.         -0.         -0.         -0.23138621 -0.32406118 -0.15887493  0.35373176 -0.         -0.          0.00122305  0.00016484 -0.          0.
  -0.          0.          0.00049345 -0.00018445  0.          0.          0.          0.          0.7365842  -0.20205627  0.84647659 -0.11356827  0.
  -0.          0.        ]
 [-0.         -0.          0.         -0.32406118  0.23138621 -0.35373176 -0.15887493  0.         -0.          0.00016484 -0.00122305  0.          0.
  -0.          0.          0.00018445  0.00049345  0.          0.         -0.          0.          0.20205627  0.7365842   0.11356827  0.84647659  0.
   0.          0.        ]
 [-0.09415597 -0.13360406 -0.3890778  -0.          0.         -0.          0.          0.33020259 -0.00998358  0.         -0.          0.          0.
  -0.         -0.          0.          0.          0.00083798  0.01203565  0.27770434  0.68457372 -0.         -0.         -0.         -0.         -1.11986942
  -0.04936078  0.33963309]
 [ 0.          0.          0.          0.         -0.         -0.          0.          0.          0.          0.          0.         -0.7069207  -0.
  -0.70702364 -0.01951826  0.         -0.          0.          0.          0.         -0.         -0.          0.         -0.          0.          0.
   0.         -0.        ]
 [-0.         -0.          0.         -0.01375892  0.00982415  0.01670411  0.00750247 -0.          0.         -0.09402027  0.69757073  0.          0.
   0.         -0.          0.24827365  0.66418741  0.         -0.         -0.          0.         -0.00873804 -0.03185401  0.00467793  0.03486674 -0.
  -0.          0.        ]
 [-0.01613674 -0.00766272 -0.04413107  0.         -0.          0.         -0.         -0.09221925  0.69131303 -0.         -0.          0.          0.
   0.          0.         -0.          0.          0.70520639 -0.03501985 -0.00424865 -0.09300798  0.          0.          0.          0.         -0.17024945
  -0.03809382  0.01623504]
 [-0.         -0.         -0.         -0.00982415 -0.01375892  0.00750247 -0.01670411  0.         -0.         -0.69757073 -0.09402027  0.          0.
   0.          0.          0.66418741 -0.24827365 -0.         -0.         -0.          0.         -0.03185401  0.00873804  0.03486674 -0.00467793  0.
  -0.         -0.        ]
 [ 0.          0.          0.         -0.          0.          0.          0.          0.          0.         -0.         -0.          0.         -0.7069207
   0.01951826 -0.70702364  0.         -0.          0.          0.          0.         -0.          0.          0.          0.         -0.          0.
   0.          0.        ]
 [-0.17170134 -0.29459894  0.09144968  0.          0.          0.         -0.         -0.16691485 -0.02588288 -0.          0.          0.          0.
   0.          0.         -0.          0.         -0.06257547 -0.67057333 -0.63904788  0.06298218  0.         -0.          0.          0.         -0.45597338
  -0.83881731 -0.72930872]
 [-0.24882074 -0.31893014  0.08020399  0.         -0.          0.          0.         -0.11257545  0.0011357   0.         -0.         -0.         -0.
  -0.         -0.         -0.         -0.         -0.00709992 -0.04886652  0.22135712 -0.00229648 -0.         -0.         -0.         -0.          0.45035918
   1.67016411  1.6206081 ]
 [-0.27314413 -0.20022941  0.06284648 -0.         -0.         -0.         -0.         -0.01041502 -0.00677852  0.          0.          0.          0.
   0.          0.          0.          0.          0.01664224  0.48388517  0.5874212  -0.12906879 -0.          0.         -0.          0.          0.3410198
  -0.98344571 -1.66141258]
 [-0.         -0.         -0.         -0.21986635 -0.30792738  0.1671028  -0.37205096  0.          0.          0.02988198  0.00402757 -0.         -0.
  -0.         -0.         -0.0293511   0.01097146 -0.          0.         -0.          0.         -0.77375409  0.21225254  0.80323201 -0.10776633  0.
  -0.         -0.        ]
 [-0.         -0.          0.         -0.30792738  0.21986635  0.37205096  0.1671028  -0.          0.          0.00402757 -0.02988198 -0.         -0.
  -0.          0.         -0.01097146 -0.0293511  -0.         -0.         -0.         -0.         -0.21225254 -0.77375409  0.10776633  0.80323201  0.
   0.          0.        ]
 [ 0.04709673 -0.0982759   0.32865266  0.          0.          0.          0.          0.44519842  0.08923065 -0.         -0.         -0.         -0.
  -0.         -0.         -0.          0.          0.12058933  0.11553191 -0.37673022  0.80566489 -0.         -0.          0.         -0.          0.74624231
  -0.04967082 -0.15104716]
 [-0.         -0.         -0.         -0.23138621 -0.32406118  0.15887493 -0.35373176  0.         -0.          0.00122305  0.00016484  0.         -0.
   0.          0.         -0.00049345  0.00018445  0.         -0.          0.          0.          0.7365842  -0.20205627 -0.84647659  0.11356827 -0.
   0.         -0.        ]
 [-0.         -0.          0.         -0.32406118  0.23138621  0.35373176  0.15887493 -0.          0.          0.00016484 -0.00122305 -0.          0.
  -0.          0.         -0.00018445 -0.00049345 -0.          0.          0.          0.          0.20205627  0.7365842  -0.11356827 -0.84647659 -0.
   0.          0.        ]
 [ 0.09415597 -0.13360406  0.3890778   0.         -0.         -0.          0.          0.33020259  0.00998358  0.          0.          0.          0.
   0.          0.          0.         -0.          0.00083798 -0.01203565  0.27770434 -0.68457372  0.          0.          0.          0.         -1.11986942
   0.04936078  0.33963309]
 [ 0.          0.          0.         -0.          0.         -0.          0.         -0.         -0.          0.          0.         -0.7069207  -0.
   0.70702364  0.01951826  0.         -0.          0.          0.          0.          0.          0.          0.         -0.         -0.         -0.
  -0.          0.        ]
 [ 0.          0.         -0.          0.01375892 -0.00982415  0.01670411  0.00750247 -0.         -0.          0.09402027 -0.69757073 -0.          0.
  -0.          0.          0.24827365  0.66418741  0.          0.         -0.          0.          0.00873804  0.03185401  0.00467793  0.03486674  0.
   0.          0.        ]
 [-0.01613674  0.00766272 -0.04413107 -0.         -0.         -0.          0.          0.09221925  0.69131303 -0.         -0.          0.          0.
   0.          0.         -0.          0.         -0.70520639 -0.03501985  0.00424865 -0.09300798 -0.          0.         -0.          0.          0.17024945
  -0.03809382 -0.01623504]
 [ 0.          0.          0.          0.00982415  0.01375892  0.00750247 -0.01670411  0.          0.          0.69757073  0.09402027  0.         -0.
   0.         -0.          0.66418741 -0.24827365  0.         -0.         -0.         -0.          0.03185401 -0.00873804  0.03486674 -0.00467793  0.
  -0.          0.        ]
 [ 0.          0.          0.         -0.          0.         -0.          0.          0.          0.         -0.          0.          0.         -0.7069207
  -0.01951826  0.70702364  0.         -0.          0.          0.          0.          0.          0.         -0.          0.         -0.         -0.
  -0.         -0.        ]]
C (ortho)
[[-0.85735782 -0.46872366 -0.00603197  0.15256821 -0.12519158 -0.         -0.          0.          0.          0.01683641  0.03639422  0.02037767 -0.01197371
  -0.         -0.          0.         -0.         -0.         -0.         -0.         -0.          0.00277355  0.          0.         -0.06369423  0.
  -0.          0.00424986]
 [ 0.47271466 -0.78623375 -0.06406164  0.28075982  0.0402293  -0.         -0.          0.          0.         -0.20049273 -0.01718958  0.13533122 -0.00747362
   0.         -0.          0.         -0.         -0.         -0.          0.          0.          0.09438816 -0.          0.          0.00319018  0.
   0.         -0.077759  ]
 [ 0.14701527  0.05228315  0.07691597  0.08657008 -0.88190615  0.          0.         -0.         -0.          0.05059477 -0.00505882 -0.00640161  0.0273383
  -0.         -0.          0.         -0.         -0.         -0.         -0.         -0.          0.02160558  0.          0.         -0.42435749  0.
  -0.          0.02375323]
 [ 0.          0.          0.         -0.         -0.         -0.79695862 -0.27764482 -0.10918481 -0.16237746 -0.         -0.         -0.         -0.
   0.0486291   0.03639281 -0.         -0.         -0.         -0.         -0.01789265 -0.01193416  0.         -0.46290835 -0.11757645 -0.         -0.12030715
  -0.05242692  0.        ]
 [-0.         -0.          0.         -0.         -0.          0.27764482 -0.79695862 -0.16237746  0.10918481 -0.         -0.          0.         -0.
  -0.03639281  0.0486291  -0.         -0.          0.          0.         -0.01193416  0.01789265 -0.         -0.11757645  0.46290835 -0.         -0.05242692
   0.12030715  0.        ]
 [ 0.          0.          0.         -0.         -0.         -0.19739207 -0.02727269  0.32057796  0.77102818 -0.          0.         -0.         -0.
  -0.00717582 -0.00341799 -0.          0.          0.         -0.         -0.05332215 -0.05340341 -0.         -0.11078026 -0.05305881 -0.          0.403684
   0.28148048  0.        ]
 [ 0.          0.         -0.          0.          0.         -0.02727269  0.19739207 -0.77102818  0.32057796 -0.         -0.         -0.          0.
  -0.00341799  0.00717582 -0.         -0.         -0.         -0.          0.05340341 -0.05332215  0.          0.05305881 -0.11078026 -0.         -0.28148048
   0.403684   -0.        ]
 [ 0.10591409 -0.10269912 -0.1798927   0.22997059  0.06815743 -0.         -0.          0.          0.          0.79001134  0.00266044  0.03463997  0.00663803
  -0.          0.         -0.          0.          0.          0.         -0.         -0.         -0.20452106  0.         -0.          0.00667365 -0.
  -0.          0.4702121 ]
 [-0.00777214 -0.00584969 -0.01865747 -0.01708752  0.00416078  0.         -0.          0.         -0.         -0.00491367  0.18547583  0.06099264  0.97826049
   0.          0.          0.         -0.         -0.         -0.         -0.          0.          0.04632387 -0.          0.          0.04326909 -0.
   0.          0.00952647]
 [-0.          0.         -0.         -0.         -0.         -0.00546095 -0.01226753 -0.0042367  -0.00069275  0.          0.          0.          0.
  -0.1090786  -0.97344902  0.         -0.         -0.         -0.          0.16724257 -0.03889837 -0.         -0.0869438   0.05548475  0.         -0.01229855
   0.00528382  0.        ]
 [ 0.          0.          0.         -0.         -0.          0.01226753 -0.00546095 -0.00069275  0.0042367  -0.         -0.         -0.         -0.
   0.97344902 -0.1090786   0.         -0.          0.          0.         -0.03889837 -0.16724257 -0.          0.05548475  0.0869438  -0.          0.00528382
   0.01229855  0.        ]
 [-0.          0.         -0.          0.         -0.          0.         -0.          0.         -0.         -0.         -0.         -0.          0.
   0.          0.         -0.77771415  0.00206397 -0.03528183 -0.6276238  -0.         -0.          0.          0.          0.          0.          0.
  -0.         -0.        ]
 [ 0.          0.         -0.         -0.          0.          0.          0.          0.          0.          0.         -0.          0.         -0.
   0.          0.         -0.00206397 -0.77771415 -0.6276238   0.03528183  0.          0.          0.          0.         -0.          0.          0.
  -0.          0.        ]
 [-0.          0.         -0.          0.         -0.         -0.         -0.          0.          0.         -0.         -0.         -0.          0.
   0.         -0.         -0.62832706  0.01901465  0.02220594  0.7773998   0.         -0.          0.          0.         -0.          0.          0.
  -0.         -0.        ]
 [-0.         -0.         -0.          0.         -0.         -0.          0.         -0.          0.         -0.         -0.         -0.          0.
  -0.          0.         -0.01901465 -0.62832706  0.7773998  -0.02220594 -0.          0.          0.         -0.         -0.          0.          0.
  -0.         -0.        ]
 [-0.          0.          0.         -0.         -0.         -0.00205647 -0.00274734  0.01747743  0.00709896 -0.          0.          0.         -0.
   0.0577002   0.16557048  0.          0.          0.         -0.          0.977157   -0.00467076 -0.         -0.04945864  0.01773325  0.          0.10441176
  -0.01922009  0.        ]
 [ 0.          0.         -0.          0.          0.         -0.00274734  0.00205647 -0.00709896  0.01747743  0.          0.          0.         -0.
   0.16557048 -0.0577002  -0.          0.         -0.          0.          0.00467076  0.977157   -0.         -0.01773325 -0.04945864 -0.          0.01922009
   0.10441176 -0.        ]
 [ 0.00801962  0.003685   -0.04060092  0.04655524 -0.00038542  0.         -0.         -0.         -0.         -0.07569888 -0.0469656   0.21350843  0.04463659
  -0.          0.         -0.          0.         -0.          0.         -0.         -0.         -0.91173111  0.         -0.         -0.06718124  0.
  -0.         -0.32376663]
 [ 0.01191408  0.1487713   0.60539219  0.46835367  0.1678664   0.         -0.          0.         -0.         -0.00479654  0.5608612   0.1498916  -0.09011641
  -0.         -0.         -0.          0.          0.         -0.         -0.         -0.          0.00691611  0.          0.         -0.13565173  0.
  -0.          0.00807393]
 [-0.07647869  0.30610644 -0.44304692  0.45507988  0.00784749  0.         -0.          0.         -0.          0.03473015 -0.13579655  0.56277913 -0.0190265
   0.          0.          0.         -0.          0.         -0.          0.          0.          0.27998441 -0.          0.          0.00172635  0.
   0.         -0.28614072]
 [-0.00909782 -0.01927771 -0.15720839 -0.14879135  0.39770482 -0.          0.          0.         -0.         -0.03234405 -0.02884577 -0.00556387  0.03444642
  -0.         -0.         -0.         -0.         -0.         -0.         -0.         -0.          0.05365621  0.          0.         -0.88695239  0.
  -0.          0.04317254]
 [ 0.         -0.          0.          0.          0.          0.25445518  0.41264163  0.11428693  0.03483188  0.         -0.         -0.         -0.
   0.01880019  0.07508457 -0.          0.          0.          0.         -0.03540615  0.00336549 -0.         -0.75660232  0.35090065 -0.         -0.21074715
   0.05878708  0.        ]
 [ 0.          0.          0.         -0.         -0.          0.41264163 -0.25445518 -0.03483188  0.11428693  0.         -0.         -0.          0.
   0.07508457 -0.01880019  0.          0.         -0.         -0.         -0.00336549 -0.03540615  0.         -0.35090065 -0.75660232  0.         -0.05878708
  -0.21074715 -0.        ]
 [ 0.         -0.         -0.          0.          0.          0.04603811  0.10358925 -0.49330679 -0.080355    0.         -0.         -0.         -0.
  -0.00039032 -0.00350245 -0.          0.          0.          0.         -0.08838352  0.02061325 -0.         -0.18428222  0.11776013  0.          0.75816268
  -0.32627325  0.        ]
 [-0.         -0.          0.         -0.         -0.          0.10358925 -0.04603811  0.080355   -0.49330679  0.         -0.         -0.         -0.
  -0.00350245  0.00039032 -0.         -0.          0.         -0.         -0.02061325 -0.08838352 -0.         -0.11776013 -0.18428222 -0.          0.32627325
   0.75816268 -0.        ]
 [-0.04165499  0.08680454 -0.04036086  0.02961124 -0.03261293  0.          0.         -0.         -0.         -0.50244601 -0.09541778  0.35564714 -0.00880365
  -0.         -0.         -0.          0.          0.          0.         -0.         -0.         -0.1397455   0.         -0.          0.03352069 -0.
   0.          0.76051892]
 [ 0.02669296 -0.06961703 -0.43478992 -0.37033652 -0.11279783 -0.          0.         -0.          0.         -0.00450631  0.76735285  0.18250593 -0.17348504
  -0.         -0.         -0.          0.          0.          0.         -0.         -0.         -0.00788607 -0.         -0.          0.05659923 -0.
   0.         -0.00208468]
 [ 0.00103339 -0.14219332  0.42120031 -0.49843651 -0.00951479 -0.          0.         -0.          0.          0.26895978 -0.17311048  0.65704738 -0.01338776
   0.          0.         -0.          0.          0.          0.          0.         -0.          0.12032835 -0.          0.          0.00273726  0.
   0.         -0.07181444]]
[[-0.85735782 -0.46872366 -0.00603197  0.15256821  0.12519158  0.          0.          0.         -0.         -0.01683641  0.03639422  0.02037767 -0.01197371
  -0.         -0.          0.         -0.         -0.         -0.          0.          0.          0.00277355  0.          0.          0.06369423  0.
  -0.         -0.00424986]
 [-0.47271466  0.78623375  0.06406164 -0.28075982  0.0402293   0.         -0.         -0.         -0.         -0.20049273  0.01718958 -0.13533122  0.00747362
   0.         -0.          0.         -0.          0.         -0.          0.          0.         -0.09438816 -0.          0.          0.00319018  0.
  -0.         -0.077759  ]
 [ 0.14701527  0.05228315  0.07691597  0.08657008  0.88190615  0.          0.          0.         -0.         -0.05059477 -0.00505882 -0.00640161  0.0273383
  -0.         -0.         -0.         -0.         -0.         -0.         -0.          0.          0.02160558  0.          0.          0.42435749  0.
  -0.         -0.02375323]
 [ 0.          0.         -0.          0.          0.         -0.19080102 -0.82208555 -0.14021947 -0.13647806  0.          0.         -0.         -0.
  -0.04399899 -0.04187262 -0.         -0.         -0.          0.          0.0117938   0.01798547 -0.         -0.32972532 -0.34552797  0.         -0.12487949
  -0.04034236 -0.        ]
 [ 0.         -0.         -0.          0.          0.         -0.82208555  0.19080102 -0.13647806  0.14021947 -0.          0.         -0.         -0.
  -0.04187262  0.04399899 -0.         -0.         -0.         -0.          0.01798547 -0.0117938   0.         -0.34552797  0.32972532  0.         -0.04034236
   0.12487949 -0.        ]
 [ 0.          0.         -0.          0.          0.          0.00600116  0.19917685 -0.47216408 -0.68870586  0.          0.         -0.         -0.
  -0.00456776 -0.00650467 -0.         -0.         -0.         -0.         -0.02816468 -0.07001377 -0.          0.06566868  0.10380331  0.         -0.429407
  -0.24041977 -0.        ]
 [-0.         -0.          0.         -0.         -0.         -0.19917685  0.00600116  0.68870586 -0.47216408  0.         -0.          0.          0.
   0.00650467 -0.00456776 -0.          0.         -0.          0.          0.07001377 -0.02816468  0.         -0.10380331  0.06566868 -0.          0.24041977
  -0.429407    0.        ]
 [-0.10591409  0.10269912  0.1798927  -0.22997059  0.06815743 -0.         -0.         -0.          0.          0.79001134 -0.00266044 -0.03463997 -0.00663803
  -0.          0.         -0.         -0.         -0.         -0.         -0.         -0.          0.20452106  0.         -0.          0.00667365 -0.
   0.          0.4702121 ]
 [-0.00777214 -0.00584969 -0.01865747 -0.01708752 -0.00416078  0.          0.          0.         -0.          0.00491367  0.18547583  0.06099264  0.97826049
  -0.          0.         -0.         -0.         -0.         -0.         -0.         -0.          0.04632387 -0.         -0.         -0.04326909 -0.
   0.         -0.00952647]
 [ 0.         -0.         -0.          0.          0.         -0.01161298 -0.00674188 -0.00428864  0.00019256 -0.         -0.         -0.          0.
   0.97799992 -0.05492996 -0.          0.         -0.          0.         -0.16912431 -0.02966697  0.         -0.10313636  0.00082008  0.         -0.01171936
   0.0064676  -0.        ]
 [ 0.         -0.          0.         -0.         -0.         -0.00674188  0.01161298  0.00019256  0.00428864 -0.         -0.          0.          0.
  -0.05492996 -0.97799992  0.          0.         -0.          0.         -0.02966697  0.16912431  0.          0.00082008  0.10313636 -0.          0.0064676
   0.01171936  0.        ]
 [-0.          0.         -0.          0.         -0.          0.          0.         -0.          0.          0.          0.         -0.         -0.
   0.         -0.         -0.42090102 -0.65397697 -0.02071334 -0.62827335  0.         -0.         -0.          0.         -0.         -0.          0.
  -0.         -0.        ]
 [-0.          0.          0.          0.          0.          0.          0.         -0.         -0.         -0.          0.         -0.          0.
  -0.          0.         -0.65397697  0.42090102 -0.62827335  0.02071334  0.          0.         -0.          0.         -0.          0.         -0.
   0.         -0.        ]
 [-0.         -0.         -0.          0.         -0.         -0.         -0.         -0.          0.          0.          0.         -0.         -0.
   0.          0.          0.32549019  0.53778488 -0.00416661 -0.77770572  0.         -0.         -0.         -0.         -0.         -0.          0.
  -0.         -0.        ]
 [ 0.         -0.         -0.          0.         -0.         -0.          0.          0.         -0.          0.         -0.          0.         -0.
  -0.          0.          0.53778488 -0.32549019 -0.77770572  0.00416661 -0.         -0.         -0.          0.         -0.         -0.          0.
   0.         -0.        ]
 [ 0.         -0.         -0.         -0.         -0.          0.00251159  0.00233855 -0.01856316 -0.00335633 -0.         -0.         -0.          0.
   0.17287862  0.02925542  0.         -0.          0.          0.          0.90102078  0.37817875  0.          0.05132306  0.0112503  -0.         -0.10201569
   0.02939432 -0.        ]
 [-0.         -0.          0.         -0.         -0.         -0.00233855  0.00251159  0.00335633 -0.01856316  0.         -0.          0.          0.
  -0.02925542  0.17287862 -0.         -0.         -0.         -0.         -0.37817875  0.90102078  0.         -0.0112503   0.05132306 -0.         -0.02939432
  -0.10201569  0.        ]
 [-0.00801962 -0.003685    0.04060092 -0.04655524 -0.00038542  0.         -0.         -0.         -0.         -0.07569888  0.0469656  -0.21350843 -0.04463659
  -0.          0.         -0.         -0.         -0.         -0.         -0.         -0.          0.91173111  0.         -0.         -0.06718124 -0.
  -0.         -0.32376663]
 [ 0.01191408  0.1487713   0.60539219  0.46835367 -0.1678664  -0.         -0.         -0.          0.          0.00479654  0.5608612   0.1498916  -0.09011641
   0.         -0.         -0.         -0.         -0.         -0.          0.          0.          0.00691611  0.          0.          0.13565173  0.
  -0.         -0.00807393]
 [ 0.07647869 -0.30610644  0.44304692 -0.45507988  0.00784749  0.         -0.         -0.          0.          0.03473015  0.13579655 -0.56277913  0.0190265
  -0.         -0.          0.         -0.          0.         -0.         -0.          0.         -0.27998441 -0.          0.          0.00172635  0.
   0.         -0.28614072]
 [-0.00909782 -0.01927771 -0.15720839 -0.14879135 -0.39770482  0.          0.          0.          0.          0.03234405 -0.02884577 -0.00556387  0.03444642
   0.         -0.         -0.         -0.         -0.         -0.         -0.          0.          0.05365621  0.         -0.          0.88695239  0.
  -0.         -0.04317254]
 [-0.          0.          0.          0.         -0.          0.38305489  0.29713549  0.11900539  0.01060563  0.         -0.          0.         -0.
  -0.07716924 -0.00600409 -0.         -0.         -0.         -0.          0.03389852  0.01076164 -0.         -0.82742236 -0.10464502  0.         -0.20394487
   0.07922608 -0.        ]
 [ 0.          0.          0.          0.          0.         -0.29713549  0.38305489 -0.01060563  0.11900539 -0.          0.         -0.         -0.
   0.00600409 -0.07716924 -0.          0.          0.          0.         -0.01076164  0.03389852 -0.          0.10464502 -0.82742236 -0.         -0.07922608
  -0.20394487 -0.        ]
 [-0.          0.          0.         -0.         -0.         -0.09807018 -0.0568549   0.49929175 -0.02272142  0.         -0.          0.         -0.
  -0.00351847  0.00019975  0.         -0.          0.         -0.         -0.08940006 -0.01562632 -0.          0.21868672 -0.00187131  0.         -0.72240387
   0.39924621 -0.        ]
 [-0.          0.          0.          0.          0.          0.0568549  -0.09807018  0.02272142  0.49929175 -0.         -0.          0.         -0.
  -0.00019975 -0.00351847 -0.          0.         -0.          0.          0.01562632 -0.08940006 -0.          0.00187131  0.21868672  0.         -0.39924621
  -0.72240387 -0.        ]
 [ 0.04165499 -0.08680454  0.04036086 -0.02961124 -0.03261293  0.         -0.          0.         -0.         -0.50244601  0.09541778 -0.35564714  0.00880365
  -0.          0.         -0.         -0.         -0.         -0.         -0.         -0.          0.1397455  -0.         -0.          0.03352069 -0.
  -0.          0.76051892]
 [ 0.02669296 -0.06961703 -0.43478992 -0.37033652  0.11279783 -0.          0.          0.          0.          0.00450631  0.76735285  0.18250593 -0.17348504
   0.         -0.          0.          0.          0.          0.          0.          0.         -0.00788607  0.         -0.         -0.05659923  0.
  -0.          0.00208468]
 [-0.00103339  0.14219332 -0.42120031  0.49843651 -0.00951479  0.          0.          0.          0.          0.26895978  0.17311048 -0.65704738  0.01338776
   0.         -0.         -0.         -0.         -0.         -0.          0.          0.         -0.12032835 -0.          0.          0.00273726 -0.
  -0.         -0.07181444]]
grids:  [0.06237655 0.31939555 0.74529195 1.28265786 1.85893479 2.39630071 2.8221971  3.07921611] 
weights:  [0.15900941 0.34931531 0.49276925 0.56970235 0.56970235 0.49276925 0.34931531 0.15900941]
S = 0.0, Sz = 0.0
Wigner small d:  1
value : [1. 1. 1. 1. 1. 1. 1. 1.]
**** Start Cycle 1 ****
dm (ortho)
[[[ 0.73506242 -0.4052856  -0.12604469 ...  0.03571323 -0.02288542 -0.00088598]
  [-0.4052856   0.22345915  0.06949627 ... -0.01969092  0.01261815  0.0004885 ]
  [-0.12604469  0.06949627  0.02161349 ... -0.00612392  0.00392427  0.00015192]
  ...
  [ 0.03571323 -0.01969092 -0.00612392 ...  0.00173514 -0.00111189 -0.00004305]
  [-0.02288542  0.01261815  0.00392427 ... -0.00111189  0.00071251  0.00002758]
  [-0.00088598  0.0004885   0.00015192 ... -0.00004305  0.00002758  0.00000107]]

 [[ 0.73506242  0.4052856  -0.12604469 ... -0.03571323 -0.02288542  0.00088598]
  [ 0.4052856   0.22345915 -0.06949627 ... -0.01969092 -0.01261815  0.0004885 ]
  [-0.12604469 -0.06949627  0.02161349 ...  0.00612392  0.00392427 -0.00015192]
  ...
  [-0.03571323 -0.01969092  0.00612392 ...  0.00173514  0.00111189 -0.00004305]
  [-0.02288542 -0.01261815  0.00392427 ...  0.00111189  0.00071251 -0.00002758]
  [ 0.00088598  0.0004885  -0.00015192 ... -0.00004305 -0.00002758  0.00000107]]]
Fock (ortho)
 (array([[-0.26682624,  0.25168708,  0.24742777,  0.        ,  0.        ,  0.        ,  0.        ,  0.09135075, -0.03520732,  0.        , -0.        ,
        -0.        ,  0.        , -0.        , -0.        ,  0.        ,  0.        ,  0.01490677,  0.12789601,  0.01956909,  0.16905221, -0.        ,
        -0.        , -0.        , -0.        , -0.00779677,  0.06286977, -0.00990288],
       [ 0.25168708,  0.1070961 , -0.08034883,  0.        ,  0.        , -0.        , -0.        , -0.38544028,  0.0045206 ,  0.        , -0.        ,
         0.        ,  0.        ,  0.        , -0.        ,  0.        , -0.        , -0.09985232,  0.08802101,  0.47782812, -0.00549736, -0.        ,
         0.        , -0.        ,  0.        , -0.04594948, -0.00948905,  0.17122026],
       [ 0.24742777, -0.08034883,  1.24450884, -0.        ,  0.        , -0.        , -0.        ,  0.02976043,  0.01330246, -0.        , -0.        ,
        -0.        , -0.        , -0.        , -0.        , -0.        ,  0.        ,  0.005774  ,  0.144124  , -0.01416819,  1.24629746, -0.        ,
        -0.        , -0.        , -0.        , -0.00033775, -0.08777035,  0.00036685],
       [ 0.        ,  0.        , -0.        ,  1.50062434, -0.        , -0.05721053,  0.01147423,  0.        ,  0.        , -0.00595347,  0.00633895,
         0.        ,  0.        , -0.        ,  0.        ,  0.00261773,  0.00176413,  0.        ,  0.        ,  0.        ,  0.        ,  1.04981825,
         0.85415734, -0.00402267, -0.00428834,  0.        ,  0.        ,  0.        ],
       [ 0.        ,  0.        ,  0.        , -0.        ,  1.50062434,  0.01147423,  0.05721053, -0.        , -0.        , -0.00633895, -0.00595347,
        -0.        ,  0.        , -0.        ,  0.        ,  0.00176413, -0.00261773,  0.        ,  0.        ,  0.        , -0.        ,  0.85415734,
        -1.04981825, -0.00428834,  0.00402267, -0.        , -0.        ,  0.        ],
       [ 0.        , -0.        , -0.        , -0.05721053,  0.01147423,  1.67215621,  0.        ,  0.        ,  0.        ,  0.00147983, -0.00238088,
         0.        , -0.        , -0.        , -0.        , -0.01318775, -0.01333473,  0.        , -0.        ,  0.        ,  0.        , -0.00588186,
        -0.00712854,  0.71753656,  1.15599537,  0.        ,  0.        ,  0.        ],
       [ 0.        , -0.        , -0.        ,  0.01147423,  0.05721053,  0.        ,  1.67215621,  0.        , -0.        , -0.00238088, -0.00147983,
         0.        ,  0.        ,  0.        ,  0.        ,  0.01333473, -0.01318775,  0.        , -0.        , -0.        ,  0.        ,  0.00712854,
        -0.00588186, -1.15599537,  0.71753656,  0.        ,  0.        , -0.        ],
       [ 0.09135075, -0.38544028,  0.02976043,  0.        , -0.        ,  0.        ,  0.        ,  1.887625  ,  0.01267015, -0.        , -0.        ,
        -0.        ,  0.        , -0.        , -0.        , -0.        ,  0.        , -0.03837315,  0.04060796, -0.63020885,  0.01191135,  0.        ,
        -0.        ,  0.        , -0.        ,  1.24979472,  0.0001984 , -0.01404285],
       [-0.03520732,  0.0045206 ,  0.01330246,  0.        , -0.        ,  0.        , -0.        ,  0.01267015,  3.29889009,  0.        ,  0.        ,
         0.        ,  0.        ,  0.        ,  0.        ,  0.        , -0.        , -0.02144727, -0.04463714,  0.00059371, -0.03669925, -0.        ,
         0.        , -0.        , -0.        ,  0.00220418, -0.17406053,  0.00016751],
       [ 0.        ,  0.        , -0.        , -0.00595347, -0.00633895,  0.00147983, -0.00238088, -0.        ,  0.        ,  3.40017407,  0.        ,
        -0.        ,  0.        ,  0.        , -0.        ,  0.02324144, -0.00528867,  0.        ,  0.        , -0.        , -0.        ,  0.05633915,
        -0.00758087,  0.00086244,  0.00000052,  0.        ,  0.        ,  0.        ],
       [-0.        , -0.        , -0.        ,  0.00633895, -0.00595347, -0.00238088, -0.00147983, -0.        ,  0.        ,  0.        ,  3.40017407,
         0.        , -0.        , -0.        ,  0.        , -0.00528867, -0.02324144, -0.        , -0.        , -0.        ,  0.        , -0.00758087,
        -0.05633915,  0.00000052, -0.00086244, -0.        , -0.        ,  0.        ],
       [-0.        ,  0.        , -0.        ,  0.        , -0.        ,  0.        ,  0.        , -0.        ,  0.        , -0.        ,  0.        ,
         3.44660484,  0.        , -0.02426216, -0.00066979,  0.        , -0.        ,  0.        , -0.        , -0.        ,  0.        ,  0.        ,
        -0.        ,  0.        , -0.        , -0.        , -0.        ,  0.        ],
       [ 0.        ,  0.        , -0.        ,  0.        ,  0.        , -0.        ,  0.        ,  0.        ,  0.        ,  0.        , -0.        ,
         0.        ,  3.44660484,  0.00066979, -0.02426216, -0.        ,  0.        , -0.        ,  0.        , -0.        , -0.        , -0.        ,
        -0.        ,  0.        ,  0.        , -0.        , -0.        , -0.        ],
       [-0.        ,  0.        , -0.        , -0.        , -0.        , -0.        ,  0.        , -0.        ,  0.        ,  0.        , -0.        ,
        -0.02426216,  0.00066979,  3.45520445, -0.        ,  0.        , -0.        ,  0.        , -0.        , -0.        ,  0.        ,  0.        ,
        -0.        ,  0.        ,  0.        , -0.        , -0.        ,  0.        ],
       [-0.        , -0.        , -0.        ,  0.        ,  0.        , -0.        ,  0.        , -0.        ,  0.        , -0.        ,  0.        ,
        -0.00066979, -0.02426216, -0.        ,  3.45520445,  0.        ,  0.        ,  0.        , -0.        , -0.        ,  0.        , -0.        ,
         0.        , -0.        ,  0.        , -0.        , -0.        ,  0.        ],
       [ 0.        ,  0.        , -0.        ,  0.00261773,  0.00176413, -0.01318775,  0.01333473, -0.        ,  0.        ,  0.02324144, -0.00528867,
         0.        , -0.        ,  0.        ,  0.        ,  3.50220169,  0.        , -0.        , -0.        , -0.        ,  0.        ,  0.0015667 ,
         0.00014137,  0.06833298,  0.01559295, -0.        , -0.        ,  0.        ],
       [ 0.        , -0.        ,  0.        ,  0.00176413, -0.00261773, -0.01333473, -0.01318775,  0.        , -0.        , -0.00528867, -0.02324144,
        -0.        ,  0.        , -0.        ,  0.        ,  0.        ,  3.50220169, -0.        ,  0.        , -0.        ,  0.        , -0.00014137,
         0.0015667 , -0.01559295,  0.06833298, -0.        , -0.        ,  0.        ],
       [ 0.01490677, -0.09985232,  0.005774  ,  0.        ,  0.        ,  0.        ,  0.        , -0.03837315, -0.02144727,  0.        , -0.        ,
         0.        , -0.        ,  0.        ,  0.        , -0.        , -0.        ,  3.60201353,  0.01102869, -0.16843572,  0.00542607,  0.        ,
        -0.        ,  0.        , -0.        , -0.37528769,  0.00150232,  0.05241507],
       [ 0.12789601,  0.08802101,  0.144124  ,  0.        ,  0.        , -0.        , -0.        ,  0.04060796, -0.04463714,  0.        , -0.        ,
        -0.        ,  0.        , -0.        , -0.        , -0.        ,  0.        ,  0.01102869,  1.19527443,  0.04550053,  0.40165887, -0.        ,
        -0.        , -0.        , -0.        ,  0.01757907,  0.95560936,  0.01056558],
       [ 0.01956909,  0.47782812, -0.01416819,  0.        ,  0.        ,  0.        , -0.        , -0.63020885,  0.00059371, -0.        , -0.        ,
        -0.        , -0.        , -0.        , -0.        , -0.        , -0.        , -0.16843572,  0.04550053,  1.69169068, -0.01460082,  0.        ,
        -0.        ,  0.        , -0.        , -0.54087669,  0.01773271,  1.07785043],
       [ 0.16905221, -0.00549736,  1.24629746,  0.        , -0.        ,  0.        ,  0.        ,  0.01191135, -0.03669925, -0.        ,  0.        ,
         0.        , -0.        ,  0.        ,  0.        ,  0.        ,  0.        ,  0.00542607,  0.40165887, -0.01460082,  3.24232898, -0.        ,
         0.        ,  0.        , -0.        ,  0.01286653, -0.25424802, -0.00211188],
       [-0.        , -0.        , -0.        ,  1.04981825,  0.85415734, -0.00588186,  0.00712854,  0.        , -0.        ,  0.05633915, -0.00758087,
         0.        , -0.        ,  0.        , -0.        ,  0.0015667 , -0.00014137,  0.        , -0.        ,  0.        , -0.        ,  3.05739953,
        -0.        , -0.02036053, -0.00275222,  0.        , -0.        , -0.        ],
       [-0.        ,  0.        , -0.        ,  0.85415734, -1.04981825, -0.00712854, -0.00588186, -0.        ,  0.        , -0.00758087, -0.05633915,
        -0.        , -0.        , -0.        ,  0.        ,  0.00014137,  0.0015667 , -0.        , -0.        , -0.        ,  0.        , -0.        ,
         3.05739953,  0.00275222, -0.02036053, -0.        ,  0.        ,  0.        ],
       [-0.        , -0.        , -0.        , -0.00402267, -0.00428834,  0.71753656, -1.15599537,  0.        , -0.        ,  0.00086244,  0.00000052,
         0.        ,  0.        ,  0.        , -0.        ,  0.06833298, -0.01559295,  0.        , -0.        ,  0.        ,  0.        , -0.02036053,
         0.00275222,  3.12748521,  0.        ,  0.        , -0.        , -0.        ],
       [-0.        ,  0.        , -0.        , -0.00428834,  0.00402267,  1.15599537,  0.71753656, -0.        , -0.        ,  0.00000052, -0.00086244,
        -0.        ,  0.        ,  0.        ,  0.        ,  0.01559295,  0.06833298, -0.        , -0.        , -0.        , -0.        , -0.00275222,
        -0.02036053,  0.        ,  3.12748521,  0.        ,  0.        ,  0.        ],
       [-0.00779677, -0.04594948, -0.00033775,  0.        , -0.        ,  0.        ,  0.        ,  1.24979472,  0.00220418,  0.        , -0.        ,
        -0.        , -0.        , -0.        , -0.        , -0.        , -0.        , -0.37528769,  0.01757907, -0.54087669,  0.01286653,  0.        ,
        -0.        ,  0.        ,  0.        ,  3.25271012,  0.00967914,  0.18873542],
       [ 0.06286977, -0.00948905, -0.08777035,  0.        , -0.        ,  0.        ,  0.        ,  0.0001984 , -0.17406053,  0.        , -0.        ,
        -0.        , -0.        , -0.        , -0.        , -0.        , -0.        ,  0.00150232,  0.95560936,  0.01773271, -0.25424802, -0.        ,
         0.        , -0.        ,  0.        ,  0.00967914,  1.77493388,  0.01530544],
       [-0.00990288,  0.17122026,  0.00036685,  0.        ,  0.        ,  0.        , -0.        , -0.01404285,  0.00016751,  0.        ,  0.        ,
         0.        , -0.        ,  0.        ,  0.        ,  0.        ,  0.        ,  0.05241507,  0.01056558,  1.07785043, -0.00211188, -0.        ,
         0.        , -0.        ,  0.        ,  0.18873542,  0.01530544,  1.53781431]]), array([[-0.26682624, -0.25168708,  0.24742777,  0.        ,  0.        ,  0.        , -0.        , -0.09135075, -0.03520732,  0.        , -0.        ,
        -0.        , -0.        , -0.        ,  0.        ,  0.        , -0.        , -0.01490677,  0.12789601, -0.01956909,  0.16905221, -0.        ,
        -0.        ,  0.        , -0.        ,  0.00779677,  0.06286977,  0.00990288],
       [-0.25168708,  0.1070961 ,  0.08034883,  0.        ,  0.        ,  0.        , -0.        , -0.38544028, -0.0045206 ,  0.        , -0.        ,
         0.        , -0.        , -0.        ,  0.        ,  0.        , -0.        , -0.09985232, -0.08802101,  0.47782812,  0.00549736, -0.        ,
         0.        , -0.        ,  0.        , -0.04594948,  0.00948905,  0.17122026],
       [ 0.24742777,  0.08034883,  1.24450884, -0.        ,  0.        , -0.        , -0.        , -0.02976043,  0.01330246, -0.        , -0.        ,
        -0.        ,  0.        , -0.        , -0.        , -0.        ,  0.        , -0.005774  ,  0.144124  ,  0.01416819,  1.24629746, -0.        ,
        -0.        , -0.        , -0.        ,  0.00033775, -0.08777035, -0.00036685],
       [ 0.        ,  0.        , -0.        ,  1.50062434,  0.        ,  0.05721053, -0.01147423,  0.        ,  0.        , -0.00595347,  0.00633895,
         0.        ,  0.        , -0.        ,  0.        , -0.00261773, -0.00176413,  0.        ,  0.        ,  0.        ,  0.        ,  1.04981825,
         0.85415734,  0.00402267,  0.00428834,  0.        ,  0.        ,  0.        ],
       [ 0.        ,  0.        ,  0.        ,  0.        ,  1.50062434, -0.01147423, -0.05721053, -0.        , -0.        , -0.00633895, -0.00595347,
        -0.        ,  0.        , -0.        ,  0.        , -0.00176413,  0.00261773, -0.        ,  0.        ,  0.        , -0.        ,  0.85415734,
        -1.04981825,  0.00428834, -0.00402267, -0.        , -0.        ,  0.        ],
       [ 0.        ,  0.        , -0.        ,  0.05721053, -0.01147423,  1.67215621,  0.        ,  0.        ,  0.        , -0.00147983,  0.00238088,
         0.        , -0.        , -0.        , -0.        , -0.01318775, -0.01333473,  0.        , -0.        ,  0.        ,  0.        ,  0.00588186,
         0.00712854,  0.71753656,  1.15599537,  0.        ,  0.        ,  0.        ],
       [-0.        , -0.        , -0.        , -0.01147423, -0.05721053,  0.        ,  1.67215621,  0.        , -0.        ,  0.00238088,  0.00147983,
         0.        ,  0.        ,  0.        ,  0.        ,  0.01333473, -0.01318775,  0.        , -0.        , -0.        ,  0.        , -0.00712854,
         0.00588186, -1.15599537,  0.71753656,  0.        ,  0.        , -0.        ],
       [-0.09135075, -0.38544028, -0.02976043,  0.        , -0.        ,  0.        ,  0.        ,  1.887625  , -0.01267015, -0.        ,  0.        ,
        -0.        , -0.        , -0.        , -0.        , -0.        ,  0.        , -0.03837315, -0.04060796, -0.63020885, -0.01191135,  0.        ,
        -0.        ,  0.        , -0.        ,  1.24979472, -0.0001984 , -0.01404285],
       [-0.03520732, -0.0045206 ,  0.01330246,  0.        , -0.        ,  0.        , -0.        , -0.01267015,  3.29889009,  0.        ,  0.        ,
         0.        , -0.        ,  0.        ,  0.        ,  0.        , -0.        ,  0.02144727, -0.04463714, -0.00059371, -0.03669925, -0.        ,
         0.        , -0.        , -0.        , -0.00220418, -0.17406053, -0.00016751],
       [ 0.        ,  0.        , -0.        , -0.00595347, -0.00633895, -0.00147983,  0.00238088, -0.        ,  0.        ,  3.40017407, -0.        ,
        -0.        ,  0.        , -0.        ,  0.        , -0.02324144,  0.00528867, -0.        ,  0.        , -0.        , -0.        ,  0.05633915,
        -0.00758087, -0.00086244, -0.00000052,  0.        ,  0.        ,  0.        ],
       [-0.        , -0.        , -0.        ,  0.00633895, -0.00595347,  0.00238088,  0.00147983,  0.        ,  0.        , -0.        ,  3.40017407,
        -0.        ,  0.        , -0.        ,  0.        ,  0.00528867,  0.02324144, -0.        , -0.        , -0.        ,  0.        , -0.00758087,
        -0.05633915, -0.00000052,  0.00086244, -0.        , -0.        ,  0.        ],
       [-0.        ,  0.        , -0.        ,  0.        , -0.        ,  0.        ,  0.        , -0.        ,  0.        , -0.        , -0.        ,
         3.44660484, -0.        ,  0.02426216,  0.00066979,  0.        ,  0.        ,  0.        , -0.        , -0.        ,  0.        ,  0.        ,
        -0.        ,  0.        , -0.        , -0.        , -0.        ,  0.        ],
       [-0.        , -0.        ,  0.        ,  0.        ,  0.        , -0.        ,  0.        , -0.        , -0.        ,  0.        ,  0.        ,
        -0.        ,  3.44660484, -0.00066979,  0.02426216,  0.        ,  0.        , -0.        , -0.        , -0.        ,  0.        , -0.        ,
        -0.        ,  0.        ,  0.        ,  0.        ,  0.        ,  0.        ],
       [-0.        , -0.        , -0.        , -0.        , -0.        , -0.        ,  0.        , -0.        ,  0.        , -0.        , -0.        ,
         0.02426216, -0.00066979,  3.45520445,  0.        ,  0.        , -0.        ,  0.        , -0.        , -0.        ,  0.        ,  0.        ,
        -0.        ,  0.        ,  0.        , -0.        , -0.        ,  0.        ],
       [ 0.        ,  0.        , -0.        ,  0.        ,  0.        , -0.        ,  0.        , -0.        ,  0.        ,  0.        ,  0.        ,
         0.00066979,  0.02426216,  0.        ,  3.45520445, -0.        , -0.        ,  0.        , -0.        , -0.        ,  0.        , -0.        ,
         0.        , -0.        ,  0.        , -0.        , -0.        ,  0.        ],
       [ 0.        ,  0.        , -0.        , -0.00261773, -0.00176413, -0.01318775,  0.01333473, -0.        ,  0.        , -0.02324144,  0.00528867,
         0.        ,  0.        ,  0.        , -0.        ,  3.50220169,  0.        , -0.        , -0.        , -0.        ,  0.        , -0.0015667 ,
        -0.00014137,  0.06833298,  0.01559295, -0.        , -0.        ,  0.        ],
       [-0.        , -0.        ,  0.        , -0.00176413,  0.00261773, -0.01333473, -0.01318775,  0.        , -0.        ,  0.00528867,  0.02324144,
         0.        ,  0.        , -0.        , -0.        ,  0.        ,  3.50220169, -0.        , -0.        , -0.        ,  0.        ,  0.00014137,
        -0.0015667 , -0.01559295,  0.06833298, -0.        , -0.        ,  0.        ],
       [-0.01490677, -0.09985232, -0.005774  ,  0.        , -0.        ,  0.        ,  0.        , -0.03837315,  0.02144727, -0.        , -0.        ,
         0.        , -0.        ,  0.        ,  0.        , -0.        , -0.        ,  3.60201353, -0.01102869, -0.16843572, -0.00542607,  0.        ,
        -0.        ,  0.        , -0.        , -0.37528769, -0.00150232,  0.05241507],
       [ 0.12789601, -0.08802101,  0.144124  ,  0.        ,  0.        , -0.        , -0.        , -0.04060796, -0.04463714,  0.        , -0.        ,
        -0.        , -0.        , -0.        , -0.        , -0.        , -0.        , -0.01102869,  1.19527443, -0.04550053,  0.40165887, -0.        ,
        -0.        ,  0.        , -0.        , -0.01757907,  0.95560936, -0.01056558],
       [-0.01956909,  0.47782812,  0.01416819,  0.        ,  0.        ,  0.        , -0.        , -0.63020885, -0.00059371, -0.        , -0.        ,
        -0.        , -0.        , -0.        , -0.        , -0.        , -0.        , -0.16843572, -0.04550053,  1.69169068,  0.01460082,  0.        ,
        -0.        ,  0.        , -0.        , -0.54087669, -0.01773271,  1.07785043],
       [ 0.16905221,  0.00549736,  1.24629746,  0.        , -0.        ,  0.        ,  0.        , -0.01191135, -0.03669925, -0.        ,  0.        ,
         0.        ,  0.        ,  0.        ,  0.        ,  0.        ,  0.        , -0.00542607,  0.40165887,  0.01460082,  3.24232898, -0.        ,
         0.        , -0.        , -0.        , -0.01286653, -0.25424802,  0.00211188],
       [-0.        , -0.        , -0.        ,  1.04981825,  0.85415734,  0.00588186, -0.00712854,  0.        , -0.        ,  0.05633915, -0.00758087,
         0.        , -0.        ,  0.        , -0.        , -0.0015667 ,  0.00014137,  0.        , -0.        ,  0.        , -0.        ,  3.05739953,
        -0.        ,  0.02036053,  0.00275222,  0.        , -0.        , -0.        ],
       [-0.        ,  0.        , -0.        ,  0.85415734, -1.04981825,  0.00712854,  0.00588186, -0.        ,  0.        , -0.00758087, -0.05633915,
        -0.        , -0.        , -0.        ,  0.        , -0.00014137, -0.0015667 , -0.        , -0.        , -0.        ,  0.        , -0.        ,
         3.05739953, -0.00275222,  0.02036053,  0.        ,  0.        ,  0.        ],
       [ 0.        , -0.        , -0.        ,  0.00402267,  0.00428834,  0.71753656, -1.15599537,  0.        , -0.        , -0.00086244, -0.00000052,
         0.        ,  0.        ,  0.        , -0.        ,  0.06833298, -0.01559295,  0.        ,  0.        ,  0.        , -0.        ,  0.02036053,
        -0.00275222,  3.12748521,  0.        ,  0.        , -0.        , -0.        ],
       [-0.        ,  0.        , -0.        ,  0.00428834, -0.00402267,  1.15599537,  0.71753656, -0.        , -0.        , -0.00000052,  0.00086244,
        -0.        ,  0.        ,  0.        ,  0.        ,  0.01559295,  0.06833298, -0.        , -0.        , -0.        , -0.        ,  0.00275222,
         0.02036053,  0.        ,  3.12748521,  0.        ,  0.        ,  0.        ],
       [ 0.00779677, -0.04594948,  0.00033775,  0.        , -0.        ,  0.        ,  0.        ,  1.24979472, -0.00220418,  0.        , -0.        ,
        -0.        ,  0.        , -0.        , -0.        , -0.        , -0.        , -0.37528769, -0.01757907, -0.54087669, -0.01286653,  0.        ,
         0.        ,  0.        ,  0.        ,  3.25271012, -0.00967914,  0.18873542],
       [ 0.06286977,  0.00948905, -0.08777035,  0.        , -0.        ,  0.        ,  0.        , -0.0001984 , -0.17406053,  0.        , -0.        ,
        -0.        ,  0.        , -0.        , -0.        , -0.        , -0.        , -0.00150232,  0.95560936, -0.01773271, -0.25424802, -0.        ,
         0.        , -0.        ,  0.        , -0.00967914,  1.77493388, -0.01530544],
       [ 0.00990288,  0.17122026, -0.00036685,  0.        ,  0.        ,  0.        , -0.        , -0.01404285, -0.00016751,  0.        ,  0.        ,
         0.        ,  0.        ,  0.        ,  0.        ,  0.        ,  0.        ,  0.05241507, -0.01056558,  1.07785043,  0.00211188, -0.        ,
         0.        , -0.        ,  0.        ,  0.18873542, -0.01530544,  1.53781431]]))
E(UHF) =    -1.261025
NO eigenvalue
[-1. -0. -0. -0. -0. -0. -0. -0. -0. -0. -0. -0.  0.  0.  0.  0.  0.  0.  0.  0.  0.  0.  0.  0.  0.  0.  0.  0.] [-1. -0. -0. -0. -0. -0. -0. -0. -0. -0. -0. -0. -0. -0. -0. -0.  0.  0.  0.  0.  0.  0.  0.  0.  0.  0.  0.  0.]
NO vec
[[ 0.85735782  0.         -0.44867261 ...  0.          0.          0.        ]
 [-0.47271466  0.         -0.70290462 ...  0.          0.          0.        ]
 [-0.14701527  0.         -0.50968029 ...  0.          0.          0.        ]
 ...
 [ 0.         -0.04165499  0.         ... -0.14150765  0.20719976 -0.14952947]
 [ 0.         -0.02669296  0.         ...  0.67871505 -0.15060895 -0.15286027]
 [ 0.          0.00103339  0.         ... -0.00250979  0.04474948  0.01864728]]
dm(NO)
[[ 1.  0.  0. ...  0.  0.  0.]
 [ 0.  1.  0. ...  0.  0. -0.]
 [ 0.  0.  0. ...  0.  0.  0.]
 ...
 [ 0.  0.  0. ...  0. -0.  0.]
 [ 0.  0.  0. ... -0. -0.  0.]
 [ 0. -0.  0. ... -0.  0.  0.]]
D(g) (NO)
[[ 0.99951369  0.01607018  0.         ...  0.00298821  0.00303121  0.00531218]
 [-0.01607018  0.99951369  0.01926863 ...  0.          0.         -0.        ]
 [ 0.         -0.01926863  0.99951369 ...  0.00244262 -0.00826529  0.00800864]
 ...
 [-0.00298821  0.         -0.00244262 ...  0.99951369 -0.          0.        ]
 [-0.00303121  0.          0.00826529 ... -0.          0.99951369 -0.        ]
 [-0.00531218 -0.         -0.00800864 ...  0.         -0.          0.99951369]]
...
N(g) (NO)
[[ 1.00022799 -0.01608167]
 [ 0.01608167  1.00022799]]
...
P(g) (NO)
[[ 1.          0.          0.         ...  0.          0.         -0.        ]
 [-0.          1.         -0.         ...  0.          0.         -0.        ]
 [-0.00030987 -0.01927303 -0.         ... -0.         -0.          0.        ]
 ...
 [-0.0029889   0.00004806 -0.         ...  0.          0.         -0.        ]
 [-0.0030319   0.00004875 -0.         ...  0.          0.         -0.        ]
 [-0.00531339  0.00008543 -0.         ...  0.          0.         -0.        ]]
...
Pg_ortho
[[ 0.73524107 -0.40538411 -0.12607533 ... -0.00053986 -0.00034595  0.00001339]
 [-0.40497762  0.22328934  0.06944346 ... -0.00093068 -0.00059639  0.00002309]
 [-0.12607533  0.06951317  0.02161874 ...  0.00009257  0.00005932 -0.0000023 ]
 ...
 [-0.00168796  0.00093068  0.00028944 ...  0.00173382  0.00111105 -0.00004301]
 [ 0.00034595 -0.00019074 -0.00005932 ...  0.00111217  0.00071269 -0.00002759]
 [ 0.00004188 -0.00002309 -0.00000718 ... -0.00004301 -0.00002756  0.00000107]]
G(g) (NO)
[[ 0.30301589 -0.00209836 -0.08807096 ... -0.00011145  0.00034161  0.00083988]
 [ 0.00209836  0.30301589  0.00107554 ... -0.0234497  -0.00400805 -0.01227065]
 [-0.0879838   0.01133232  0.86155921 ...  0.00038127 -0.00151365 -0.00278253]
 ...
 [ 0.00062885 -0.02345123  0.00037749 ...  0.74832265 -0.08709929  0.04420232]
 [-0.00156686 -0.0040218  -0.00203265 ... -0.08709791  0.87999233 -0.02547555]
 [ 0.00476777 -0.01229972  0.0002621  ...  0.04420937 -0.02548069  0.83698976]]
...
C(NO)
[[-1.          0.          0.         ...  0.          0.          0.        ]
 [ 0.         -1.          0.         ... -0.         -0.          0.        ]
 [-0.          0.          0.6645516  ...  0.          0.          0.        ]
 ...
 [ 0.         -0.          0.         ...  0.          0.         -0.32456602]
 [ 0.         -0.          0.         ...  0.         -0.          0.04123267]
 [ 0.          0.          0.         ... -0.         -0.         -0.36652797]]
detC 0.9999999999999987
detNg [1.00071465 1.01892286 1.10784999 1.35659395 1.89235388 2.75532684 3.51921757 3.75520882]
xg [0.99928586 0.98142856 0.90264928 0.73714025 0.52844239 0.36293335 0.28415407 0.26629678]
ciS 1.2655826332986777
[[-0.78200356  0.          0.06046928 ...  0.          0.          0.        ]
 [ 0.         -0.78200356  0.         ...  0.01999218  0.00451492  0.02068491]
 [ 0.06046928  0.         -0.14808285 ...  0.          0.          0.        ]
 ...
 [ 0.          0.01999218  0.         ...  1.20478429 -0.41982442  0.19796221]
 [ 0.          0.00451492  0.         ... -0.41982442  1.23627666  0.07898758]
 [ 0.          0.02068491  0.         ...  0.19796221  0.07898758  0.74147014]]
ciH -1.6027585046752568
S2 = -0.000000
X(g)
[[ 2.          0.         -0.00030987 ...  0.0029889   0.0030319   0.00531339]
 [-0.          2.          0.01927303 ...  0.00004806  0.00004875  0.00008543]
 [-0.00030987 -0.01927303  0.         ...  0.          0.          0.        ]
 ...
 [-0.0029889   0.00004806  0.         ...  0.          0.          0.        ]
 [-0.0030319   0.00004875  0.         ...  0.          0.          0.        ]
 [-0.00531339  0.00008543  0.         ...  0.          0.          0.        ]]
X(g) int
[[ 2.          0.         -0.25161663 ...  0.05946895  0.06032453  0.10571853]
 [-0.          2.          0.38346823 ...  0.03902116  0.03958256  0.0693683 ]
 [-0.25161663 -0.38346823  0.         ...  0.          0.          0.        ]
 ...
 [-0.05946895  0.03902116  0.         ...  0.          0.          0.        ]
 [-0.06032453  0.03958256  0.         ...  0.          0.          0.        ]
 [-0.10571853  0.0693683   0.         ...  0.          0.          0.        ]]
Hsp + Hph =  -1.2664194834103777
Feff (mod,ortho)
[[-0.24803404  0.26360425  0.24290889 ...  0.          0.          0.        ]
 [ 0.26360425  0.08824191 -0.08167749 ...  0.          0.          0.        ]
 [ 0.24290889 -0.08167749  1.24550603 ...  0.          0.          0.        ]
 ...
 [ 0.          0.          0.         ...  3.25281593 -0.0095722   0.18865552]
 [ 0.          0.          0.         ... -0.0095722   1.7750275  -0.01535761]
 [ 0.          0.          0.         ...  0.18865552 -0.01535761  1.53781821]]
E(SUHF) =     -1.00183088
e_a, e_b
[-0.48407681  0.05434776  0.36805385  0.48093809  0.67800354  0.70543064  0.70543064  0.86739676  0.86739676  1.15950019  2.44076658  2.63358572  3.33225806
  3.39125133  3.39125133  3.42625532  3.42625532  3.47555398  3.47555398  3.50198273  3.50198273  3.59198625  3.83418903  3.83418903  3.9330585   3.95979056
  3.95979056  4.37963799] [-0.48407681  0.05434776  0.36805385  0.48093809  0.67800354  0.70543064  0.70543064  0.86739676  0.86739676  1.15950019  2.44076658  2.63358572  3.33225806
  3.39125133  3.39125133  3.42625532  3.42625532  3.47555398  3.47555398  3.50198273  3.50198273  3.59198625  3.83418903  3.83418903  3.9330585   3.95979056
  3.95979056  4.37963799]
P_a, P_b
[[ 0.65770686 -0.44093027 -0.11761941 -0.          0.         -0.         -0.         -0.10167413  0.006366    0.         -0.         -0.         -0.
  -0.          0.          0.         -0.         -0.00814729 -0.01663647  0.0656939   0.01006032 -0.         -0.         -0.         -0.          0.03833898
  -0.01614266  0.0024595 ]
 [-0.44093027  0.29560207  0.0788527   0.         -0.          0.          0.          0.06816289 -0.0042678  -0.          0.          0.          0.
   0.         -0.         -0.          0.          0.00546199  0.01115318 -0.04404155 -0.00674449  0.          0.          0.          0.         -0.02570266
   0.01082213 -0.00164886]
 [-0.11761941  0.0788527   0.02103418  0.         -0.          0.          0.          0.01818265 -0.00113845 -0.          0.          0.          0.
   0.         -0.         -0.          0.          0.001457    0.00297514 -0.01174821 -0.00179911  0.          0.          0.          0.         -0.00685626
   0.00288683 -0.00043984]
 [-0.          0.          0.          0.         -0.          0.          0.          0.         -0.         -0.          0.          0.          0.
   0.         -0.         -0.          0.          0.          0.         -0.         -0.          0.          0.          0.          0.         -0.
   0.         -0.        ]
 [ 0.         -0.         -0.         -0.          0.         -0.         -0.         -0.          0.          0.         -0.         -0.         -0.
  -0.          0.          0.         -0.         -0.         -0.          0.          0.         -0.         -0.         -0.         -0.          0.
  -0.          0.        ]
 [-0.          0.          0.          0.         -0.          0.          0.          0.         -0.         -0.          0.          0.          0.
   0.         -0.         -0.          0.          0.          0.         -0.         -0.          0.          0.          0.          0.         -0.
   0.         -0.        ]
 [-0.          0.          0.          0.         -0.          0.          0.          0.         -0.         -0.          0.          0.          0.
   0.         -0.         -0.          0.          0.          0.         -0.         -0.          0.          0.          0.          0.         -0.
   0.         -0.        ]
 [-0.10167413  0.06816289  0.01818265  0.         -0.          0.          0.          0.01571768 -0.00098411 -0.          0.          0.          0.
   0.         -0.         -0.          0.          0.00125948  0.00257181 -0.01015554 -0.00155521  0.          0.          0.          0.         -0.00592678
   0.00249547 -0.00038021]
 [ 0.006366   -0.0042678  -0.00113845 -0.          0.         -0.         -0.         -0.00098411  0.00006162  0.         -0.         -0.         -0.
  -0.          0.          0.         -0.         -0.00007886 -0.00016103  0.00063586  0.00009737 -0.         -0.         -0.         -0.          0.00037109
  -0.00015625  0.00002381]
 [ 0.         -0.         -0.         -0.          0.         -0.         -0.         -0.          0.          0.         -0.         -0.         -0.
  -0.          0.          0.         -0.         -0.         -0.          0.          0.         -0.         -0.         -0.         -0.          0.
  -0.          0.        ]
 [-0.          0.          0.          0.         -0.          0.          0.          0.         -0.         -0.          0.          0.          0.
   0.         -0.         -0.          0.          0.          0.         -0.         -0.          0.          0.          0.          0.         -0.
   0.         -0.        ]
 [-0.          0.          0.          0.         -0.          0.          0.          0.         -0.         -0.          0.          0.          0.
   0.         -0.         -0.          0.          0.          0.         -0.         -0.          0.          0.          0.          0.         -0.
   0.         -0.        ]
 [-0.          0.          0.          0.         -0.          0.          0.          0.         -0.         -0.          0.          0.          0.
   0.         -0.         -0.          0.          0.          0.         -0.         -0.          0.          0.          0.          0.         -0.
   0.         -0.        ]
 [-0.          0.          0.          0.         -0.          0.          0.          0.         -0.         -0.          0.          0.          0.
   0.         -0.         -0.          0.          0.          0.         -0.         -0.          0.          0.          0.          0.         -0.
   0.         -0.        ]
 [ 0.         -0.         -0.         -0.          0.         -0.         -0.         -0.          0.          0.         -0.         -0.         -0.
  -0.          0.          0.         -0.         -0.         -0.          0.          0.         -0.         -0.         -0.         -0.          0.
  -0.          0.        ]
 [ 0.         -0.         -0.         -0.          0.         -0.         -0.         -0.          0.          0.         -0.         -0.         -0.
  -0.          0.          0.         -0.         -0.         -0.          0.          0.         -0.         -0.         -0.         -0.          0.
  -0.          0.        ]
 [-0.          0.          0.          0.         -0.          0.          0.          0.         -0.         -0.          0.          0.          0.
   0.         -0.         -0.          0.          0.          0.         -0.         -0.          0.          0.          0.          0.         -0.
   0.         -0.        ]
 [-0.00814729  0.00546199  0.001457    0.         -0.          0.          0.          0.00125948 -0.00007886 -0.          0.          0.          0.
   0.         -0.         -0.          0.          0.00010092  0.00020608 -0.00081378 -0.00012462  0.          0.          0.          0.         -0.00047492
   0.00019997 -0.00003047]
 [-0.01663647  0.01115318  0.00297514  0.         -0.          0.          0.          0.00257181 -0.00016103 -0.          0.          0.          0.
   0.         -0.         -0.          0.          0.00020608  0.00042081 -0.0016617  -0.00025447  0.          0.          0.          0.         -0.00096977
   0.00040832 -0.00006221]
 [ 0.0656939  -0.04404155 -0.01174821 -0.          0.         -0.         -0.         -0.01015554  0.00063586  0.         -0.         -0.         -0.
  -0.          0.          0.         -0.         -0.00081378 -0.0016617   0.00656172  0.00100486 -0.         -0.         -0.         -0.          0.00382942
  -0.00161238  0.00024566]
 [ 0.01006032 -0.00674449 -0.00179911 -0.          0.         -0.         -0.         -0.00155521  0.00009737  0.         -0.         -0.         -0.
  -0.          0.          0.         -0.         -0.00012462 -0.00025447  0.00100486  0.00015388 -0.         -0.         -0.         -0.          0.00058644
  -0.00024692  0.00003762]
 [-0.          0.          0.          0.         -0.          0.          0.          0.         -0.         -0.          0.          0.          0.
   0.         -0.         -0.          0.          0.          0.         -0.         -0.          0.          0.          0.          0.         -0.
   0.         -0.        ]
 [-0.          0.          0.          0.         -0.          0.          0.          0.         -0.         -0.          0.          0.          0.
   0.         -0.         -0.          0.          0.          0.         -0.         -0.          0.          0.          0.          0.         -0.
   0.         -0.        ]
 [-0.          0.          0.          0.         -0.          0.          0.          0.         -0.         -0.          0.          0.          0.
   0.         -0.         -0.          0.          0.          0.         -0.         -0.          0.          0.          0.          0.         -0.
   0.         -0.        ]
 [-0.          0.          0.          0.         -0.          0.          0.          0.         -0.         -0.          0.          0.          0.
   0.         -0.         -0.          0.          0.          0.         -0.         -0.          0.          0.          0.          0.         -0.
   0.         -0.        ]
 [ 0.03833898 -0.02570266 -0.00685626 -0.          0.         -0.         -0.         -0.00592678  0.00037109  0.         -0.         -0.         -0.
  -0.          0.          0.         -0.         -0.00047492 -0.00096977  0.00382942  0.00058644 -0.         -0.         -0.         -0.          0.00223485
  -0.00094099  0.00014337]
 [-0.01614266  0.01082213  0.00288683  0.         -0.          0.          0.          0.00249547 -0.00015625 -0.          0.          0.          0.
   0.         -0.         -0.          0.          0.00019997  0.00040832 -0.00161238 -0.00024692  0.          0.          0.          0.         -0.00094099
   0.0003962  -0.00006037]
 [ 0.0024595  -0.00164886 -0.00043984 -0.          0.         -0.         -0.         -0.00038021  0.00002381  0.         -0.         -0.         -0.
  -0.          0.          0.         -0.         -0.00003047 -0.00006221  0.00024566  0.00003762 -0.         -0.         -0.         -0.          0.00014337
  -0.00006037  0.0000092 ]] 
 [[ 0.65770686  0.44093027 -0.11761941  0.          0.         -0.          0.          0.10167413  0.006366   -0.         -0.         -0.          0.
  -0.         -0.         -0.          0.          0.00814729 -0.01663647 -0.0656939   0.01006032  0.         -0.          0.          0.         -0.03833898
  -0.01614266 -0.0024595 ]
 [ 0.44093027  0.29560207 -0.0788527   0.          0.         -0.          0.          0.06816289  0.0042678  -0.         -0.         -0.          0.
  -0.         -0.         -0.          0.          0.00546199 -0.01115318 -0.04404155  0.00674449  0.         -0.          0.          0.         -0.02570266
  -0.01082213 -0.00164886]
 [-0.11761941 -0.0788527   0.02103418 -0.         -0.          0.         -0.         -0.01818265 -0.00113845  0.          0.          0.         -0.
   0.          0.          0.         -0.         -0.001457    0.00297514  0.01174821 -0.00179911 -0.          0.         -0.         -0.          0.00685626
   0.00288683  0.00043984]
 [ 0.          0.         -0.          0.          0.         -0.          0.          0.          0.         -0.         -0.         -0.          0.
  -0.         -0.         -0.          0.          0.         -0.         -0.          0.          0.         -0.          0.          0.         -0.
  -0.         -0.        ]
 [ 0.          0.         -0.          0.          0.         -0.          0.          0.          0.         -0.         -0.         -0.          0.
  -0.         -0.         -0.          0.          0.         -0.         -0.          0.          0.         -0.          0.          0.         -0.
  -0.         -0.        ]
 [-0.         -0.          0.         -0.         -0.          0.         -0.         -0.         -0.          0.          0.          0.         -0.
   0.          0.          0.         -0.         -0.          0.          0.         -0.         -0.          0.         -0.         -0.          0.
   0.          0.        ]
 [ 0.          0.         -0.          0.          0.         -0.          0.          0.          0.         -0.         -0.         -0.          0.
  -0.         -0.         -0.          0.          0.         -0.         -0.          0.          0.         -0.          0.          0.         -0.
  -0.         -0.        ]
 [ 0.10167413  0.06816289 -0.01818265  0.          0.         -0.          0.          0.01571768  0.00098411 -0.         -0.         -0.          0.
  -0.         -0.         -0.          0.          0.00125948 -0.00257181 -0.01015554  0.00155521  0.         -0.          0.          0.         -0.00592678
  -0.00249547 -0.00038021]
 [ 0.006366    0.0042678  -0.00113845  0.          0.         -0.          0.          0.00098411  0.00006162 -0.         -0.         -0.          0.
  -0.         -0.         -0.          0.          0.00007886 -0.00016103 -0.00063586  0.00009737  0.         -0.          0.          0.         -0.00037109
  -0.00015625 -0.00002381]
 [-0.         -0.          0.         -0.         -0.          0.         -0.         -0.         -0.          0.          0.          0.         -0.
   0.          0.          0.         -0.         -0.          0.          0.         -0.         -0.          0.         -0.         -0.          0.
   0.          0.        ]
 [-0.         -0.          0.         -0.         -0.          0.         -0.         -0.         -0.          0.          0.          0.         -0.
   0.          0.          0.         -0.         -0.          0.          0.         -0.         -0.          0.         -0.         -0.          0.
   0.          0.        ]
 [-0.         -0.          0.         -0.         -0.          0.         -0.         -0.         -0.          0.          0.          0.         -0.
   0.          0.          0.         -0.         -0.          0.          0.         -0.         -0.          0.         -0.         -0.          0.
   0.          0.        ]
 [ 0.          0.         -0.          0.          0.         -0.          0.          0.          0.         -0.         -0.         -0.          0.
  -0.         -0.         -0.          0.          0.         -0.         -0.          0.          0.         -0.          0.          0.         -0.
  -0.         -0.        ]
 [-0.         -0.          0.         -0.         -0.          0.         -0.         -0.         -0.          0.          0.          0.         -0.
   0.          0.          0.         -0.         -0.          0.          0.         -0.         -0.          0.         -0.         -0.          0.
   0.          0.        ]
 [-0.         -0.          0.         -0.         -0.          0.         -0.         -0.         -0.          0.          0.          0.         -0.
   0.          0.          0.         -0.         -0.          0.          0.         -0.         -0.          0.         -0.         -0.          0.
   0.          0.        ]
 [-0.         -0.          0.         -0.         -0.          0.         -0.         -0.         -0.          0.          0.          0.         -0.
   0.          0.          0.         -0.         -0.          0.          0.         -0.         -0.          0.         -0.         -0.          0.
   0.          0.        ]
 [ 0.          0.         -0.          0.          0.         -0.          0.          0.          0.         -0.         -0.         -0.          0.
  -0.         -0.         -0.          0.          0.         -0.         -0.          0.          0.         -0.          0.          0.         -0.
  -0.         -0.        ]
 [ 0.00814729  0.00546199 -0.001457    0.          0.         -0.          0.          0.00125948  0.00007886 -0.         -0.         -0.          0.
  -0.         -0.         -0.          0.          0.00010092 -0.00020608 -0.00081378  0.00012462  0.         -0.          0.          0.         -0.00047492
  -0.00019997 -0.00003047]
 [-0.01663647 -0.01115318  0.00297514 -0.         -0.          0.         -0.         -0.00257181 -0.00016103  0.          0.          0.         -0.
   0.          0.          0.         -0.         -0.00020608  0.00042081  0.0016617  -0.00025447 -0.          0.         -0.         -0.          0.00096977
   0.00040832  0.00006221]
 [-0.0656939  -0.04404155  0.01174821 -0.         -0.          0.         -0.         -0.01015554 -0.00063586  0.          0.          0.         -0.
   0.          0.          0.         -0.         -0.00081378  0.0016617   0.00656172 -0.00100486 -0.          0.         -0.         -0.          0.00382942
   0.00161238  0.00024566]
 [ 0.01006032  0.00674449 -0.00179911  0.          0.         -0.          0.          0.00155521  0.00009737 -0.         -0.         -0.          0.
  -0.         -0.         -0.          0.          0.00012462 -0.00025447 -0.00100486  0.00015388  0.         -0.          0.          0.         -0.00058644
  -0.00024692 -0.00003762]
 [ 0.          0.         -0.          0.          0.         -0.          0.          0.          0.         -0.         -0.         -0.          0.
  -0.         -0.         -0.          0.          0.         -0.         -0.          0.          0.         -0.          0.          0.         -0.
  -0.         -0.        ]
 [-0.         -0.          0.         -0.         -0.          0.         -0.         -0.         -0.          0.          0.          0.         -0.
   0.          0.          0.         -0.         -0.          0.          0.         -0.         -0.          0.         -0.         -0.          0.
   0.          0.        ]
 [ 0.          0.         -0.          0.          0.         -0.          0.          0.          0.         -0.         -0.         -0.          0.
  -0.         -0.         -0.          0.          0.         -0.         -0.          0.          0.         -0.          0.          0.         -0.
  -0.         -0.        ]
 [ 0.          0.         -0.          0.          0.         -0.          0.          0.          0.         -0.         -0.         -0.          0.
  -0.         -0.         -0.          0.          0.         -0.         -0.          0.          0.         -0.          0.          0.         -0.
  -0.         -0.        ]
 [-0.03833898 -0.02570266  0.00685626 -0.         -0.          0.         -0.         -0.00592678 -0.00037109  0.          0.          0.         -0.
   0.          0.          0.         -0.         -0.00047492  0.00096977  0.00382942 -0.00058644 -0.          0.         -0.         -0.          0.00223485
   0.00094099  0.00014337]
 [-0.01614266 -0.01082213  0.00288683 -0.         -0.          0.         -0.         -0.00249547 -0.00015625  0.          0.          0.         -0.
   0.          0.          0.         -0.         -0.00019997  0.00040832  0.00161238 -0.00024692 -0.          0.         -0.         -0.          0.00094099
   0.0003962   0.00006037]
 [-0.0024595  -0.00164886  0.00043984 -0.         -0.          0.         -0.         -0.00038021 -0.00002381  0.          0.          0.         -0.
   0.          0.          0.         -0.         -0.00003047  0.00006221  0.00024566 -0.00003762 -0.          0.         -0.         -0.          0.00014337
[...]
 [ 0.66115501 -0.25362561  0.         ...  0.          0.          0.        ]]
Hsp + Hph =  -1.2821437529870958
Feff (mod,ortho)
[[-0.23008173  0.28433005  0.24868596 ...  0.          0.          0.        ]
 [ 0.28433005  0.08486003 -0.0930351  ...  0.          0.          0.        ]
 [ 0.24868596 -0.0930351   1.25058202 ...  0.          0.          0.        ]
 ...
 [ 0.          0.          0.         ...  3.25528494 -0.01104103  0.18835227]
 [ 0.          0.          0.         ... -0.01104103  1.77961742 -0.01758829]
 [ 0.          0.          0.         ...  0.18835227 -0.01758829  1.5421736 ]]
E(SUHF) =     -1.01755515
e_a, e_b
[-0.49848301  0.06867066  0.36373398  0.4930613   0.68102277  0.70673059  0.70673059  0.8725507   0.8725507   1.16308722  2.44519637  2.6480714   3.33994215
  3.39750577  3.39750577  3.4305335   3.4305335   3.48624068  3.48624068  3.50891088  3.50891088  3.59601066  3.84097009  3.84097009  3.94170214  3.97424755
  3.97424755  4.39096147] [-0.49848301  0.06867066  0.36373398  0.4930613   0.68102277  0.70673059  0.70673059  0.8725507   0.8725507   1.16308722  2.44519637  2.6480714   3.33994215
  3.39750577  3.39750577  3.4305335   3.4305335   3.48624068  3.48624068  3.50891088  3.50891088  3.59601066  3.84097009  3.84097009  3.94170214  3.97424755
  3.97424755  4.39096147]
P_a, P_b
[[ 0.6272108  -0.44929948 -0.11881246 -0.          0.         -0.         -0.         -0.10965457  0.0064949   0.          0.         -0.         -0.
  -0.         -0.          0.         -0.         -0.00936977 -0.00452045  0.05920575  0.01079029 -0.          0.         -0.         -0.          0.03958121
  -0.02008206  0.00804615]
 [-0.44929948  0.32185355  0.08511074  0.         -0.          0.          0.          0.07855053 -0.00465259 -0.         -0.          0.          0.
   0.          0.         -0.          0.          0.00671199  0.0032382  -0.04241176 -0.00772957  0.         -0.          0.          0.         -0.02835382
   0.01438569 -0.00576382]
 [-0.11881246  0.08511074  0.02250663  0.         -0.          0.          0.          0.02077185 -0.00123033 -0.         -0.          0.          0.
   0.          0.         -0.          0.          0.00177491  0.00085631 -0.01121534 -0.002044    0.         -0.          0.          0.         -0.00749786
   0.00380414 -0.00152418]
 [-0.          0.          0.          0.         -0.          0.          0.          0.         -0.         -0.         -0.          0.          0.
   0.          0.         -0.          0.          0.          0.         -0.         -0.          0.         -0.          0.          0.         -0.
   0.         -0.        ]
 [ 0.         -0.         -0.         -0.          0.         -0.         -0.         -0.          0.          0.          0.         -0.         -0.
  -0.         -0.          0.         -0.         -0.         -0.          0.          0.         -0.          0.         -0.         -0.          0.
  -0.          0.        ]
 [-0.          0.          0.          0.         -0.          0.          0.          0.         -0.         -0.         -0.          0.          0.
   0.          0.         -0.          0.          0.          0.         -0.         -0.          0.         -0.          0.          0.         -0.
   0.         -0.        ]
 [-0.          0.          0.          0.         -0.          0.          0.          0.         -0.         -0.         -0.          0.          0.
   0.          0.         -0.          0.          0.          0.         -0.         -0.          0.         -0.          0.          0.         -0.
   0.         -0.        ]
 [-0.10965457  0.07855053  0.02077185  0.         -0.          0.          0.          0.01917079 -0.0011355  -0.         -0.          0.          0.
   0.          0.         -0.          0.          0.00163811  0.00079031 -0.01035088 -0.00188645  0.         -0.          0.          0.         -0.00691994
   0.00351092 -0.0014067 ]
 [ 0.0064949  -0.00465259 -0.00123033 -0.          0.         -0.         -0.         -0.0011355   0.00006726  0.          0.         -0.         -0.
  -0.         -0.          0.         -0.         -0.00009703 -0.00004681  0.00061309  0.00011174 -0.          0.         -0.         -0.          0.00040987
  -0.00020795  0.00008332]
 [ 0.         -0.         -0.         -0.          0.         -0.         -0.         -0.          0.          0.          0.         -0.         -0.
  -0.         -0.          0.         -0.         -0.         -0.          0.          0.         -0.          0.         -0.         -0.          0.
  -0.          0.        ]
 [ 0.         -0.         -0.         -0.          0.         -0.         -0.         -0.          0.          0.          0.         -0.         -0.
  -0.         -0.          0.         -0.         -0.         -0.          0.          0.         -0.          0.         -0.         -0.          0.
  -0.          0.        ]
 [-0.          0.          0.          0.         -0.          0.          0.          0.         -0.         -0.         -0.          0.          0.
   0.          0.         -0.          0.          0.          0.         -0.         -0.          0.         -0.          0.          0.         -0.
   0.         -0.        ]
 [-0.          0.          0.          0.         -0.          0.          0.          0.         -0.         -0.         -0.          0.          0.
   0.          0.         -0.          0.          0.          0.         -0.         -0.          0.         -0.          0.          0.         -0.
   0.         -0.        ]
 [-0.          0.          0.          0.         -0.          0.          0.          0.         -0.         -0.         -0.          0.          0.
   0.          0.         -0.          0.          0.          0.         -0.         -0.          0.         -0.          0.          0.         -0.
   0.         -0.        ]
 [-0.          0.          0.          0.         -0.          0.          0.          0.         -0.         -0.         -0.          0.          0.
   0.          0.         -0.          0.          0.          0.         -0.         -0.          0.         -0.          0.          0.         -0.
   0.         -0.        ]
 [ 0.         -0.         -0.         -0.          0.         -0.         -0.         -0.          0.          0.          0.         -0.         -0.
  -0.         -0.          0.         -0.         -0.         -0.          0.          0.         -0.          0.         -0.         -0.          0.
  -0.          0.        ]
 [-0.          0.          0.          0.         -0.          0.          0.          0.         -0.         -0.         -0.          0.          0.
   0.          0.         -0.          0.          0.          0.         -0.         -0.          0.         -0.          0.          0.         -0.
   0.         -0.        ]
 [-0.00936977  0.00671199  0.00177491  0.         -0.          0.          0.          0.00163811 -0.00009703 -0.         -0.          0.          0.
   0.          0.         -0.          0.          0.00013997  0.00006753 -0.00088446 -0.00016119  0.         -0.          0.          0.         -0.0005913
   0.0003     -0.0001202 ]
 [-0.00452045  0.0032382   0.00085631  0.         -0.          0.          0.          0.00079031 -0.00004681 -0.         -0.          0.          0.
   0.          0.         -0.          0.          0.00006753  0.00003258 -0.00042671 -0.00007777  0.         -0.          0.          0.         -0.00028527
   0.00014474 -0.00005799]
 [ 0.05920575 -0.04241176 -0.01121534 -0.          0.         -0.         -0.         -0.01035088  0.00061309  0.          0.         -0.         -0.
  -0.         -0.          0.         -0.         -0.00088446 -0.00042671  0.00558874  0.00101855 -0.          0.         -0.         -0.          0.00373628
  -0.00189565  0.00075952]
 [ 0.01079029 -0.00772957 -0.002044   -0.          0.         -0.         -0.         -0.00188645  0.00011174  0.          0.         -0.         -0.
  -0.         -0.          0.         -0.         -0.00016119 -0.00007777  0.00101855  0.00018563 -0.          0.         -0.         -0.          0.00068094
  -0.00034548  0.00013842]
 [-0.          0.          0.          0.         -0.          0.          0.          0.         -0.         -0.         -0.          0.          0.
   0.          0.         -0.          0.          0.          0.         -0.         -0.          0.         -0.          0.          0.         -0.
   0.         -0.        ]
 [ 0.         -0.         -0.         -0.          0.         -0.         -0.         -0.          0.          0.          0.         -0.         -0.
  -0.         -0.          0.         -0.         -0.         -0.          0.          0.         -0.          0.         -0.         -0.          0.
  -0.          0.        ]
 [-0.          0.          0.          0.         -0.          0.          0.          0.         -0.         -0.         -0.          0.          0.
   0.          0.         -0.          0.          0.          0.         -0.         -0.          0.         -0.          0.          0.         -0.
   0.         -0.        ]
 [-0.          0.          0.          0.         -0.          0.          0.          0.         -0.         -0.         -0.          0.          0.
   0.          0.         -0.          0.          0.          0.         -0.         -0.          0.         -0.          0.          0.         -0.
   0.         -0.        ]
 [ 0.03958121 -0.02835382 -0.00749786 -0.          0.         -0.         -0.         -0.00691994  0.00040987  0.          0.         -0.         -0.
  -0.         -0.          0.         -0.         -0.0005913  -0.00028527  0.00373628  0.00068094 -0.          0.         -0.         -0.          0.00249784
  -0.00126731  0.00050777]
 [-0.02008206  0.01438569  0.00380414  0.         -0.          0.          0.          0.00351092 -0.00020795 -0.         -0.          0.          0.
   0.          0.         -0.          0.          0.0003      0.00014474 -0.00189565 -0.00034548  0.         -0.          0.          0.         -0.00126731
   0.00064299 -0.00025762]
 [ 0.00804615 -0.00576382 -0.00152418 -0.          0.         -0.         -0.         -0.0014067   0.00008332  0.          0.         -0.         -0.
  -0.         -0.          0.         -0.         -0.0001202  -0.00005799  0.00075952  0.00013842 -0.          0.         -0.         -0.          0.00050777
  -0.00025762  0.00010322]] 
 [[ 0.6272108   0.44929948 -0.11881246  0.          0.         -0.          0.          0.10965457  0.0064949  -0.         -0.         -0.          0.
  -0.         -0.         -0.         -0.          0.00936977 -0.00452045 -0.05920575  0.01079029  0.         -0.          0.         -0.         -0.03958121
  -0.02008206 -0.00804615]
 [ 0.44929948  0.32185355 -0.08511074  0.          0.         -0.          0.          0.07855053  0.00465259 -0.         -0.         -0.          0.
  -0.         -0.         -0.         -0.          0.00671199 -0.0032382  -0.04241176  0.00772957  0.         -0.          0.         -0.         -0.02835382
  -0.01438569 -0.00576382]
 [-0.11881246 -0.08511074  0.02250663 -0.         -0.          0.         -0.         -0.02077185 -0.00123033  0.          0.          0.         -0.
   0.          0.          0.          0.         -0.00177491  0.00085631  0.01121534 -0.002044   -0.          0.         -0.          0.          0.00749786
   0.00380414  0.00152418]
 [ 0.          0.         -0.          0.          0.         -0.          0.          0.          0.         -0.         -0.         -0.          0.
  -0.         -0.         -0.         -0.          0.         -0.         -0.          0.          0.         -0.          0.         -0.         -0.
  -0.         -0.        ]
 [ 0.          0.         -0.          0.          0.         -0.          0.          0.          0.         -0.         -0.         -0.          0.
  -0.         -0.         -0.         -0.          0.         -0.         -0.          0.          0.         -0.          0.         -0.         -0.
  -0.         -0.        ]
 [-0.         -0.          0.         -0.         -0.          0.         -0.         -0.         -0.          0.          0.          0.         -0.
   0.          0.          0.          0.         -0.          0.          0.         -0.         -0.          0.         -0.          0.          0.
   0.          0.        ]
 [ 0.          0.         -0.          0.          0.         -0.          0.          0.          0.         -0.         -0.         -0.          0.
  -0.         -0.         -0.         -0.          0.         -0.         -0.          0.          0.         -0.          0.         -0.         -0.
  -0.         -0.        ]
 [ 0.10965457  0.07855053 -0.02077185  0.          0.         -0.          0.          0.01917079  0.0011355  -0.         -0.         -0.          0.
  -0.         -0.         -0.         -0.          0.00163811 -0.00079031 -0.01035088  0.00188645  0.         -0.          0.         -0.         -0.00691994
  -0.00351092 -0.0014067 ]
 [ 0.0064949   0.00465259 -0.00123033  0.          0.         -0.          0.          0.0011355   0.00006726 -0.         -0.         -0.          0.
  -0.         -0.         -0.         -0.          0.00009703 -0.00004681 -0.00061309  0.00011174  0.         -0.          0.         -0.         -0.00040987
  -0.00020795 -0.00008332]
 [-0.         -0.          0.         -0.         -0.          0.         -0.         -0.         -0.          0.          0.          0.         -0.
   0.          0.          0.          0.         -0.          0.          0.         -0.         -0.          0.         -0.          0.          0.
   0.          0.        ]
 [-0.         -0.          0.         -0.         -0.          0.         -0.         -0.         -0.          0.          0.          0.         -0.
   0.          0.          0.          0.         -0.          0.          0.         -0.         -0.          0.         -0.          0.          0.
   0.          0.        ]
 [-0.         -0.          0.         -0.         -0.          0.         -0.         -0.         -0.          0.          0.          0.         -0.
   0.          0.          0.          0.         -0.          0.          0.         -0.         -0.          0.         -0.          0.          0.
   0.          0.        ]
 [ 0.          0.         -0.          0.          0.         -0.          0.          0.          0.         -0.         -0.         -0.          0.
  -0.         -0.         -0.         -0.          0.         -0.         -0.          0.          0.         -0.          0.         -0.         -0.
  -0.         -0.        ]
 [-0.         -0.          0.         -0.         -0.          0.         -0.         -0.         -0.          0.          0.          0.         -0.
   0.          0.          0.          0.         -0.          0.          0.         -0.         -0.          0.         -0.          0.          0.
   0.          0.        ]
 [-0.         -0.          0.         -0.         -0.          0.         -0.         -0.         -0.          0.          0.          0.         -0.
   0.          0.          0.          0.         -0.          0.          0.         -0.         -0.          0.         -0.          0.          0.
   0.          0.        ]
 [-0.         -0.          0.         -0.         -0.          0.         -0.         -0.         -0.          0.          0.          0.         -0.
   0.          0.          0.          0.         -0.          0.          0.         -0.         -0.          0.         -0.          0.          0.
   0.          0.        ]
 [-0.         -0.          0.         -0.         -0.          0.         -0.         -0.         -0.          0.          0.          0.         -0.
   0.          0.          0.          0.         -0.          0.          0.         -0.         -0.          0.         -0.          0.          0.
   0.          0.        ]
 [ 0.00936977  0.00671199 -0.00177491  0.          0.         -0.          0.          0.00163811  0.00009703 -0.         -0.         -0.          0.
  -0.         -0.         -0.         -0.          0.00013997 -0.00006753 -0.00088446  0.00016119  0.         -0.          0.         -0.         -0.0005913
  -0.0003     -0.0001202 ]
 [-0.00452045 -0.0032382   0.00085631 -0.         -0.          0.         -0.         -0.00079031 -0.00004681  0.          0.          0.         -0.
   0.          0.          0.          0.         -0.00006753  0.00003258  0.00042671 -0.00007777 -0.          0.         -0.          0.          0.00028527
   0.00014474  0.00005799]
 [-0.05920575 -0.04241176  0.01121534 -0.         -0.          0.         -0.         -0.01035088 -0.00061309  0.          0.          0.         -0.
   0.          0.          0.          0.         -0.00088446  0.00042671  0.00558874 -0.00101855 -0.          0.         -0.          0.          0.00373628
   0.00189565  0.00075952]
 [ 0.01079029  0.00772957 -0.002044    0.          0.         -0.          0.          0.00188645  0.00011174 -0.         -0.         -0.          0.
  -0.         -0.         -0.         -0.          0.00016119 -0.00007777 -0.00101855  0.00018563  0.         -0.          0.         -0.         -0.00068094
  -0.00034548 -0.00013842]
 [ 0.          0.         -0.          0.          0.         -0.          0.          0.          0.         -0.         -0.         -0.          0.
  -0.         -0.         -0.         -0.          0.         -0.         -0.          0.          0.         -0.          0.         -0.         -0.
  -0.         -0.        ]
 [-0.         -0.          0.         -0.         -0.          0.         -0.         -0.         -0.          0.          0.          0.         -0.
   0.          0.          0.          0.         -0.          0.          0.         -0.         -0.          0.         -0.          0.          0.
   0.          0.        ]
 [ 0.          0.         -0.          0.          0.         -0.          0.          0.          0.         -0.         -0.         -0.          0.
  -0.         -0.         -0.         -0.          0.         -0.         -0.          0.          0.         -0.          0.         -0.         -0.
  -0.         -0.        ]
 [-0.         -0.          0.         -0.         -0.          0.         -0.         -0.         -0.          0.          0.          0.         -0.
   0.          0.          0.          0.         -0.          0.          0.         -0.         -0.          0.         -0.          0.          0.
   0.          0.        ]
 [-0.03958121 -0.02835382  0.00749786 -0.         -0.          0.         -0.         -0.00691994 -0.00040987  0.          0.          0.         -0.
   0.          0.          0.          0.         -0.0005913   0.00028527  0.00373628 -0.00068094 -0.          0.         -0.          0.          0.00249784
   0.00126731  0.00050777]
 [-0.02008206 -0.01438569  0.00380414 -0.         -0.          0.         -0.         -0.00351092 -0.00020795  0.          0.          0.         -0.
   0.          0.          0.          0.         -0.0003      0.00014474  0.00189565 -0.00034548 -0.          0.         -0.          0.          0.00126731
   0.00064299  0.00025762]
 [-0.00804615 -0.00576382  0.00152418 -0.         -0.          0.         -0.         -0.0014067  -0.00008332  0.          0.          0.         -0.
   0.          0.          0.          0.         -0.0001202   0.00005799  0.00075952 -0.00013842 -0.          0.         -0.          0.          0.00050777
   0.00025762  0.00010322]]

***************
SUHF converged at cycle 10
Final E(SUHF) =     -1.01755515, delta E = -3.71195e-09
