#INFO: **** input file is /share/home/srwang/ExSCF/test/pytest/scan_h2/scan_suhf.py ****
#import phf
from pyscf import lib
#import scipy
import numpy as np
import sys, os, contextlib

from pyphf import util, sudft

#xyz = 'h2.xyz' #sys.argv[1]
fch = 'test_uhf.fchk' #sys.argv[2]
#bas = '../h2.bas'
bas = 'cc-pvtz'

lib.num_threads(8)

for r in np.arange(0.5, 2.55, 0.1):
    output = 'suhf/suhf_%.1f_diis.out' % r
    os.system("echo '\n' > %s" % output)
    with open(output, 'w', encoding='utf-8') as f:
        with contextlib.redirect_stdout(f):
            xyz = '''H 0.0 0.0 0.0; H 0.0 0.0 %f'''%r
            mf = util.guess_from_fchk(xyz, bas, fch)
            #mf = util.guess(xyz, bas)
            #f.flush()
            mf2 = util.SUHF(mf)
            #mf2.cut_no = False
            mf2.debug = False
            #mf2.max_cycle = 50
            mf2.diis_on = True
            #mf2.output = 'sudft_%.1f.out'%r
            mf2.kernel()
            
            #mf3 = sudft.SUDFT(mf2)
            #mf3.suxc = 'TPSS'
            #mf3.kernel()
                    
#INFO: ******************** input file end ********************


System: uname_result(system='Linux', node='xcluster', release='3.10.0-693.el7.x86_64', version='#1 SMP Thu Jul 6 19:56:57 EDT 2017', machine='x86_64', processor='x86_64')  Threads 8
Python 3.7.4 (default, Aug 13 2019, 20:35:49) 
[GCC 7.3.0]
numpy 1.17.2  scipy 1.4.1
Date: Mon Nov 23 19:28:27 2020
PySCF version 1.7.5
PySCF path  /share/home/srwang/pyscf-1.7.5/pyscf

[CONFIG] conf_file None
[INPUT] verbose = 4
[INPUT] num. atoms = 2
[INPUT] num. electrons = 2
[INPUT] charge = 0
[INPUT] spin (= nelec alpha-beta = 2S) = 0
[INPUT] symmetry False subgroup None
[INPUT] Mole.unit = angstrom
[INPUT]  1 H      0.000000000000   0.000000000000   0.000000000000 AA    0.000000000000   0.000000000000   0.000000000000 Bohr
[INPUT]  2 H      0.000000000000   0.000000000000   2.500000000000 AA    0.000000000000   0.000000000000   4.724315311413 Bohr

nuclear repulsion = 0.211670884368
number of shells = 12
number of NR pGTOs = 32
number of NR cGTOs = 28
basis = cc-pvtz
ecp = {}
CPU time:       904.74


******** <class 'pyscf.scf.uhf.UHF'> ********
method = UHF
initial guess = minao
damping factor = 0
level_shift factor = 0
DIIS = <class 'pyscf.scf.diis.CDIIS'>
diis_start_cycle = 1
diis_space = 8
SCF conv_tol = 1e-09
SCF conv_tol_grad = None
SCF max_cycles = 1
direct_scf = True
direct_scf_tol = 1e-13
chkfile to save SCF result = /share/home/srwang/ExSCF/test/pytest/scan_h2/tmpq38pwb3n
max_memory 4000 MB (current use 125 MB)
number electrons alpha = 1  beta = 1
Set gradient conv threshold to 3.16228e-05
init E= -0.646700926845351
  alpha nocc = 1  HOMO = -0.22131151988519  LUMO = -0.14121355857127
  beta  nocc = 1  HOMO = -0.220137379647341  LUMO = -0.141198757274923
cycle= 1 E= -0.868563401086861  delta_E= -0.222  |g|= 0.0301  |ddm|= 0.478
SCF not converged.
SCF energy = -0.868563401086861 after 1 cycles  <S^2> = 2.0416086e-07  2S+1 = 1.0000004


******** <class 'pyscf.scf.uhf.UHF'> ********
method = UHF
initial guess = minao
damping factor = 0
level_shift factor = 0
DIIS = <class 'pyscf.scf.diis.CDIIS'>
diis_start_cycle = 1
diis_space = 8
SCF conv_tol = 1e-09
SCF conv_tol_grad = None
SCF max_cycles = 1
direct_scf = True
direct_scf_tol = 1e-13
chkfile to save SCF result = /share/home/srwang/ExSCF/test/pytest/scan_h2/tmpq38pwb3n
max_memory 4000 MB (current use 125 MB)
number electrons alpha = 1  beta = 1
Set gradient conv threshold to 3.16228e-05
init E= -0.840094878579984
  alpha nocc = 1  HOMO = -0.492871857587344  LUMO = -0.0537265882752798
  beta  nocc = 1  HOMO = -0.492871857587343  LUMO = -0.0537265882752798
cycle= 1 E= -0.992249757588292  delta_E= -0.152  |g|= 0.0545  |ddm|= 0.145
SCF not converged.
SCF energy = -0.992249757588292 after 1 cycles  <S^2> = 0.87560705  2S+1 = 2.1218926

******** <class 'pyphf.util.SUHF'> ********
max_cycle = 70
verbose: normal
DIIS: <class 'pyscf.scf.diis.CDIIS'>
diis_start_cyc = 40
SVD: S^(-1/2)
[[-0.20205771  0.28311907 -0.06184368  0.          0.         -0.          0.         -0.0821489  -0.02758206 -0.         -0.         -0.          0.
  -0.         -0.          0.         -0.          0.02295308  0.64877926  0.67691077 -0.1252541  -0.          0.         -0.         -0.          0.30744335
   0.8611045  -0.765406  ]
 [-0.27041782  0.32166393 -0.05322004  0.          0.         -0.          0.         -0.06614758 -0.00869628  0.          0.          0.         -0.
   0.          0.         -0.          0.          0.00683035  0.03798886 -0.17295189  0.04816337  0.         -0.          0.          0.         -0.21860091
  -1.66392189  1.67791651]
 [-0.28257173  0.22719528 -0.01322823 -0.          0.         -0.         -0.         -0.00192688  0.01454029 -0.         -0.         -0.          0.
  -0.         -0.          0.         -0.         -0.01458139 -0.50777997 -0.6019399   0.10156172 -0.          0.          0.         -0.         -0.17879485
   0.98918377 -1.47536455]
 [ 0.          0.          0.          0.0346281   0.38891566 -0.39643369  0.0021828   0.          0.         -0.00393043  0.00002819 -0.          0.
   0.         -0.          0.00394027  0.00003736  0.          0.         -0.         -0.          0.67212342  0.44111414  0.76046306 -0.27201878 -0.
  -0.          0.        ]
 [ 0.         -0.         -0.          0.38891566 -0.0346281   0.0021828   0.39643369  0.          0.         -0.00002819 -0.00393043  0.          0.
  -0.         -0.         -0.00003736  0.00394027  0.          0.          0.         -0.         -0.44111414  0.67212342 -0.27201878 -0.76046306 -0.
  -0.          0.        ]
 [-0.02755132 -0.04702734  0.36839541  0.          0.          0.          0.         -0.41151098 -0.0262196  -0.          0.         -0.         -0.
  -0.          0.          0.          0.          0.0216735   0.13232866 -0.26205603  0.78771982  0.          0.          0.         -0.          0.77681007
   0.03120678  0.13244426]
 [-0.         -0.          0.          0.03500098  0.39310352 -0.39221304  0.00215956  0.          0.         -0.00000985  0.00000007  0.          0.
   0.         -0.          0.00000769  0.00000007 -0.         -0.          0.          0.         -0.66498363 -0.4364283  -0.76867035  0.27495455  0.
  -0.         -0.        ]
 [-0.         -0.         -0.          0.39310352 -0.03500098  0.00215956  0.39221304  0.         -0.         -0.00000007 -0.00000985  0.          0.
   0.         -0.         -0.00000007  0.00000769 -0.          0.         -0.          0.          0.4364283  -0.66498363  0.27495455  0.76867035  0.
   0.         -0.        ]
 [-0.05150178 -0.06842431  0.39613735  0.          0.         -0.          0.         -0.37585708 -0.00088146 -0.         -0.          0.          0.
   0.         -0.          0.         -0.         -0.00062863 -0.03481262  0.17147393 -0.74287824 -0.         -0.         -0.          0.         -0.87980369
  -0.08492267 -0.26653331]
 [ 0.          0.         -0.         -0.          0.         -0.          0.         -0.          0.          0.         -0.          0.70710412  0.
   0.70710945 -0.         -0.         -0.          0.         -0.          0.          0.         -0.          0.          0.         -0.          0.
  -0.          0.        ]
 [-0.         -0.         -0.          0.00216752 -0.00019299 -0.00001219 -0.00221329 -0.          0.          0.00507094  0.70701751 -0.         -0.
   0.          0.         -0.00670432  0.70712426  0.         -0.          0.          0.         -0.00244615  0.00372719  0.00151276  0.00422912  0.
  -0.          0.        ]
 [-0.00649876 -0.00623711  0.0113874  -0.         -0.          0.         -0.          0.0155584   0.70535076 -0.          0.         -0.          0.
  -0.          0.          0.          0.          0.70649268  0.04118124 -0.02455159  0.02195534  0.         -0.         -0.          0.         -0.03617871
  -0.00617925 -0.02610542]
 [-0.         -0.          0.          0.00019299  0.00216752  0.00221329 -0.00001219  0.          0.          0.70701751 -0.00507094  0.         -0.
   0.          0.          0.70712426  0.00670432  0.          0.         -0.         -0.          0.00372719  0.00244615 -0.00422912  0.00151276 -0.
  -0.          0.        ]
 [ 0.          0.          0.          0.         -0.         -0.         -0.          0.          0.         -0.         -0.          0.         -0.70710412
   0.          0.70710945  0.         -0.          0.          0.          0.          0.          0.         -0.          0.          0.          0.
  -0.         -0.        ]
 [-0.20205771 -0.28311907 -0.06184368 -0.         -0.          0.         -0.          0.0821489  -0.02758206  0.          0.          0.         -0.
   0.          0.         -0.          0.         -0.02295308  0.64877926 -0.67691077 -0.1252541  -0.         -0.         -0.          0.         -0.30744335
   0.8611045   0.765406  ]
 [-0.27041782 -0.32166393 -0.05322004  0.         -0.          0.          0.          0.06614758 -0.00869628  0.         -0.         -0.          0.
  -0.         -0.          0.         -0.         -0.00683035  0.03798886  0.17295189  0.04816337  0.          0.          0.         -0.          0.21860091
  -1.66392189 -1.67791651]
 [-0.28257173 -0.22719528 -0.01322823  0.         -0.         -0.          0.          0.00192688  0.01454029 -0.          0.          0.         -0.
   0.          0.          0.          0.          0.01458139 -0.50777997  0.6019399   0.10156172  0.          0.          0.         -0.          0.17879485
   0.98918377  1.47536455]
 [-0.         -0.          0.          0.0346281   0.38891566  0.39643369 -0.0021828   0.          0.         -0.00393043  0.00002819 -0.          0.
  -0.         -0.         -0.00394027 -0.00003736  0.          0.         -0.         -0.          0.67212342  0.44111414 -0.76046306  0.27201878 -0.
  -0.          0.        ]
 [-0.         -0.         -0.          0.38891566 -0.0346281  -0.0021828  -0.39643369 -0.          0.         -0.00002819 -0.00393043  0.          0.
  -0.         -0.          0.00003736 -0.00394027 -0.         -0.          0.          0.         -0.44111414  0.67212342  0.27201878  0.76046306 -0.
   0.         -0.        ]
 [ 0.02755132 -0.04702734 -0.36839541  0.          0.         -0.          0.         -0.41151098  0.0262196  -0.         -0.          0.          0.
   0.         -0.          0.         -0.          0.0216735  -0.13232866 -0.26205603 -0.78771982 -0.         -0.         -0.          0.          0.77681007
  -0.03120678  0.13244426]
 [-0.         -0.          0.          0.03500098  0.39310352  0.39221304 -0.00215956  0.          0.         -0.00000985  0.00000007 -0.         -0.
  -0.         -0.         -0.00000769 -0.00000007  0.         -0.          0.          0.         -0.66498363 -0.4364283   0.76867035 -0.27495455  0.
  -0.          0.        ]
 [-0.         -0.         -0.          0.39310352 -0.03500098 -0.00215956 -0.39221304 -0.         -0.         -0.00000007 -0.00000985 -0.          0.
   0.         -0.          0.00000007 -0.00000769 -0.          0.         -0.         -0.          0.4364283  -0.66498363 -0.27495455 -0.76867035  0.
  -0.          0.        ]
 [ 0.05150178 -0.06842431 -0.39613735  0.          0.         -0.         -0.         -0.37585708  0.00088146  0.          0.         -0.         -0.
  -0.          0.         -0.          0.         -0.00062863  0.03481262  0.17147393  0.74287824  0.          0.          0.         -0.         -0.87980369
   0.08492267 -0.26653331]
 [ 0.          0.         -0.          0.         -0.          0.         -0.         -0.         -0.         -0.          0.          0.70710412 -0.
  -0.70710945 -0.          0.          0.         -0.          0.         -0.         -0.          0.         -0.          0.         -0.         -0.
  -0.         -0.        ]
 [ 0.          0.          0.         -0.00216752  0.00019299 -0.00001219 -0.00221329 -0.         -0.         -0.00507094 -0.70701751  0.          0.
  -0.         -0.         -0.00670432  0.70712426 -0.          0.         -0.          0.          0.00244615 -0.00372719  0.00151276  0.00422912  0.
   0.         -0.        ]
 [-0.00649876  0.00623711  0.0113874  -0.          0.          0.         -0.         -0.0155584   0.70535076  0.         -0.         -0.         -0.
  -0.          0.         -0.         -0.         -0.70649268  0.04118124  0.02455159  0.02195534 -0.          0.         -0.         -0.          0.03617871
  -0.00617925  0.02610542]
 [ 0.         -0.         -0.         -0.00019299 -0.00216752  0.00221329 -0.00001219 -0.         -0.         -0.70701751  0.00507094  0.          0.
   0.         -0.          0.70712426  0.00670432 -0.         -0.          0.          0.         -0.00372719 -0.00244615 -0.00422912  0.00151276  0.
   0.          0.        ]
 [ 0.          0.          0.          0.         -0.         -0.          0.          0.          0.         -0.          0.         -0.         -0.70710412
   0.         -0.70710945  0.         -0.          0.          0.          0.          0.         -0.          0.         -0.         -0.          0.
  -0.         -0.        ]]
C (ortho)
[[-0.81858579 -0.54351061  0.00599398  0.15567307 -0.07217365  0.         -0.          0.         -0.          0.00598379  0.0388091   0.04467487 -0.00146255
  -0.         -0.         -0.         -0.          0.0001225   0.         -0.         -0.         -0.         -0.03840504 -0.          0.         -0.
   0.          0.00442302]
 [ 0.55907934 -0.76489353 -0.0434534   0.25441301 -0.01376558  0.          0.         -0.         -0.         -0.13572202 -0.05523302  0.1031617  -0.00963149
  -0.          0.         -0.          0.          0.01881943  0.         -0.         -0.         -0.         -0.00418207  0.         -0.         -0.
  -0.         -0.05464979]
 [-0.06688245 -0.00805619  0.08368697  0.13153418  0.84778078 -0.          0.         -0.          0.         -0.08818662  0.00303044  0.00608795 -0.06482887
   0.          0.         -0.          0.         -0.04644759 -0.          0.          0.          0.          0.48516199  0.         -0.          0.
  -0.         -0.05347329]
 [ 0.          0.         -0.          0.          0.          0.75402647  0.1200899   0.14093772  0.37266451 -0.          0.          0.         -0.
  -0.01244676 -0.00116429  0.          0.         -0.          0.01203173 -0.00654818  0.          0.         -0.          0.20081876  0.3999346   0.18984658
   0.14703304 -0.        ]
 [ 0.         -0.         -0.         -0.         -0.         -0.1200899   0.75402647  0.37266451 -0.14093772  0.         -0.          0.         -0.
   0.00116429 -0.01244676 -0.          0.          0.          0.00654818  0.01203173  0.         -0.         -0.          0.3999346  -0.20081876 -0.14703304
   0.18984658  0.        ]
 [-0.          0.          0.          0.          0.          0.03012582 -0.40285974  0.73287732 -0.20936721 -0.          0.         -0.         -0.
   0.0000832  -0.00834249 -0.          0.          0.         -0.00628686 -0.0095601  -0.          0.          0.         -0.21401154  0.08598856 -0.24496025
   0.37742769 -0.        ]
 [ 0.          0.         -0.          0.          0.          0.40285974  0.03012582 -0.20936721 -0.73287732 -0.          0.          0.          0.
   0.00834249  0.0000832  -0.         -0.         -0.          0.0095601  -0.00628686  0.          0.         -0.          0.08598856  0.21401154 -0.37742769
  -0.24496025  0.        ]
 [-0.06890516  0.04440103  0.17670206 -0.21062242 -0.08016594  0.          0.         -0.         -0.         -0.81716128  0.02987365 -0.04678365 -0.03356787
  -0.         -0.         -0.          0.          0.07361292  0.         -0.         -0.          0.         -0.04074025  0.         -0.         -0.
  -0.         -0.48190196]
 [-0.00357674  0.00690145  0.03148417  0.03069937  0.01058609 -0.          0.         -0.         -0.         -0.00283275  0.03685644  0.0296099   0.87996726
   0.         -0.          0.         -0.          0.45294442 -0.         -0.         -0.         -0.          0.12707616  0.         -0.          0.
  -0.         -0.00112265]
 [-0.          0.          0.         -0.         -0.         -0.00019434  0.00313235  0.0016547  -0.0004501   0.         -0.         -0.          0.
   0.00201947  0.74643232  0.         -0.         -0.         -0.3722626  -0.55074195 -0.          0.         -0.          0.026336   -0.0101958  -0.00604442
   0.00957679 -0.        ]
 [-0.          0.         -0.          0.          0.          0.00313235  0.00019434  0.0004501   0.0016547  -0.          0.         -0.          0.
   0.74643232 -0.00201947 -0.         -0.         -0.         -0.55074195  0.3722626  -0.          0.         -0.          0.0101958   0.026336    0.00957679
   0.00604442 -0.        ]
 [ 0.         -0.         -0.          0.          0.         -0.         -0.         -0.         -0.          0.          0.         -0.         -0.
   0.         -0.          0.70960775 -0.00037538  0.          0.          0.         -0.37316436  0.59766634  0.         -0.         -0.         -0.
  -0.         -0.        ]
 [ 0.          0.         -0.         -0.          0.         -0.         -0.         -0.         -0.         -0.         -0.          0.         -0.
  -0.         -0.         -0.00037538 -0.70960775 -0.          0.         -0.         -0.59766634 -0.37316436 -0.         -0.         -0.         -0.
  -0.         -0.        ]
 [ 0.         -0.         -0.          0.          0.          0.         -0.          0.          0.          0.          0.         -0.         -0.
   0.         -0.          0.70459673 -0.00037273  0.         -0.          0.          0.37581827 -0.60191688  0.         -0.          0.          0.
   0.         -0.        ]
 [ 0.          0.          0.         -0.          0.          0.          0.          0.          0.         -0.          0.          0.          0.
   0.          0.          0.00037273  0.70459673 -0.         -0.         -0.         -0.60191688 -0.37581827 -0.          0.          0.          0.
   0.         -0.        ]
 [-0.          0.         -0.          0.          0.          0.0001557  -0.0019765   0.00426226 -0.00123598 -0.          0.          0.          0.
  -0.00927572  0.66500241  0.         -0.          0.          0.40768238  0.62534139 -0.         -0.          0.         -0.01210001  0.00491766 -0.00839248
   0.01281903 -0.        ]
 [ 0.          0.         -0.          0.          0.         -0.0019765  -0.0001557   0.00123598  0.00426226 -0.          0.         -0.          0.
   0.66500241  0.00927572 -0.         -0.         -0.          0.62534139 -0.40768238 -0.          0.         -0.         -0.00491766 -0.01210001  0.01281903
   0.00839248 -0.        ]
 [ 0.00227888  0.00732257 -0.03653511  0.0352371  -0.00519012 -0.          0.          0.          0.         -0.04242247 -0.00966674  0.01541575  0.45695827
  -0.         -0.          0.         -0.         -0.87775518 -0.          0.          0.          0.         -0.03783961 -0.          0.         -0.
   0.         -0.12045813]
 [-0.03437697 -0.18615261 -0.58474318 -0.5385261   0.05590378  0.         -0.          0.         -0.          0.00406959 -0.4373932  -0.33462382  0.03963951
   0.         -0.          0.         -0.          0.01561234  0.         -0.         -0.         -0.          0.15410117  0.          0.         -0.
  -0.         -0.01551028]
 [-0.0738092   0.25460569 -0.51747366  0.45583291 -0.03448723 -0.          0.         -0.          0.         -0.07489074 -0.35175249  0.48986164 -0.03770636
  -0.          0.         -0.          0.          0.07728154 -0.         -0.         -0.          0.         -0.02551846 -0.         -0.         -0.
  -0.         -0.27500525]
 [ 0.00820046  0.01248538  0.05109942  0.02361876 -0.501453    0.          0.         -0.         -0.          0.05855218  0.07866842  0.05798401 -0.08720532
   0.          0.          0.          0.         -0.0709755  -0.         -0.          0.          0.          0.8440473   0.          0.          0.
  -0.         -0.0843528 ]
 [-0.          0.         -0.          0.          0.          0.27077389 -0.35624051 -0.15836442  0.18156778 -0.          0.          0.         -0.
   0.00851539 -0.01284937 -0.         -0.         -0.          0.00012315  0.01916738  0.         -0.         -0.          0.43949981 -0.62421782 -0.36333629
   0.16217827 -0.        ]
 [-0.          0.          0.          0.         -0.         -0.35624051 -0.27077389 -0.18156778 -0.15836442 -0.         -0.          0.         -0.
  -0.01284937 -0.00851539  0.          0.          0.          0.01916738 -0.00012315  0.          0.         -0.          0.62421782  0.43949981  0.16217827
   0.36333629 -0.        ]
 [-0.          0.         -0.          0.          0.          0.09283012 -0.21204232  0.36698434 -0.25993776 -0.          0.          0.         -0.
  -0.00257382  0.00709535  0.         -0.         -0.          0.00306285  0.01231851  0.         -0.         -0.          0.3032811  -0.26603315  0.60362066
  -0.46566771  0.        ]
 [ 0.         -0.         -0.         -0.          0.          0.21204232  0.09283012 -0.25993776 -0.36698434  0.          0.         -0.         -0.
  -0.00709535 -0.00257382  0.          0.          0.         -0.01231851  0.00306285 -0.         -0.          0.         -0.26603315 -0.3032811   0.46566771
   0.60362066 -0.        ]
 [-0.02900794  0.04676516 -0.00745924 -0.01987054 -0.04901896  0.          0.         -0.         -0.         -0.49310337 -0.17970215  0.24305927  0.02446993
   0.         -0.          0.         -0.         -0.07102432  0.          0.          0.         -0.          0.08268341  0.         -0.          0.
   0.          0.80443573]
 [-0.02300335  0.07541993  0.3887086   0.38984776 -0.09550147  0.         -0.         -0.         -0.          0.00227525 -0.66987705 -0.48228962  0.01330799
  -0.         -0.         -0.         -0.          0.00620546 -0.          0.         -0.         -0.          0.00516311 -0.          0.          0.
  -0.         -0.00071228]
 [ 0.00640291  0.09944157 -0.44052008  0.4432435  -0.04483902 -0.          0.          0.         -0.         -0.2280284   0.4368412  -0.58055223 -0.00696834
   0.         -0.         -0.          0.          0.01095898  0.         -0.         -0.         -0.          0.01442335  0.          0.         -0.
   0.          0.1315003 ]]
[[-0.81858579 -0.54351061  0.00599398  0.15567307  0.07217365 -0.          0.         -0.         -0.         -0.00598379  0.0388091   0.04467487 -0.00146255
  -0.          0.          0.         -0.          0.0001225   0.         -0.         -0.          0.          0.03840504 -0.         -0.         -0.
   0.         -0.00442302]
 [-0.55907934  0.76489353  0.0434534  -0.25441301 -0.01376558 -0.          0.         -0.          0.         -0.13572202  0.05523302 -0.1031617   0.00963149
   0.          0.          0.         -0.         -0.01881943 -0.          0.         -0.         -0.         -0.00418207  0.         -0.         -0.
   0.         -0.05464979]
 [-0.06688245 -0.00805619  0.08368697  0.13153418 -0.84778078  0.         -0.          0.          0.          0.08818662  0.00303044  0.00608795 -0.06482887
   0.          0.         -0.          0.         -0.04644759 -0.          0.         -0.         -0.         -0.48516199  0.         -0.         -0.
   0.          0.05347329]
 [-0.          0.          0.          0.          0.          0.59845748 -0.47415836  0.37879246  0.12352551 -0.          0.         -0.         -0.
   0.01120173  0.00554966 -0.          0.         -0.         -0.00111054 -0.01365313  0.          0.         -0.          0.12076455  0.4309197   0.23263885
  -0.05949456  0.        ]
 [ 0.          0.          0.         -0.          0.          0.47415836  0.59845748 -0.12352551  0.37879246  0.          0.         -0.          0.
  -0.00554966  0.01120173 -0.          0.          0.         -0.01365313  0.00111054  0.          0.          0.          0.4309197  -0.12076455  0.05949456
   0.23263885  0.        ]
 [-0.         -0.         -0.          0.         -0.          0.27635316  0.29467349  0.17519734 -0.74178817 -0.         -0.          0.          0.
   0.00306887 -0.00775798  0.         -0.         -0.         -0.011442   -0.00002445  0.          0.         -0.          0.22649234 -0.04354527 -0.14736476
  -0.42513622 -0.        ]
 [-0.          0.          0.          0.          0.         -0.29467349  0.27635316  0.74178817  0.17519734 -0.          0.         -0.         -0.
   0.00775798  0.00306887 -0.          0.          0.         -0.00002445  0.011442   -0.         -0.         -0.         -0.04354527 -0.22649234  0.42513622
  -0.14736476  0.        ]
 [ 0.06890516 -0.04440103 -0.17670206  0.21062242 -0.08016594  0.          0.         -0.          0.         -0.81716128 -0.02987365  0.04678365  0.03356787
   0.          0.          0.         -0.         -0.07361292 -0.          0.         -0.         -0.         -0.04074025  0.         -0.          0.
   0.         -0.48190196]
 [-0.00357674  0.00690145  0.03148417  0.03069937 -0.01058609  0.          0.         -0.         -0.          0.00283275  0.03685644  0.0296099   0.87996726
  -0.         -0.          0.         -0.          0.45294442  0.         -0.          0.          0.         -0.12707616  0.          0.          0.
  -0.          0.00112265]
 [-0.          0.         -0.         -0.          0.          0.00217571  0.00226178 -0.00037298  0.00167377  0.         -0.         -0.         -0.
   0.26574772 -0.69752665 -0.         -0.         -0.          0.66467974  0.00984793 -0.         -0.          0.          0.02779821 -0.00497988  0.00384435
   0.01065228  0.        ]
 [-0.         -0.          0.         -0.          0.          0.00226178 -0.00217571  0.00167377  0.00037298 -0.         -0.          0.          0.
  -0.69752665 -0.26574772  0.          0.          0.         -0.00984793  0.66467974 -0.         -0.         -0.          0.00497988  0.02779821  0.01065228
  -0.00384435  0.        ]
 [-0.          0.          0.         -0.         -0.         -0.          0.         -0.         -0.          0.         -0.          0.          0.
   0.          0.          0.42800318  0.56600052 -0.          0.         -0.          0.70459657 -0.00060257  0.         -0.         -0.         -0.
   0.         -0.        ]
 [-0.          0.          0.          0.          0.         -0.         -0.         -0.         -0.         -0.          0.          0.          0.
   0.          0.         -0.56600052  0.42800318  0.         -0.         -0.         -0.00060257 -0.70459657 -0.         -0.         -0.         -0.
  -0.         -0.        ]
 [-0.          0.          0.         -0.         -0.          0.         -0.          0.         -0.          0.         -0.          0.          0.
  -0.          0.         -0.42498076 -0.5620036  -0.          0.          0.          0.70960759 -0.00060685  0.          0.          0.          0.
  -0.         -0.        ]
 [-0.          0.          0.         -0.         -0.          0.         -0.          0.          0.         -0.          0.         -0.          0.
  -0.         -0.         -0.5620036   0.42498076 -0.          0.          0.          0.00060685  0.70960759 -0.          0.          0.          0.
  -0.         -0.        ]
 [ 0.          0.          0.         -0.         -0.          0.00135049  0.00145154  0.00103724 -0.00431493 -0.          0.          0.          0.
  -0.24709526  0.61746108  0.          0.         -0.          0.74649507 -0.00137208 -0.         -0.         -0.          0.01281635 -0.00251693 -0.00496053
  -0.01449671 -0.        ]
 [-0.         -0.          0.         -0.          0.          0.00145154 -0.00135049 -0.00431493 -0.00103724 -0.         -0.          0.         -0.
   0.61746108  0.24709526 -0.          0.          0.          0.00137208  0.74649507 -0.         -0.         -0.          0.00251693  0.01281635 -0.01449671
   0.00496053 -0.        ]
 [-0.00227888 -0.00732257  0.03653511 -0.0352371  -0.00519012  0.          0.         -0.         -0.         -0.04242247  0.00966674 -0.01541575 -0.45695827
  -0.         -0.         -0.          0.          0.87775518  0.         -0.          0.          0.         -0.03783961  0.          0.         -0.
   0.         -0.12045813]
 [-0.03437697 -0.18615261 -0.58474318 -0.5385261  -0.05590378  0.         -0.          0.          0.         -0.00406959 -0.4373932  -0.33462382  0.03963951
   0.         -0.         -0.         -0.          0.01561234  0.         -0.          0.          0.         -0.15410117  0.          0.         -0.
   0.          0.01551028]
 [ 0.0738092  -0.25460569  0.51747366 -0.45583291 -0.03448723  0.          0.         -0.         -0.         -0.07489074  0.35175249 -0.48986164  0.03770636
   0.          0.          0.         -0.         -0.07728154 -0.          0.         -0.         -0.         -0.02551846  0.          0.          0.
  -0.         -0.27500525]
 [ 0.00820046  0.01248538  0.05109942  0.02361876  0.501453    0.          0.         -0.          0.         -0.05855218  0.07866842  0.05798401 -0.08720532
   0.         -0.         -0.          0.         -0.0709755  -0.          0.          0.         -0.         -0.8440473  -0.         -0.         -0.
  -0.          0.0843528 ]
 [-0.         -0.          0.         -0.          0.         -0.07924717 -0.44039265  0.17403784 -0.16660425 -0.          0.          0.         -0.
  -0.01255634  0.00894183 -0.          0.          0.         -0.01610473  0.0103943   0.          0.         -0.          0.55059698 -0.52882033 -0.09520343
   0.38633063  0.        ]
 [ 0.          0.          0.          0.          0.         -0.44039265  0.07924717 -0.16660425 -0.17403784 -0.          0.         -0.         -0.
   0.00894183  0.01255634 -0.          0.         -0.         -0.0103943  -0.01610473  0.          0.         -0.          0.52882033  0.55059698  0.38633063
   0.09520343  0.        ]
 [-0.         -0.          0.         -0.          0.          0.0933935   0.21179479  0.24266093 -0.37863019 -0.          0.         -0.         -0.
  -0.00494672  0.00570074 -0.          0.         -0.          0.01198427 -0.00418376 -0.         -0.         -0.         -0.34849572  0.20323335 -0.00331193
   0.76236038  0.        ]
 [-0.         -0.          0.         -0.         -0.         -0.21179479  0.0933935   0.37863019  0.24266093  0.         -0.          0.          0.
  -0.00570074 -0.00494672  0.         -0.         -0.         -0.00418376 -0.01198427  0.          0.          0.          0.20323335  0.34849572 -0.76236038
  -0.00331193 -0.        ]
 [ 0.02900794 -0.04676516  0.00745924  0.01987054 -0.04901896  0.          0.          0.          0.         -0.49310337  0.17970215 -0.24305927 -0.02446993
  -0.         -0.          0.          0.          0.07102432  0.          0.          0.          0.          0.08268341 -0.         -0.         -0.
  -0.          0.80443573]
 [-0.02300335  0.07541993  0.3887086   0.38984776  0.09550147 -0.         -0.          0.         -0.         -0.00227525 -0.66987705 -0.48228962  0.01330799
   0.         -0.         -0.          0.          0.00620546  0.         -0.         -0.          0.         -0.00516311 -0.         -0.         -0.
  -0.          0.00071228]
 [-0.00640291 -0.09944157  0.44052008 -0.4432435  -0.04483902  0.          0.         -0.         -0.         -0.2280284  -0.4368412   0.58055223  0.00696834
   0.          0.         -0.          0.         -0.01095898 -0.          0.          0.         -0.          0.01442335  0.          0.          0.
  -0.          0.1315003 ]]
grids:  [0.06237655 0.31939555 0.74529195 1.28265786 1.85893479 2.39630071 2.8221971  3.07921611] 
weights:  [0.15900941 0.34931531 0.49276925 0.56970235 0.56970235 0.49276925 0.34931531 0.15900941]
S = 0.0, Sz = 0.0
Wigner small d:  1
value : [1. 1. 1. 1. 1. 1. 1. 1.]
**** Start Cycle 1 ****
dm (ortho)
[[[ 0.67008269 -0.4576544   0.05474902 ...  0.02374549  0.01883022 -0.00524133]
  [-0.4576544   0.31256971 -0.03739259 ... -0.01621774 -0.0128607   0.00357973]
  [ 0.05474902 -0.03739259  0.00447326 ...  0.00194012  0.00153852 -0.00042824]
  ...
  [ 0.02374549 -0.01621774  0.00194012 ...  0.00084146  0.00066728 -0.00018574]
  [ 0.01883022 -0.0128607   0.00153852 ...  0.00066728  0.00052915 -0.00014729]
  [-0.00524133  0.00357973 -0.00042824 ... -0.00018574 -0.00014729  0.000041  ]]

 [[ 0.67008269  0.4576544   0.05474902 ... -0.02374549  0.01883022  0.00524133]
  [ 0.4576544   0.31256971  0.03739259 ... -0.01621774  0.0128607   0.00357973]
  [ 0.05474902  0.03739259  0.00447326 ... -0.00194012  0.00153852  0.00042824]
  ...
  [-0.02374549 -0.01621774 -0.00194012 ...  0.00084146 -0.00066728 -0.00018574]
  [ 0.01883022  0.0128607   0.00153852 ... -0.00066728  0.00052915  0.00014729]
  [ 0.00524133  0.00357973  0.00042824 ... -0.00018574  0.00014729  0.000041  ]]]
Fock (ortho)
 (array([[-0.23842375,  0.29130742, -0.13246153,  0.        ,  0.        , -0.        ,  0.        , -0.05954589, -0.01648865,  0.        , -0.        ,
         0.        ,  0.        ,  0.        ,  0.        , -0.        , -0.        ,  0.00629533, -0.1732705 ,  0.03579988, -0.07561401, -0.        ,
        -0.        , -0.        ,  0.        ,  0.00074159, -0.09241679,  0.01170626],
       [ 0.29130742, -0.04056629,  0.05062795, -0.        , -0.        ,  0.        , -0.        ,  0.19685459,  0.00747393,  0.        , -0.        ,
        -0.        ,  0.        , -0.        ,  0.        , -0.        , -0.        , -0.02919201, -0.09055562,  0.34862336,  0.00662346,  0.        ,
        -0.        ,  0.        ,  0.        , -0.02359137,  0.01102805, -0.1544245 ],
       [-0.13246153,  0.05062795,  1.43453904, -0.        ,  0.        ,  0.        , -0.        ,  0.05336294, -0.02284623,  0.        ,  0.        ,
        -0.        ,  0.        , -0.        ,  0.        ,  0.        ,  0.        , -0.00173542,  0.24379008,  0.01340695,  1.3240875 ,  0.        ,
         0.        ,  0.        , -0.        , -0.00305096, -0.0263612 , -0.00013099],
       [ 0.        , -0.        , -0.        ,  1.56690605, -0.        ,  0.00525922, -0.06299183, -0.        , -0.        , -0.00009088, -0.00094402,
         0.        ,  0.        , -0.        , -0.        , -0.0000726 , -0.00091335,  0.        , -0.        ,  0.        , -0.        , -0.64275347,
         1.19929287,  0.00188891,  0.00725468, -0.        , -0.        ,  0.        ],
       [ 0.        , -0.        ,  0.        , -0.        ,  1.56690605,  0.06299183,  0.00525922, -0.        ,  0.        , -0.00094402,  0.00009088,
        -0.        ,  0.        , -0.        ,  0.        , -0.00091335,  0.0000726 , -0.        , -0.        , -0.        , -0.        ,  1.19929287,
         0.64275347, -0.00725468,  0.00188891,  0.        , -0.        ,  0.        ],
       [-0.        ,  0.        ,  0.        ,  0.00525922,  0.06299183,  1.60627275,  0.        ,  0.        , -0.        ,  0.00011394, -0.00000144,
        -0.        , -0.        , -0.        ,  0.        , -0.0076795 , -0.00003052,  0.        ,  0.        ,  0.        ,  0.        ,  0.00686527,
         0.00445178, -1.27759035,  0.44907699, -0.        ,  0.        ,  0.        ],
       [ 0.        , -0.        , -0.        , -0.06299183,  0.00525922,  0.        ,  1.60627275, -0.        , -0.        , -0.00000144, -0.00011394,
        -0.        , -0.        ,  0.        , -0.        , -0.00003052,  0.0076795 ,  0.        , -0.        ,  0.        , -0.        ,  0.00445178,
        -0.00686527, -0.44907699, -1.27759035, -0.        , -0.        ,  0.        ],
       [-0.05954589,  0.19685459,  0.05336294, -0.        , -0.        ,  0.        , -0.        ,  1.69044594, -0.00387429, -0.        ,  0.        ,
         0.        , -0.        ,  0.        , -0.        ,  0.        ,  0.        , -0.00910192,  0.02558133,  0.46378912,  0.00913685,  0.        ,
         0.        ,  0.        ,  0.        , -1.26481765, -0.00085944, -0.04315863],
       [-0.01648865,  0.00747393, -0.02284623, -0.        ,  0.        , -0.        , -0.        , -0.00387429,  3.43151188,  0.        ,  0.        ,
         0.        ,  0.        ,  0.        ,  0.        , -0.        ,  0.        , -0.02572131,  0.13730486,  0.00286185,  0.04083057, -0.        ,
         0.        , -0.        , -0.        ,  0.00125512, -0.03700707, -0.00039872],
       [ 0.        ,  0.        ,  0.        , -0.00009088, -0.00094402,  0.00011394, -0.00000144, -0.        ,  0.        ,  3.44840919,  0.        ,
        -0.        , -0.        , -0.        ,  0.        , -0.02613974, -0.00043535,  0.        , -0.        ,  0.        , -0.        ,  0.01199656,
         0.00799702,  0.00008215, -0.00003005,  0.        ,  0.        ,  0.        ],
       [-0.        , -0.        ,  0.        , -0.00094402,  0.00009088, -0.00000144, -0.00011394,  0.        ,  0.        ,  0.        ,  3.44840919,
         0.        , -0.        , -0.        ,  0.        ,  0.00043535, -0.02613974,  0.        ,  0.        , -0.        ,  0.        , -0.00799702,
         0.01199656, -0.00003005, -0.00008215,  0.        , -0.        ,  0.        ],
       [ 0.        , -0.        , -0.        ,  0.        , -0.        , -0.        , -0.        ,  0.        ,  0.        , -0.        ,  0.        ,
         3.45006136,  0.        , -0.0261807 ,  0.        ,  0.        ,  0.        ,  0.        , -0.        ,  0.        ,  0.        ,  0.        ,
        -0.        , -0.        , -0.        ,  0.        ,  0.        ,  0.        ],
       [ 0.        ,  0.        ,  0.        ,  0.        ,  0.        , -0.        , -0.        , -0.        ,  0.        , -0.        , -0.        ,
         0.        ,  3.45006136,  0.        ,  0.0261807 ,  0.        ,  0.        , -0.        , -0.        ,  0.        ,  0.        , -0.        ,
        -0.        , -0.        ,  0.        , -0.        ,  0.        ,  0.        ],
       [ 0.        , -0.        , -0.        , -0.        , -0.        , -0.        ,  0.        ,  0.        ,  0.        , -0.        , -0.        ,
        -0.0261807 ,  0.        ,  3.45032258,  0.        ,  0.        , -0.        ,  0.        , -0.        ,  0.        ,  0.        , -0.        ,
         0.        , -0.        ,  0.        ,  0.        ,  0.        ,  0.        ],
       [ 0.        ,  0.        ,  0.        , -0.        ,  0.        ,  0.        , -0.        , -0.        ,  0.        ,  0.        ,  0.        ,
         0.        ,  0.0261807 ,  0.        ,  3.45032258, -0.        , -0.        , -0.        , -0.        ,  0.        ,  0.        , -0.        ,
         0.        ,  0.        , -0.        , -0.        ,  0.        ,  0.        ],
       [-0.        , -0.        ,  0.        , -0.0000726 , -0.00091335, -0.0076795 , -0.00003052,  0.        , -0.        , -0.02613974,  0.00043535,
         0.        ,  0.        ,  0.        , -0.        ,  3.45276934, -0.        , -0.        ,  0.        , -0.        ,  0.        , -0.00011094,
        -0.00007131, -0.01373485,  0.00476659, -0.        , -0.        , -0.        ],
       [-0.        , -0.        ,  0.        , -0.00091335,  0.0000726 , -0.00003052,  0.0076795 ,  0.        ,  0.        , -0.00043535, -0.02613974,
         0.        ,  0.        , -0.        , -0.        , -0.        ,  3.45276934,  0.        ,  0.        , -0.        ,  0.        ,  0.00007131,
        -0.00011094,  0.00476659,  0.01373485,  0.        , -0.        ,  0.        ],
       [ 0.00629533, -0.02919201, -0.00173542,  0.        , -0.        ,  0.        ,  0.        , -0.00910192, -0.02572131,  0.        ,  0.        ,
         0.        , -0.        ,  0.        , -0.        , -0.        ,  0.        ,  3.45722724, -0.00497339, -0.10838013, -0.00068423,  0.        ,
        -0.        ,  0.        ,  0.        , -0.11935052, -0.00028429, -0.12126092],
       [-0.1732705 , -0.09055562,  0.24379008, -0.        , -0.        ,  0.        , -0.        ,  0.02558133,  0.13730486, -0.        ,  0.        ,
        -0.        , -0.        , -0.        , -0.        ,  0.        ,  0.        , -0.00497339,  1.14377192, -0.05474571,  0.31276024,  0.        ,
         0.        ,  0.        , -0.        , -0.01979934,  0.96828843,  0.01223485],
       [ 0.03579988,  0.34862336,  0.01340695,  0.        , -0.        ,  0.        ,  0.        ,  0.46378912,  0.00286185,  0.        , -0.        ,
         0.        ,  0.        ,  0.        ,  0.        , -0.        , -0.        , -0.10838013, -0.05474571,  1.47538483,  0.01606974, -0.        ,
        -0.        , -0.        , -0.        , -0.43223628, -0.01959981, -1.06872884],
       [-0.07561401,  0.00662346,  1.3240875 , -0.        , -0.        ,  0.        , -0.        ,  0.00913685,  0.04083057, -0.        ,  0.        ,
         0.        ,  0.        ,  0.        ,  0.        ,  0.        ,  0.        , -0.00068423,  0.31276024,  0.01606974,  2.97101959,  0.        ,
         0.        ,  0.        ,  0.        , -0.01705989, -0.14927499, -0.00393431],
       [-0.        ,  0.        ,  0.        , -0.64275347,  1.19929287,  0.00686527,  0.00445178,  0.        , -0.        ,  0.01199656, -0.00799702,
         0.        , -0.        , -0.        , -0.        , -0.00011094,  0.00007131,  0.        ,  0.        , -0.        ,  0.        ,  3.05027504,
         0.        , -0.02195609, -0.00530957,  0.        , -0.        , -0.        ],
       [-0.        , -0.        ,  0.        ,  1.19929287,  0.64275347,  0.00445178, -0.00686527,  0.        ,  0.        ,  0.00799702,  0.01199656,
        -0.        , -0.        ,  0.        ,  0.        , -0.00007131, -0.00011094, -0.        ,  0.        , -0.        ,  0.        ,  0.        ,
         3.05027504, -0.00530957,  0.02195609,  0.        , -0.        ,  0.        ],
       [-0.        ,  0.        ,  0.        ,  0.00188891, -0.00725468, -1.27759035, -0.44907699,  0.        , -0.        ,  0.00008215, -0.00003005,
        -0.        , -0.        , -0.        ,  0.        , -0.01373485,  0.00476659,  0.        ,  0.        , -0.        ,  0.        , -0.02195609,
        -0.00530957,  3.10183714, -0.        ,  0.        , -0.        , -0.        ],
       [ 0.        ,  0.        , -0.        ,  0.00725468,  0.00188891,  0.44907699, -1.27759035,  0.        , -0.        , -0.00003005, -0.00008215,
        -0.        ,  0.        ,  0.        , -0.        ,  0.00476659,  0.01373485,  0.        , -0.        , -0.        ,  0.        , -0.00530957,
         0.02195609, -0.        ,  3.10183714, -0.        ,  0.        , -0.        ],
       [ 0.00074159, -0.02359137, -0.00305096, -0.        ,  0.        , -0.        , -0.        , -1.26481765,  0.00125512,  0.        ,  0.        ,
         0.        , -0.        ,  0.        , -0.        , -0.        ,  0.        , -0.11935052, -0.01979934, -0.43223628, -0.01705989,  0.        ,
         0.        ,  0.        , -0.        ,  3.16180905, -0.00957852, -0.02019211],
       [-0.09241679,  0.01102805, -0.0263612 , -0.        , -0.        ,  0.        , -0.        , -0.00085944, -0.03700707,  0.        , -0.        ,
         0.        ,  0.        ,  0.        ,  0.        , -0.        , -0.        , -0.00028429,  0.96828843, -0.01959981, -0.14927499, -0.        ,
        -0.        , -0.        ,  0.        , -0.00957852,  1.8447227 ,  0.01782881],
       [ 0.01170626, -0.1544245 , -0.00013099,  0.        ,  0.        ,  0.        ,  0.        , -0.04315863, -0.00039872,  0.        ,  0.        ,
         0.        ,  0.        ,  0.        ,  0.        , -0.        ,  0.        , -0.12126092,  0.01223485, -1.06872884, -0.00393431, -0.        ,
         0.        , -0.        , -0.        , -0.02019211,  0.01782881,  1.62300739]]), array([[-0.23842375, -0.29130742, -0.13246153, -0.        ,  0.        , -0.        , -0.        ,  0.05954589, -0.01648865,  0.        , -0.        ,
         0.        , -0.        ,  0.        , -0.        ,  0.        , -0.        , -0.00629533, -0.1732705 , -0.03579988, -0.07561401, -0.        ,
        -0.        , -0.        ,  0.        , -0.00074159, -0.09241679, -0.01170626],
       [-0.29130742, -0.04056629, -0.05062795, -0.        , -0.        ,  0.        , -0.        ,  0.19685459, -0.00747393,  0.        , -0.        ,
        -0.        , -0.        , -0.        , -0.        , -0.        , -0.        , -0.02919201,  0.09055562,  0.34862336, -0.00662346,  0.        ,
        -0.        ,  0.        ,  0.        , -0.02359137, -0.01102805, -0.1544245 ],
       [-0.13246153, -0.05062795,  1.43453904, -0.        ,  0.        , -0.        , -0.        , -0.05336294, -0.02284623,  0.        ,  0.        ,
        -0.        , -0.        , -0.        , -0.        ,  0.        ,  0.        ,  0.00173542,  0.24379008, -0.01340695,  1.3240875 ,  0.        ,
         0.        ,  0.        , -0.        ,  0.00305096, -0.0263612 ,  0.00013099],
       [-0.        , -0.        , -0.        ,  1.56690605,  0.        , -0.00525922,  0.06299183, -0.        , -0.        , -0.00009088, -0.00094402,
         0.        ,  0.        , -0.        , -0.        ,  0.0000726 ,  0.00091335,  0.        , -0.        ,  0.        , -0.        , -0.64275347,
         1.19929287, -0.00188891, -0.00725468, -0.        , -0.        ,  0.        ],
       [ 0.        , -0.        ,  0.        ,  0.        ,  1.56690605, -0.06299183, -0.00525922,  0.        ,  0.        , -0.00094402,  0.00009088,
        -0.        ,  0.        ,  0.        , -0.        ,  0.00091335, -0.0000726 , -0.        , -0.        , -0.        , -0.        ,  1.19929287,
         0.64275347,  0.00725468, -0.00188891,  0.        , -0.        ,  0.        ],
       [-0.        ,  0.        , -0.        , -0.00525922, -0.06299183,  1.60627275, -0.        , -0.        , -0.        , -0.00011394,  0.00000144,
        -0.        , -0.        , -0.        ,  0.        , -0.0076795 , -0.00003052,  0.        ,  0.        ,  0.        ,  0.        , -0.00686527,
        -0.00445178, -1.27759035,  0.44907699, -0.        ,  0.        ,  0.        ],
       [-0.        , -0.        , -0.        ,  0.06299183, -0.00525922, -0.        ,  1.60627275, -0.        , -0.        ,  0.00000144,  0.00011394,
        -0.        , -0.        ,  0.        , -0.        , -0.00003052,  0.0076795 ,  0.        ,  0.        ,  0.        , -0.        , -0.00445178,
         0.00686527, -0.44907699, -1.27759035, -0.        , -0.        ,  0.        ],
       [ 0.05954589,  0.19685459, -0.05336294, -0.        ,  0.        , -0.        , -0.        ,  1.69044594,  0.00387429, -0.        ,  0.        ,
         0.        ,  0.        ,  0.        ,  0.        ,  0.        ,  0.        , -0.00910192, -0.02558133,  0.46378912, -0.00913685,  0.        ,
         0.        ,  0.        ,  0.        , -1.26481765,  0.00085944, -0.04315863],
       [-0.01648865, -0.00747393, -0.02284623, -0.        ,  0.        , -0.        , -0.        ,  0.00387429,  3.43151188, -0.        ,  0.        ,
         0.        , -0.        ,  0.        , -0.        ,  0.        ,  0.        ,  0.02572131,  0.13730486, -0.00286185,  0.04083057, -0.        ,
         0.        , -0.        , -0.        , -0.00125512, -0.03700707,  0.00039872],
       [ 0.        ,  0.        ,  0.        , -0.00009088, -0.00094402, -0.00011394,  0.00000144, -0.        , -0.        ,  3.44840919, -0.        ,
         0.        ,  0.        ,  0.        , -0.        ,  0.02613974,  0.00043535, -0.        , -0.        ,  0.        , -0.        ,  0.01199656,
         0.00799702, -0.00008215,  0.00003005,  0.        ,  0.        ,  0.        ],
       [-0.        , -0.        ,  0.        , -0.00094402,  0.00009088,  0.00000144,  0.00011394,  0.        ,  0.        , -0.        ,  3.44840919,
        -0.        ,  0.        ,  0.        , -0.        , -0.00043535,  0.02613974,  0.        ,  0.        , -0.        ,  0.        , -0.00799702,
         0.01199656,  0.00003005,  0.00008215,  0.        , -0.        ,  0.        ],
       [ 0.        , -0.        , -0.        ,  0.        , -0.        , -0.        , -0.        ,  0.        ,  0.        ,  0.        , -0.        ,
         3.45006136, -0.        ,  0.0261807 , -0.        , -0.        , -0.        ,  0.        , -0.        ,  0.        ,  0.        ,  0.        ,
        -0.        , -0.        , -0.        ,  0.        ,  0.        ,  0.        ],
       [-0.        , -0.        , -0.        ,  0.        ,  0.        , -0.        , -0.        ,  0.        , -0.        ,  0.        ,  0.        ,
        -0.        ,  3.45006136, -0.        , -0.0261807 , -0.        , -0.        , -0.        ,  0.        , -0.        , -0.        , -0.        ,
        -0.        , -0.        ,  0.        ,  0.        , -0.        , -0.        ],
       [ 0.        , -0.        , -0.        , -0.        ,  0.        , -0.        ,  0.        ,  0.        ,  0.        ,  0.        ,  0.        ,
         0.0261807 , -0.        ,  3.45032258, -0.        , -0.        ,  0.        ,  0.        , -0.        ,  0.        ,  0.        , -0.        ,
         0.        , -0.        ,  0.        ,  0.        , -0.        ,  0.        ],
       [-0.        , -0.        , -0.        , -0.        , -0.        ,  0.        , -0.        ,  0.        , -0.        , -0.        , -0.        ,
        -0.        , -0.0261807 , -0.        ,  3.45032258,  0.        ,  0.        ,  0.        ,  0.        , -0.        , -0.        , -0.        ,
         0.        ,  0.        , -0.        , -0.        , -0.        , -0.        ],
       [ 0.        , -0.        ,  0.        ,  0.0000726 ,  0.00091335, -0.0076795 , -0.00003052,  0.        ,  0.        ,  0.02613974, -0.00043535,
        -0.        , -0.        , -0.        ,  0.        ,  3.45276934,  0.        ,  0.        ,  0.        , -0.        ,  0.        ,  0.00011094,
         0.00007131, -0.01373485,  0.00476659, -0.        , -0.        , -0.        ],
       [-0.        , -0.        ,  0.        ,  0.00091335, -0.0000726 , -0.00003052,  0.0076795 ,  0.        ,  0.        ,  0.00043535,  0.02613974,
        -0.        , -0.        ,  0.        ,  0.        ,  0.        ,  3.45276934,  0.        ,  0.        , -0.        ,  0.        , -0.00007131,
         0.00011094,  0.00476659,  0.01373485,  0.        , -0.        ,  0.        ],
       [-0.00629533, -0.02919201,  0.00173542,  0.        , -0.        ,  0.        ,  0.        , -0.00910192,  0.02572131, -0.        ,  0.        ,
         0.        , -0.        ,  0.        ,  0.        ,  0.        ,  0.        ,  3.45722724,  0.00497339, -0.10838013,  0.00068423,  0.        ,
        -0.        ,  0.        ,  0.        , -0.11935052,  0.00028429, -0.12126092],
       [-0.1732705 ,  0.09055562,  0.24379008, -0.        , -0.        ,  0.        ,  0.        , -0.02558133,  0.13730486, -0.        ,  0.        ,
        -0.        ,  0.        , -0.        ,  0.        ,  0.        ,  0.        ,  0.00497339,  1.14377192,  0.05474571,  0.31276024,  0.        ,
         0.        ,  0.        , -0.        ,  0.01979934,  0.96828843, -0.01223485],
       [-0.03579988,  0.34862336, -0.01340695,  0.        , -0.        ,  0.        ,  0.        ,  0.46378912, -0.00286185,  0.        , -0.        ,
         0.        , -0.        ,  0.        , -0.        , -0.        , -0.        , -0.10838013,  0.05474571,  1.47538483, -0.01606974, -0.        ,
        -0.        , -0.        , -0.        , -0.43223628,  0.01959981, -1.06872884],
       [-0.07561401, -0.00662346,  1.3240875 , -0.        , -0.        ,  0.        , -0.        , -0.00913685,  0.04083057, -0.        ,  0.        ,
         0.        , -0.        ,  0.        , -0.        ,  0.        ,  0.        ,  0.00068423,  0.31276024, -0.01606974,  2.97101959,  0.        ,
         0.        ,  0.        ,  0.        ,  0.01705989, -0.14927499,  0.00393431],
       [-0.        ,  0.        ,  0.        , -0.64275347,  1.19929287, -0.00686527, -0.00445178,  0.        , -0.        ,  0.01199656, -0.00799702,
         0.        , -0.        , -0.        , -0.        ,  0.00011094, -0.00007131,  0.        ,  0.        , -0.        ,  0.        ,  3.05027504,
         0.        ,  0.02195609,  0.00530957,  0.        , -0.        , -0.        ],
       [-0.        , -0.        ,  0.        ,  1.19929287,  0.64275347, -0.00445178,  0.00686527,  0.        ,  0.        ,  0.00799702,  0.01199656,
        -0.        , -0.        ,  0.        ,  0.        ,  0.00007131,  0.00011094, -0.        ,  0.        , -0.        ,  0.        ,  0.        ,
         3.05027504,  0.00530957, -0.02195609,  0.        , -0.        ,  0.        ],
       [-0.        ,  0.        ,  0.        , -0.00188891,  0.00725468, -1.27759035, -0.44907699,  0.        , -0.        , -0.00008215,  0.00003005,
        -0.        , -0.        , -0.        ,  0.        , -0.01373485,  0.00476659,  0.        ,  0.        , -0.        ,  0.        ,  0.02195609,
         0.00530957,  3.10183714, -0.        ,  0.        , -0.        , -0.        ],
       [ 0.        ,  0.        , -0.        , -0.00725468, -0.00188891,  0.44907699, -1.27759035,  0.        , -0.        ,  0.00003005,  0.00008215,
        -0.        ,  0.        ,  0.        , -0.        ,  0.00476659,  0.01373485,  0.        , -0.        , -0.        ,  0.        ,  0.00530957,
        -0.02195609, -0.        ,  3.10183714, -0.        ,  0.        , -0.        ],
       [-0.00074159, -0.02359137,  0.00305096, -0.        ,  0.        , -0.        , -0.        , -1.26481765, -0.00125512,  0.        ,  0.        ,
         0.        ,  0.        ,  0.        , -0.        , -0.        ,  0.        , -0.11935052,  0.01979934, -0.43223628,  0.01705989,  0.        ,
         0.        ,  0.        , -0.        ,  3.16180905,  0.00957852, -0.02019211],
       [-0.09241679, -0.01102805, -0.0263612 , -0.        , -0.        ,  0.        , -0.        ,  0.00085944, -0.03700707,  0.        , -0.        ,
         0.        , -0.        , -0.        , -0.        , -0.        , -0.        ,  0.00028429,  0.96828843,  0.01959981, -0.14927499, -0.        ,
        -0.        , -0.        ,  0.        ,  0.00957852,  1.8447227 , -0.01782881],
       [-0.01170626, -0.1544245 ,  0.00013099,  0.        ,  0.        ,  0.        ,  0.        , -0.04315863,  0.00039872,  0.        ,  0.        ,
         0.        , -0.        ,  0.        , -0.        , -0.        ,  0.        , -0.12126092, -0.01223485, -1.06872884,  0.00393431, -0.        ,
         0.        , -0.        , -0.        , -0.02019211, -0.01782881,  1.62300739]]))
E(UHF) =    -1.203921
NO eigenvalue
[-1. -0. -0. -0. -0. -0. -0. -0. -0. -0. -0. -0. -0.  0.  0.  0.  0.  0.  0.  0.  0.  0.  0.  0.  0.  0.  0.  0.] [-1. -0. -0. -0. -0. -0. -0. -0. -0. -0. -0. -0. -0. -0. -0.  0.  0.  0.  0.  0.  0.  0.  0.  0.  0.  0.  0.  0.]
NO vec
[[ 0.81858579  0.         -0.55807871 ...  0.          0.          0.        ]
 [-0.55907934  0.         -0.82142781 ...  0.          0.          0.        ]
 [ 0.06688245  0.         -0.04983258 ...  0.          0.          0.        ]
 ...
 [ 0.         -0.02900794  0.         ... -0.52739753  0.11423637 -0.07939736]
 [ 0.          0.02300335  0.         ...  0.0107691   0.02800333  0.03277591]
 [ 0.          0.00640291  0.         ...  0.14238515  0.03485575  0.00910723]]
dm(NO)
[[ 1.  0.  0. ...  0.  0.  0.]
 [ 0.  1.  0. ...  0. -0. -0.]
 [ 0.  0.  0. ...  0.  0.  0.]
 ...
 [ 0.  0.  0. ... -0. -0.  0.]
 [ 0. -0.  0. ...  0. -0.  0.]
 [ 0. -0.  0. ...  0.  0. -0.]]
D(g) (NO)
[[ 0.99951369  0.01099813  0.         ... -0.00056688  0.00010802 -0.02872702]
 [-0.01099813  0.99951369  0.02857529 ...  0.         -0.         -0.        ]
 [ 0.         -0.02857529  0.99951369 ...  0.00117555  0.00317691 -0.01061347]
 ...
 [ 0.00056688 -0.         -0.00117555 ...  0.99951369  0.          0.        ]
 [-0.00010802 -0.         -0.00317691 ...  0.          0.99951369 -0.        ]
 [ 0.02872702 -0.          0.01061347 ...  0.         -0.          0.99951369]]
...
N(g) (NO)
[[ 1.00036543 -0.0110075 ]
 [ 0.0110075   1.00036543]]
...
P(g) (NO)
[[ 1.          0.          0.         ...  0.         -0.         -0.        ]
 [ 0.          1.          0.         ...  0.         -0.         -0.        ]
 [-0.00031454 -0.02858573 -0.         ... -0.          0.          0.        ]
 ...
 [ 0.00056709 -0.00000624  0.         ... -0.          0.          0.        ]
 [-0.00010805  0.00000119 -0.         ...  0.         -0.         -0.        ]
 [ 0.02873752 -0.00031621  0.         ... -0.          0.          0.        ]]
...
Pg_ortho
[[ 0.67023158 -0.45775608  0.05476118 ... -0.00047948  0.00038023  0.00010584]
 [-0.45744191  0.31242458 -0.03737523 ... -0.00068434  0.00054268  0.00015105]
 [ 0.05476118 -0.0374009   0.00447426 ... -0.00003918  0.00003107  0.00000865]
 ...
 [-0.00100198  0.00068434 -0.00008187 ...  0.00084107 -0.00066697 -0.00018565]
 [-0.00038023  0.00025969 -0.00003107 ... -0.00066743  0.00052927  0.00014732]
 [ 0.00022117 -0.00015105  0.00001807 ... -0.00018565  0.00014722  0.00004098]]
G(g) (NO)
[[ 0.2333795  -0.00180714 -0.06294765 ...  0.0003938   0.000456   -0.00067299]
 [ 0.00180714  0.2333795   0.00068439 ...  0.00219617 -0.01077252 -0.06651006]
 [-0.06288159  0.01765147  0.85357637 ... -0.00365507 -0.00298411  0.00212403]
 ...
 [-0.00180597  0.00219382 -0.00080291 ...  0.83052037 -0.01022485  0.03473719]
 [ 0.00326803 -0.01077635  0.00062662 ... -0.01022606  0.72647877 -0.12219434]
 [-0.01726964 -0.0664423  -0.00205117 ...  0.0347413  -0.12220205  0.82784677]]
...
C(NO)
[[-1.          0.          0.         ...  0.          0.          0.        ]
 [ 0.         -1.          0.         ... -0.          0.         -0.        ]
 [-0.          0.          0.91052419 ...  0.          0.          0.        ]
 ...
 [ 0.          0.          0.         ...  0.         -0.         -0.49103477]
 [ 0.          0.          0.         ... -0.          0.          0.19465064]
 [ 0.          0.          0.         ... -0.          0.         -0.03300059]]
detC 1.0000000000000018
detNg [1.00085216 1.0226431  1.13130634 1.45643894 2.28421711 4.15871192 6.82432236 7.98438989]
xg [0.99914857 0.97785825 0.88393388 0.68660619 0.43778676 0.24045907 0.1465347  0.12524438]
ciS 1.1243929505950627
[[-0.71864013  0.          0.02649958 ...  0.          0.          0.        ]
 [ 0.         -0.71864013  0.         ...  0.00146483  0.01630264  0.02925568]
 [ 0.02649958  0.         -0.61698186 ...  0.          0.          0.        ]
 ...
 [ 0.          0.00146483  0.         ...  1.63495287 -0.09758998 -0.01094333]
 [ 0.          0.01630264  0.         ... -0.09758998  0.58923032  0.00262389]
 [ 0.          0.02925568  0.         ... -0.01094333  0.00262389 -0.65455455]]
ciH -1.3505313135095653
S2 = 0.000000
X(g)
[[ 2.         -0.         -0.00031454 ... -0.00056709  0.00010805 -0.02873752]
 [ 0.          2.          0.02858573 ... -0.00000624  0.00000119 -0.00031621]
 [-0.00031454 -0.02858573  0.         ...  0.          0.          0.        ]
 ...
 [ 0.00056709 -0.00000624  0.         ...  0.          0.          0.        ]
 [-0.00010805  0.00000119  0.         ...  0.          0.          0.        ]
 [ 0.02873752 -0.00031621  0.         ...  0.          0.          0.        ]]
X(g) int
[[ 2.         -0.         -0.28744149 ... -0.01269819  0.00241956 -0.64348952]
 [ 0.          2.          0.64009061 ... -0.0057023   0.00108653 -0.28896782]
 [-0.28744149 -0.64009061  0.         ...  0.          0.          0.        ]
 ...
 [ 0.01269819 -0.0057023   0.         ...  0.          0.          0.        ]
 [-0.00241956  0.00108653  0.         ...  0.          0.          0.        ]
 [ 0.64348952 -0.28896782  0.         ...  0.          0.          0.        ]]
Hsp + Hph =  -1.201120402609091
Feff (mod,ortho)
[[-0.21314664  0.30091595 -0.13043345 ...  0.          0.          0.        ]
 [ 0.30091595 -0.06548206  0.05143841 ...  0.          0.          0.        ]
 [-0.13043345  0.05143841  1.43470171 ...  0.          0.          0.        ]
 ...
 [ 0.          0.          0.         ...  3.16186863  0.00949136 -0.02014943]
 [ 0.          0.          0.         ...  0.00949136  1.84482346 -0.01785385]
 [ 0.          0.          0.         ... -0.02014943 -0.01785385  1.62298565]]
E(SUHF) =     -0.98944952
e_a, e_b
[-0.49201769  0.05191693  0.37030108  0.49500764  0.67032939  0.73107118  0.73107118  0.83452627  0.83452627  0.9900186   2.48050849  2.60245314  3.41984921
  3.42401095  3.42401095  3.4241939   3.4241939   3.47491311  3.47637299  3.47637299  3.47655368  3.47655368  3.79909599  3.83480671  3.83480671  3.92531775
  3.92531775  4.09207364] [-0.49201769  0.05191693  0.37030108  0.49500764  0.67032939  0.73107118  0.73107118  0.83452627  0.83452627  0.9900186   2.48050849  2.60245314  3.41984921
  3.42401095  3.42401095  3.4241939   3.4241939   3.47491311  3.47637299  3.47637299  3.47655368  3.47655368  3.79909599  3.83480671  3.83480671  3.92531775
  3.92531775  4.09207364]
P_a, P_b
[[ 0.57045898 -0.48298483  0.05249183 -0.         -0.          0.         -0.          0.06138697  0.00281197 -0.          0.         -0.         -0.
  -0.         -0.          0.         -0.         -0.00228862  0.0266046   0.0596608  -0.00901985 -0.          0.         -0.         -0.          0.0249425
   0.01387842 -0.00780872]
 [-0.48298483  0.40892396 -0.04444274  0.          0.         -0.          0.         -0.05197389 -0.00238078  0.         -0.          0.          0.
   0.          0.         -0.          0.          0.00193769 -0.02252505 -0.05051242  0.00763674  0.         -0.          0.          0.         -0.02111782
  -0.01175031  0.00661133]
 [ 0.05249183 -0.04444274  0.00483013 -0.         -0.          0.         -0.          0.00564863  0.00025875 -0.          0.         -0.         -0.
  -0.         -0.          0.         -0.         -0.00021059  0.00244807  0.0054898  -0.00082998 -0.          0.         -0.         -0.          0.00229513
   0.00127705 -0.00071853]
 [-0.          0.         -0.          0.          0.         -0.          0.         -0.         -0.          0.         -0.          0.          0.
   0.          0.         -0.          0.          0.         -0.         -0.          0.          0.         -0.          0.          0.         -0.
  -0.          0.        ]
 [-0.          0.         -0.          0.          0.         -0.          0.         -0.         -0.          0.         -0.          0.          0.
   0.          0.         -0.          0.          0.         -0.         -0.          0.          0.         -0.          0.          0.         -0.
  -0.          0.        ]
 [ 0.         -0.          0.         -0.         -0.          0.         -0.          0.          0.         -0.          0.         -0.         -0.
  -0.         -0.          0.         -0.         -0.          0.          0.         -0.         -0.          0.         -0.         -0.          0.
   0.         -0.        ]
 [-0.          0.         -0.          0.          0.         -0.          0.         -0.         -0.          0.         -0.          0.          0.
   0.          0.         -0.          0.          0.         -0.         -0.          0.          0.         -0.          0.          0.         -0.
  -0.          0.        ]
 [ 0.06138697 -0.05197389  0.00564863 -0.         -0.          0.         -0.          0.00660584  0.0003026  -0.          0.         -0.         -0.
  -0.         -0.          0.         -0.         -0.00024628  0.00286292  0.00642009 -0.00097062 -0.          0.         -0.         -0.          0.00268406
   0.00149345 -0.00084029]
 [ 0.00281197 -0.00238078  0.00025875 -0.         -0.          0.         -0.          0.0003026   0.00001386 -0.          0.         -0.         -0.
  -0.         -0.          0.         -0.         -0.00001128  0.00013114  0.00029409 -0.00004446 -0.          0.         -0.         -0.          0.00012295
   0.00006841 -0.00003849]
 [-0.          0.         -0.          0.          0.         -0.          0.         -0.         -0.          0.         -0.          0.          0.
   0.          0.         -0.          0.          0.         -0.         -0.          0.          0.         -0.          0.          0.         -0.
  -0.          0.        ]
 [ 0.         -0.          0.         -0.         -0.          0.         -0.          0.          0.         -0.          0.         -0.         -0.
  -0.         -0.          0.         -0.         -0.          0.          0.         -0.         -0.          0.         -0.         -0.          0.
   0.         -0.        ]
 [-0.          0.         -0.          0.          0.         -0.          0.         -0.         -0.          0.         -0.          0.          0.
   0.          0.         -0.          0.          0.         -0.         -0.          0.          0.         -0.          0.          0.         -0.
  -0.          0.        ]
 [-0.          0.         -0.          0.          0.         -0.          0.         -0.         -0.          0.         -0.          0.          0.
   0.          0.         -0.          0.          0.         -0.         -0.          0.          0.         -0.          0.          0.         -0.
  -0.          0.        ]
 [-0.          0.         -0.          0.          0.         -0.          0.         -0.         -0.          0.         -0.          0.          0.
   0.          0.         -0.          0.          0.         -0.         -0.          0.          0.         -0.          0.          0.         -0.
  -0.          0.        ]
 [-0.          0.         -0.          0.          0.         -0.          0.         -0.         -0.          0.         -0.          0.          0.
   0.          0.         -0.          0.          0.         -0.         -0.          0.          0.         -0.          0.          0.         -0.
  -0.          0.        ]
 [ 0.         -0.          0.         -0.         -0.          0.         -0.          0.          0.         -0.          0.         -0.         -0.
  -0.         -0.          0.         -0.         -0.          0.          0.         -0.         -0.          0.         -0.         -0.          0.
   0.         -0.        ]
 [-0.          0.         -0.          0.          0.         -0.          0.         -0.         -0.          0.         -0.          0.          0.
   0.          0.         -0.          0.          0.         -0.         -0.          0.          0.         -0.          0.          0.         -0.
  -0.          0.        ]
 [-0.00228862  0.00193769 -0.00021059  0.          0.         -0.          0.         -0.00024628 -0.00001128  0.         -0.          0.          0.
   0.          0.         -0.          0.          0.00000918 -0.00010673 -0.00023935  0.00003619  0.         -0.          0.          0.         -0.00010007
  -0.00005568  0.00003133]
 [ 0.0266046  -0.02252505  0.00244807 -0.         -0.          0.         -0.          0.00286292  0.00013114 -0.          0.         -0.         -0.
  -0.         -0.          0.         -0.         -0.00010673  0.00124076  0.00278241 -0.00042066 -0.          0.         -0.         -0.          0.00116325
   0.00064725 -0.00036418]
 [ 0.0596608  -0.05051242  0.0054898  -0.         -0.          0.         -0.          0.00642009  0.00029409 -0.          0.         -0.         -0.
  -0.         -0.          0.         -0.         -0.00023935  0.00278241  0.00623956 -0.00094333 -0.          0.         -0.         -0.          0.00260858
   0.00145146 -0.00081667]
 [-0.00901985  0.00763674 -0.00082998  0.          0.         -0.          0.         -0.00097062 -0.00004446  0.         -0.          0.          0.
   0.          0.         -0.          0.          0.00003619 -0.00042066 -0.00094333  0.00014262  0.         -0.          0.          0.         -0.00039438
  -0.00021944  0.00012347]
 [-0.          0.         -0.          0.          0.         -0.          0.         -0.         -0.          0.         -0.          0.          0.
   0.          0.         -0.          0.          0.         -0.         -0.          0.          0.         -0.          0.          0.         -0.
  -0.          0.        ]
 [ 0.         -0.          0.         -0.         -0.          0.         -0.          0.          0.         -0.          0.         -0.         -0.
  -0.         -0.          0.         -0.         -0.          0.          0.         -0.         -0.          0.         -0.         -0.          0.
   0.         -0.        ]
 [-0.          0.         -0.          0.          0.         -0.          0.         -0.         -0.          0.         -0.          0.          0.
   0.          0.         -0.          0.          0.         -0.         -0.          0.          0.         -0.          0.          0.         -0.
  -0.          0.        ]
 [-0.          0.         -0.          0.          0.         -0.          0.         -0.         -0.          0.         -0.          0.          0.
   0.          0.         -0.          0.          0.         -0.         -0.          0.          0.         -0.          0.          0.         -0.
  -0.          0.        ]
 [ 0.0249425  -0.02111782  0.00229513 -0.         -0.          0.         -0.          0.00268406  0.00012295 -0.          0.         -0.         -0.
  -0.         -0.          0.         -0.         -0.00010007  0.00116325  0.00260858 -0.00039438 -0.          0.         -0.         -0.          0.00109058
   0.00060681 -0.00034143]
 [ 0.01387842 -0.01175031  0.00127705 -0.         -0.          0.         -0.          0.00149345  0.00006841 -0.          0.         -0.         -0.
  -0.         -0.          0.         -0.         -0.00005568  0.00064725  0.00145146 -0.00021944 -0.          0.         -0.         -0.          0.00060681
   0.00033764 -0.00018997]
 [-0.00780872  0.00661133 -0.00071853  0.          0.         -0.          0.         -0.00084029 -0.00003849  0.         -0.          0.          0.
   0.          0.         -0.          0.          0.00003133 -0.00036418 -0.00081667  0.00012347  0.         -0.          0.          0.         -0.00034143
  -0.00018997  0.00010689]] 
 [[ 0.57045898  0.48298483  0.05249183  0.          0.          0.          0.         -0.06138697  0.00281197 -0.          0.          0.          0.
   0.          0.         -0.          0.          0.00228862  0.0266046  -0.0596608  -0.00901985 -0.         -0.         -0.          0.         -0.0249425
   0.01387842  0.00780872]
 [ 0.48298483  0.40892396  0.04444274  0.          0.          0.          0.         -0.05197389  0.00238078 -0.          0.          0.          0.
   0.          0.         -0.          0.          0.00193769  0.02252505 -0.05051242 -0.00763674 -0.         -0.         -0.          0.         -0.02111782
   0.01175031  0.00661133]
 [ 0.05249183  0.04444274  0.00483013  0.          0.          0.          0.         -0.00564863  0.00025875 -0.          0.          0.          0.
   0.          0.         -0.          0.          0.00021059  0.00244807 -0.0054898  -0.00082998 -0.         -0.         -0.          0.         -0.00229513
   0.00127705  0.00071853]
 [ 0.          0.          0.          0.          0.          0.          0.         -0.          0.         -0.          0.          0.          0.
   0.          0.         -0.          0.          0.          0.         -0.         -0.         -0.         -0.         -0.          0.         -0.
   0.          0.        ]
 [ 0.          0.          0.          0.          0.          0.          0.         -0.          0.         -0.          0.          0.          0.
   0.          0.         -0.          0.          0.          0.         -0.         -0.         -0.         -0.         -0.          0.         -0.
   0.          0.        ]
 [ 0.          0.          0.          0.          0.          0.          0.         -0.          0.         -0.          0.          0.          0.
   0.          0.         -0.          0.          0.          0.         -0.         -0.         -0.         -0.         -0.          0.         -0.
   0.          0.        ]
 [ 0.          0.          0.          0.          0.          0.          0.         -0.          0.         -0.          0.          0.          0.
   0.          0.         -0.          0.          0.          0.         -0.         -0.         -0.         -0.         -0.          0.         -0.
   0.          0.        ]
 [-0.06138697 -0.05197389 -0.00564863 -0.         -0.         -0.         -0.          0.00660584 -0.0003026   0.         -0.         -0.         -0.
  -0.         -0.          0.         -0.         -0.00024628 -0.00286292  0.00642009  0.00097062  0.          0.          0.         -0.          0.00268406
  -0.00149345 -0.00084029]
 [ 0.00281197  0.00238078  0.00025875  0.          0.          0.          0.         -0.0003026   0.00001386 -0.          0.          0.          0.
   0.          0.         -0.          0.          0.00001128  0.00013114 -0.00029409 -0.00004446 -0.         -0.         -0.          0.         -0.00012295
   0.00006841  0.00003849]
 [-0.         -0.         -0.         -0.         -0.         -0.         -0.          0.         -0.          0.         -0.         -0.         -0.
  -0.         -0.          0.         -0.         -0.         -0.          0.          0.          0.          0.          0.         -0.          0.
  -0.         -0.        ]
 [ 0.          0.          0.          0.          0.          0.          0.         -0.          0.         -0.          0.          0.          0.
   0.          0.         -0.          0.          0.          0.         -0.         -0.         -0.         -0.         -0.          0.         -0.
   0.          0.        ]
 [ 0.          0.          0.          0.          0.          0.          0.         -0.          0.         -0.          0.          0.          0.
   0.          0.         -0.          0.          0.          0.         -0.         -0.         -0.         -0.         -0.          0.         -0.
   0.          0.        ]
 [ 0.          0.          0.          0.          0.          0.          0.         -0.          0.         -0.          0.          0.          0.
   0.          0.         -0.          0.          0.          0.         -0.         -0.         -0.         -0.         -0.          0.         -0.
   0.          0.        ]
 [ 0.          0.          0.          0.          0.          0.          0.         -0.          0.         -0.          0.          0.          0.
   0.          0.         -0.          0.          0.          0.         -0.         -0.         -0.         -0.         -0.          0.         -0.
   0.          0.        ]
 [ 0.          0.          0.          0.          0.          0.          0.         -0.          0.         -0.          0.          0.          0.
   0.          0.         -0.          0.          0.          0.         -0.         -0.         -0.         -0.         -0.          0.         -0.
   0.          0.        ]
 [-0.         -0.         -0.         -0.         -0.         -0.         -0.          0.         -0.          0.         -0.         -0.         -0.
  -0.         -0.          0.         -0.         -0.         -0.          0.          0.          0.          0.          0.         -0.          0.
  -0.         -0.        ]
 [ 0.          0.          0.          0.          0.          0.          0.         -0.          0.         -0.          0.          0.          0.
   0.          0.         -0.          0.          0.          0.         -0.         -0.         -0.         -0.         -0.          0.         -0.
   0.          0.        ]
 [ 0.00228862  0.00193769  0.00021059  0.          0.          0.          0.         -0.00024628  0.00001128 -0.          0.          0.          0.
   0.          0.         -0.          0.          0.00000918  0.00010673 -0.00023935 -0.00003619 -0.         -0.         -0.          0.         -0.00010007
   0.00005568  0.00003133]
 [ 0.0266046   0.02252505  0.00244807  0.          0.          0.          0.         -0.00286292  0.00013114 -0.          0.          0.          0.
   0.          0.         -0.          0.          0.00010673  0.00124076 -0.00278241 -0.00042066 -0.         -0.         -0.          0.         -0.00116325
   0.00064725  0.00036418]
 [-0.0596608  -0.05051242 -0.0054898  -0.         -0.         -0.         -0.          0.00642009 -0.00029409  0.         -0.         -0.         -0.
  -0.         -0.          0.         -0.         -0.00023935 -0.00278241  0.00623956  0.00094333  0.          0.          0.         -0.          0.00260858
  -0.00145146 -0.00081667]
 [-0.00901985 -0.00763674 -0.00082998 -0.         -0.         -0.         -0.          0.00097062 -0.00004446  0.         -0.         -0.         -0.
  -0.         -0.          0.         -0.         -0.00003619 -0.00042066  0.00094333  0.00014262  0.          0.          0.         -0.          0.00039438
  -0.00021944 -0.00012347]
 [-0.         -0.         -0.         -0.         -0.         -0.         -0.          0.         -0.          0.         -0.         -0.         -0.
  -0.         -0.          0.         -0.         -0.         -0.          0.          0.          0.          0.          0.         -0.          0.
  -0.         -0.        ]
 [-0.         -0.         -0.         -0.         -0.         -0.         -0.          0.         -0.          0.         -0.         -0.         -0.
  -0.         -0.          0.         -0.         -0.         -0.          0.          0.          0.          0.          0.         -0.          0.
  -0.         -0.        ]
 [-0.         -0.         -0.         -0.         -0.         -0.         -0.          0.         -0.          0.         -0.         -0.         -0.
  -0.         -0.          0.         -0.         -0.         -0.          0.          0.          0.          0.          0.         -0.          0.
  -0.         -0.        ]
 [ 0.          0.          0.          0.          0.          0.          0.         -0.          0.         -0.          0.          0.          0.
   0.          0.         -0.          0.          0.          0.         -0.         -0.         -0.         -0.         -0.          0.         -0.
   0.          0.        ]
 [-0.0249425  -0.02111782 -0.00229513 -0.         -0.         -0.         -0.          0.00268406 -0.00012295  0.         -0.         -0.         -0.
  -0.         -0.          0.         -0.         -0.00010007 -0.00116325  0.00260858  0.00039438  0.          0.          0.         -0.          0.00109058
  -0.00060681 -0.00034143]
 [ 0.01387842  0.01175031  0.00127705  0.          0.          0.          0.         -0.00149345  0.00006841 -0.          0.          0.          0.
   0.          0.         -0.          0.          0.00005568  0.00064725 -0.00145146 -0.00021944 -0.         -0.         -0.          0.         -0.00060681
   0.00033764  0.00018997]
 [ 0.00780872  0.00661133  0.00071853  0.          0.          0.          0.         -0.00084029  0.00003849 -0.          0.          0.          0.
[...]
 [-0.7374122   0.14482811  0.         ...  0.          0.          0.        ]]
Hsp + Hph =  -1.2156825937807494
Feff (mod,ortho)
[[-0.21255162  0.31099538 -0.13651897 ...  0.          0.          0.        ]
 [ 0.31099538 -0.05729658  0.05829909 ...  0.          0.          0.        ]
 [-0.13651897  0.05829909  1.44143119 ...  0.          0.          0.        ]
 ...
 [ 0.          0.          0.         ...  3.16509438  0.0102141  -0.01985188]
 [ 0.          0.          0.         ...  0.0102141   1.84871845 -0.01930415]
 [ 0.          0.          0.         ... -0.01985188 -0.01930415  1.6271672 ]]
E(SUHF) =     -1.00401171
e_a, e_b
[-0.49927136  0.06084754  0.36792345  0.50248632  0.67410474  0.73245766  0.73245766  0.84004597  0.84004597  0.9930285   2.48403976  2.61679803  3.42539599
  3.42923952  3.42923952  3.42951001  3.42951001  3.4828541   3.48534715  3.48534715  3.48567194  3.48567194  3.80697871  3.84157273  3.84157273  3.9383269
  3.9383269   4.10271896] [-0.49927136  0.06084754  0.36792345  0.50248632  0.67410474  0.73245766  0.73245766  0.84004597  0.84004597  0.9930285   2.48403976  2.61679803  3.42539599
  3.42923952  3.42923952  3.42951001  3.42951001  3.4828541   3.48534715  3.48534715  3.48567194  3.48567194  3.80697871  3.84157273  3.84157273  3.9383269
  3.9383269   4.10271896]
P_a, P_b
[[ 0.57001363 -0.4826968   0.0577716  -0.         -0.          0.         -0.          0.06335067  0.00363999 -0.         -0.         -0.         -0.
  -0.         -0.          0.          0.         -0.00258125  0.01550876  0.05733707 -0.01034408 -0.          0.         -0.         -0.          0.02550931
   0.01877851 -0.00962762]
 [-0.4826968   0.40875549 -0.04892193  0.          0.         -0.          0.         -0.05364638 -0.0030824   0.          0.          0.          0.
   0.          0.         -0.         -0.          0.00218584 -0.01313307 -0.04855397  0.00875953  0.         -0.          0.          0.         -0.0216017
  -0.01590195  0.00815282]
 [ 0.0577716  -0.04892193  0.00585522 -0.         -0.          0.         -0.          0.00642067  0.00036892 -0.         -0.         -0.         -0.
  -0.         -0.          0.          0.         -0.00026161  0.00157183  0.00581118 -0.00104839 -0.          0.         -0.         -0.          0.0025854
   0.00190323 -0.00097577]
 [-0.          0.         -0.          0.          0.         -0.          0.         -0.         -0.          0.          0.          0.          0.
   0.          0.         -0.         -0.          0.         -0.         -0.          0.          0.         -0.          0.          0.         -0.
  -0.          0.        ]
 [-0.          0.         -0.          0.          0.         -0.          0.         -0.         -0.          0.          0.          0.          0.
   0.          0.         -0.         -0.          0.         -0.         -0.          0.          0.         -0.          0.          0.         -0.
  -0.          0.        ]
 [ 0.         -0.          0.         -0.         -0.          0.         -0.          0.          0.         -0.         -0.         -0.         -0.
  -0.         -0.          0.          0.         -0.          0.          0.         -0.         -0.          0.         -0.         -0.          0.
   0.         -0.        ]
 [-0.          0.         -0.          0.          0.         -0.          0.         -0.         -0.          0.          0.          0.          0.
   0.          0.         -0.         -0.          0.         -0.         -0.          0.          0.         -0.          0.          0.         -0.
  -0.          0.        ]
 [ 0.06335067 -0.05364638  0.00642067 -0.         -0.          0.         -0.          0.00704072  0.00040454 -0.         -0.         -0.         -0.
  -0.         -0.          0.          0.         -0.00028688  0.00172363  0.00637238 -0.00114963 -0.          0.         -0.         -0.          0.00283508
   0.00208702 -0.00107   ]
 [ 0.00363999 -0.0030824   0.00036892 -0.         -0.          0.         -0.          0.00040454  0.00002324 -0.         -0.         -0.         -0.
  -0.         -0.          0.          0.         -0.00001648  0.00009904  0.00036614 -0.00006606 -0.          0.         -0.         -0.          0.0001629
   0.00011992 -0.00006148]
 [-0.          0.         -0.          0.          0.         -0.          0.         -0.         -0.          0.          0.          0.          0.
   0.          0.         -0.         -0.          0.         -0.         -0.          0.          0.         -0.          0.          0.         -0.
  -0.          0.        ]
 [-0.          0.         -0.          0.          0.         -0.          0.         -0.         -0.          0.          0.          0.          0.
   0.          0.         -0.         -0.          0.         -0.         -0.          0.          0.         -0.          0.          0.         -0.
  -0.          0.        ]
 [-0.          0.         -0.          0.          0.         -0.          0.         -0.         -0.          0.          0.          0.          0.
   0.          0.         -0.         -0.          0.         -0.         -0.          0.          0.         -0.          0.          0.         -0.
  -0.          0.        ]
 [-0.          0.         -0.          0.          0.         -0.          0.         -0.         -0.          0.          0.          0.          0.
   0.          0.         -0.         -0.          0.         -0.         -0.          0.          0.         -0.          0.          0.         -0.
  -0.          0.        ]
 [-0.          0.         -0.          0.          0.         -0.          0.         -0.         -0.          0.          0.          0.          0.
   0.          0.         -0.         -0.          0.         -0.         -0.          0.          0.         -0.          0.          0.         -0.
  -0.          0.        ]
 [-0.          0.         -0.          0.          0.         -0.          0.         -0.         -0.          0.          0.          0.          0.
   0.          0.         -0.         -0.          0.         -0.         -0.          0.          0.         -0.          0.          0.         -0.
  -0.          0.        ]
 [ 0.         -0.          0.         -0.         -0.          0.         -0.          0.          0.         -0.         -0.         -0.         -0.
  -0.         -0.          0.          0.         -0.          0.          0.         -0.         -0.          0.         -0.         -0.          0.
   0.         -0.        ]
 [ 0.         -0.          0.         -0.         -0.          0.         -0.          0.          0.         -0.         -0.         -0.         -0.
  -0.         -0.          0.          0.         -0.          0.          0.         -0.         -0.          0.         -0.         -0.          0.
   0.         -0.        ]
 [-0.00258125  0.00218584 -0.00026161  0.          0.         -0.          0.         -0.00028688 -0.00001648  0.          0.          0.          0.
   0.          0.         -0.         -0.          0.00001169 -0.00007023 -0.00025965  0.00004684  0.         -0.          0.          0.         -0.00011552
  -0.00008504  0.0000436 ]
 [ 0.01550876 -0.01313307  0.00157183 -0.         -0.          0.         -0.          0.00172363  0.00009904 -0.         -0.         -0.         -0.
  -0.         -0.          0.          0.         -0.00007023  0.00042196  0.00156001 -0.00028144 -0.          0.         -0.         -0.          0.00069405
   0.00051092 -0.00026195]
 [ 0.05733707 -0.04855397  0.00581118 -0.         -0.          0.         -0.          0.00637238  0.00036614 -0.         -0.         -0.         -0.
  -0.         -0.          0.          0.         -0.00025965  0.00156001  0.00576748 -0.0010405  -0.          0.         -0.         -0.          0.00256595
   0.00188891 -0.00096843]
 [-0.01034408  0.00875953 -0.00104839  0.          0.         -0.          0.         -0.00114963 -0.00006606  0.          0.          0.          0.
   0.          0.         -0.         -0.          0.00004684 -0.00028144 -0.0010405   0.00018771  0.         -0.          0.          0.         -0.00046292
  -0.00034077  0.00017471]
 [-0.          0.         -0.          0.          0.         -0.          0.         -0.         -0.          0.          0.          0.          0.
   0.          0.         -0.         -0.          0.         -0.         -0.          0.          0.         -0.          0.          0.         -0.
  -0.          0.        ]
 [ 0.         -0.          0.         -0.         -0.          0.         -0.          0.          0.         -0.         -0.         -0.         -0.
  -0.         -0.          0.          0.         -0.          0.          0.         -0.         -0.          0.         -0.         -0.          0.
   0.         -0.        ]
 [-0.          0.         -0.          0.          0.         -0.          0.         -0.         -0.          0.          0.          0.          0.
   0.          0.         -0.         -0.          0.         -0.         -0.          0.          0.         -0.          0.          0.         -0.
  -0.          0.        ]
 [-0.          0.         -0.          0.          0.         -0.          0.         -0.         -0.          0.          0.          0.          0.
   0.          0.         -0.         -0.          0.         -0.         -0.          0.          0.         -0.          0.          0.         -0.
  -0.          0.        ]
 [ 0.02550931 -0.0216017   0.0025854  -0.         -0.          0.         -0.          0.00283508  0.0001629  -0.         -0.         -0.         -0.
  -0.         -0.          0.          0.         -0.00011552  0.00069405  0.00256595 -0.00046292 -0.          0.         -0.         -0.          0.0011416
   0.00084038 -0.00043086]
 [ 0.01877851 -0.01590195  0.00190323 -0.         -0.          0.         -0.          0.00208702  0.00011992 -0.         -0.         -0.         -0.
  -0.         -0.          0.          0.         -0.00008504  0.00051092  0.00188891 -0.00034077 -0.          0.         -0.         -0.          0.00084038
   0.00061864 -0.00031717]
 [-0.00962762  0.00815282 -0.00097577  0.          0.         -0.          0.         -0.00107    -0.00006148  0.          0.          0.          0.
   0.          0.         -0.         -0.          0.0000436  -0.00026195 -0.00096843  0.00017471  0.         -0.          0.          0.         -0.00043086
  -0.00031717  0.00016261]] 
 [[ 0.57001363  0.4826968   0.0577716   0.          0.         -0.          0.         -0.06335067  0.00363999 -0.          0.          0.          0.
   0.          0.          0.          0.          0.00258125  0.01550876 -0.05733707 -0.01034408 -0.         -0.         -0.          0.         -0.02550931
   0.01877851  0.00962762]
 [ 0.4826968   0.40875549  0.04892193  0.          0.         -0.          0.         -0.05364638  0.0030824  -0.          0.          0.          0.
   0.          0.          0.          0.          0.00218584  0.01313307 -0.04855397 -0.00875953 -0.         -0.         -0.          0.         -0.0216017
   0.01590195  0.00815282]
 [ 0.0577716   0.04892193  0.00585522  0.          0.         -0.          0.         -0.00642067  0.00036892 -0.          0.          0.          0.
   0.          0.          0.          0.          0.00026161  0.00157183 -0.00581118 -0.00104839 -0.         -0.         -0.          0.         -0.0025854
   0.00190323  0.00097577]
 [ 0.          0.          0.          0.          0.         -0.          0.         -0.          0.         -0.          0.          0.          0.
   0.          0.          0.          0.          0.          0.         -0.         -0.         -0.         -0.         -0.          0.         -0.
   0.          0.        ]
 [ 0.          0.          0.          0.          0.         -0.          0.         -0.          0.         -0.          0.          0.          0.
   0.          0.          0.          0.          0.          0.         -0.         -0.         -0.         -0.         -0.          0.         -0.
   0.          0.        ]
 [-0.         -0.         -0.         -0.         -0.          0.         -0.          0.         -0.          0.         -0.         -0.         -0.
  -0.         -0.         -0.         -0.         -0.         -0.          0.          0.          0.          0.          0.         -0.          0.
  -0.         -0.        ]
 [ 0.          0.          0.          0.          0.         -0.          0.         -0.          0.         -0.          0.          0.          0.
   0.          0.          0.          0.          0.          0.         -0.         -0.         -0.         -0.         -0.          0.         -0.
   0.          0.        ]
 [-0.06335067 -0.05364638 -0.00642067 -0.         -0.          0.         -0.          0.00704072 -0.00040454  0.         -0.         -0.         -0.
  -0.         -0.         -0.         -0.         -0.00028688 -0.00172363  0.00637238  0.00114963  0.          0.          0.         -0.          0.00283508
  -0.00208702 -0.00107   ]
 [ 0.00363999  0.0030824   0.00036892  0.          0.         -0.          0.         -0.00040454  0.00002324 -0.          0.          0.          0.
   0.          0.          0.          0.          0.00001648  0.00009904 -0.00036614 -0.00006606 -0.         -0.         -0.          0.         -0.0001629
   0.00011992  0.00006148]
 [-0.         -0.         -0.         -0.         -0.          0.         -0.          0.         -0.          0.         -0.         -0.         -0.
  -0.         -0.         -0.         -0.         -0.         -0.          0.          0.          0.          0.          0.         -0.          0.
  -0.         -0.        ]
 [ 0.          0.          0.          0.          0.         -0.          0.         -0.          0.         -0.          0.          0.          0.
   0.          0.          0.          0.          0.          0.         -0.         -0.         -0.         -0.         -0.          0.         -0.
   0.          0.        ]
 [ 0.          0.          0.          0.          0.         -0.          0.         -0.          0.         -0.          0.          0.          0.
   0.          0.          0.          0.          0.          0.         -0.         -0.         -0.         -0.         -0.          0.         -0.
   0.          0.        ]
 [ 0.          0.          0.          0.          0.         -0.          0.         -0.          0.         -0.          0.          0.          0.
   0.          0.          0.          0.          0.          0.         -0.         -0.         -0.         -0.         -0.          0.         -0.
   0.          0.        ]
 [ 0.          0.          0.          0.          0.         -0.          0.         -0.          0.         -0.          0.          0.          0.
   0.          0.          0.          0.          0.          0.         -0.         -0.         -0.         -0.         -0.          0.         -0.
   0.          0.        ]
 [ 0.          0.          0.          0.          0.         -0.          0.         -0.          0.         -0.          0.          0.          0.
   0.          0.          0.          0.          0.          0.         -0.         -0.         -0.         -0.         -0.          0.         -0.
   0.          0.        ]
 [ 0.          0.          0.          0.          0.         -0.          0.         -0.          0.         -0.          0.          0.          0.
   0.          0.          0.          0.          0.          0.         -0.         -0.         -0.         -0.         -0.          0.         -0.
   0.          0.        ]
 [ 0.          0.          0.          0.          0.         -0.          0.         -0.          0.         -0.          0.          0.          0.
   0.          0.          0.          0.          0.          0.         -0.         -0.         -0.         -0.         -0.          0.         -0.
   0.          0.        ]
 [ 0.00258125  0.00218584  0.00026161  0.          0.         -0.          0.         -0.00028688  0.00001648 -0.          0.          0.          0.
   0.          0.          0.          0.          0.00001169  0.00007023 -0.00025965 -0.00004684 -0.         -0.         -0.          0.         -0.00011552
   0.00008504  0.0000436 ]
 [ 0.01550876  0.01313307  0.00157183  0.          0.         -0.          0.         -0.00172363  0.00009904 -0.          0.          0.          0.
   0.          0.          0.          0.          0.00007023  0.00042196 -0.00156001 -0.00028144 -0.         -0.         -0.          0.         -0.00069405
   0.00051092  0.00026195]
 [-0.05733707 -0.04855397 -0.00581118 -0.         -0.          0.         -0.          0.00637238 -0.00036614  0.         -0.         -0.         -0.
  -0.         -0.         -0.         -0.         -0.00025965 -0.00156001  0.00576748  0.0010405   0.          0.          0.         -0.          0.00256595
  -0.00188891 -0.00096843]
 [-0.01034408 -0.00875953 -0.00104839 -0.         -0.          0.         -0.          0.00114963 -0.00006606  0.         -0.         -0.         -0.
  -0.         -0.         -0.         -0.         -0.00004684 -0.00028144  0.0010405   0.00018771  0.          0.          0.         -0.          0.00046292
  -0.00034077 -0.00017471]
 [-0.         -0.         -0.         -0.         -0.          0.         -0.          0.         -0.          0.         -0.         -0.         -0.
  -0.         -0.         -0.         -0.         -0.         -0.          0.          0.          0.          0.          0.         -0.          0.
  -0.         -0.        ]
 [-0.         -0.         -0.         -0.         -0.          0.         -0.          0.         -0.          0.         -0.         -0.         -0.
  -0.         -0.         -0.         -0.         -0.         -0.          0.          0.          0.          0.          0.         -0.          0.
  -0.         -0.        ]
 [-0.         -0.         -0.         -0.         -0.          0.         -0.          0.         -0.          0.         -0.         -0.         -0.
  -0.         -0.         -0.         -0.         -0.         -0.          0.          0.          0.          0.          0.         -0.          0.
  -0.         -0.        ]
 [ 0.          0.          0.          0.          0.         -0.          0.         -0.          0.         -0.          0.          0.          0.
   0.          0.          0.          0.          0.          0.         -0.         -0.         -0.         -0.         -0.          0.         -0.
   0.          0.        ]
 [-0.02550931 -0.0216017  -0.0025854  -0.         -0.          0.         -0.          0.00283508 -0.0001629   0.         -0.         -0.         -0.
  -0.         -0.         -0.         -0.         -0.00011552 -0.00069405  0.00256595  0.00046292  0.          0.          0.         -0.          0.0011416
  -0.00084038 -0.00043086]
 [ 0.01877851  0.01590195  0.00190323  0.          0.         -0.          0.         -0.00208702  0.00011992 -0.          0.          0.          0.
   0.          0.          0.          0.          0.00008504  0.00051092 -0.00188891 -0.00034077 -0.         -0.         -0.          0.         -0.00084038
   0.00061864  0.00031717]
 [ 0.00962762  0.00815282  0.00097577  0.          0.         -0.          0.         -0.00107     0.00006148 -0.          0.          0.          0.
   0.          0.          0.          0.          0.0000436   0.00026195 -0.00096843 -0.00017471 -0.         -0.         -0.          0.         -0.00043086
   0.00031717  0.00016261]]

***************
SUHF converged at cycle 8
Final E(SUHF) =     -1.00401171, delta E = -2.51784e-09
