#INFO: **** input file is /share/home/srwang/ExSCF/test/pytest/scan_h2/scan_suhf.py ****
#import phf
from pyscf import lib
#import scipy
import numpy as np
import sys, os, contextlib

from pyphf import util, sudft

#xyz = 'h2.xyz' #sys.argv[1]
fch = 'test_uhf.fchk' #sys.argv[2]
#bas = '../h2.bas'
bas = 'cc-pvtz'

lib.num_threads(8)

for r in np.arange(0.5, 2.55, 0.1):
    output = 'suhf/suhf_%.1f_diis.out' % r
    os.system("echo '\n' > %s" % output)
    with open(output, 'w', encoding='utf-8') as f:
        with contextlib.redirect_stdout(f):
            xyz = '''H 0.0 0.0 0.0; H 0.0 0.0 %f'''%r
            mf = util.guess_from_fchk(xyz, bas, fch)
            #mf = util.guess(xyz, bas)
            #f.flush()
            mf2 = util.SUHF(mf)
            #mf2.cut_no = False
            mf2.debug = False
            #mf2.max_cycle = 50
            mf2.diis_on = True
            #mf2.output = 'sudft_%.1f.out'%r
            mf2.kernel()
            
            #mf3 = sudft.SUDFT(mf2)
            #mf3.suxc = 'TPSS'
            #mf3.kernel()
                    
#INFO: ******************** input file end ********************


System: uname_result(system='Linux', node='xcluster', release='3.10.0-693.el7.x86_64', version='#1 SMP Thu Jul 6 19:56:57 EDT 2017', machine='x86_64', processor='x86_64')  Threads 8
Python 3.7.4 (default, Aug 13 2019, 20:35:49) 
[GCC 7.3.0]
numpy 1.17.2  scipy 1.4.1
Date: Mon Nov 23 19:27:47 2020
PySCF version 1.7.5
PySCF path  /share/home/srwang/pyscf-1.7.5/pyscf

[CONFIG] conf_file None
[INPUT] verbose = 4
[INPUT] num. atoms = 2
[INPUT] num. electrons = 2
[INPUT] charge = 0
[INPUT] spin (= nelec alpha-beta = 2S) = 0
[INPUT] symmetry False subgroup None
[INPUT] Mole.unit = angstrom
[INPUT]  1 H      0.000000000000   0.000000000000   0.000000000000 AA    0.000000000000   0.000000000000   0.000000000000 Bohr
[INPUT]  2 H      0.000000000000   0.000000000000   1.300000000000 AA    0.000000000000   0.000000000000   2.456643961935 Bohr

nuclear repulsion = 0.407059393015385
number of shells = 12
number of NR pGTOs = 32
number of NR cGTOs = 28
basis = cc-pvtz
ecp = {}
CPU time:       585.55


******** <class 'pyscf.scf.uhf.UHF'> ********
method = UHF
initial guess = minao
damping factor = 0
level_shift factor = 0
DIIS = <class 'pyscf.scf.diis.CDIIS'>
diis_start_cycle = 1
diis_space = 8
SCF conv_tol = 1e-09
SCF conv_tol_grad = None
SCF max_cycles = 1
direct_scf = True
direct_scf_tol = 1e-13
chkfile to save SCF result = /share/home/srwang/ExSCF/test/pytest/scan_h2/tmpqy2kbnki
max_memory 4000 MB (current use 124 MB)
number electrons alpha = 1  beta = 1
Set gradient conv threshold to 3.16228e-05
init E= -0.700839632958563
  alpha nocc = 1  HOMO = -0.361662213877272  LUMO = 0.0103454289122661
  beta  nocc = 1  HOMO = -0.359028491806483  LUMO = 0.0110948521151111
cycle= 1 E= -1.04170549944831  delta_E= -0.341  |g|= 0.034  |ddm|= 0.347
SCF not converged.
SCF energy = -1.04170549944831 after 1 cycles  <S^2> = 1.9920431e-07  2S+1 = 1.0000004


******** <class 'pyscf.scf.uhf.UHF'> ********
method = UHF
initial guess = minao
damping factor = 0
level_shift factor = 0
DIIS = <class 'pyscf.scf.diis.CDIIS'>
diis_start_cycle = 1
diis_space = 8
SCF conv_tol = 1e-09
SCF conv_tol_grad = None
SCF max_cycles = 1
direct_scf = True
direct_scf_tol = 1e-13
chkfile to save SCF result = /share/home/srwang/ExSCF/test/pytest/scan_h2/tmpqy2kbnki
max_memory 4000 MB (current use 124 MB)
number electrons alpha = 1  beta = 1
Set gradient conv threshold to 3.16228e-05
init E= -1.06203781425797
  alpha nocc = 1  HOMO = -0.49347940161966  LUMO = 0.102489760698828
  beta  nocc = 1  HOMO = -0.49347940161966  LUMO = 0.102489760698827
cycle= 1 E= -1.04379920339957  delta_E= 0.0182  |g|= 0.0125  |ddm|= 0.0205
SCF not converged.
SCF energy = -1.04379920339957 after 1 cycles  <S^2> = 0.37144695  2S+1 = 1.5766381

******** <class 'pyphf.util.SUHF'> ********
max_cycle = 70
verbose: normal
DIIS: <class 'pyscf.scf.diis.CDIIS'>
diis_start_cyc = 40
SVD: S^(-1/2)
[[-0.14161884  0.06218295  0.          0.         -0.29399509 -0.          0.         -0.07080443 -0.          0.          0.24113707 -0.         -0.
  -0.         -0.         -0.         -0.         -0.65110883  0.35425292  0.          0.         -0.63162538  0.32915555  0.          0.         -0.82580791
   0.40185013 -0.84569649]
 [-0.21832611  0.09701468  0.         -0.         -0.28045134 -0.         -0.         -0.01601192  0.         -0.          0.10386152  0.          0.
   0.          0.         -0.          0.         -0.07861944 -0.04777172  0.         -0.          0.27919776 -0.03390001  0.         -0.          1.6133873
  -0.73357763  2.92145582]
 [-0.22022666  0.17183479  0.          0.         -0.13451915 -0.          0.          0.04553476  0.          0.          0.00466036 -0.          0.
   0.         -0.          0.          0.          0.47956541 -0.05393939 -0.         -0.          0.49604694  0.00553089 -0.          0.         -0.93706093
   2.2521175  -0.14792747]
 [ 0.         -0.         -0.11420623 -0.28425441 -0.          0.33232699 -0.30296005 -0.         -0.05848364 -0.12875383  0.         -0.          0.
  -0.          0.          0.10576925  0.24595772 -0.          0.         -0.25035576 -0.789004   -0.         -0.          0.12718986  0.74344823 -0.
   0.         -0.        ]
 [ 0.         -0.         -0.28425441  0.11420623 -0.          0.30296005  0.33232699 -0.         -0.12875383  0.05848364 -0.         -0.          0.
   0.          0.          0.24595772 -0.10576925 -0.         -0.         -0.789004    0.25035576  0.         -0.         -0.74344823  0.12718986  0.
  -0.          0.        ]
 [-0.07274865 -0.31058464 -0.          0.          0.15786241  0.          0.          0.07973826  0.          0.          0.42479831 -0.         -0.
  -0.         -0.          0.          0.          0.16516095  0.49785273 -0.         -0.          0.48109583  0.89678863  0.          0.          0.12331712
  -0.31633005 -0.31688033]
 [-0.         -0.         -0.14319991 -0.35641844 -0.          0.26315621 -0.23990173 -0.         -0.04019684 -0.08849477 -0.         -0.         -0.
   0.         -0.         -0.00394073 -0.00916384  0.         -0.          0.20774547  0.65471634  0.          0.         -0.18055041 -1.05535049 -0.
   0.          0.        ]
 [-0.         -0.         -0.35641844  0.14319991 -0.          0.23990173  0.26315621 -0.         -0.08849477  0.04019684  0.          0.         -0.
  -0.         -0.         -0.00916384  0.00394073  0.          0.          0.65471634 -0.20774547 -0.         -0.          1.05535049 -0.18055041  0.
   0.         -0.        ]
 [-0.12901909 -0.31334696  0.          0.          0.24581167  0.          0.          0.16781981  0.          0.          0.15030798  0.          0.
   0.          0.         -0.          0.         -0.09663169 -0.00516027  0.          0.         -0.47542556 -0.77871526 -0.         -0.         -0.27119104
   1.0742453   2.41598025]
 [ 0.          0.          0.         -0.          0.          0.          0.          0.         -0.          0.          0.          0.68451322  0.10798711
   0.08875793  0.71666031 -0.         -0.          0.          0.          0.          0.          0.          0.         -0.          0.          0.
   0.         -0.        ]
 [-0.         -0.         -0.11902641  0.0478218  -0.         -0.10245368 -0.11238486 -0.          0.5724781  -0.2600358  -0.         -0.         -0.
   0.          0.          0.70585014 -0.30353688 -0.          0.         -0.07624452  0.02419285  0.         -0.          0.2727603  -0.0466641   0.
   0.         -0.        ]
 [-0.03906174 -0.12307099  0.         -0.          0.00844125 -0.         -0.         -0.61332948 -0.         -0.         -0.39792872  0.          0.
   0.          0.          0.          0.          0.10785406  0.73109038 -0.          0.          0.02992949 -0.13318535 -0.         -0.         -0.07452691
   0.14650194  0.82260846]
 [-0.         -0.         -0.0478218  -0.11902641 -0.         -0.11238486  0.10245368 -0.          0.2600358   0.5724781  -0.         -0.          0.
  -0.          0.          0.30353688  0.70585014 -0.         -0.         -0.02419285 -0.07624452 -0.          0.         -0.0466641  -0.2727603  -0.
  -0.         -0.        ]
 [ 0.          0.         -0.          0.          0.          0.         -0.          0.          0.          0.          0.          0.10798711 -0.68451322
   0.71666031 -0.08875793  0.         -0.          0.          0.         -0.         -0.          0.          0.         -0.          0.          0.
   0.          0.        ]
 [-0.14161884  0.06218295 -0.         -0.          0.29399509 -0.         -0.         -0.07080443 -0.         -0.         -0.24113707  0.          0.
  -0.          0.         -0.         -0.         -0.65110883 -0.35425292 -0.         -0.          0.63162538  0.32915555  0.          0.         -0.82580791
  -0.40185013  0.84569649]
 [-0.21832611  0.09701468 -0.         -0.          0.28045134  0.          0.         -0.01601192 -0.         -0.         -0.10386152 -0.         -0.
  -0.         -0.         -0.          0.         -0.07861944  0.04777172  0.          0.         -0.27919776 -0.03390001 -0.         -0.          1.6133873
   0.73357763 -2.92145582]
 [-0.22022666  0.17183479 -0.          0.          0.13451915  0.          0.          0.04553476  0.         -0.         -0.00466036  0.          0.
   0.          0.          0.         -0.          0.47956541  0.05393939  0.          0.         -0.49604694  0.00553089  0.         -0.         -0.93706093
  -2.2521175   0.14792747]
 [-0.         -0.         -0.11420623 -0.28425441 -0.         -0.33232699  0.30296005  0.         -0.05848364 -0.12875383  0.          0.         -0.
  -0.         -0.         -0.10576925 -0.24595772  0.          0.         -0.25035576 -0.789004   -0.          0.         -0.12718986 -0.74344823  0.
  -0.         -0.        ]
 [-0.         -0.         -0.28425441  0.11420623 -0.         -0.30296005 -0.33232699  0.         -0.12875383  0.05848364  0.          0.          0.
  -0.         -0.         -0.24595772  0.10576925  0.         -0.         -0.789004    0.25035576  0.         -0.          0.74344823 -0.12718986  0.
   0.          0.        ]
 [ 0.07274865  0.31058464 -0.          0.          0.15786241  0.         -0.         -0.07973826  0.         -0.          0.42479831  0.          0.
   0.          0.          0.          0.         -0.16516095  0.49785273 -0.         -0.          0.48109583 -0.89678863 -0.         -0.         -0.12331712
  -0.31633005 -0.31688033]
 [-0.         -0.         -0.14319991 -0.35641844 -0.         -0.26315621  0.23990173  0.         -0.04019684 -0.08849477  0.          0.         -0.
   0.         -0.          0.00394073  0.00916384  0.         -0.          0.20774547  0.65471634  0.         -0.          0.18055041  1.05535049  0.
   0.          0.        ]
 [-0.         -0.         -0.35641844  0.14319991 -0.         -0.23990173 -0.26315621  0.         -0.08849477  0.04019684  0.         -0.         -0.
  -0.          0.          0.00916384 -0.00394073  0.          0.          0.65471634 -0.20774547 -0.         -0.         -1.05535049  0.18055041  0.
  -0.          0.        ]
 [ 0.12901909  0.31334696 -0.         -0.          0.24581167 -0.         -0.         -0.16781981 -0.         -0.          0.15030798 -0.          0.
   0.          0.         -0.         -0.          0.09663169 -0.00516027  0.          0.         -0.47542556  0.77871526  0.          0.          0.27119104
   1.0742453   2.41598025]
 [ 0.          0.         -0.          0.         -0.          0.         -0.          0.          0.         -0.          0.          0.68451322  0.10798711
  -0.08875793 -0.71666031  0.         -0.         -0.         -0.         -0.         -0.         -0.         -0.          0.          0.         -0.
  -0.          0.        ]
 [ 0.          0.          0.11902641 -0.0478218   0.         -0.10245368 -0.11238486  0.         -0.5724781   0.2600358   0.         -0.          0.
  -0.          0.          0.70585014 -0.30353688 -0.          0.          0.07624452 -0.02419285 -0.          0.          0.2727603  -0.0466641  -0.
   0.         -0.        ]
 [-0.03906174 -0.12307099  0.          0.         -0.00844125 -0.          0.         -0.61332948 -0.         -0.          0.39792872  0.         -0.
   0.          0.          0.         -0.          0.10785406 -0.73109038  0.         -0.         -0.02992949 -0.13318535  0.         -0.         -0.07452691
  -0.14650194 -0.82260846]
 [ 0.          0.          0.0478218   0.11902641  0.         -0.11238486  0.10245368  0.         -0.2600358  -0.5724781   0.          0.         -0.
   0.          0.          0.30353688  0.70585014 -0.         -0.          0.02419285  0.07624452  0.          0.         -0.0466641  -0.2727603  -0.
   0.         -0.        ]
 [ 0.          0.         -0.          0.          0.          0.         -0.          0.          0.          0.          0.          0.10798711 -0.68451322
  -0.71666031  0.08875793 -0.         -0.          0.         -0.          0.          0.         -0.         -0.         -0.         -0.         -0.
  -0.         -0.        ]]
C (ortho)
[[-0.9115761  -0.28125411  0.04834886  0.15561226  0.          0.         -0.21828005  0.         -0.          0.02694476  0.00546897  0.01412982 -0.
  -0.         -0.11793562  0.         -0.         -0.         -0.         -0.         -0.          0.          0.         -0.00271066  0.          0.
   0.02921997 -0.00079063]
 [ 0.25192799  0.09166713  0.31740417  0.08987158  0.          0.         -0.76345009  0.         -0.          0.02850929 -0.00823917 -0.00249675 -0.
  -0.         -0.45957443  0.         -0.         -0.         -0.         -0.         -0.          0.          0.         -0.00257212  0.          0.
   0.15600525 -0.00335825]
 [ 0.         -0.          0.          0.         -0.25910019 -0.85059336 -0.         -0.0384473  -0.07463898 -0.          0.          0.         -0.20567627
  -0.10677164  0.          0.          0.         -0.         -0.         -0.13323543 -0.32183407 -0.15607167 -0.05376409  0.         -0.00449103 -0.0028265
  -0.          0.        ]
 [ 0.          0.          0.         -0.         -0.85059336  0.25910019 -0.          0.07463898 -0.0384473   0.          0.          0.          0.10677164
  -0.20567627  0.         -0.         -0.         -0.          0.         -0.32183407  0.13323543  0.05376409 -0.15607167 -0.         -0.0028265   0.00449103
  -0.          0.        ]
 [-0.30548116  0.76761218  0.04173602 -0.49003547  0.         -0.         -0.03932172  0.         -0.          0.13717535  0.02198286 -0.13026806  0.
  -0.         -0.00202302 -0.         -0.          0.         -0.          0.         -0.         -0.          0.         -0.1832023   0.         -0.
   0.01087879 -0.06383052]
 [-0.         -0.          0.          0.          0.05491373  0.05951155  0.         -0.02120008 -0.8118782  -0.          0.         -0.          0.00131457
   0.00175675 -0.         -0.         -0.         -0.          0.          0.15610572  0.13934614 -0.32564546 -0.32299236 -0.         -0.28051465 -0.03159985
   0.         -0.        ]
 [ 0.          0.          0.         -0.         -0.05951155  0.05491373 -0.         -0.8118782   0.02120008  0.          0.          0.          0.00175675
  -0.00131457  0.         -0.         -0.          0.          0.         -0.13934614  0.15610572 -0.32299236  0.32564546  0.          0.03159985 -0.28051465
  -0.          0.        ]
 [-0.00792338  0.02299419  0.09964974  0.01508614 -0.         -0.          0.35758722 -0.          0.         -0.01068051  0.23049725  0.07277664 -0.
  -0.         -0.71137609 -0.         -0.          0.         -0.          0.         -0.          0.          0.         -0.03947609  0.          0.
  -0.54332289 -0.00535308]
 [ 0.          0.          0.          0.         -0.04526885 -0.12796869 -0.         -0.00390166 -0.00847752  0.          0.          0.          0.82807589
   0.47760487 -0.          0.          0.          0.         -0.         -0.10112971 -0.21658856 -0.09405617 -0.03714049  0.         -0.01524669 -0.00867719
  -0.          0.        ]
 [ 0.          0.          0.         -0.         -0.12796869  0.04526885 -0.          0.00847752 -0.00390166  0.          0.          0.         -0.47760487
   0.82807589 -0.          0.          0.         -0.         -0.         -0.21658856  0.10112971  0.03714049 -0.09405617 -0.         -0.00867719  0.01524669
  -0.          0.        ]
 [ 0.07414761 -0.08718528 -0.06776286  0.22524697 -0.         -0.          0.04175669  0.          0.          0.71899124  0.02458004 -0.03499644  0.
  -0.          0.01024707 -0.         -0.          0.         -0.          0.          0.          0.          0.         -0.61234089  0.         -0.
   0.03738518  0.18597817]
 [-0.          0.         -0.         -0.         -0.          0.          0.         -0.         -0.          0.          0.          0.         -0.
  -0.          0.          0.98417268  0.16365447  0.0672565   0.0098953  -0.          0.         -0.         -0.         -0.         -0.         -0.
   0.          0.        ]
 [ 0.          0.         -0.         -0.         -0.         -0.          0.          0.         -0.          0.          0.          0.          0.
   0.          0.          0.16365447 -0.98417268  0.0098953  -0.0672565   0.         -0.         -0.         -0.         -0.          0.          0.
   0.         -0.        ]
 [ 0.          0.         -0.         -0.          0.         -0.          0.          0.          0.          0.          0.          0.          0.
  -0.         -0.          0.00779455  0.06753221 -0.13290475 -0.98879471 -0.          0.         -0.         -0.         -0.          0.         -0.
   0.          0.        ]
 [-0.          0.         -0.         -0.         -0.          0.          0.          0.         -0.          0.          0.          0.          0.
   0.         -0.          0.06753221 -0.00779455 -0.98879471  0.13290475  0.          0.         -0.          0.         -0.          0.          0.
   0.          0.        ]
 [-0.          0.         -0.         -0.         -0.0008931  -0.0026971  -0.          0.02420009  0.04989727  0.          0.          0.          0.01291206
   0.00710289  0.         -0.          0.          0.          0.          0.08659514  0.19569773 -0.47977502 -0.17831357  0.          0.71291337  0.42506209
   0.         -0.        ]
 [-0.          0.         -0.         -0.         -0.0026971   0.0008931   0.         -0.04989727  0.02420009  0.          0.          0.         -0.00710289
   0.01291206  0.         -0.         -0.         -0.          0.          0.19569773 -0.08659514  0.17831357 -0.47977502  0.          0.42506209 -0.71291337
   0.         -0.        ]
 [-0.02502457  0.09983981  0.73415022  0.20386055 -0.          0.          0.12142551 -0.          0.          0.00178718  0.50261712  0.15164406 -0.
  -0.          0.34410977  0.          0.         -0.          0.          0.         -0.          0.          0.          0.00543845 -0.         -0.
   0.0073538   0.00277306]
 [ 0.00846285  0.03153625 -0.03390529  0.08558231 -0.          0.         -0.00012362 -0.          0.         -0.09669189 -0.15686973  0.54658706  0.
   0.          0.01276713 -0.          0.          0.         -0.          0.         -0.         -0.          0.         -0.34114388  0.         -0.
   0.02116794 -0.73536035]
 [-0.          0.         -0.          0.          0.09340409  0.41592676  0.          0.02389966  0.03894281  0.         -0.          0.         -0.16513054
  -0.07060616  0.          0.          0.         -0.         -0.         -0.25197369 -0.76617939 -0.35295216 -0.09275008  0.         -0.01246197 -0.00921107
  -0.          0.        ]
 [-0.          0.         -0.          0.          0.41592676 -0.09340409  0.         -0.03894281  0.02389966  0.         -0.          0.          0.07060616
  -0.16513054  0.         -0.         -0.         -0.          0.         -0.76617939  0.25197369  0.09275008 -0.35295216  0.         -0.00921107  0.01246197
  -0.          0.        ]
 [ 0.0574896  -0.41990275  0.18607552 -0.41270372  0.         -0.         -0.00838795 -0.          0.         -0.28089197  0.13811707 -0.49981354  0.
  -0.          0.00508507 -0.         -0.          0.         -0.         -0.          0.          0.         -0.         -0.46725399  0.         -0.
   0.02516882 -0.22041325]
 [ 0.01841774 -0.00249107  0.0395568   0.02622941  0.         -0.         -0.36609433  0.         -0.          0.01936401 -0.20587262 -0.0616063  -0.
   0.          0.37727174  0.          0.         -0.          0.          0.          0.         -0.          0.         -0.0429259   0.         -0.
  -0.82015019 -0.00016934]
 [ 0.          0.         -0.         -0.         -0.01302019  0.04978601  0.         -0.49021888 -0.29629447  0.         -0.         -0.          0.00237666
  -0.00017296  0.          0.          0.         -0.         -0.          0.04517234 -0.2817597   0.58312829 -0.13022996  0.          0.21224714  0.43100443
  -0.          0.        ]
 [ 0.          0.          0.          0.         -0.04978601 -0.01302019 -0.         -0.29629447  0.49021888  0.         -0.         -0.         -0.00017296
  -0.00237666 -0.         -0.          0.         -0.         -0.          0.2817597   0.04517234 -0.13022996 -0.58312829 -0.         -0.43100443  0.21224714
  -0.         -0.        ]
 [ 0.03065552 -0.05808762 -0.5021049  -0.15428464  0.          0.         -0.29838312 -0.         -0.         -0.00804973  0.75789037  0.21170051  0.
   0.          0.08808951 -0.          0.          0.          0.          0.          0.          0.          0.         -0.00265784 -0.         -0.
  -0.06077179  0.00085729]
 [ 0.02870518 -0.35280761  0.22370307 -0.64008014  0.         -0.         -0.00090867  0.         -0.          0.43262709 -0.10947126  0.37107392  0.
   0.         -0.0033819  -0.          0.         -0.          0.          0.         -0.          0.         -0.          0.27881953 -0.          0.
  -0.01389056  0.01286875]
 [ 0.02400095 -0.00060894 -0.04675325  0.15233923 -0.          0.          0.02159753  0.          0.          0.43211442  0.14356908 -0.46736276 -0.
  -0.         -0.00345619  0.         -0.         -0.         -0.         -0.          0.         -0.          0.          0.41902051 -0.         -0.
  -0.02060757 -0.60974283]]
[[-0.9115761  -0.28125411  0.04834886  0.15561226 -0.          0.          0.21828005 -0.          0.         -0.02694476  0.00546897  0.01412982 -0.
  -0.          0.11793562  0.          0.          0.         -0.          0.          0.          0.         -0.          0.00271066 -0.          0.
  -0.02921997 -0.00079063]
 [ 0.25192799  0.09166713  0.31740417  0.08987158 -0.         -0.          0.76345009 -0.          0.         -0.02850929 -0.00823917 -0.00249675 -0.
  -0.          0.45957443  0.          0.          0.          0.         -0.         -0.         -0.         -0.          0.00257212 -0.          0.
  -0.15600525 -0.00335825]
 [-0.          0.         -0.         -0.          0.17536948 -0.87171527  0.          0.01830816 -0.0819389  -0.         -0.          0.          0.21271423
   0.09195416 -0.         -0.          0.         -0.         -0.         -0.3478051   0.01898579 -0.08261539 -0.14291131 -0.          0.00527722 -0.00055622
  -0.          0.        ]
 [-0.         -0.          0.         -0.         -0.87171527 -0.17536948 -0.         -0.0819389  -0.01830816  0.         -0.          0.         -0.09195416
   0.21271423 -0.         -0.         -0.          0.          0.         -0.01898579 -0.3478051  -0.14291131  0.08261539 -0.          0.00055622  0.00527722
  -0.          0.        ]
 [ 0.30548116 -0.76761218 -0.04173602  0.49003547  0.         -0.         -0.03932172 -0.         -0.          0.13717535 -0.02198286  0.13026806  0.
   0.         -0.00202302 -0.          0.         -0.          0.         -0.          0.          0.         -0.         -0.1832023  -0.         -0.
   0.01087879  0.06383052]
 [ 0.          0.          0.          0.         -0.02011453 -0.07843818  0.          0.1849397   0.79081791  0.          0.         -0.          0.00143555
   0.00165935  0.          0.         -0.          0.         -0.         -0.19313691 -0.08052625  0.37930104  0.25787545  0.         -0.26569859 -0.09534819
   0.         -0.        ]
 [-0.         -0.         -0.         -0.          0.07843818 -0.02011453 -0.         -0.79081791  0.1849397   0.          0.          0.          0.00165935
  -0.00143555  0.          0.         -0.         -0.         -0.         -0.08052625  0.19313691 -0.25787545  0.37930104 -0.         -0.09534819  0.26569859
  -0.          0.        ]
 [-0.00792338  0.02299419  0.09964974  0.01508614  0.         -0.         -0.35758722  0.         -0.          0.01068051  0.23049725  0.07277664  0.
   0.          0.71137609 -0.          0.         -0.          0.          0.          0.         -0.         -0.          0.03947609  0.          0.
   0.54332289 -0.00535308]
 [-0.          0.          0.         -0.          0.02084796 -0.13412911 -0.          0.00162939 -0.00918893  0.          0.          0.         -0.85978805
  -0.41782845  0.          0.         -0.         -0.         -0.         -0.23902274  0.00243907 -0.05444019 -0.0852188  -0.          0.01751066 -0.00106389
   0.         -0.        ]
 [-0.          0.          0.         -0.         -0.13412911 -0.02084796  0.         -0.00918893 -0.00162939  0.          0.          0.          0.41782845
  -0.85978805 -0.         -0.          0.          0.          0.         -0.00243907 -0.23902274 -0.0852188   0.05444019  0.          0.00106389  0.01751066
   0.          0.        ]
 [-0.07414761  0.08718528  0.06776286 -0.22524697  0.         -0.          0.04175669  0.         -0.          0.71899124 -0.02458004  0.03499644  0.
   0.          0.01024707 -0.          0.         -0.          0.          0.          0.          0.          0.         -0.61234089 -0.         -0.
   0.03738518 -0.18597817]
 [ 0.         -0.          0.         -0.         -0.          0.         -0.         -0.         -0.          0.          0.         -0.          0.
   0.         -0.          0.98857059  0.13456161  0.06718891  0.0103443  -0.         -0.         -0.         -0.         -0.         -0.          0.
  -0.         -0.        ]
 [-0.         -0.          0.         -0.         -0.         -0.         -0.          0.         -0.          0.          0.         -0.          0.
  -0.          0.          0.13456161 -0.98857059  0.0103443  -0.06718891  0.         -0.          0.         -0.         -0.         -0.         -0.
  -0.          0.        ]
 [-0.         -0.          0.         -0.          0.          0.         -0.          0.         -0.          0.          0.         -0.         -0.
   0.          0.         -0.00978258 -0.06727299  0.12629753  0.98966033 -0.          0.         -0.         -0.         -0.         -0.          0.
  -0.         -0.        ]
 [-0.         -0.          0.         -0.         -0.         -0.         -0.         -0.         -0.          0.          0.          0.         -0.
  -0.          0.         -0.06727299  0.00978258  0.98966033 -0.12629753 -0.          0.         -0.         -0.         -0.          0.          0.
  -0.         -0.        ]
 [-0.          0.          0.          0.         -0.00049309  0.002798    0.          0.01078568 -0.05439716 -0.         -0.          0.          0.01338218
   0.00617167  0.          0.         -0.          0.         -0.         -0.21390157  0.00651427  0.26676385  0.43682588 -0.          0.82729778 -0.06709422
  -0.         -0.        ]
 [ 0.         -0.          0.         -0.          0.002798    0.00049309 -0.         -0.05439716 -0.01078568 -0.          0.         -0.         -0.00617167
   0.01338218 -0.         -0.          0.          0.          0.         -0.00651427 -0.21390157  0.43682588 -0.26676385  0.          0.06709422  0.82729778
  -0.          0.        ]
 [-0.02502457  0.09983981  0.73415022  0.20386055  0.          0.         -0.12142551  0.          0.         -0.00178718  0.50261712  0.15164406  0.
   0.         -0.34410977 -0.         -0.         -0.         -0.         -0.         -0.         -0.         -0.         -0.00543845  0.         -0.
  -0.0073538   0.00277306]
 [-0.00846285 -0.03153625  0.03390529 -0.08558231 -0.         -0.         -0.00012362 -0.          0.         -0.09669189  0.15686973 -0.54658706  0.
  -0.          0.01276713 -0.          0.         -0.          0.         -0.          0.          0.         -0.         -0.34114388 -0.         -0.
   0.02116794  0.73536035]
 [ 0.         -0.         -0.         -0.         -0.11506118  0.41046354  0.         -0.0132671   0.04372322  0.         -0.          0.          0.16971166
   0.05874758 -0.         -0.          0.         -0.         -0.         -0.79981526  0.10400551 -0.15852865 -0.32870423 -0.          0.01524681 -0.00277114
  -0.         -0.        ]
 [ 0.         -0.          0.         -0.          0.41046354  0.11506118  0.          0.04372322  0.0132671   0.          0.         -0.         -0.05874758
   0.16971166  0.         -0.          0.          0.         -0.         -0.10400551 -0.79981526 -0.32870423  0.15852865  0.          0.00277114  0.01524681
   0.         -0.        ]
 [-0.0574896   0.41990275 -0.18607552  0.41270372  0.          0.         -0.00838795 -0.          0.         -0.28089197 -0.13811707  0.49981354  0.
   0.          0.00508507 -0.          0.         -0.          0.         -0.         -0.         -0.          0.         -0.46725399 -0.         -0.
   0.02516882  0.22041325]
 [ 0.01841774 -0.00249107  0.0395568   0.02622941 -0.         -0.          0.36609433 -0.          0.         -0.01936401 -0.20587262 -0.0616063  -0.
   0.         -0.37727174  0.         -0.          0.         -0.         -0.          0.         -0.          0.          0.0429259   0.          0.
   0.82015019 -0.00016934]
 [ 0.         -0.         -0.         -0.          0.03507753 -0.03765287 -0.         -0.39928443  0.41070294  0.         -0.          0.          0.00235847
  -0.00034066  0.         -0.          0.         -0.          0.          0.23454346 -0.16253749  0.01632368 -0.59727045 -0.          0.38056883 -0.29322522
   0.         -0.        ]
 [-0.         -0.          0.         -0.          0.03765287  0.03507753 -0.         -0.41070294 -0.39928443  0.         -0.         -0.         -0.00034066
  -0.00235847 -0.          0.          0.          0.          0.         -0.16253749 -0.23454346  0.59727045  0.01632368  0.         -0.29322522 -0.38056883
   0.         -0.        ]
 [ 0.03065552 -0.05808762 -0.5021049  -0.15428464 -0.          0.          0.29838312 -0.         -0.          0.00804973  0.75789037  0.21170051 -0.
  -0.         -0.08808951  0.         -0.          0.         -0.          0.         -0.         -0.          0.          0.00265784  0.         -0.
   0.06077179  0.00085729]
 [-0.02870518  0.35280761 -0.22370307  0.64008014 -0.          0.         -0.00090867 -0.          0.          0.43262709  0.10947126 -0.37107392 -0.
   0.         -0.0033819   0.         -0.          0.         -0.         -0.         -0.         -0.         -0.          0.27881953  0.         -0.
  -0.01389056 -0.01286875]
 [-0.02400095  0.00060894  0.04675325 -0.15233923  0.         -0.          0.02159753 -0.         -0.          0.43211442 -0.14356908  0.46736276 -0.
   0.         -0.00345619 -0.          0.         -0.          0.          0.         -0.         -0.          0.          0.41902051  0.          0.
  -0.02060757  0.60974283]]
grids:  [0.06237655 0.31939555 0.74529195 1.28265786 1.85893479 2.39630071 2.8221971  3.07921611] 
weights:  [0.15900941 0.34931531 0.49276925 0.56970235 0.56970235 0.49276925 0.34931531 0.15900941]
S = 0.0, Sz = 0.0
Wigner small d:  1
value : [1. 1. 1. 1. 1. 1. 1. 1.]
**** Start Cycle 1 ****
dm (ortho)
[[[ 0.83097099 -0.22965154 -0.         ... -0.02794484 -0.02616696 -0.0218787 ]
  [-0.22965154  0.06346771  0.         ...  0.00772298  0.00723164  0.00604651]
  [-0.          0.          0.         ...  0.          0.          0.        ]
  ...
  [-0.02794484  0.00772298  0.         ...  0.00093976  0.00087997  0.00073576]
  [-0.02616696  0.00723164  0.         ...  0.00087997  0.00082399  0.00068895]
  [-0.0218787   0.00604651  0.         ...  0.00073576  0.00068895  0.00057605]]

 [[ 0.83097099 -0.22965154  0.         ... -0.02794484  0.02616696  0.0218787 ]
  [-0.22965154  0.06346771 -0.         ...  0.00772298 -0.00723164 -0.00604651]
  [ 0.         -0.          0.         ... -0.          0.          0.        ]
  ...
  [-0.02794484  0.00772298 -0.         ...  0.00093976 -0.00087997 -0.00073576]
  [ 0.02616696 -0.00723164  0.         ... -0.00087997  0.00082399  0.00068895]
  [ 0.0218787  -0.00604651  0.         ... -0.00073576  0.00068895  0.00057605]]]
Fock (ortho)
 (array([[-0.30902661,  0.46350432,  0.        ,  0.        , -0.17587969,  0.        ,  0.        ,  0.12744044,  0.        ,  0.        ,  0.07376275,
         0.        ,  0.        ,  0.        ,  0.        , -0.        , -0.        , -0.12694563,  0.02766351, -0.        , -0.        , -0.00931539,
        -0.1682255 ,  0.        , -0.        ,  0.03164932,  0.00247187,  0.01412082],
       [ 0.46350432,  1.30046379,  0.        ,  0.        ,  0.07090921,  0.        , -0.        ,  0.41390041,  0.        ,  0.        ,  0.00643989,
         0.        ,  0.        ,  0.        ,  0.        , -0.        , -0.        , -0.49287881,  0.00820494,  0.        , -0.        ,  0.00529333,
        -0.85974063,  0.        , -0.        , -0.05087978, -0.00057484, -0.00108463],
       [ 0.        ,  0.        ,  1.27428738, -0.        ,  0.        ,  0.03535999,  0.01706147, -0.        , -0.21724673,  0.00963672, -0.        ,
         0.        , -0.        ,  0.        , -0.        ,  0.01188874, -0.00028643,  0.        ,  0.        ,  1.19687549,  0.08966715,  0.        ,
         0.        ,  0.00008237, -0.00005067, -0.        ,  0.        , -0.        ],
       [ 0.        ,  0.        , -0.        ,  1.27428738,  0.        ,  0.01706147, -0.03535999, -0.        , -0.00963672, -0.21724673,  0.        ,
        -0.        , -0.        ,  0.        , -0.        ,  0.00028643,  0.01188874,  0.        , -0.        , -0.08966715,  1.19687549,  0.        ,
        -0.        , -0.00005067, -0.00008237,  0.        , -0.        ,  0.        ],
       [-0.17587969,  0.07090921,  0.        ,  0.        ,  0.36035013, -0.        , -0.        , -0.01905545, -0.        ,  0.        ,  0.49410088,
        -0.        , -0.        , -0.        , -0.        , -0.        ,  0.        , -0.06893866,  0.27671493,  0.        , -0.        ,  0.63918363,
         0.01309936, -0.        , -0.        ,  0.00505148, -0.13128289,  0.12407519],
       [ 0.        ,  0.        ,  0.03535999,  0.01706147, -0.        ,  1.99766451, -0.        ,  0.        ,  0.01522797,  0.00653231, -0.        ,
        -0.        , -0.        ,  0.        , -0.        ,  0.04618805,  0.02092998, -0.        , -0.        ,  0.0090904 ,  0.00525726, -0.        ,
        -0.        , -0.77280874,  1.20631502, -0.        , -0.        ,  0.        ],
       [ 0.        , -0.        ,  0.01706147, -0.03535999, -0.        , -0.        ,  1.99766451,  0.        ,  0.00653231, -0.01522797, -0.        ,
        -0.        ,  0.        , -0.        ,  0.        ,  0.02092998, -0.04618805,  0.        , -0.        ,  0.00525726, -0.0090904 , -0.        ,
         0.        , -1.20631502, -0.77280874,  0.        , -0.        ,  0.        ],
       [ 0.12744044,  0.41390041, -0.        , -0.        , -0.01905545,  0.        ,  0.        ,  3.1882301 ,  0.        ,  0.        , -0.01067233,
        -0.        , -0.        , -0.        , -0.        , -0.        , -0.        , -0.39686613,  0.01247822,  0.        ,  0.        , -0.00380938,
         0.90682045,  0.        ,  0.        ,  0.32802019,  0.00038501,  0.0008504 ],
       [ 0.        ,  0.        , -0.21724673, -0.00963672, -0.        ,  0.01522797,  0.00653231,  0.        ,  3.11158605,  0.        , -0.        ,
         0.        , -0.        ,  0.        ,  0.        , -0.01215368, -0.00024604, -0.        ,  0.        ,  0.31974931,  0.03826561,  0.        ,
         0.        , -0.00221978,  0.001505  ,  0.        ,  0.        , -0.        ],
       [ 0.        ,  0.        ,  0.00963672, -0.21724673,  0.        ,  0.00653231, -0.01522797,  0.        ,  0.        ,  3.11158605, -0.        ,
        -0.        ,  0.        ,  0.        ,  0.        ,  0.00024604, -0.01215368, -0.        , -0.        , -0.03826561,  0.31974931,  0.        ,
         0.        ,  0.001505  ,  0.00221978,  0.        , -0.        ,  0.        ],
       [ 0.07376275,  0.00643989, -0.        ,  0.        ,  0.49410088, -0.        , -0.        , -0.01067233, -0.        , -0.        ,  2.48020557,
        -0.        , -0.        , -0.        , -0.        , -0.        , -0.        ,  0.02952384, -0.05209663, -0.        , -0.        ,  0.66793901,
        -0.01729122,  0.        , -0.        ,  0.00252528, -0.36535636, -1.16967895],
       [ 0.        ,  0.        ,  0.        , -0.        , -0.        , -0.        , -0.        , -0.        ,  0.        , -0.        , -0.        ,
         3.32543152,  0.        , -0.00494975, -0.01723338, -0.        , -0.        , -0.        , -0.        , -0.        , -0.        , -0.        ,
        -0.        ,  0.        ,  0.        ,  0.        ,  0.        , -0.        ],
       [ 0.        ,  0.        , -0.        , -0.        , -0.        , -0.        ,  0.        , -0.        , -0.        ,  0.        , -0.        ,
         0.        ,  3.32543152,  0.01723338, -0.00494975,  0.        ,  0.        , -0.        , -0.        , -0.        ,  0.        , -0.        ,
        -0.        ,  0.        ,  0.        ,  0.        ,  0.        , -0.        ],
       [ 0.        ,  0.        ,  0.        ,  0.        , -0.        ,  0.        , -0.        , -0.        ,  0.        ,  0.        , -0.        ,
        -0.00494975,  0.01723338,  3.60006691,  0.        , -0.        , -0.        , -0.        , -0.        , -0.        , -0.        , -0.        ,
        -0.        ,  0.        ,  0.        ,  0.        ,  0.        , -0.        ],
       [ 0.        ,  0.        , -0.        , -0.        , -0.        , -0.        ,  0.        , -0.        ,  0.        ,  0.        , -0.        ,
        -0.01723338, -0.00494975,  0.        ,  3.60006691, -0.        , -0.        , -0.        , -0.        ,  0.        ,  0.        , -0.        ,
        -0.        , -0.        , -0.        ,  0.        ,  0.        , -0.        ],
       [-0.        , -0.        ,  0.01188874,  0.00028643, -0.        ,  0.04618805,  0.02092998, -0.        , -0.01215368,  0.00024604, -0.        ,
        -0.        ,  0.        , -0.        , -0.        ,  4.1710415 ,  0.        , -0.        , -0.        ,  0.0069688 ,  0.00069123, -0.        ,
         0.        ,  0.19659904, -0.12756267,  0.        ,  0.        ,  0.        ],
       [-0.        , -0.        , -0.00028643,  0.01188874,  0.        ,  0.02092998, -0.04618805, -0.        , -0.00024604, -0.01215368, -0.        ,
        -0.        ,  0.        , -0.        , -0.        ,  0.        ,  4.1710415 , -0.        , -0.        , -0.00069123,  0.0069688 , -0.        ,
         0.        , -0.12756267, -0.19659904, -0.        , -0.        , -0.        ],
       [-0.12694563, -0.49287881,  0.        ,  0.        , -0.06893866, -0.        ,  0.        , -0.39686613, -0.        , -0.        ,  0.02952384,
        -0.        , -0.        , -0.        , -0.        , -0.        , -0.        ,  1.30266215,  0.01823767,  0.        ,  0.        , -0.03290448,
         0.06380652, -0.        , -0.        ,  0.98282338,  0.00468239, -0.00479193],
       [ 0.02766351,  0.00820494,  0.        , -0.        ,  0.27671493, -0.        , -0.        ,  0.01247822,  0.        , -0.        , -0.05209663,
        -0.        , -0.        , -0.        , -0.        , -0.        , -0.        ,  0.01823767,  4.36206139, -0.        , -0.        ,  0.76698921,
        -0.01240902, -0.        , -0.        ,  0.00770757,  0.0655115 ,  1.09132186],
       [-0.        ,  0.        ,  1.19687549, -0.08966715,  0.        ,  0.0090904 ,  0.00525726,  0.        ,  0.31974931, -0.03826561, -0.        ,
        -0.        , -0.        , -0.        ,  0.        ,  0.0069688 , -0.00069123,  0.        , -0.        ,  3.27109197, -0.        ,  0.        ,
         0.        , -0.01191539,  0.00615336, -0.        ,  0.        , -0.        ],
       [-0.        , -0.        ,  0.08966715,  1.19687549, -0.        ,  0.00525726, -0.0090904 ,  0.        ,  0.03826561,  0.31974931, -0.        ,
        -0.        ,  0.        , -0.        ,  0.        ,  0.00069123,  0.0069688 ,  0.        , -0.        , -0.        ,  3.27109197,  0.        ,
         0.        ,  0.00615336,  0.01191539,  0.        ,  0.        ,  0.        ],
       [-0.00931539,  0.00529333,  0.        ,  0.        ,  0.63918363, -0.        , -0.        , -0.00380938,  0.        ,  0.        ,  0.66793901,
        -0.        , -0.        , -0.        , -0.        , -0.        , -0.        , -0.03290448,  0.76698921,  0.        ,  0.        ,  2.11120144,
        -0.00155595, -0.        , -0.        , -0.01435014, -1.10518616,  0.42485675],
       [-0.1682255 , -0.85974063,  0.        , -0.        ,  0.01309936, -0.        ,  0.        ,  0.90682045,  0.        ,  0.        , -0.01729122,
        -0.        , -0.        , -0.        , -0.        ,  0.        ,  0.        ,  0.06380652, -0.01240902,  0.        ,  0.        , -0.00155595,
         3.70536539,  0.        ,  0.        , -0.01968243,  0.00044142,  0.00676154],
       [ 0.        ,  0.        ,  0.00008237, -0.00005067, -0.        , -0.77280874, -1.20631502,  0.        , -0.00221978,  0.001505  ,  0.        ,
         0.        ,  0.        ,  0.        , -0.        ,  0.19659904, -0.12756267, -0.        , -0.        , -0.01191539,  0.00615336, -0.        ,
         0.        ,  3.04299193, -0.        , -0.        ,  0.        , -0.        ],
       [-0.        , -0.        , -0.00005067, -0.00008237, -0.        ,  1.20631502, -0.77280874,  0.        ,  0.001505  ,  0.00221978, -0.        ,
         0.        ,  0.        ,  0.        , -0.        , -0.12756267, -0.19659904, -0.        , -0.        ,  0.00615336,  0.01191539, -0.        ,
         0.        , -0.        ,  3.04299193, -0.        ,  0.        ,  0.        ],
       [ 0.03164932, -0.05087978, -0.        ,  0.        ,  0.00505148, -0.        ,  0.        ,  0.32802019,  0.        ,  0.        ,  0.00252528,
         0.        ,  0.        ,  0.        ,  0.        ,  0.        , -0.        ,  0.98282338,  0.00770757, -0.        ,  0.        , -0.01435014,
        -0.01968243, -0.        , -0.        ,  1.81725404,  0.00699334, -0.00694961],
       [ 0.00247187, -0.00057484,  0.        , -0.        , -0.13128289, -0.        , -0.        ,  0.00038501,  0.        , -0.        , -0.36535636,
         0.        ,  0.        ,  0.        ,  0.        ,  0.        , -0.        ,  0.00468239,  0.0655115 ,  0.        ,  0.        , -1.10518616,
         0.00044142,  0.        ,  0.        ,  0.00699334,  1.21921778,  0.13188547],
       [ 0.01412082, -0.00108463, -0.        ,  0.        ,  0.12407519,  0.        ,  0.        ,  0.0008504 , -0.        ,  0.        , -1.16967895,
        -0.        , -0.        , -0.        , -0.        ,  0.        , -0.        , -0.00479193,  1.09132186, -0.        ,  0.        ,  0.42485675,
         0.00676154, -0.        ,  0.        , -0.00694961,  0.13188547,  3.69772064]]), array([[-0.30902661,  0.46350432, -0.        , -0.        ,  0.17587969,  0.        , -0.        ,  0.12744044,  0.        ,  0.        , -0.07376275,
         0.        , -0.        ,  0.        ,  0.        , -0.        ,  0.        , -0.12694563, -0.02766351,  0.        , -0.        ,  0.00931539,
        -0.1682255 ,  0.        , -0.        ,  0.03164932, -0.00247187, -0.01412082],
       [ 0.46350432,  1.30046379,  0.        ,  0.        , -0.07090921,  0.        , -0.        ,  0.41390041,  0.        ,  0.        , -0.00643989,
         0.        ,  0.        ,  0.        ,  0.        , -0.        , -0.        , -0.49287881, -0.00820494,  0.        , -0.        , -0.00529333,
        -0.85974063,  0.        , -0.        , -0.05087978,  0.00057484,  0.00108463],
       [-0.        ,  0.        ,  1.27428738, -0.        ,  0.        , -0.03535999, -0.01706147, -0.        , -0.21724673,  0.00963672, -0.        ,
         0.        , -0.        ,  0.        , -0.        , -0.01188874,  0.00028643,  0.        ,  0.        ,  1.19687549,  0.08966715,  0.        ,
         0.        , -0.00008237,  0.00005067, -0.        ,  0.        , -0.        ],
       [-0.        ,  0.        , -0.        ,  1.27428738,  0.        , -0.01706147,  0.03535999, -0.        , -0.00963672, -0.21724673,  0.        ,
        -0.        , -0.        ,  0.        , -0.        , -0.00028643, -0.01188874,  0.        , -0.        , -0.08966715,  1.19687549,  0.        ,
        -0.        ,  0.00005067,  0.00008237,  0.        , -0.        ,  0.        ],
       [ 0.17587969, -0.07090921,  0.        ,  0.        ,  0.36035013, -0.        , -0.        ,  0.01905545, -0.        ,  0.        ,  0.49410088,
        -0.        , -0.        , -0.        , -0.        ,  0.        ,  0.        ,  0.06893866,  0.27671493,  0.        , -0.        ,  0.63918363,
        -0.01309936, -0.        , -0.        , -0.00505148, -0.13128289,  0.12407519],
       [ 0.        ,  0.        , -0.03535999, -0.01706147, -0.        ,  1.99766451, -0.        ,  0.        , -0.01522797, -0.00653231, -0.        ,
        -0.        , -0.        ,  0.        , -0.        ,  0.04618805,  0.02092998, -0.        , -0.        , -0.0090904 , -0.00525726, -0.        ,
        -0.        , -0.77280874,  1.20631502, -0.        , -0.        ,  0.        ],
       [-0.        , -0.        , -0.01706147,  0.03535999, -0.        , -0.        ,  1.99766451,  0.        , -0.00653231,  0.01522797, -0.        ,
        -0.        ,  0.        , -0.        ,  0.        ,  0.02092998, -0.04618805, -0.        , -0.        , -0.00525726,  0.0090904 ,  0.        ,
         0.        , -1.20631502, -0.77280874,  0.        , -0.        ,  0.        ],
       [ 0.12744044,  0.41390041, -0.        , -0.        ,  0.01905545,  0.        ,  0.        ,  3.1882301 ,  0.        ,  0.        ,  0.01067233,
        -0.        , -0.        , -0.        , -0.        , -0.        , -0.        , -0.39686613, -0.01247822,  0.        ,  0.        ,  0.00380938,
         0.90682045,  0.        ,  0.        ,  0.32802019, -0.00038501, -0.0008504 ],
       [ 0.        ,  0.        , -0.21724673, -0.00963672, -0.        , -0.01522797, -0.00653231,  0.        ,  3.11158605,  0.        , -0.        ,
         0.        , -0.        ,  0.        ,  0.        ,  0.01215368,  0.00024604, -0.        ,  0.        ,  0.31974931,  0.03826561,  0.        ,
         0.        ,  0.00221978, -0.001505  ,  0.        ,  0.        , -0.        ],
       [ 0.        ,  0.        ,  0.00963672, -0.21724673,  0.        , -0.00653231,  0.01522797,  0.        ,  0.        ,  3.11158605, -0.        ,
        -0.        ,  0.        ,  0.        ,  0.        , -0.00024604,  0.01215368, -0.        , -0.        , -0.03826561,  0.31974931,  0.        ,
         0.        , -0.001505  , -0.00221978,  0.        , -0.        ,  0.        ],
       [-0.07376275, -0.00643989, -0.        ,  0.        ,  0.49410088, -0.        , -0.        ,  0.01067233, -0.        , -0.        ,  2.48020557,
        -0.        , -0.        , -0.        , -0.        , -0.        , -0.        , -0.02952384, -0.05209663, -0.        , -0.        ,  0.66793901,
         0.01729122,  0.        , -0.        , -0.00252528, -0.36535636, -1.16967895],
       [ 0.        ,  0.        ,  0.        , -0.        , -0.        , -0.        , -0.        , -0.        ,  0.        , -0.        , -0.        ,
         3.32543152,  0.        ,  0.00494975,  0.01723338, -0.        , -0.        , -0.        , -0.        , -0.        , -0.        , -0.        ,
        -0.        ,  0.        ,  0.        ,  0.        ,  0.        , -0.        ],
       [-0.        ,  0.        , -0.        , -0.        , -0.        , -0.        ,  0.        , -0.        , -0.        ,  0.        , -0.        ,
         0.        ,  3.32543152, -0.01723338,  0.00494975,  0.        ,  0.        , -0.        , -0.        , -0.        ,  0.        , -0.        ,
        -0.        ,  0.        ,  0.        ,  0.        ,  0.        , -0.        ],
       [ 0.        ,  0.        ,  0.        ,  0.        , -0.        ,  0.        , -0.        , -0.        ,  0.        ,  0.        , -0.        ,
         0.00494975, -0.01723338,  3.60006691,  0.        , -0.        , -0.        , -0.        , -0.        , -0.        , -0.        , -0.        ,
        -0.        ,  0.        ,  0.        ,  0.        ,  0.        , -0.        ],
       [ 0.        ,  0.        , -0.        , -0.        , -0.        , -0.        ,  0.        , -0.        ,  0.        ,  0.        , -0.        ,
         0.01723338,  0.00494975,  0.        ,  3.60006691, -0.        , -0.        , -0.        , -0.        ,  0.        ,  0.        , -0.        ,
        -0.        , -0.        , -0.        ,  0.        ,  0.        , -0.        ],
       [-0.        , -0.        , -0.01188874, -0.00028643,  0.        ,  0.04618805,  0.02092998, -0.        ,  0.01215368, -0.00024604, -0.        ,
        -0.        ,  0.        , -0.        , -0.        ,  4.1710415 ,  0.        , -0.        , -0.        , -0.0069688 , -0.00069123, -0.        ,
         0.        ,  0.19659904, -0.12756267,  0.        ,  0.        ,  0.        ],
       [ 0.        , -0.        ,  0.00028643, -0.01188874,  0.        ,  0.02092998, -0.04618805, -0.        ,  0.00024604,  0.01215368, -0.        ,
        -0.        ,  0.        , -0.        , -0.        ,  0.        ,  4.1710415 , -0.        , -0.        ,  0.00069123, -0.0069688 , -0.        ,
         0.        , -0.12756267, -0.19659904, -0.        , -0.        , -0.        ],
       [-0.12694563, -0.49287881,  0.        ,  0.        ,  0.06893866, -0.        , -0.        , -0.39686613, -0.        , -0.        , -0.02952384,
        -0.        , -0.        , -0.        , -0.        , -0.        , -0.        ,  1.30266215, -0.01823767,  0.        , -0.        ,  0.03290448,
         0.06380652, -0.        , -0.        ,  0.98282338, -0.00468239,  0.00479193],
       [-0.02766351, -0.00820494,  0.        , -0.        ,  0.27671493, -0.        , -0.        , -0.01247822,  0.        , -0.        , -0.05209663,
        -0.        , -0.        , -0.        , -0.        , -0.        , -0.        , -0.01823767,  4.36206139, -0.        , -0.        ,  0.76698921,
         0.01240902, -0.        , -0.        , -0.00770757,  0.0655115 ,  1.09132186],
       [ 0.        ,  0.        ,  1.19687549, -0.08966715,  0.        , -0.0090904 , -0.00525726,  0.        ,  0.31974931, -0.03826561, -0.        ,
        -0.        , -0.        , -0.        ,  0.        , -0.0069688 ,  0.00069123,  0.        , -0.        ,  3.27109197, -0.        ,  0.        ,
         0.        ,  0.01191539, -0.00615336, -0.        ,  0.        , -0.        ],
       [-0.        , -0.        ,  0.08966715,  1.19687549, -0.        , -0.00525726,  0.0090904 ,  0.        ,  0.03826561,  0.31974931, -0.        ,
        -0.        ,  0.        , -0.        ,  0.        , -0.00069123, -0.0069688 , -0.        , -0.        , -0.        ,  3.27109197,  0.        ,
         0.        , -0.00615336, -0.01191539,  0.        ,  0.        ,  0.        ],
       [ 0.00931539, -0.00529333,  0.        ,  0.        ,  0.63918363, -0.        ,  0.        ,  0.00380938,  0.        ,  0.        ,  0.66793901,
        -0.        , -0.        , -0.        , -0.        , -0.        , -0.        ,  0.03290448,  0.76698921,  0.        ,  0.        ,  2.11120144,
         0.00155595, -0.        , -0.        ,  0.01435014, -1.10518616,  0.42485675],
       [-0.1682255 , -0.85974063,  0.        , -0.        , -0.01309936, -0.        ,  0.        ,  0.90682045,  0.        ,  0.        ,  0.01729122,
        -0.        , -0.        , -0.        , -0.        ,  0.        ,  0.        ,  0.06380652,  0.01240902,  0.        ,  0.        ,  0.00155595,
         3.70536539,  0.        ,  0.        , -0.01968243, -0.00044142, -0.00676154],
       [ 0.        ,  0.        , -0.00008237,  0.00005067, -0.        , -0.77280874, -1.20631502,  0.        ,  0.00221978, -0.001505  ,  0.        ,
         0.        ,  0.        ,  0.        , -0.        ,  0.19659904, -0.12756267, -0.        , -0.        ,  0.01191539, -0.00615336, -0.        ,
         0.        ,  3.04299193, -0.        , -0.        ,  0.        , -0.        ],
       [-0.        , -0.        ,  0.00005067,  0.00008237, -0.        ,  1.20631502, -0.77280874,  0.        , -0.001505  , -0.00221978, -0.        ,
         0.        ,  0.        ,  0.        , -0.        , -0.12756267, -0.19659904, -0.        , -0.        , -0.00615336, -0.01191539, -0.        ,
         0.        , -0.        ,  3.04299193, -0.        ,  0.        ,  0.        ],
       [ 0.03164932, -0.05087978, -0.        ,  0.        , -0.00505148, -0.        ,  0.        ,  0.32802019,  0.        ,  0.        , -0.00252528,
         0.        ,  0.        ,  0.        ,  0.        ,  0.        , -0.        ,  0.98282338, -0.00770757, -0.        ,  0.        ,  0.01435014,
        -0.01968243, -0.        , -0.        ,  1.81725404, -0.00699334,  0.00694961],
       [-0.00247187,  0.00057484,  0.        , -0.        , -0.13128289, -0.        , -0.        , -0.00038501,  0.        , -0.        , -0.36535636,
         0.        ,  0.        ,  0.        ,  0.        ,  0.        , -0.        , -0.00468239,  0.0655115 ,  0.        ,  0.        , -1.10518616,
        -0.00044142,  0.        ,  0.        , -0.00699334,  1.21921778,  0.13188547],
       [-0.01412082,  0.00108463, -0.        ,  0.        ,  0.12407519,  0.        ,  0.        , -0.0008504 , -0.        ,  0.        , -1.16967895,
        -0.        , -0.        , -0.        , -0.        ,  0.        , -0.        ,  0.00479193,  1.09132186, -0.        ,  0.        ,  0.42485675,
        -0.00676154, -0.        ,  0.        ,  0.00694961,  0.13188547,  3.69772064]]))
E(UHF) =    -1.450859
NO eigenvalue
[-1. -0. -0. -0. -0. -0. -0. -0. -0. -0. -0. -0.  0.  0.  0.  0.  0.  0.  0.  0.  0.  0.  0.  0.  0.  0.  0.  0.] [-1. -0. -0. -0. -0. -0. -0. -0. -0. -0. -0. -0. -0. -0. -0. -0.  0.  0.  0.  0.  0.  0.  0.  0.  0.  0.  0.  0.]
NO vec
[[ 0.9115761   0.         -0.40261738 ...  0.          0.          0.        ]
 [-0.25192799  0.         -0.7009683  ...  0.          0.          0.        ]
 [-0.          0.         -0.         ...  0.          0.          0.        ]
 ...
 [ 0.         -0.03065552  0.         ... -0.90888304  0.14090557  0.0233875 ]
 [ 0.          0.02870518  0.         ... -0.1544302  -0.5041713   0.03896585]
 [ 0.          0.02400095  0.         ...  0.12310666 -0.19198723 -0.00558762]]
dm(NO)
[[ 1.  0.  0. ...  0.  0.  0.]
 [ 0.  1.  0. ... -0. -0. -0.]
 [ 0.  0.  0. ...  0.  0.  0.]
 ...
 [ 0.  0.  0. ... -0.  0.  0.]
 [ 0. -0.  0. ...  0. -0. -0.]
 [ 0. -0.  0. ...  0.  0.  0.]]
D(g) (NO)
[[ 0.99951369  0.02472247  0.         ...  0.00066925 -0.00144601  0.0083583 ]
 [-0.02472247  0.99951369  0.01168596 ... -0.         -0.          0.        ]
 [ 0.         -0.01168596  0.99951369 ...  0.00183822 -0.00322806 -0.01510096]
 ...
 [-0.00066925 -0.         -0.00183822 ...  0.99951369 -0.          0.        ]
 [ 0.00144601 -0.          0.00322806 ...  0.          0.99951369 -0.        ]
 [-0.0083583   0.          0.01510096 ...  0.         -0.          0.99951369]]
...
N(g) (NO)
[[ 0.99987483 -0.0247314 ]
 [ 0.0247314   0.99987483]]
...
P(g) (NO)
[[ 1.          0.          0.         ... -0.         -0.         -0.        ]
 [ 0.          1.          0.         ... -0.         -0.         -0.        ]
 [-0.00028901 -0.0116845  -0.         ...  0.          0.          0.        ]
 ...
 [-0.00066916  0.00001655 -0.         ... -0.         -0.         -0.        ]
 [ 0.00144583 -0.00003576  0.         ...  0.          0.          0.        ]
 [-0.00835726  0.00020671 -0.         ... -0.         -0.         -0.        ]]
...
Pg_ortho
[[ 0.83110377 -0.22968823 -0.         ... -0.00018052  0.00016904  0.00014133]
 [-0.22968823  0.06347786  0.         ...  0.00004989 -0.00004672 -0.00003906]
 [-0.          0.          0.         ... -0.          0.          0.        ]
 ...
 [ 0.00018052 -0.00004989 -0.         ...  0.00093991 -0.00088011 -0.00073588]
 [ 0.0014627  -0.00040424 -0.         ... -0.00087876  0.00082285  0.000688  ]
 [ 0.00122299 -0.00033799 -0.         ... -0.00073474  0.000688    0.00057525]]
G(g) (NO)
[[ 0.45295562 -0.00154358 -0.10890182 ...  0.00023775  0.00031199  0.00089049]
 [ 0.00154358  0.45295562  0.00117185 ...  0.01243401 -0.05416401  0.10150485]
 [-0.10879317  0.00614365  0.98248211 ... -0.00011732 -0.00098957  0.00079531]
 ...
 [ 0.00065254  0.0124227  -0.00006147 ...  0.80590781  0.12932498  0.06778243]
 [-0.0015848  -0.0541537  -0.00069628 ...  0.12932448  0.84256576 -0.00958169]
 [ 0.00425701  0.10142256 -0.00089156 ...  0.06778403 -0.00958075  1.00346662]]
...
C(NO)
[[-1.          0.          0.         ...  0.          0.          0.        ]
 [ 0.         -1.          0.         ... -0.          0.          0.        ]
 [-0.          0.          0.54316487 ...  0.          0.          0.        ]
 ...
 [ 0.          0.          0.         ... -0.          0.03753881  0.26738893]
 [ 0.          0.          0.         ...  0.          0.27171738 -0.18393351]
 [ 0.          0.          0.         ...  0.         -0.13978045  0.01053191]]
detC 0.9999999999999991
detNg [1.00036132 1.00948196 1.05178701 1.1533318  1.31319786 1.47538277 1.56753094 1.59004191]
xg [0.99963881 0.99060711 0.95076284 0.86705318 0.76149987 0.67779021 0.63794594 0.62891424]
ciS 1.6285530477846208
[[-0.95188802  0.          0.11545944 ...  0.          0.          0.        ]
 [ 0.         -0.95188802  0.         ... -0.0131867   0.05597956 -0.10687913]
 [ 0.11545944  0.         -0.05049315 ...  0.          0.          0.        ]
 ...
 [ 0.         -0.0131867   0.         ...  1.40950322  0.37317315  0.14292336]
 [ 0.          0.05597956  0.         ...  0.37317315  1.24603187 -0.02825775]
 [ 0.         -0.10687913  0.         ...  0.14292336 -0.02825775  0.1961931 ]]
ciH -2.4054559528652826
S2 = 0.000000
X(g)
[[ 2.          0.         -0.00028901 ...  0.00066916 -0.00144583  0.00835726]
 [-0.          2.          0.0116845  ...  0.00001655 -0.00003576  0.00020671]
 [-0.00028901 -0.0116845   0.         ...  0.          0.          0.        ]
 ...
 [-0.00066916  0.00001655  0.         ...  0.          0.          0.        ]
 [ 0.00144583 -0.00003576  0.         ...  0.          0.          0.        ]
 [-0.00835726  0.00020671  0.         ...  0.          0.          0.        ]]
X(g) int
[[ 2.         -0.         -0.18243683 ...  0.01035029 -0.0223634   0.12926624]
 [-0.          2.          0.18073049 ...  0.01044802 -0.02257454  0.13048669]
 [-0.18243683 -0.18073049  0.         ...  0.          0.          0.        ]
 ...
 [-0.01035029  0.01044802  0.         ...  0.          0.          0.        ]
 [ 0.0223634  -0.02257454  0.         ...  0.          0.          0.        ]
 [-0.12926624  0.13048669  0.         ...  0.          0.          0.        ]]
Hsp + Hph =  -1.4770510276822182
Feff (mod,ortho)
[[-0.28749671  0.45626376  0.         ...  0.          0.          0.        ]
 [ 0.45626376  1.30282146  0.         ...  0.          0.          0.        ]
 [ 0.          0.          1.27428738 ...  0.          0.          0.        ]
 ...
 [ 0.          0.          0.         ...  1.81727604 -0.00702988  0.00699758]
 [ 0.          0.          0.         ... -0.00702988  1.2192669   0.13185303]
 [ 0.          0.          0.         ...  0.00699758  0.13185303  3.69763205]]
E(SUHF) =     -1.06999163
e_a, e_b
[-0.50059266  0.09018416  0.34562258  0.48977493  0.66294767  0.66294767  0.88982584  0.98821637  0.98821637  1.40221709  2.56759105  2.72136858  3.10352963
  3.10352963  3.14666416  3.32426586  3.32426586  3.60123256  3.60123256  3.87553885  3.87553885  3.94882084  3.94882084  4.07504682  4.28960999  4.28960999
  4.4744698   5.53353345] [-0.50059266  0.09018416  0.34562258  0.48977493  0.66294767  0.66294767  0.88982584  0.98821637  0.98821637  1.40221709  2.56759105  2.72136858  3.10352963
  3.10352963  3.14666416  3.32426586  3.32426586  3.60123256  3.60123256  3.87553885  3.87553885  3.94882084  3.94882084  4.07504682  4.28960999  4.28960999
  4.4744698   5.53353345]
P_a, P_b
[[ 0.80438739 -0.22049754 -0.         -0.          0.3114063   0.         -0.          0.00633612 -0.         -0.         -0.07774651  0.         -0.
  -0.          0.          0.          0.          0.0213464  -0.00993334  0.          0.         -0.05358877 -0.01548885  0.         -0.         -0.02667934
  -0.02563124 -0.02521626]
 [-0.22049754  0.06044247  0.          0.         -0.08536226 -0.          0.         -0.00173685  0.          0.          0.02131176 -0.          0.
   0.         -0.         -0.         -0.         -0.00585144  0.00272291 -0.         -0.          0.01468968  0.00424578 -0.          0.          0.0073133
   0.007026    0.00691225]
 [-0.          0.          0.          0.         -0.         -0.          0.         -0.          0.          0.          0.         -0.          0.
   0.         -0.         -0.         -0.         -0.          0.         -0.         -0.          0.          0.         -0.          0.          0.
   0.          0.        ]
 [-0.          0.          0.          0.         -0.         -0.          0.         -0.          0.          0.          0.         -0.          0.
   0.         -0.         -0.         -0.         -0.          0.         -0.         -0.          0.          0.         -0.          0.          0.
   0.          0.        ]
 [ 0.3114063  -0.08536226 -0.         -0.          0.12055619  0.         -0.          0.00245293 -0.         -0.         -0.03009837  0.         -0.
  -0.          0.          0.          0.          0.00826393 -0.00384554  0.          0.         -0.02074608 -0.00599627  0.         -0.         -0.0103285
  -0.00992274 -0.00976209]
 [ 0.         -0.         -0.         -0.          0.          0.         -0.          0.         -0.         -0.         -0.          0.         -0.
  -0.          0.          0.          0.          0.         -0.          0.          0.         -0.         -0.          0.         -0.         -0.
  -0.         -0.        ]
 [-0.          0.          0.          0.         -0.         -0.          0.         -0.          0.          0.          0.         -0.          0.
   0.         -0.         -0.         -0.         -0.          0.         -0.         -0.          0.          0.         -0.          0.          0.
   0.          0.        ]
 [ 0.00633612 -0.00173685 -0.         -0.          0.00245293  0.         -0.          0.00004991 -0.         -0.         -0.00061241  0.         -0.
  -0.          0.          0.          0.          0.00016814 -0.00007824  0.          0.         -0.00042212 -0.000122    0.         -0.         -0.00021015
  -0.0002019  -0.00019863]
 [-0.          0.          0.          0.         -0.         -0.          0.         -0.          0.          0.          0.         -0.          0.
   0.         -0.         -0.         -0.         -0.          0.         -0.         -0.          0.          0.         -0.          0.          0.
   0.          0.        ]
 [-0.          0.          0.          0.         -0.         -0.          0.         -0.          0.          0.          0.         -0.          0.
   0.         -0.         -0.         -0.         -0.          0.         -0.         -0.          0.          0.         -0.          0.          0.
   0.          0.        ]
 [-0.07774651  0.02131176  0.          0.         -0.03009837 -0.          0.         -0.00061241  0.          0.          0.00751444 -0.          0.
   0.         -0.         -0.         -0.         -0.00206319  0.00096009 -0.         -0.          0.00517952  0.00149705 -0.          0.          0.00257864
   0.00247734  0.00243723]
 [ 0.         -0.         -0.         -0.          0.          0.         -0.          0.         -0.         -0.         -0.          0.         -0.
  -0.          0.          0.          0.          0.         -0.          0.          0.         -0.         -0.          0.         -0.         -0.
  -0.         -0.        ]
 [-0.          0.          0.          0.         -0.         -0.          0.         -0.          0.          0.          0.         -0.          0.
   0.         -0.         -0.         -0.         -0.          0.         -0.         -0.          0.          0.         -0.          0.          0.
   0.          0.        ]
 [-0.          0.          0.          0.         -0.         -0.          0.         -0.          0.          0.          0.         -0.          0.
   0.         -0.         -0.         -0.         -0.          0.         -0.         -0.          0.          0.         -0.          0.          0.
   0.          0.        ]
 [ 0.         -0.         -0.         -0.          0.          0.         -0.          0.         -0.         -0.         -0.          0.         -0.
  -0.          0.          0.          0.          0.         -0.          0.          0.         -0.         -0.          0.         -0.         -0.
  -0.         -0.        ]
 [ 0.         -0.         -0.         -0.          0.          0.         -0.          0.         -0.         -0.         -0.          0.         -0.
  -0.          0.          0.          0.          0.         -0.          0.          0.         -0.         -0.          0.         -0.         -0.
  -0.         -0.        ]
 [ 0.         -0.         -0.         -0.          0.          0.         -0.          0.         -0.         -0.         -0.          0.         -0.
  -0.          0.          0.          0.          0.         -0.          0.          0.         -0.         -0.          0.         -0.         -0.
  -0.         -0.        ]
 [ 0.0213464  -0.00585144 -0.         -0.          0.00826393  0.         -0.          0.00016814 -0.         -0.         -0.00206319  0.         -0.
  -0.          0.          0.          0.          0.00056648 -0.00026361  0.          0.         -0.00142211 -0.00041103  0.         -0.         -0.000708
  -0.00068019 -0.00066918]
 [-0.00993334  0.00272291  0.          0.         -0.00384554 -0.          0.         -0.00007824  0.          0.          0.00096009 -0.          0.
   0.         -0.         -0.         -0.         -0.00026361  0.00012267 -0.         -0.          0.00066177  0.00019127 -0.          0.          0.00032946
   0.00031652  0.00031139]
 [ 0.         -0.         -0.         -0.          0.          0.         -0.          0.         -0.         -0.         -0.          0.         -0.
  -0.          0.          0.          0.          0.         -0.          0.          0.         -0.         -0.          0.         -0.         -0.
  -0.         -0.        ]
 [ 0.         -0.         -0.         -0.          0.          0.         -0.          0.         -0.         -0.         -0.          0.         -0.
  -0.          0.          0.          0.          0.         -0.          0.          0.         -0.         -0.          0.         -0.         -0.
  -0.         -0.        ]
 [-0.05358877  0.01468968  0.          0.         -0.02074608 -0.          0.         -0.00042212  0.          0.          0.00517952 -0.          0.
   0.         -0.         -0.         -0.         -0.00142211  0.00066177 -0.         -0.          0.00357012  0.00103188 -0.          0.          0.00177739
   0.00170757  0.00167992]
 [-0.01548885  0.00424578  0.          0.         -0.00599627 -0.          0.         -0.000122    0.          0.          0.00149705 -0.          0.
   0.         -0.         -0.         -0.         -0.00041103  0.00019127 -0.         -0.          0.00103188  0.00029825 -0.          0.          0.00051372
   0.00049354  0.00048555]
 [ 0.         -0.         -0.         -0.          0.          0.         -0.          0.         -0.         -0.         -0.          0.         -0.
  -0.          0.          0.          0.          0.         -0.          0.          0.         -0.         -0.          0.         -0.         -0.
  -0.         -0.        ]
 [-0.          0.          0.          0.         -0.         -0.          0.         -0.          0.          0.          0.         -0.          0.
   0.         -0.         -0.         -0.         -0.          0.         -0.         -0.          0.          0.         -0.          0.          0.
   0.          0.        ]
 [-0.02667934  0.0073133   0.          0.         -0.0103285  -0.          0.         -0.00021015  0.          0.          0.00257864 -0.          0.
   0.         -0.         -0.         -0.         -0.000708    0.00032946 -0.         -0.          0.00177739  0.00051372 -0.          0.          0.00088488
   0.00085012  0.00083635]
 [-0.02563124  0.007026    0.          0.         -0.00992274 -0.          0.         -0.0002019   0.          0.          0.00247734 -0.          0.
   0.         -0.         -0.         -0.         -0.00068019  0.00031652 -0.         -0.          0.00170757  0.00049354 -0.          0.          0.00085012
   0.00081672  0.0008035 ]
 [-0.02521626  0.00691225  0.          0.         -0.00976209 -0.          0.         -0.00019863  0.          0.          0.00243723 -0.          0.
   0.         -0.         -0.         -0.         -0.00066918  0.00031139 -0.         -0.          0.00167992  0.00048555 -0.          0.          0.00083635
   0.0008035   0.00079049]] 
 [[ 0.80438739 -0.22049754  0.          0.         -0.3114063  -0.          0.          0.00633612  0.          0.          0.07774651  0.          0.
   0.          0.          0.         -0.          0.0213464   0.00993334 -0.         -0.          0.05358877 -0.01548885 -0.         -0.         -0.02667934
   0.02563124  0.02521626]
 [-0.22049754  0.06044247 -0.         -0.          0.08536226  0.         -0.         -0.00173685 -0.         -0.         -0.02131176 -0.         -0.
  -0.         -0.         -0.          0.         -0.00585144 -0.00272291  0.          0.         -0.01468968  0.00424578  0.          0.          0.0073133
  -0.007026   -0.00691225]
 [ 0.         -0.          0.          0.         -0.         -0.          0.          0.          0.          0.          0.          0.          0.
   0.          0.          0.         -0.          0.          0.         -0.         -0.          0.         -0.         -0.         -0.         -0.
   0.          0.        ]
 [ 0.         -0.          0.          0.         -0.         -0.          0.          0.          0.          0.          0.          0.          0.
   0.          0.          0.         -0.          0.          0.         -0.         -0.          0.         -0.         -0.         -0.         -0.
   0.          0.        ]
 [-0.3114063   0.08536226 -0.         -0.          0.12055619  0.         -0.         -0.00245293 -0.         -0.         -0.03009837 -0.         -0.
  -0.         -0.         -0.          0.         -0.00826393 -0.00384554  0.          0.         -0.02074608  0.00599627  0.          0.          0.0103285
  -0.00992274 -0.00976209]
 [-0.          0.         -0.         -0.          0.          0.         -0.         -0.         -0.         -0.         -0.         -0.         -0.
  -0.         -0.         -0.          0.         -0.         -0.          0.          0.         -0.          0.          0.          0.          0.
  -0.         -0.        ]
 [ 0.         -0.          0.          0.         -0.         -0.          0.          0.          0.          0.          0.          0.          0.
   0.          0.          0.         -0.          0.          0.         -0.         -0.          0.         -0.         -0.         -0.         -0.
   0.          0.        ]
 [ 0.00633612 -0.00173685  0.          0.         -0.00245293 -0.          0.          0.00004991  0.          0.          0.00061241  0.          0.
   0.          0.          0.         -0.          0.00016814  0.00007824 -0.         -0.          0.00042212 -0.000122   -0.         -0.         -0.00021015
   0.0002019   0.00019863]
 [ 0.         -0.          0.          0.         -0.         -0.          0.          0.          0.          0.          0.          0.          0.
   0.          0.          0.         -0.          0.          0.         -0.         -0.          0.         -0.         -0.         -0.         -0.
   0.          0.        ]
 [ 0.         -0.          0.          0.         -0.         -0.          0.          0.          0.          0.          0.          0.          0.
   0.          0.          0.         -0.          0.          0.         -0.         -0.          0.         -0.         -0.         -0.         -0.
   0.          0.        ]
 [ 0.07774651 -0.02131176  0.          0.         -0.03009837 -0.          0.          0.00061241  0.          0.          0.00751444  0.          0.
   0.          0.          0.         -0.          0.00206319  0.00096009 -0.         -0.          0.00517952 -0.00149705 -0.         -0.         -0.00257864
   0.00247734  0.00243723]
 [ 0.         -0.          0.          0.         -0.         -0.          0.          0.          0.          0.          0.          0.          0.
   0.          0.          0.         -0.          0.          0.         -0.         -0.          0.         -0.         -0.         -0.         -0.
   0.          0.        ]
 [ 0.         -0.          0.          0.         -0.         -0.          0.          0.          0.          0.          0.          0.          0.
   0.          0.          0.         -0.          0.          0.         -0.         -0.          0.         -0.         -0.         -0.         -0.
   0.          0.        ]
 [ 0.         -0.          0.          0.         -0.         -0.          0.          0.          0.          0.          0.          0.          0.
   0.          0.          0.         -0.          0.          0.         -0.         -0.          0.         -0.         -0.         -0.         -0.
   0.          0.        ]
 [ 0.         -0.          0.          0.         -0.         -0.          0.          0.          0.          0.          0.          0.          0.
   0.          0.          0.         -0.          0.          0.         -0.         -0.          0.         -0.         -0.         -0.         -0.
   0.          0.        ]
 [ 0.         -0.          0.          0.         -0.         -0.          0.          0.          0.          0.          0.          0.          0.
   0.          0.          0.         -0.          0.          0.         -0.         -0.          0.         -0.         -0.         -0.         -0.
   0.          0.        ]
 [-0.          0.         -0.         -0.          0.          0.         -0.         -0.         -0.         -0.         -0.         -0.         -0.
  -0.         -0.         -0.          0.         -0.         -0.          0.          0.         -0.          0.          0.          0.          0.
  -0.         -0.        ]
 [ 0.0213464  -0.00585144  0.          0.         -0.00826393 -0.          0.          0.00016814  0.          0.          0.00206319  0.          0.
   0.          0.          0.         -0.          0.00056648  0.00026361 -0.         -0.          0.00142211 -0.00041103 -0.         -0.         -0.000708
   0.00068019  0.00066918]
 [ 0.00993334 -0.00272291  0.          0.         -0.00384554 -0.          0.          0.00007824  0.          0.          0.00096009  0.          0.
   0.          0.          0.         -0.          0.00026361  0.00012267 -0.         -0.          0.00066177 -0.00019127 -0.         -0.         -0.00032946
   0.00031652  0.00031139]
 [-0.          0.         -0.         -0.          0.          0.         -0.         -0.         -0.         -0.         -0.         -0.         -0.
  -0.         -0.         -0.          0.         -0.         -0.          0.          0.         -0.          0.          0.          0.          0.
  -0.         -0.        ]
 [-0.          0.         -0.         -0.          0.          0.         -0.         -0.         -0.         -0.         -0.         -0.         -0.
  -0.         -0.         -0.          0.         -0.         -0.          0.          0.         -0.          0.          0.          0.          0.
  -0.         -0.        ]
 [ 0.05358877 -0.01468968  0.          0.         -0.02074608 -0.          0.          0.00042212  0.          0.          0.00517952  0.          0.
   0.          0.          0.         -0.          0.00142211  0.00066177 -0.         -0.          0.00357012 -0.00103188 -0.         -0.         -0.00177739
   0.00170757  0.00167992]
 [-0.01548885  0.00424578 -0.         -0.          0.00599627  0.         -0.         -0.000122   -0.         -0.         -0.00149705 -0.         -0.
  -0.         -0.         -0.          0.         -0.00041103 -0.00019127  0.          0.         -0.00103188  0.00029825  0.          0.          0.00051372
  -0.00049354 -0.00048555]
 [-0.          0.         -0.         -0.          0.          0.         -0.         -0.         -0.         -0.         -0.         -0.         -0.
  -0.         -0.         -0.          0.         -0.         -0.          0.          0.         -0.          0.          0.          0.          0.
  -0.         -0.        ]
 [-0.          0.         -0.         -0.          0.          0.         -0.         -0.         -0.         -0.         -0.         -0.         -0.
  -0.         -0.         -0.          0.         -0.         -0.          0.          0.         -0.          0.          0.          0.          0.
  -0.         -0.        ]
 [-0.02667934  0.0073133  -0.         -0.          0.0103285   0.         -0.         -0.00021015 -0.         -0.         -0.00257864 -0.         -0.
  -0.         -0.         -0.          0.         -0.000708   -0.00032946  0.          0.         -0.00177739  0.00051372  0.          0.          0.00088488
  -0.00085012 -0.00083635]
 [ 0.02563124 -0.007026    0.          0.         -0.00992274 -0.          0.          0.0002019   0.          0.          0.00247734  0.          0.
   0.          0.          0.         -0.          0.00068019  0.00031652 -0.         -0.          0.00170757 -0.00049354 -0.         -0.         -0.00085012
   0.00081672  0.0008035 ]
 [ 0.02521626 -0.00691225  0.          0.         -0.00976209 -0.          0.          0.00019863  0.          0.          0.00243723  0.          0.
[...]
 [ 0.09248899 -0.07058164  0.         ...  0.          0.          0.        ]]
Hsp + Hph =  -1.4908434397844545
Feff (mod,ortho)
[[-0.23596176  0.45366513 -0.         ...  0.          0.          0.        ]
 [ 0.45366513  1.31392371  0.         ...  0.          0.          0.        ]
 [-0.          0.          1.28645283 ...  0.          0.          0.        ]
 ...
 [ 0.          0.          0.         ...  1.82548322 -0.00993389  0.01028547]
 [ 0.          0.          0.         ... -0.00993389  1.22392005  0.13144682]
 [ 0.          0.          0.         ...  0.01028547  0.13144682  3.70596532]]
E(SUHF) =     -1.08378405
e_a, e_b
[-0.51070601  0.10690461  0.34261865  0.50704297  0.66956575  0.66956575  0.89822231  0.99593603  0.99593603  1.40970604  2.5713424   2.7465457   3.1142927
  3.1142927   3.15732281  3.33466506  3.33466506  3.61382148  3.61382148  3.8818544   3.8818544   3.9735757   3.9735757   4.09160885  4.30353559  4.30353559
  4.49271917  5.54625235] [-0.51070601  0.10690461  0.34261865  0.50704297  0.66956575  0.66956575  0.89822231  0.99593603  0.99593603  1.40970604  2.5713424   2.7465457   3.1142927
  3.1142927   3.15732281  3.33466506  3.33466506  3.61382148  3.61382148  3.8818544   3.8818544   3.9735757   3.9735757   4.09160885  4.30353559  4.30353559
  4.49271917  5.54625235]
P_a, P_b
[[ 0.73977975 -0.20564744 -0.          0.          0.36546535 -0.          0.          0.00866677 -0.         -0.         -0.10839246 -0.         -0.
  -0.         -0.          0.         -0.          0.02955328 -0.02010541 -0.          0.         -0.03319902 -0.01647339 -0.         -0.         -0.02842014
  -0.00976244 -0.03566034]
 [-0.20564744  0.05716684  0.         -0.         -0.10159377  0.         -0.         -0.00240923  0.          0.          0.03013144  0.          0.
   0.          0.         -0.          0.         -0.00821536  0.00558899  0.         -0.          0.00922882  0.00457935  0.          0.          0.00790036
   0.00271381  0.00991303]
 [-0.          0.          0.         -0.         -0.          0.         -0.         -0.          0.          0.          0.          0.          0.
   0.          0.         -0.          0.         -0.          0.          0.         -0.          0.          0.          0.          0.          0.
   0.          0.        ]
 [ 0.         -0.         -0.          0.          0.         -0.          0.          0.         -0.         -0.         -0.         -0.         -0.
  -0.         -0.          0.         -0.          0.         -0.         -0.          0.         -0.         -0.         -0.         -0.         -0.
  -0.         -0.        ]
 [ 0.36546535 -0.10159377 -0.          0.          0.18054687 -0.          0.          0.00428155 -0.         -0.         -0.05354795 -0.         -0.
  -0.         -0.          0.         -0.          0.01459988 -0.00993246 -0.          0.         -0.01640095 -0.00813817 -0.         -0.         -0.01404009
  -0.00482283 -0.01761689]
 [-0.          0.          0.         -0.         -0.          0.         -0.         -0.          0.          0.          0.          0.          0.
   0.          0.         -0.          0.         -0.          0.          0.         -0.          0.          0.          0.          0.          0.
   0.          0.        ]
 [ 0.         -0.         -0.          0.          0.         -0.          0.          0.         -0.         -0.         -0.         -0.         -0.
  -0.         -0.          0.         -0.          0.         -0.         -0.          0.         -0.         -0.         -0.         -0.         -0.
  -0.         -0.        ]
 [ 0.00866677 -0.00240923 -0.          0.          0.00428155 -0.          0.          0.00010153 -0.         -0.         -0.00126985 -0.         -0.
  -0.         -0.          0.         -0.          0.00034623 -0.00023554 -0.          0.         -0.00038894 -0.00019299 -0.         -0.         -0.00033295
  -0.00011437 -0.00041777]
 [-0.          0.          0.         -0.         -0.          0.         -0.         -0.          0.          0.          0.          0.          0.
   0.          0.         -0.          0.         -0.          0.          0.         -0.          0.          0.          0.          0.          0.
   0.          0.        ]
 [-0.          0.          0.         -0.         -0.          0.         -0.         -0.          0.          0.          0.          0.          0.
   0.          0.         -0.          0.         -0.          0.          0.         -0.          0.          0.          0.          0.          0.
   0.          0.        ]
 [-0.10839246  0.03013144  0.         -0.         -0.05354795  0.         -0.         -0.00126985  0.          0.          0.01588165  0.          0.
   0.          0.         -0.          0.         -0.00433014  0.00294584  0.         -0.          0.00486432  0.00241368  0.          0.          0.00416412
   0.00143039  0.00522495]
 [-0.          0.          0.         -0.         -0.          0.         -0.         -0.          0.          0.          0.          0.          0.
   0.          0.         -0.          0.         -0.          0.          0.         -0.          0.          0.          0.          0.          0.
   0.          0.        ]
 [-0.          0.          0.         -0.         -0.          0.         -0.         -0.          0.          0.          0.          0.          0.
   0.          0.         -0.          0.         -0.          0.          0.         -0.          0.          0.          0.          0.          0.
   0.          0.        ]
 [-0.          0.          0.         -0.         -0.          0.         -0.         -0.          0.          0.          0.          0.          0.
   0.          0.         -0.          0.         -0.          0.          0.         -0.          0.          0.          0.          0.          0.
   0.          0.        ]
 [-0.          0.          0.         -0.         -0.          0.         -0.         -0.          0.          0.          0.          0.          0.
   0.          0.         -0.          0.         -0.          0.          0.         -0.          0.          0.          0.          0.          0.
   0.          0.        ]
 [ 0.         -0.         -0.          0.          0.         -0.          0.          0.         -0.         -0.         -0.         -0.         -0.
  -0.         -0.          0.         -0.          0.         -0.         -0.          0.         -0.         -0.         -0.         -0.         -0.
  -0.         -0.        ]
 [-0.          0.          0.         -0.         -0.          0.         -0.         -0.          0.          0.          0.          0.          0.
   0.          0.         -0.          0.         -0.          0.          0.         -0.          0.          0.          0.          0.          0.
   0.          0.        ]
 [ 0.02955328 -0.00821536 -0.          0.          0.01459988 -0.          0.          0.00034623 -0.         -0.         -0.00433014 -0.         -0.
  -0.         -0.          0.         -0.          0.00118062 -0.00080319 -0.          0.         -0.00132626 -0.00065809 -0.         -0.         -0.00113535
  -0.00039    -0.00142459]
 [-0.02010541  0.00558899  0.         -0.         -0.00993246  0.         -0.         -0.00023554  0.          0.          0.00294584  0.          0.
   0.          0.         -0.          0.         -0.00080319  0.00054642  0.         -0.          0.00090227  0.00044771  0.          0.          0.00077239
   0.00026532  0.00096916]
 [-0.          0.          0.         -0.         -0.          0.         -0.         -0.          0.          0.          0.          0.          0.
   0.          0.         -0.          0.         -0.          0.          0.         -0.          0.          0.          0.          0.          0.
   0.          0.        ]
 [ 0.         -0.         -0.          0.          0.         -0.          0.          0.         -0.         -0.         -0.         -0.         -0.
  -0.         -0.          0.         -0.          0.         -0.         -0.          0.         -0.         -0.         -0.         -0.         -0.
  -0.         -0.        ]
 [-0.03319902  0.00922882  0.         -0.         -0.01640095  0.         -0.         -0.00038894  0.          0.          0.00486432  0.          0.
   0.          0.         -0.          0.         -0.00132626  0.00090227  0.         -0.          0.00148987  0.00073927  0.          0.          0.00127541
   0.00043811  0.00160033]
 [-0.01647339  0.00457935  0.         -0.         -0.00813817  0.         -0.         -0.00019299  0.          0.          0.00241368  0.          0.
   0.          0.         -0.          0.         -0.00065809  0.00044771  0.         -0.          0.00073927  0.00036683  0.          0.          0.00063286
   0.00021739  0.00079408]
 [-0.          0.          0.         -0.         -0.          0.         -0.         -0.          0.          0.          0.          0.          0.
   0.          0.         -0.          0.         -0.          0.          0.         -0.          0.          0.          0.          0.          0.
   0.          0.        ]
 [-0.          0.          0.         -0.         -0.          0.         -0.         -0.          0.          0.          0.          0.          0.
   0.          0.         -0.          0.         -0.          0.          0.         -0.          0.          0.          0.          0.          0.
   0.          0.        ]
 [-0.02842014  0.00790036  0.         -0.         -0.01404009  0.         -0.         -0.00033295  0.          0.          0.00416412  0.          0.
   0.          0.         -0.          0.         -0.00113535  0.00077239  0.         -0.          0.00127541  0.00063286  0.          0.          0.00109182
   0.00037504  0.00136996]
 [-0.00976244  0.00271381  0.         -0.         -0.00482283  0.         -0.         -0.00011437  0.          0.          0.00143039  0.          0.
   0.          0.         -0.          0.         -0.00039     0.00026532  0.         -0.          0.00043811  0.00021739  0.          0.          0.00037504
   0.00012883  0.00047059]
 [-0.03566034  0.00991303  0.         -0.         -0.01761689  0.         -0.         -0.00041777  0.          0.          0.00522495  0.          0.
   0.          0.         -0.          0.         -0.00142459  0.00096916  0.         -0.          0.00160033  0.00079408  0.          0.          0.00136996
   0.00047059  0.00171897]] 
 [[ 0.73977975 -0.20564744  0.         -0.         -0.36546535 -0.         -0.          0.00866677  0.         -0.          0.10839246  0.          0.
   0.          0.          0.          0.          0.02955328  0.02010541  0.         -0.          0.03319902 -0.01647339 -0.         -0.         -0.02842014
   0.00976244  0.03566034]
 [-0.20564744  0.05716684 -0.          0.          0.10159377  0.          0.         -0.00240923 -0.          0.         -0.03013144 -0.         -0.
  -0.         -0.         -0.         -0.         -0.00821536 -0.00558899 -0.          0.         -0.00922882  0.00457935  0.          0.          0.00790036
  -0.00271381 -0.00991303]
 [ 0.         -0.          0.         -0.         -0.         -0.         -0.          0.          0.         -0.          0.          0.          0.
   0.          0.          0.          0.          0.          0.          0.         -0.          0.         -0.         -0.         -0.         -0.
   0.          0.        ]
 [-0.          0.         -0.          0.          0.          0.          0.         -0.         -0.          0.         -0.         -0.         -0.
  -0.         -0.         -0.         -0.         -0.         -0.         -0.          0.         -0.          0.          0.          0.          0.
  -0.         -0.        ]
 [-0.36546535  0.10159377 -0.          0.          0.18054687  0.          0.         -0.00428155 -0.          0.         -0.05354795 -0.         -0.
  -0.         -0.         -0.         -0.         -0.01459988 -0.00993246 -0.          0.         -0.01640095  0.00813817  0.          0.          0.01404009
  -0.00482283 -0.01761689]
 [-0.          0.         -0.          0.          0.          0.          0.         -0.         -0.          0.         -0.         -0.         -0.
  -0.         -0.         -0.         -0.         -0.         -0.         -0.          0.         -0.          0.          0.          0.          0.
  -0.         -0.        ]
 [-0.          0.         -0.          0.          0.          0.          0.         -0.         -0.          0.         -0.         -0.         -0.
  -0.         -0.         -0.         -0.         -0.         -0.         -0.          0.         -0.          0.          0.          0.          0.
  -0.         -0.        ]
 [ 0.00866677 -0.00240923  0.         -0.         -0.00428155 -0.         -0.          0.00010153  0.         -0.          0.00126985  0.          0.
   0.          0.          0.          0.          0.00034623  0.00023554  0.         -0.          0.00038894 -0.00019299 -0.         -0.         -0.00033295
   0.00011437  0.00041777]
 [ 0.         -0.          0.         -0.         -0.         -0.         -0.          0.          0.         -0.          0.          0.          0.
   0.          0.          0.          0.          0.          0.          0.         -0.          0.         -0.         -0.         -0.         -0.
   0.          0.        ]
 [-0.          0.         -0.          0.          0.          0.          0.         -0.         -0.          0.         -0.         -0.         -0.
  -0.         -0.         -0.         -0.         -0.         -0.         -0.          0.         -0.          0.          0.          0.          0.
  -0.         -0.        ]
 [ 0.10839246 -0.03013144  0.         -0.         -0.05354795 -0.         -0.          0.00126985  0.         -0.          0.01588165  0.          0.
   0.          0.          0.          0.          0.00433014  0.00294584  0.         -0.          0.00486432 -0.00241368 -0.         -0.         -0.00416412
   0.00143039  0.00522495]
 [ 0.         -0.          0.         -0.         -0.         -0.         -0.          0.          0.         -0.          0.          0.          0.
   0.          0.          0.          0.          0.          0.          0.         -0.          0.         -0.         -0.         -0.         -0.
   0.          0.        ]
 [ 0.         -0.          0.         -0.         -0.         -0.         -0.          0.          0.         -0.          0.          0.          0.
   0.          0.          0.          0.          0.          0.          0.         -0.          0.         -0.         -0.         -0.         -0.
   0.          0.        ]
 [ 0.         -0.          0.         -0.         -0.         -0.         -0.          0.          0.         -0.          0.          0.          0.
   0.          0.          0.          0.          0.          0.          0.         -0.          0.         -0.         -0.         -0.         -0.
   0.          0.        ]
 [ 0.         -0.          0.         -0.         -0.         -0.         -0.          0.          0.         -0.          0.          0.          0.
   0.          0.          0.          0.          0.          0.          0.         -0.          0.         -0.         -0.         -0.         -0.
   0.          0.        ]
 [ 0.         -0.          0.         -0.         -0.         -0.         -0.          0.          0.         -0.          0.          0.          0.
   0.          0.          0.          0.          0.          0.          0.         -0.          0.         -0.         -0.         -0.         -0.
   0.          0.        ]
 [ 0.         -0.          0.         -0.         -0.         -0.         -0.          0.          0.         -0.          0.          0.          0.
   0.          0.          0.          0.          0.          0.          0.         -0.          0.         -0.         -0.         -0.         -0.
   0.          0.        ]
 [ 0.02955328 -0.00821536  0.         -0.         -0.01459988 -0.         -0.          0.00034623  0.         -0.          0.00433014  0.          0.
   0.          0.          0.          0.          0.00118062  0.00080319  0.         -0.          0.00132626 -0.00065809 -0.         -0.         -0.00113535
   0.00039     0.00142459]
 [ 0.02010541 -0.00558899  0.         -0.         -0.00993246 -0.         -0.          0.00023554  0.         -0.          0.00294584  0.          0.
   0.          0.          0.          0.          0.00080319  0.00054642  0.         -0.          0.00090227 -0.00044771 -0.         -0.         -0.00077239
   0.00026532  0.00096916]
 [ 0.         -0.          0.         -0.         -0.         -0.         -0.          0.          0.         -0.          0.          0.          0.
   0.          0.          0.          0.          0.          0.          0.         -0.          0.         -0.         -0.         -0.         -0.
   0.          0.        ]
 [-0.          0.         -0.          0.          0.          0.          0.         -0.         -0.          0.         -0.         -0.         -0.
  -0.         -0.         -0.         -0.         -0.         -0.         -0.          0.         -0.          0.          0.          0.          0.
  -0.         -0.        ]
 [ 0.03319902 -0.00922882  0.         -0.         -0.01640095 -0.         -0.          0.00038894  0.         -0.          0.00486432  0.          0.
   0.          0.          0.          0.          0.00132626  0.00090227  0.         -0.          0.00148987 -0.00073927 -0.         -0.         -0.00127541
   0.00043811  0.00160033]
 [-0.01647339  0.00457935 -0.          0.          0.00813817  0.          0.         -0.00019299 -0.          0.         -0.00241368 -0.         -0.
  -0.         -0.         -0.         -0.         -0.00065809 -0.00044771 -0.          0.         -0.00073927  0.00036683  0.          0.          0.00063286
  -0.00021739 -0.00079408]
 [-0.          0.         -0.          0.          0.          0.          0.         -0.         -0.          0.         -0.         -0.         -0.
  -0.         -0.         -0.         -0.         -0.         -0.         -0.          0.         -0.          0.          0.          0.          0.
  -0.         -0.        ]
 [-0.          0.         -0.          0.          0.          0.          0.         -0.         -0.          0.         -0.         -0.         -0.
  -0.         -0.         -0.         -0.         -0.         -0.         -0.          0.         -0.          0.          0.          0.          0.
  -0.         -0.        ]
 [-0.02842014  0.00790036 -0.          0.          0.01404009  0.          0.         -0.00033295 -0.          0.         -0.00416412 -0.         -0.
  -0.         -0.         -0.         -0.         -0.00113535 -0.00077239 -0.          0.         -0.00127541  0.00063286  0.          0.          0.00109182
  -0.00037504 -0.00136996]
 [ 0.00976244 -0.00271381  0.         -0.         -0.00482283 -0.         -0.          0.00011437  0.         -0.          0.00143039  0.          0.
   0.          0.          0.          0.          0.00039     0.00026532  0.         -0.          0.00043811 -0.00021739 -0.         -0.         -0.00037504
   0.00012883  0.00047059]
 [ 0.03566034 -0.00991303  0.         -0.         -0.01761689 -0.         -0.          0.00041777  0.         -0.          0.00522495  0.          0.
   0.          0.          0.          0.          0.00142459  0.00096916  0.         -0.          0.00160033 -0.00079408 -0.         -0.         -0.00136996
   0.00047059  0.00171897]]

***************
SUHF converged at cycle 21
Final E(SUHF) =     -1.08378405, delta E = -9.1083e-09
