#INFO: **** input file is /share/home/srwang/ExSCF/test/pytest/scan_h2/scan_suhf.py ****
#import phf
from pyscf import lib
#import scipy
import numpy as np
import sys, os, contextlib

from pyphf import util, sudft

#xyz = 'h2.xyz' #sys.argv[1]
fch = 'test_uhf.fchk' #sys.argv[2]
#bas = '../h2.bas'
bas = 'cc-pvtz'

lib.num_threads(8)

for r in np.arange(0.5, 2.55, 0.1):
    output = 'suhf/suhf_%.1f_diis.out' % r
    os.system("echo '\n' > %s" % output)
    with open(output, 'w', encoding='utf-8') as f:
        with contextlib.redirect_stdout(f):
            xyz = '''H 0.0 0.0 0.0; H 0.0 0.0 %f'''%r
            mf = util.guess_from_fchk(xyz, bas, fch)
            #mf = util.guess(xyz, bas)
            #f.flush()
            mf2 = util.SUHF(mf)
            #mf2.cut_no = False
            mf2.debug = False
            #mf2.max_cycle = 50
            mf2.diis_on = True
            #mf2.output = 'sudft_%.1f.out'%r
            mf2.kernel()
            
            #mf3 = sudft.SUDFT(mf2)
            #mf3.suxc = 'TPSS'
            #mf3.kernel()
                    
#INFO: ******************** input file end ********************


System: uname_result(system='Linux', node='xcluster', release='3.10.0-693.el7.x86_64', version='#1 SMP Thu Jul 6 19:56:57 EDT 2017', machine='x86_64', processor='x86_64')  Threads 8
Python 3.7.4 (default, Aug 13 2019, 20:35:49) 
[GCC 7.3.0]
numpy 1.17.2  scipy 1.4.1
Date: Mon Nov 23 19:26:34 2020
PySCF version 1.7.5
PySCF path  /share/home/srwang/pyscf-1.7.5/pyscf

[CONFIG] conf_file None
[INPUT] verbose = 4
[INPUT] num. atoms = 2
[INPUT] num. electrons = 2
[INPUT] charge = 0
[INPUT] spin (= nelec alpha-beta = 2S) = 0
[INPUT] symmetry False subgroup None
[INPUT] Mole.unit = angstrom
[INPUT]  1 H      0.000000000000   0.000000000000   0.000000000000 AA    0.000000000000   0.000000000000   0.000000000000 Bohr
[INPUT]  2 H      0.000000000000   0.000000000000   0.500000000000 AA    0.000000000000   0.000000000000   0.944863062283 Bohr

nuclear repulsion = 1.05835442184
number of shells = 12
number of NR pGTOs = 32
number of NR cGTOs = 28
basis = cc-pvtz
ecp = {}
CPU time:         0.87


******** <class 'pyscf.scf.uhf.UHF'> ********
method = UHF
initial guess = minao
damping factor = 0
level_shift factor = 0
DIIS = <class 'pyscf.scf.diis.CDIIS'>
diis_start_cycle = 1
diis_space = 8
SCF conv_tol = 1e-09
SCF conv_tol_grad = None
SCF max_cycles = 1
direct_scf = True
direct_scf_tol = 1e-13
chkfile to save SCF result = /share/home/srwang/ExSCF/test/pytest/scan_h2/tmpy10l85bf
max_memory 4000 MB (current use 100 MB)
number electrons alpha = 1  beta = 1
Set gradient conv threshold to 3.16228e-05
init E= -0.778367426554161
  alpha nocc = 1  HOMO = -0.70528966230537  LUMO = 0.1633869460407
  beta  nocc = 1  HOMO = -0.697577488386257  LUMO = 0.164061129189925
cycle= 1 E= -1.06223413443537  delta_E= -0.284  |g|= 0.0333  |ddm|= 0.331
SCF not converged.
SCF energy = -1.06223413443537 after 1 cycles  <S^2> = 2.3214814e-06  2S+1 = 1.0000046


******** <class 'pyscf.scf.uhf.UHF'> ********
method = UHF
initial guess = minao
damping factor = 0
level_shift factor = 0
DIIS = <class 'pyscf.scf.diis.CDIIS'>
diis_start_cycle = 1
diis_space = 8
SCF conv_tol = 1e-09
SCF conv_tol_grad = None
SCF max_cycles = 1
direct_scf = True
direct_scf_tol = 1e-13
chkfile to save SCF result = /share/home/srwang/ExSCF/test/pytest/scan_h2/tmpy10l85bf
max_memory 4000 MB (current use 114 MB)
number electrons alpha = 1  beta = 1
Set gradient conv threshold to 3.16228e-05
init E= -1.18452871429633
  alpha nocc = 1  HOMO = -0.630087264703209  LUMO = 0.279420177478465
  beta  nocc = 1  HOMO = -0.630087264703207  LUMO = 0.279420177478474
cycle= 1 E= -1.04603968404656  delta_E= 0.138  |g|= 0.122  |ddm|= 0.253
SCF not converged.
SCF energy = -1.04603968404656 after 1 cycles  <S^2> = 0.039484129  2S+1 = 1.0760746

******** <class 'pyphf.util.SUHF'> ********
max_cycle = 70
verbose: normal
DIIS: <class 'pyscf.scf.diis.CDIIS'>
diis_start_cyc = 40
SVD: S^(-1/2)
[[-1.65351356e-01 -1.40210063e-17  3.22419892e-16  1.56295463e-01
   1.45002068e-01  6.43681864e-20  1.85248211e-17 -3.49356742e-17
   6.91962671e-18  3.14029670e-01  6.27719110e-16 -3.71089529e-17
   1.52159881e-01 -1.49824533e-01  2.76820181e-16  5.58693408e-16
   2.12909461e-17 -1.06439293e-19  4.53903305e-01 -4.86496442e-01
   3.16554783e-15 -7.74812380e-16  2.10828979e+00 -4.16421819e-14
   3.54588725e-15 -2.88462884e+00  2.45264135e+00 -2.40910588e-01]
 [-2.12299108e-01 -3.82115405e-17  1.41971292e-16  8.59668175e-02
  -5.76667323e-02  1.01683781e-17  1.09486124e-16  4.84438568e-17
  -6.57405921e-17 -3.61472497e-02 -3.21834000e-16  4.33043485e-16
  -9.87568127e-02 -3.77589001e-01  3.75697934e-16 -5.09232851e-16
   3.45603648e-18 -1.68060872e-17 -2.03853129e-01  1.30274423e+00
  -8.07595226e-15 -5.31641703e-15 -9.29581078e-01  8.86293635e-15
   9.14219808e-15 -1.85642591e-01 -1.31144366e-01 -3.71312488e+01]
 [-1.87172838e-01 -2.24973849e-17  4.32850039e-17  2.68576453e-02
  -2.17303535e-01 -1.03966230e-18 -5.44732103e-17  1.03389646e-16
   3.36121696e-17 -2.61195270e-01 -2.23191357e-16 -6.49932907e-17
  -5.69466821e-02  4.80269593e-01 -3.20520563e-16 -6.75526581e-17
  -2.08719598e-16  1.71913982e-18 -1.67175326e-01 -7.88766303e-01
   4.41393081e-15  3.30099185e-15  1.55252818e-01 -4.51124009e-14
  -3.76639214e-14 -2.70732658e+00 -3.81812070e+00  3.82125531e+00]
 [ 0.00000000e+00 -3.29318533e-02  2.64174051e-01 -4.56500989e-16
   0.00000000e+00  9.16797746e-17  1.76324782e-16  1.97706327e-02
   2.98427881e-01  3.63619075e-17 -1.61728477e-01 -1.07607412e-01
   6.31592657e-16  7.35059712e-16  7.98118574e-01  2.30262767e-02
  -1.48878429e-15  2.65250561e-15  5.57305386e-16  7.54186359e-15
   5.08712196e-01  1.22206039e+00 -5.47016547e-15 -2.29886964e+00
   8.62567464e-01  2.72412403e-14  7.93426084e-16 -2.82694059e-14]
 [ 0.00000000e+00 -2.64174051e-01 -3.29318533e-02  4.22686101e-17
   0.00000000e+00 -9.57917077e-18  1.18581797e-16 -2.98427881e-01
   1.97706327e-02  0.00000000e+00 -1.07607412e-01  1.61728477e-01
   4.59340114e-16  4.08366506e-16  2.30262767e-02 -7.98118574e-01
  -3.96756713e-16 -4.71439887e-16  7.43073848e-16  4.26279246e-15
   1.22206039e+00 -5.08712196e-01 -4.15455605e-15 -8.62567464e-01
  -2.29886964e+00  2.31550542e-14  2.47945651e-14 -7.33476479e-14]
 [-5.33368722e-02  3.46339503e-17 -3.28049267e-16 -2.19413511e-01
   3.93477583e-01 -2.42313301e-19  3.54353585e-17 -2.50819381e-17
  -4.30639783e-17 -1.54450759e-02 -1.49198357e-16 -5.15315368e-17
  -1.80319366e-02  6.35094708e-01 -4.52163976e-16 -6.50466367e-16
   3.13875544e-17  4.00435824e-19 -7.83438500e-01  4.92511649e-01
  -3.16075256e-15 -8.83381969e-16 -6.52181058e-01 -1.13254464e-14
   4.68855350e-15 -1.63483341e+00  2.01439066e+00  8.78988076e-01]
 [-4.66043571e-20 -3.51694359e-02  2.82123580e-01 -4.98731841e-16
   2.86034008e-17  1.06583420e-16  7.67776235e-17  8.93468604e-03
   1.34864648e-01 -4.23167557e-17  3.53690868e-01  2.35331213e-01
  -1.44354700e-15 -2.52176235e-16 -4.65841508e-01 -1.34398520e-02
   1.05381804e-15 -1.33561062e-15 -5.83039380e-16 -8.93763942e-15
  -6.33390955e-01 -1.52157153e+00 -1.29806997e-14 -2.32343702e+00
   8.71785482e-01  2.59629287e-14  6.92126325e-16  2.40047065e-14]
 [ 1.11097672e-21 -2.82123580e-01 -3.51694359e-02  4.55492350e-17
   3.64932408e-18  5.00414411e-17  4.39913875e-17 -1.34864648e-01
   8.93468604e-03 -1.52878666e-18  2.35331213e-01 -3.53690868e-01
  -1.05398192e-15 -9.93554993e-17 -1.34398520e-02  4.65841508e-01
   1.26138357e-16 -4.93091356e-17 -2.85130635e-16 -5.99175832e-15
  -1.52157153e+00  6.33390955e-01 -8.05008241e-16 -8.71785482e-01
  -2.32343702e+00  2.33626749e-14  2.55020812e-14 -8.61336663e-14]
 [-5.91336176e-02 -4.20034154e-17 -4.96907503e-16 -2.97539015e-01
   1.85861970e-01  3.01654645e-18  4.64959391e-17 -6.63610644e-17
  -2.74859035e-17 -2.39359871e-02  1.40961409e-15  1.15837800e-16
   3.28008512e-01 -4.05470641e-01  3.00828692e-16  5.29699621e-16
  -3.55519911e-17 -4.98549932e-18  5.42461781e-01 -1.24872158e+00
   7.46128632e-15  6.34094061e-15 -2.06985010e+00  5.27761642e-15
  -3.67586032e-15 -3.63172367e-01 -7.91038932e-01 -1.10105392e+01]
 [ 0.00000000e+00 -8.22982658e-17  9.03273649e-18  0.00000000e+00
   0.00000000e+00 -9.74863139e-10 -5.54894619e-01 -1.12445777e-16
   2.45975138e-16  0.00000000e+00  1.73835441e-16  3.54766207e-17
   1.09515217e-22  0.00000000e+00 -2.23413140e-15  2.09622205e-16
  -1.15295164e+00 -2.28312487e-08  1.81414514e-19  0.00000000e+00
  -2.10570115e-17  1.15813563e-16  0.00000000e+00 -6.95397350e-16
   6.74944487e-16  6.81031007e-16  0.00000000e+00  7.44937049e-15]
 [ 2.39895339e-22 -1.24184271e-01 -1.54807717e-02  1.99763470e-17
   2.17039066e-17 -4.28856617e-17 -9.94678723e-17  4.68589677e-01
  -3.10437294e-02 -1.00016598e-17 -3.05718256e-01  4.59479020e-01
   1.32616557e-15 -1.98828855e-16 -1.84503692e-02  6.39512091e-01
   1.50207823e-16  3.66452175e-16 -8.83495526e-16  1.40389890e-15
   3.40363202e-01 -1.41684416e-01 -2.82959459e-15 -8.00246444e-01
  -2.13277492e+00  2.13703171e-14  2.26116574e-14 -5.69310088e-14]
 [-1.49195599e-02  4.83279472e-17 -2.08882909e-16 -1.27762178e-01
  -2.03620463e-01  9.38486158e-20  2.66697995e-17  3.40348024e-17
  -5.06504069e-17  4.60916447e-01 -2.61233394e-15  1.06580797e-16
  -6.25194747e-01  3.44853038e-01 -4.48313685e-16  5.72706314e-16
   1.96194408e-18 -1.55064540e-19  4.65098011e-01 -6.17022745e-02
   2.00867187e-16  1.11887219e-15 -1.55067787e+00  2.16737895e-15
   5.91555675e-16 -5.69522475e-01  4.92300125e-01 -3.43415225e-01]
 [-6.33862754e-21 -1.54807717e-02  1.24184271e-01 -2.18317189e-16
  -2.47565666e-17 -2.31512767e-16 -1.46722972e-16 -3.10437294e-02
  -4.68589677e-01  4.08066224e-18 -4.59479020e-01 -3.05718256e-01
   1.94946163e-15 -6.77607147e-16 -6.39512091e-01 -1.84503692e-02
   9.95449457e-16 -1.87621030e-15 -1.78998344e-16  2.51244694e-15
   1.41684416e-01  3.40363202e-01 -7.41073667e-15 -2.13277492e+00
   8.00246444e-01  2.45551460e-14  2.54955189e-16 -2.33674357e-14]
 [ 0.00000000e+00 -3.21163964e-17 -5.01818694e-19  0.00000000e+00
   0.00000000e+00  5.54894619e-01 -9.74863302e-10  5.62228886e-18
  -4.49783109e-17  0.00000000e+00  1.13525186e-16  1.13525186e-16
   0.00000000e+00  2.59985022e-28  3.48634825e-15  4.96473644e-16
   2.28312488e-08 -1.15295164e+00 -4.22388580e-27 -2.44309837e-24
  -2.10570115e-16 -2.94798161e-16 -8.45246592e-21  0.00000000e+00
   0.00000000e+00 -8.31336678e-20  0.00000000e+00  0.00000000e+00]
 [-1.65351356e-01  1.13957692e-18 -3.03637266e-16 -1.56295463e-01
   1.45002068e-01 -6.46573698e-20 -6.42235703e-17 -2.38105078e-17
  -2.48637739e-17  3.14029670e-01 -5.59946142e-16  6.82222978e-17
  -1.52159881e-01 -1.49824533e-01 -1.35798792e-16 -4.66002472e-16
  -1.49002409e-17  1.06792118e-19 -4.53903305e-01 -4.86496442e-01
   2.66003778e-15  2.92520610e-16  2.10828979e+00  1.90030142e-14
  -1.62763503e-15  2.88462884e+00 -2.45264135e+00  2.40910588e-01]
 [-2.12299108e-01  3.46702608e-17 -9.67152183e-17 -8.59668175e-02
  -5.76667323e-02 -1.01682507e-17 -9.33660343e-17  5.42260732e-17
   6.63857339e-17 -3.61472497e-02  3.63361054e-16 -4.64182860e-16
   9.87568127e-02 -3.77589001e-01  6.33498998e-16 -8.73066964e-17
  -7.69154587e-18  1.68059310e-17  2.03853129e-01  1.30274423e+00
  -6.97835154e-15 -2.84628554e-15 -9.29581078e-01  2.13723940e-15
  -1.16959804e-14  1.85642591e-01  1.31144366e-01  3.71312488e+01]
 [-1.87172838e-01  4.60639459e-17 -8.08199155e-17 -2.68576453e-02
  -2.17303535e-01  1.03964110e-18  5.38918796e-17 -1.27667696e-16
   2.07676685e-17 -2.61195270e-01  1.35435957e-16  6.13149031e-17
   5.69466821e-02  4.80269593e-01 -7.39777209e-16  5.95075453e-16
   2.10158645e-16 -1.71911338e-18  1.67175326e-01 -7.88766303e-01
   4.51810561e-15  2.42814271e-15  1.55252818e-01  4.26082106e-14
   3.93979501e-14  2.70732658e+00  3.81812070e+00 -3.82125531e+00]
 [-3.16912483e-20 -3.29318533e-02  2.64174051e-01 -4.65906646e-16
  -1.42094938e-17 -8.00538642e-17 -2.04844751e-16 -1.97706327e-02
  -2.98427881e-01 -2.70551075e-18 -1.61728477e-01 -1.07607412e-01
   7.00620575e-16  6.28760679e-16  7.98118574e-01  2.30262767e-02
  -1.67494017e-15  2.44894845e-15 -8.53325738e-17 -7.97381136e-15
  -5.08712196e-01 -1.22206039e+00  5.60499673e-15  2.29886964e+00
  -8.62567464e-01 -2.57388367e-14 -2.15041469e-16  1.79702575e-14]
 [ 1.01016900e-21 -2.64174051e-01 -3.29318533e-02  4.26281789e-17
   1.76919505e-17 -3.65041221e-17 -8.08115971e-17  2.98427881e-01
  -1.97706327e-02 -9.20210092e-18 -1.07607412e-01  1.61728477e-01
   5.00814884e-16  1.47376821e-16  2.30262767e-02 -7.98118574e-01
  -1.50192374e-16 -5.14473772e-17  1.17124455e-15 -4.93473363e-15
  -1.22206039e+00  5.08712196e-01  4.15454486e-15  8.62567464e-01
   2.29886964e+00 -2.31327810e-14 -2.38128544e-14  8.04103071e-14]
 [ 5.33368722e-02  6.05683646e-19 -3.44656007e-16 -2.19413511e-01
  -3.93477583e-01 -2.42402717e-19  2.25806720e-17 -1.67382465e-17
   2.18256567e-17  1.54450759e-02 -1.05963025e-17 -5.73735675e-17
  -1.80319366e-02 -6.35094708e-01  1.04417681e-15 -8.10468368e-16
   3.38593230e-17  4.00545178e-19 -7.83438500e-01 -4.92511649e-01
   2.88327507e-15  1.98955001e-15  6.52181058e-01 -1.90974147e-14
   5.38507690e-15 -1.63483341e+00  2.01439066e+00  8.78988076e-01]
 [-3.37051424e-20 -3.51694359e-02  2.82123580e-01 -4.97678279e-16
  -2.18916762e-18 -4.47373408e-17 -1.04185707e-16 -8.93468604e-03
  -1.34864648e-01 -1.35773217e-17  3.53690868e-01  2.35331213e-01
  -1.50391097e-15 -3.07130632e-16 -4.65841508e-01 -1.34398520e-02
   1.05811354e-15 -1.69810914e-15  2.36517448e-16  8.88871617e-15
   6.33390955e-01  1.52157153e+00  1.30450298e-14  2.32343702e+00
  -8.71785482e-01 -2.74246611e-14  1.07256978e-15 -3.69713432e-15]
 [ 1.49823488e-21 -2.82123580e-01 -3.51694359e-02  4.56334861e-17
   2.39120828e-18 -4.12371472e-17  2.94501476e-17  1.34864648e-01
  -8.93468604e-03  1.58302474e-17  2.35331213e-01 -3.53690868e-01
  -1.05196924e-15 -4.49593788e-17 -1.34398520e-02  4.65841508e-01
   2.49816761e-16  1.68720736e-16 -7.27134213e-16  6.56879052e-15
   1.52157153e+00 -6.33390955e-01  6.69577257e-16  8.71785482e-01
   2.32343702e+00 -2.30825505e-14 -2.56428124e-14  7.03034732e-14]
 [ 5.91336176e-02  3.19066004e-17 -3.78424215e-16 -2.97539015e-01
  -1.85861970e-01  3.01626234e-18 -4.78821466e-18  9.12125513e-17
   5.47676335e-17  2.39359871e-02  1.32452645e-15  9.28683228e-17
   3.28008512e-01  4.05470641e-01 -5.60985029e-16  5.45831882e-16
  -3.16118921e-17 -4.98515399e-18  5.42461781e-01  1.24872158e+00
  -7.44735761e-15 -7.90291161e-15  2.06985010e+00 -1.53341201e-14
  -2.62182389e-15 -3.63172367e-01 -7.91038932e-01 -1.10105392e+01]
 [ 4.04114024e-36 -2.21749576e-17 -7.46209970e-19  2.31620292e-31
  -1.71475408e-26 -9.74863247e-10 -5.54894619e-01 -1.70070139e-16
   4.13157320e-16 -2.33417178e-25 -2.06428251e-16 -1.02225921e-16
   1.15385201e-22  1.99367483e-20  2.22484653e-15 -4.63006300e-16
   1.15295164e+00  2.28312490e-08 -1.94554246e-19 -5.73813354e-18
   3.68842927e-16 -2.70706171e-16 -1.31617614e-16 -5.83126678e-16
  -4.42448628e-16 -2.96634981e-16 -2.04042623e-16 -5.84076503e-15]
 [-4.17711727e-22  1.24184271e-01  1.54807717e-02 -2.00358880e-17
   4.07749920e-18  2.30974445e-17 -1.86590640e-16  4.68589677e-01
  -3.10437294e-02  2.31107380e-17  3.05718256e-01 -4.59479020e-01
  -1.28816398e-15  3.51429581e-16  1.84503692e-02 -6.39512091e-01
  -3.55579633e-16 -7.15039043e-16  6.79609823e-16  8.38147697e-16
   3.40363202e-01 -1.41684416e-01 -2.90700664e-15 -8.00246444e-01
  -2.13277492e+00  2.21106279e-14  2.35369974e-14 -8.53800516e-14]
 [-1.49195599e-02  2.15522105e-17  2.20409767e-16  1.27762178e-01
  -2.03620463e-01 -9.36358678e-20  8.49426961e-18  2.83318972e-17
   9.10892793e-17  4.60916447e-01  2.53847003e-15 -6.65431935e-17
   6.25194747e-01  3.44853038e-01 -2.92469380e-16 -2.40543514e-16
  -6.12015355e-18  1.54805290e-19 -4.65098011e-01 -6.17022745e-02
  -9.81256388e-17  2.27875618e-15 -1.55067787e+00  1.42605187e-14
  -6.65625416e-16  5.69522475e-01 -4.92300125e-01  3.43415225e-01]
 [ 2.78561210e-20  1.54807717e-02 -1.24184271e-01  2.20081448e-16
  -2.17757088e-17 -5.30406558e-17 -2.94771820e-16 -3.10437294e-02
  -4.68589677e-01  1.56667776e-17  4.59479020e-01  3.05718256e-01
  -1.82357265e-15  8.05573788e-16  6.39512091e-01  1.84503692e-02
  -9.43311915e-16  2.06183406e-15  1.32256554e-16  2.43724007e-15
   1.41684416e-01  3.40363202e-01 -7.28592763e-15 -2.13277492e+00
   8.00246444e-01  2.52849357e-14  5.18042235e-16  3.99451215e-15]
 [ 0.00000000e+00  1.19824730e-17  3.87848945e-19  0.00000000e+00
   0.00000000e+00  5.54894619e-01 -9.74863146e-10  1.77802588e-17
  -2.07663485e-16  0.00000000e+00 -1.22255194e-17 -1.09699906e-16
   0.00000000e+00 -2.45908790e-28 -3.55483934e-15 -5.88835047e-16
  -2.28312486e-08  1.15295164e+00  4.35029478e-27  2.58214600e-24
   2.08210548e-16 -5.59938077e-17  2.49690161e-21  8.06759847e-16
  -1.46404593e-16  3.11153200e-20  8.67808678e-20  1.01751672e-15]]
C (ortho)
[[-9.91541059e-01 -6.95816107e-02 -5.49297176e-02 -6.71264024e-02
   2.39019694e-17  1.13638109e-16 -2.64832500e-17  1.51416017e-17
  -4.05960278e-02 -2.14951473e-02  1.07191546e-03  1.48332087e-02
  -3.76848603e-18 -2.83511421e-17  4.70070821e-17  5.31598082e-17
   4.57401875e-17  3.50704649e-17  3.70285076e-02  2.12730478e-17
  -1.25981818e-18  6.21969545e-18 -1.63866309e-16  6.42656312e-04
   2.78499787e-02 -6.69525721e-17 -6.77208019e-18 -1.76188449e-03]
 [-4.67595135e-17 -6.71795297e-17 -4.72640779e-16  4.33090975e-16
  -8.20874911e-01 -2.37964684e-01 -2.19218130e-02 -2.16332016e-02
  -6.17518762e-16  1.76160208e-16 -2.73129484e-16 -1.65779055e-16
  -2.61647801e-16 -2.60292700e-15  2.08712588e-01 -4.62575783e-01
   4.29687873e-02 -1.31956332e-02 -6.09580873e-17 -5.77451610e-15
   1.79831735e-15  9.18282419e-02 -2.43023987e-02 -2.14043671e-16
   3.37129669e-17 -8.25340448e-04 -2.67848714e-03 -5.35772479e-18]
 [ 1.78905825e-16 -1.12520441e-15 -2.23506492e-16  1.25057215e-16
  -2.37964684e-01  8.20874911e-01  2.16332016e-02 -2.19218130e-02
   1.27558009e-15 -6.95319843e-16 -4.61141260e-17  4.94826753e-17
   1.58505703e-15 -1.24046242e-15  4.62575783e-01  2.08712588e-01
  -1.31956332e-02 -4.29687873e-02 -5.39381718e-16  7.85644379e-16
   3.36098366e-16 -2.43023987e-02 -9.18282419e-02 -1.49046694e-16
  -1.23521503e-16  2.67848714e-03 -8.25340448e-04  4.72076037e-18]
 [ 9.46422555e-02 -4.48426800e-01 -1.98153962e-02 -7.58847075e-01
  -3.18940277e-16 -6.86633201e-16 -4.59009816e-17  1.78813804e-16
   2.17990489e-02 -3.43387945e-01  1.79916226e-03  3.07045463e-01
  -8.50752193e-18 -1.38991879e-16 -6.35096577e-16 -4.64118786e-16
  -1.48067688e-17  1.69437458e-16 -9.17358886e-03  1.29984042e-16
  -8.22263227e-18  4.85286148e-17 -4.89128545e-16 -2.95175337e-02
  -2.35576482e-03  3.32288251e-17 -3.59220898e-17  9.11562720e-03]
 [-2.80136906e-02 -2.15181486e-03 -4.69991074e-01  2.93507544e-02
   1.64215024e-16 -1.00496232e-15 -2.21814655e-17  1.39179676e-16
   6.14698642e-01 -3.61875325e-04 -1.32299836e-01 -1.41619914e-02
   1.88056946e-17  2.55170445e-16 -6.02023425e-16 -1.78837351e-17
  -2.61928903e-16 -7.24564195e-17 -5.98090519e-01 -1.62857141e-16
   2.43910286e-18 -1.94190138e-17  1.79052585e-15  5.41870307e-03
  -1.55417647e-01  3.17847977e-16 -2.07974152e-18  1.70034110e-03]
 [-1.89679102e-18 -5.42941528e-19  5.46319683e-19 -5.23935174e-19
   1.90727967e-16 -7.81511629e-17 -3.25821361e-16 -6.12693437e-17
  -1.07038577e-18 -3.47888866e-19 -6.58446128e-19  1.39575508e-18
   9.97457179e-01 -7.06640234e-02 -3.10982205e-15 -1.06464697e-15
   2.76782916e-15 -1.75266280e-15 -4.41755074e-18  1.02359318e-03
   9.20455991e-03  6.73746200e-16  9.72775031e-16  3.27165108e-19
   1.38345087e-19 -5.40661355e-17 -5.42137123e-16 -2.72504068e-20]
 [-2.16425441e-19  3.27081996e-17  1.64182761e-17 -1.76933871e-17
   4.61847055e-16 -1.88918933e-17 -3.83983281e-16 -1.70814573e-16
  -2.46929324e-17  3.25273234e-17 -1.19599076e-17 -6.88779541e-17
  -7.06640234e-02 -9.97457179e-01 -3.39379768e-15  3.27405764e-15
   5.44869111e-16 -2.26714995e-16 -2.81574217e-16 -9.20455991e-03
   1.02359318e-03 -2.17375439e-16 -1.54125310e-16  6.56346770e-19
  -8.70075185e-18 -1.56255689e-16 -7.58830486e-17 -1.07988532e-17]
 [-5.36587025e-18  6.40956945e-17 -1.44650414e-16  1.00489405e-16
  -2.55262478e-02 -2.35467297e-03  3.37869584e-01  4.91905334e-01
  -1.93091269e-16  1.68666007e-16 -5.87708665e-17 -9.62737405e-17
   2.42634119e-15 -1.12032763e-15  3.45770600e-02 -4.90509709e-02
  -6.81137581e-01  3.61674962e-01  3.38557384e-16 -5.98297931e-16
   1.65259666e-15  1.20683211e-02 -5.81317667e-03 -1.53112425e-16
  -4.53808179e-18  2.29376869e-02  2.10123357e-01  5.67473165e-19]
 [ 3.47380117e-17  1.49155837e-16  9.35655808e-17  9.50683356e-17
  -2.35467297e-03  2.55262478e-02 -4.91905334e-01  3.37869584e-01
   4.42140195e-18 -1.15361931e-16 -1.11942907e-17 -1.26245075e-16
   2.49529451e-16  2.87858011e-16  4.90509709e-02  3.45770600e-02
   3.61674962e-01  6.81137581e-01 -2.35158921e-16  7.75971323e-16
  -5.14733901e-16 -5.81317667e-03 -1.20683211e-02 -1.66483430e-16
  -4.30832864e-16 -2.10123357e-01  2.29376869e-02 -2.67859780e-18]
 [ 5.08447679e-02 -9.45776945e-03 -5.66474904e-01  1.12314653e-02
   6.04784845e-16  7.05400453e-17 -7.61551725e-17 -1.40790044e-16
  -1.73458834e-01 -6.00353242e-03 -6.62121717e-01 -1.71176938e-02
  -9.00732223e-18 -1.00942584e-16  4.07425446e-16  2.20093908e-16
   2.92369899e-16  6.97460110e-17  4.41240026e-01  2.46095293e-17
   2.66005586e-18  6.93489400e-17 -8.01535314e-16 -6.09297811e-03
  -1.12920712e-01  2.14891398e-16 -6.73016924e-17  1.49423810e-03]
 [-8.52116386e-17  9.06141744e-16 -1.06784970e-16  1.01153863e-15
   1.91633822e-01  4.18998527e-01  1.67687334e-02 -1.35969545e-03
   4.70955350e-16 -7.08102154e-17  1.19194978e-16  3.54105984e-15
  -1.72990170e-15 -7.92076037e-16 -2.79310343e-01 -5.99766940e-01
   4.97919815e-02  3.13367730e-02  9.18513595e-16 -2.90552546e-14
   5.24907435e-15  4.85321208e-01  3.32711115e-01 -1.79762734e-15
  -1.71534513e-16 -1.92800118e-03 -8.43043236e-04 -4.17839083e-16]
 [-1.07866986e-17 -7.12522161e-16 -1.25898800e-16  4.77489355e-16
  -4.18998527e-01  1.91633822e-01 -1.35969545e-03 -1.67687334e-02
  -3.09148106e-16 -4.36061271e-16  1.72319971e-17  3.15111944e-16
  -1.11428108e-15  2.39767684e-15 -5.99766940e-01  2.79310343e-01
  -3.13367730e-02  4.97919815e-02  1.56301431e-15  2.46040182e-14
  -9.39560615e-15 -3.32711115e-01  4.85321208e-01  4.27192744e-16
  -1.44985594e-16 -8.43043236e-04  1.92800118e-03  2.44642701e-17]
 [-2.04585447e-02  3.12357100e-01 -5.92604208e-03  1.52342380e-01
  -8.62714021e-16 -1.61980131e-15 -1.57176034e-17 -4.52976330e-17
  -1.70600486e-03  2.21492924e-03 -1.98522702e-02  7.97863426e-01
  -2.03491462e-19  1.30905748e-17  1.35048969e-15  2.53633182e-15
  -2.74778093e-16 -1.31510674e-16 -8.56801972e-03 -3.01676626e-18
   3.16169100e-18 -2.06206995e-15 -1.42094397e-15 -4.80906071e-01
  -1.41537633e-03 -7.26554439e-17  1.64436451e-16 -1.02162279e-01]
 [-5.03602125e-02  5.25709650e-03  5.57256736e-01 -2.29391897e-02
  -1.43745644e-16  2.54128585e-16  3.15990040e-17  2.21917472e-17
  -1.31818477e-01 -1.31715234e-02 -5.75257050e-01 -1.26785196e-02
   4.22426929e-18  7.60550305e-17  2.13041662e-17  1.77838733e-16
  -2.52393565e-16 -8.55212542e-17 -3.18231335e-01 -3.81641250e-17
  -4.38225122e-18  6.41705612e-16  1.40589395e-15  1.35898266e-03
  -4.86280877e-01  1.06448074e-15 -1.98322247e-16  1.34032374e-03]
 [ 7.65943036e-17 -2.09414432e-16 -3.31557329e-16 -5.99590656e-16
   3.04783450e-02 -2.34412565e-01 -9.20253272e-03  6.83970734e-03
  -6.12085846e-16 -1.96178915e-16  9.15953788e-16  2.22849160e-17
   7.66862409e-16 -4.14070183e-16  4.58093379e-01  2.97979622e-01
  -1.26966163e-02 -2.62291499e-02  1.62799030e-15 -1.52020764e-14
  -3.72738878e-15  3.21170090e-01  7.35762725e-01 -5.19667725e-16
   7.94295156e-16  1.64546032e-03 -2.42030018e-04 -7.50457821e-17]
 [-3.02628715e-17  4.02152869e-16  2.83091630e-16 -1.13540921e-16
   2.34412565e-01  3.04783450e-02  6.83970734e-03  9.20253272e-03
  -3.77402692e-17 -4.87500204e-16 -1.17578962e-16  3.40038633e-16
   5.05205839e-17 -3.04551926e-15  2.97979622e-01 -4.58093379e-01
   2.62291499e-02 -1.26966163e-02  6.02024385e-16  4.90456273e-14
  -1.43268186e-14 -7.35762725e-01  3.21170090e-01  4.11926528e-16
  -1.10106846e-16 -2.42030018e-04 -1.64546032e-03 -9.11524413e-18]
 [-9.04770962e-19  1.06768579e-16 -1.13943411e-17  2.85111714e-18
   1.71451870e-16  3.33266297e-16  2.01591314e-17 -7.35677574e-17
   6.07353773e-17  6.03990254e-17 -3.08412236e-17 -6.74897450e-17
  -6.54468544e-04 -9.23814576e-03 -5.23990474e-16 -4.76679545e-16
  -1.54694366e-16 -5.22469585e-16 -1.70673913e-16  9.93830861e-01
  -1.10518993e-01  6.52653895e-14 -7.77301194e-15 -6.78326706e-18
   1.66905810e-18 -5.08306039e-17  2.70217065e-16 -5.50960432e-18]
 [-3.67962356e-19  5.91511092e-18 -1.79387017e-18  2.99653357e-18
   7.03688342e-17 -8.02556726e-16 -4.49664704e-17  8.40434185e-17
   7.68410144e-18  4.73453270e-18 -3.23016267e-18 -4.10449282e-18
  -9.23814576e-03  6.54468544e-04  1.38454601e-15  1.59904586e-15
   1.84241796e-15 -4.87858391e-16 -2.87771185e-17  1.10518993e-01
   9.93830861e-01 -8.31604557e-15  9.39967588e-15  1.06706683e-18
   1.56564673e-19 -1.16534530e-17  5.30063664e-16 -1.01436099e-19]
 [-1.48842873e-02  3.32959462e-01 -9.38370558e-03  1.30728585e-01
  -9.28520671e-17 -1.29799606e-16  1.35367339e-16 -2.46538555e-16
  -1.10421669e-02 -5.42871057e-01  4.86192688e-04  2.74622234e-01
   1.10435032e-18  2.14976201e-17  3.36963529e-16  5.92709739e-16
  -6.49009218e-17  4.13302537e-16  2.48900405e-03  7.66481427e-18
   1.37376377e-18  9.18784293e-16 -2.39563751e-16  7.07954302e-01
  -1.42080654e-03 -1.28000210e-17  1.96433790e-17  1.68050226e-02]
 [ 2.69027011e-02 -1.13544620e-02 -3.77319276e-01 -7.29924135e-04
   5.11632741e-16  5.69582948e-16  4.76789500e-15 -5.81085994e-16
  -7.15733548e-01  1.89431435e-02  2.78054982e-01  4.69159099e-03
   5.14633569e-18  6.84891808e-17 -1.50319747e-16  2.66897494e-17
   1.98335239e-15  1.29778934e-15 -4.26089288e-01  9.27713654e-18
  -6.22974324e-18 -4.50968307e-16  5.84708132e-16  3.30563984e-03
  -2.91965738e-01 -3.07428468e-15 -1.55749181e-15 -1.14680395e-04]
 [-1.59746364e-16  1.65548844e-16  2.01375648e-15  2.28000972e-17
  -2.03085841e-02 -1.25239007e-02  6.21175877e-01  3.46103659e-01
   4.23215432e-15 -2.45149838e-16 -1.40464782e-15  4.45789836e-17
  -9.55857085e-16  2.99822658e-16 -5.16091582e-03  3.33766101e-02
   3.87888131e-01 -1.06770959e-02  2.16510857e-15  6.24134628e-16
  -5.60526966e-16 -4.56238825e-03 -5.34623777e-05  1.58729385e-16
   1.38132701e-15 -3.15280200e-01 -4.92594399e-01 -2.20828364e-17]
 [-1.09318308e-16 -1.97970027e-16  1.45796547e-15 -2.42953630e-16
   1.25239007e-02 -2.03085841e-02  3.46103659e-01 -6.21175877e-01
   3.26396535e-15  5.24270164e-16 -5.12459755e-16 -1.55549373e-16
   6.68637272e-16 -3.41553992e-16  3.33766101e-02  5.16091582e-03
   1.06770959e-02  3.87888131e-01  2.06174161e-15 -2.65673664e-17
   1.77603120e-16  5.34623777e-05 -4.56238825e-03 -7.67662010e-16
  -6.26365054e-16 -4.92594399e-01  3.15280200e-01  1.57730890e-17]
 [ 1.56851404e-02 -8.90306326e-04  3.15843661e-02 -6.21440289e-03
  -6.19943911e-17  3.35698601e-16  2.05179384e-15 -2.29077682e-15
  -2.44824584e-01 -2.64223379e-03 -3.67271892e-01 -8.52252529e-03
  -1.63255646e-18 -1.00523066e-17 -8.04323607e-17  4.42253473e-17
   9.81126118e-16  2.47879535e-15 -4.03986913e-01 -1.05903858e-16
   1.99987029e-18 -9.78001807e-17  8.64209841e-16  3.04696161e-03
   8.00371689e-01 -2.19509362e-16  1.50271992e-15  3.28415657e-04]
 [-2.95806145e-16  7.82476799e-15 -7.53856158e-16 -5.36825531e-15
  -2.43735329e-03 -1.19733726e-02  3.52423257e-01 -1.12520456e-01
   1.10499223e-15  7.08875542e-17  1.92187872e-15 -2.75781774e-15
   6.76392771e-16 -1.40559045e-15  2.25957920e-02  2.88769398e-02
   3.50801592e-01  3.53947750e-01  1.47761505e-15  5.74264659e-16
  -2.94614248e-16 -4.59848094e-03 -5.01904417e-03 -2.78267116e-15
  -2.76834440e-15  7.69877189e-01  1.43336162e-01  7.70868544e-15]
 [-1.50615418e-16  5.99818520e-15  4.74377132e-16 -4.45531903e-15
  -1.19733726e-02  2.43735329e-03  1.12520456e-01  3.52423257e-01
  -3.94261035e-16 -3.00806662e-16 -7.67242782e-16 -2.19999401e-15
  -1.33888095e-15  5.57513825e-16 -2.88769398e-02  2.25957920e-02
   3.53947750e-01 -3.50801592e-01  3.15850778e-16 -5.12612962e-16
  -1.16738597e-15 -5.01904417e-03  4.59848094e-03 -9.19742671e-16
  -3.69778489e-16 -1.43336162e-01  7.69877189e-01 -7.87719220e-16]
 [-1.57313526e-02  5.24919021e-01 -1.78084004e-02 -3.40840839e-01
   1.46871518e-17  3.08330112e-16 -4.87013312e-15 -2.17538962e-16
   9.26924713e-04 -3.32923447e-02  7.27970458e-03 -1.47909605e-01
   2.76753966e-17  4.19400239e-16  2.17772004e-16 -5.09684014e-16
  -6.97833603e-15 -3.38909761e-15 -6.74458810e-04 -4.78774446e-16
   4.91058936e-17  6.17981197e-16  5.47104992e-16 -1.70338535e-01
   8.89834799e-04 -9.53109764e-15 -5.69977666e-15  7.45430736e-01]
 [-1.10645110e-02  5.50621794e-01 -2.10178957e-02 -4.24133752e-01
  -3.61322652e-16  2.94893400e-15 -2.11614029e-15 -3.15546400e-15
   2.75456105e-03 -3.65228254e-02  7.54792469e-03 -2.72037140e-01
  -9.55906361e-18 -1.05598339e-16 -8.58511724e-18  1.31574850e-17
  -5.05573943e-15  1.96884526e-15 -7.70150726e-04 -1.57359637e-16
   1.22016297e-17  6.37259361e-16  1.87730384e-16 -8.79725342e-02
  -1.29279483e-04 -1.47792194e-15 -7.46316418e-15 -6.58194171e-01]
 [-1.81452051e-03 -8.16521374e-02  4.48428408e-03  2.85888286e-01
  -9.22471660e-15  8.67711331e-15  2.28950271e-15  1.31742257e-14
  -1.45392870e-02 -7.64127610e-01  2.14241934e-02 -3.11238201e-01
   1.01697039e-15  1.41863930e-15 -2.37674639e-14  4.83770503e-15
   1.13792194e-14 -8.75314421e-15 -5.51014327e-03 -5.62534153e-15
   1.08207379e-15 -8.98981162e-15  1.91039364e-14 -4.79390687e-01
   5.85354473e-04  1.35986724e-14  2.26356419e-14 -1.73398702e-02]]
[[-9.91541059e-01 -6.95816107e-02 -5.49297176e-02 -6.71264024e-02
   1.50123140e-16  4.91586781e-17 -3.32403623e-17  6.69935187e-18
   4.05960278e-02 -2.14951473e-02  1.07191546e-03  1.48332087e-02
   1.82543478e-17  3.39960982e-18  5.14221439e-17  5.09243456e-17
  -2.13190410e-17 -1.74943971e-17 -3.70285076e-02  4.44721141e-18
  -6.65365601e-19 -2.05847707e-17 -1.06590166e-17  6.42656312e-04
   2.78499787e-02 -2.37817160e-17  1.07137753e-17 -1.76188449e-03]
 [-9.19315654e-19 -1.72139700e-17 -2.14482750e-17 -1.19139698e-16
   3.28009096e-01 -7.89222936e-01 -2.60412010e-02 -1.64443653e-02
  -6.87098971e-16 -1.77309154e-16  5.91203215e-17  1.48432310e-16
   4.01987527e-15  1.26687214e-15 -4.51167275e-01  2.32347562e-01
   3.65317788e-02  2.61891304e-02 -2.16147836e-16  5.25451413e-15
   1.99161770e-15 -7.38411830e-02 -5.97537637e-02  5.61135429e-17
  -8.43983979e-17  9.52198001e-04 -2.63605751e-03  2.97339765e-18]
 [-1.02528684e-16  9.18457463e-16  7.06657733e-16  1.52338866e-15
   7.89222936e-01  3.28009096e-01 -1.64443653e-02  2.60412010e-02
  -8.96589194e-16  6.73314896e-18 -9.18276127e-17 -5.84770596e-16
   9.40034308e-15  5.17163949e-16  2.32347562e-01  4.51167275e-01
   2.61891304e-02 -3.65317788e-02  4.18419322e-16  2.23400831e-15
  -2.37304248e-15 -5.97537637e-02  7.38411830e-02  2.48440137e-16
  -1.32595011e-16  2.63605751e-03  9.52198001e-04  3.05889801e-17]
 [-9.46422555e-02  4.48426800e-01  1.98153962e-02  7.58847075e-01
  -1.45132018e-15 -7.55271284e-16  2.25301010e-16  1.41988064e-16
   2.17990489e-02  3.43387945e-01 -1.79916226e-03 -3.07045463e-01
   2.45026052e-16  3.68293173e-18 -5.33972878e-16 -7.71724662e-16
   6.12920782e-18  5.92906372e-17 -9.17358886e-03  5.21946445e-16
  -5.79897992e-19 -4.94265874e-16 -1.40912171e-16  2.95175337e-02
   2.35576482e-03  5.09114427e-17  4.04900142e-17 -9.11562720e-03]
 [-2.80136906e-02 -2.15181486e-03 -4.69991074e-01  2.93507544e-02
  -5.34838836e-16  6.87304570e-17 -9.70724478e-17 -3.30340195e-16
  -6.14698642e-01 -3.61875325e-04 -1.32299836e-01 -1.41619914e-02
  -6.31561794e-16 -7.46805311e-18 -3.02205260e-16  4.56149902e-17
   1.38214178e-16  1.00529195e-16  5.98090519e-01 -9.67231234e-16
   2.24807885e-18  1.53303639e-15  6.35750315e-17  5.41870307e-03
  -1.55417647e-01  2.38738180e-16 -5.13449546e-17  1.70034110e-03]
 [ 3.19134791e-18 -3.62906599e-20 -5.10576622e-19 -1.62365162e-19
   1.81245836e-17  1.99156769e-16 -9.32047063e-18  2.81340936e-16
  -1.87519804e-19 -3.90298261e-19  2.29290156e-19  1.47447705e-18
  -1.25673502e-02  9.99878138e-01  1.60599332e-15 -1.64545557e-15
  -6.29047726e-16  4.80122309e-16 -8.31423115e-19 -7.08758070e-05
   9.26102817e-03  1.84199888e-16  2.63205036e-16 -7.03664104e-20
  -3.74068817e-20  4.92204581e-17 -4.17163639e-17  1.18590064e-20]
 [-2.48058509e-19  2.45498339e-17  1.65811221e-17 -5.98049377e-17
  -1.22337228e-16  9.14072013e-17  1.34709395e-16  3.70871968e-16
  -1.20806874e-16  1.60383046e-16  2.77291039e-16 -5.29500025e-16
  -9.99878138e-01 -1.25673502e-02  1.24238193e-15  1.97503072e-14
   1.53908353e-16 -7.41719082e-16 -1.23271439e-15 -9.26102817e-03
  -7.08758070e-05 -1.48958921e-15 -2.79996347e-16  1.80809921e-17
  -5.56238869e-18 -2.72138470e-17  1.45620387e-16  1.07990018e-17]
 [-1.75539700e-17  1.83646661e-16  1.20667251e-16  7.63029114e-17
  -1.41353926e-02  2.13851464e-02 -5.55713971e-01 -2.17505622e-01
   5.84989574e-17 -4.88358172e-17 -1.23293164e-17  8.81164559e-17
  -1.01166203e-15  4.85923253e-17  4.71978274e-02 -3.70666416e-02
   7.00420146e-01  3.22751919e-01 -2.95652547e-16 -1.04475716e-15
   6.55446306e-16  1.18181818e-02  6.30618559e-03  9.05433229e-18
   1.01542798e-16  1.08094537e-01 -1.81641223e-01  2.20571580e-18]
 [-1.53378244e-17 -4.23137255e-17  1.14292583e-16 -5.79068709e-18
  -2.13851464e-02 -1.41353926e-02 -2.17505622e-01  5.55713971e-01
  -2.10767304e-16 -1.30267392e-16 -5.54834450e-18 -1.45299320e-16
  -2.32723762e-16  6.43358972e-16 -3.70666416e-02 -4.71978274e-02
   3.22751919e-01 -7.00420146e-01  5.97919097e-17  3.62697521e-16
  -1.74018046e-15  6.30618559e-03 -1.18181818e-02  1.12661879e-16
   1.38747585e-16  1.81641223e-01  1.08094537e-01  2.90471451e-17]
 [ 5.08447679e-02 -9.45776945e-03 -5.66474904e-01  1.12314653e-02
   4.76128852e-16  9.72375353e-17 -1.66474599e-16  3.06192186e-17
   1.73458834e-01 -6.00353242e-03 -6.62121717e-01 -1.71176938e-02
   2.17324754e-16  2.39133847e-18  3.03277254e-16  1.69212678e-16
  -1.08741331e-16 -1.44616055e-16 -4.41240026e-01  1.24231206e-16
  -1.82713200e-18 -4.84639022e-16 -7.83718949e-17 -6.09297811e-03
  -1.12920712e-01  1.58424209e-16 -3.91287430e-17  1.49423810e-03]
 [ 9.77232182e-17 -1.25467308e-15  1.58825096e-16 -4.61430583e-16
   2.06932317e-01  4.11657994e-01  2.47874762e-03  1.66401623e-02
  -3.91952977e-16 -2.65744938e-16 -1.89269377e-18 -2.98393555e-15
  -5.47892946e-15  5.83481616e-16 -6.13404603e-01 -2.47930320e-01
   5.23777100e-03  5.85986392e-02 -3.67307027e-16  1.38545729e-14
   1.79292285e-14 -1.81077617e-02 -5.88137288e-01  1.98756933e-15
   6.79575560e-17 -1.03283814e-03 -1.83334553e-03  4.07778171e-16]
 [ 4.09423202e-18  3.00395312e-16  3.33652150e-16  2.00195189e-16
   4.11657994e-01 -2.06932317e-01 -1.66401623e-02  2.47874762e-03
  -6.53749516e-17 -2.03883663e-17  1.72044931e-17 -9.17402856e-17
  -1.24845495e-14 -1.64957901e-15  2.47930320e-01 -6.13404603e-01
  -5.85986392e-02  5.23777100e-03 -8.18426081e-16 -2.49498264e-14
  -3.00189801e-15  5.88137288e-01 -1.81077617e-02 -1.43311160e-16
   4.39893562e-17 -1.83334553e-03  1.03283814e-03 -3.26944348e-17]
 [ 2.04585447e-02 -3.12357100e-01  5.92604208e-03 -1.52342380e-01
  -6.08982278e-16 -1.78547196e-15 -9.15845005e-17 -1.93531254e-16
  -1.70600486e-03 -2.21492924e-03  1.98522702e-02 -7.97863426e-01
   4.50969246e-16  7.08348947e-18  2.37328545e-15  5.59162736e-16
  -1.94653525e-17  1.40321078e-17 -8.56801972e-03  2.79048912e-16
   1.60565122e-19 -1.53662272e-16  2.52178793e-15  4.80906071e-01
   1.41537633e-03 -1.51378449e-17 -4.15218047e-17  1.02162279e-01]
 [-5.03602125e-02  5.25709650e-03  5.57256736e-01 -2.29391897e-02
  -4.18612267e-16 -1.55858775e-16  8.87714866e-17 -2.05354234e-17
   1.31818477e-01 -1.31715234e-02 -5.75257050e-01 -1.26785196e-02
  -5.20239220e-16 -6.04807979e-18  2.60069099e-17  2.03538762e-16
   4.71711664e-17  1.23405244e-16  3.18231335e-01 -2.55581690e-16
   7.28813513e-19  5.98451344e-16 -9.26279003e-16  1.35898266e-03
  -4.86280877e-01  6.40316299e-16 -6.21194091e-17  1.34032374e-03]
 [ 5.59549926e-17  1.31908941e-16 -5.89093766e-16  3.19678089e-17
  -2.01924672e-01 -1.22900802e-01  4.57442627e-03 -1.05139350e-02
   6.07101132e-16  3.20336584e-16  1.00300323e-15 -4.30801298e-16
   8.64494667e-15  1.23575197e-16  3.21263497e-01  4.42075971e-01
   1.31741486e-02 -2.59925793e-02 -6.73201869e-16 -3.98903010e-19
   1.95112344e-14  4.04094837e-01 -6.93688963e-01  3.22375300e-16
   5.16153077e-16  1.45996462e-03  7.96631353e-04  9.38791993e-17]
 [ 4.82510665e-18 -2.54225536e-16  3.34346047e-16  4.84074783e-17
  -1.22900802e-01  2.01924672e-01  1.05139350e-02  4.57442627e-03
   6.59662749e-16  8.40254553e-16 -5.29063160e-17 -5.20654856e-16
   4.72832407e-15  1.04640710e-15 -4.42075971e-01  3.21263497e-01
   2.59925793e-02  1.31741486e-02 -1.36930688e-15 -3.68407284e-14
  -1.71841592e-14  6.93688963e-01  4.04094837e-01 -5.38971846e-16
  -1.56331926e-16  7.96631353e-04 -1.45996462e-03  1.14823574e-17]
 [ 7.34690874e-19  1.61082917e-16  1.62540428e-16  1.62829935e-16
   8.33360963e-16  6.87029616e-17 -5.13737223e-17 -2.39311928e-18
   6.30006433e-16  4.30549885e-16  3.22458143e-16 -4.14049798e-16
   9.26056793e-03  1.16394785e-04 -6.09040916e-16  1.96173947e-15
  -7.04594530e-17 -7.34396884e-16 -7.73051064e-16 -9.99927831e-01
  -7.65255120e-03 -4.05195984e-14 -2.30315948e-14  1.71318264e-17
  -5.95786812e-19 -4.96038972e-17 -6.40287350e-17  5.51116460e-18]
 [ 6.09516730e-19 -1.57903990e-18 -1.29475912e-18 -1.77775018e-18
  -6.16093079e-16 -4.08496101e-16 -2.36150803e-17  7.52342608e-17
  -5.29011524e-18 -2.88803023e-18 -2.03236125e-18  3.53695691e-18
  -1.16394785e-04  9.26056793e-03  1.14682604e-15  1.08514704e-16
  -1.32563855e-16  1.75952602e-15  9.39939836e-18  7.65255120e-03
  -9.99927831e-01 -5.53496008e-15 -3.13098204e-14  3.43487946e-19
  -3.92674381e-20  6.50541378e-17 -1.50323735e-16  1.37288969e-20]
 [ 1.48842873e-02 -3.32959462e-01  9.38370558e-03 -1.30728585e-01
   4.10722783e-16 -3.37925403e-17  3.57433126e-17  6.99925848e-17
  -1.10421669e-02  5.42871057e-01 -4.86192688e-04 -2.74622234e-01
   2.13569999e-16  3.55743400e-18  5.40200761e-16 -1.97895925e-16
   2.55499703e-16 -1.47908148e-16  2.48900405e-03  2.51867683e-16
  -6.26881201e-20 -8.55803493e-16 -7.12396506e-16 -7.07954302e-01
   1.42080654e-03  1.24335358e-17  4.21063760e-18 -1.68050226e-02]
 [ 2.69027011e-02 -1.13544620e-02 -3.77319276e-01 -7.29924135e-04
   9.25985713e-16  3.24700859e-16 -8.18410133e-16 -4.34125524e-15
   7.15733548e-01  1.89431435e-02  2.78054982e-01  4.69159099e-03
  -4.61675513e-16 -5.44228190e-18 -8.77849657e-16 -2.95844234e-16
  -5.02099134e-17 -2.24138774e-15  4.26089288e-01  1.97879452e-16
   1.47886828e-18  3.60883762e-16  2.54756004e-16  3.30563984e-03
  -2.91965738e-01  2.47491916e-15  3.30776134e-15 -1.14680395e-04]
 [-1.49978463e-16  1.42622955e-16  2.12961476e-15 -1.54050605e-17
  -2.93809860e-03  2.36781387e-02 -4.77963005e-01 -5.26496513e-01
  -4.11707976e-15  2.37243438e-16 -1.23311916e-15 -2.00042902e-16
   4.27630945e-16  4.60401561e-17 -3.30651713e-02  6.87950592e-03
  -2.43507707e-01 -3.02117857e-01 -2.22091108e-15  2.60546532e-16
  -7.88861245e-16 -2.65117129e-03 -3.71342639e-03 -1.94231093e-16
   1.72506579e-15 -4.45218836e-02  5.83154052e-01  3.25078794e-17]
 [-1.24889237e-16  2.48797987e-16  1.30570112e-15  3.34841230e-17
   2.36781387e-02  2.93809860e-03  5.26496513e-01 -4.77963005e-01
  -2.83350997e-15 -3.65881746e-16 -4.78463876e-16  4.31534393e-17
  -7.34621416e-16 -1.54397907e-16 -6.87950592e-03 -3.30651713e-02
   3.02117857e-01 -2.43507707e-01 -2.17286170e-15  2.07168118e-16
  -6.29403545e-16  3.71342639e-03 -2.65117129e-03  6.11841459e-16
   1.14484815e-15  5.83154052e-01  4.45218836e-02  8.14210631e-18]
 [ 1.56851404e-02 -8.90306326e-04  3.15843661e-02 -6.21440289e-03
   5.57593101e-16 -1.17363934e-16  1.65480950e-15 -2.45509252e-15
   2.44824584e-01 -2.64223379e-03 -3.67271892e-01 -8.52252529e-03
  -6.95332062e-16 -8.34001853e-18 -2.96079884e-16 -1.11630276e-16
   1.50926359e-15 -2.46995369e-15  4.03986913e-01 -2.03769670e-16
   1.53735963e-18  6.19961734e-16 -4.08558515e-17  3.04696161e-03
   8.00371689e-01 -1.48178280e-15 -1.81254402e-15  3.28415657e-04]
 [ 1.51242343e-16 -7.77410366e-15 -2.52356576e-16  5.39374077e-15
   7.81476039e-03  9.39318176e-03  2.96617773e-02 -3.68758978e-01
  -8.45265181e-16  1.81418869e-16  1.80965537e-15  2.73567641e-15
  -1.50135578e-15  1.02121341e-15 -3.00064738e-02 -2.10727075e-02
   6.90419026e-02 -4.93532150e-01 -1.67112980e-15  4.45684062e-16
  -1.36127256e-15  1.33474621e-03 -6.67497446e-03  2.68364797e-15
  -5.07963575e-15 -5.28723017e-01 -5.77674746e-01 -7.73358469e-15]
 [ 1.28436896e-16 -5.94907464e-15  1.00981616e-15  4.46005812e-15
  -9.39318176e-03  7.81476039e-03 -3.68758978e-01 -2.96617773e-02
   3.51699417e-16  2.54377381e-16 -8.25430397e-16  2.15802191e-15
   6.37167209e-16 -2.98257546e-16 -2.10727075e-02  3.00064738e-02
  -4.93532150e-01 -6.90419026e-02 -2.63134741e-16  8.19494943e-16
   7.13436107e-17 -6.67497446e-03 -1.33474621e-03  1.05832353e-15
   1.03081209e-15  5.77674746e-01 -5.28723017e-01  7.98231624e-16]
 [ 1.57313526e-02 -5.24919021e-01  1.78084004e-02  3.40840839e-01
  -7.29174465e-16 -3.64134547e-16  1.24488036e-15  4.55720442e-15
   9.26924713e-04  3.32923447e-02 -7.27970458e-03  1.47909605e-01
   1.83608472e-16  2.40806463e-18  8.74348926e-16  7.74222709e-16
   1.66516948e-15  7.41888038e-15 -6.74458810e-04  3.13860819e-16
   3.13387211e-18  3.58382592e-17 -5.25670463e-16  1.70338535e-01
  -8.89834799e-04  4.20174791e-15  1.03931024e-14 -7.45430736e-01]
 [ 1.10645110e-02 -5.50621794e-01  2.10178957e-02  4.24133752e-01
   1.63790742e-15  1.05133461e-15  3.40689727e-15  1.38683502e-15
   2.75456105e-03  3.65228254e-02 -7.54792469e-03  2.72037140e-01
  -4.22991568e-16 -5.27034122e-18  1.03160813e-15 -6.66939881e-17
   4.68076931e-15  2.56807850e-15 -7.70150726e-04 -7.25775393e-17
   4.92735785e-19 -1.66273049e-16 -4.42201082e-16  8.79725342e-02
   1.29279483e-04 -3.28854146e-15  6.95395604e-15  6.58194171e-01]
 [ 1.81452051e-03  8.16521374e-02 -4.48428408e-03 -2.85888286e-01
   1.28052624e-14 -1.12470182e-15 -1.42437802e-14  1.58925622e-15
  -1.45392870e-02  7.64127610e-01 -2.14241934e-02  3.11238201e-01
   1.37723370e-15  9.37924233e-16  2.52720156e-15 -2.18087913e-14
  -1.77210634e-14 -2.50431366e-15 -5.51014327e-03  5.94229816e-15
  -3.88320260e-16  2.02636252e-14 -4.29616796e-15  4.79390687e-01
  -5.85354473e-04  2.58644751e-15 -2.61964190e-14  1.73398702e-02]]
grids:  [0.06237655 0.31939555 0.74529195 1.28265786 1.85893479 2.39630071
 2.8221971  3.07921611] 
weights:  [0.15900941 0.34931531 0.49276925 0.56970235 0.56970235 0.49276925
 0.34931531 0.15900941]
S = 0.0, Sz = 0.0
Wigner small d:  1
value : [1. 1. 1. 1. 1. 1. 1. 1.]
**** Start Cycle 1 ****
dm (ortho)
[[[ 0.98315367  0.         -0.         ...  0.01559828  0.01097092  0.00179917]
  [ 0.          0.         -0.         ...  0.          0.          0.        ]
  [-0.         -0.          0.         ... -0.         -0.         -0.        ]
  ...
  [ 0.01559828  0.         -0.         ...  0.00024748  0.00017406  0.00002854]
  [ 0.01097092  0.         -0.         ...  0.00017406  0.00012242  0.00002008]
  [ 0.00179917  0.         -0.         ...  0.00002854  0.00002008  0.00000329]]

 [[ 0.98315367  0.          0.         ... -0.01559828 -0.01097092 -0.00179917]
  [ 0.          0.          0.         ... -0.         -0.         -0.        ]
  [ 0.          0.          0.         ... -0.         -0.         -0.        ]
  ...
  [-0.01559828 -0.         -0.         ...  0.00024748  0.00017406  0.00002854]
  [-0.01097092 -0.         -0.         ...  0.00017406  0.00012242  0.00002008]
  [-0.00179917 -0.         -0.         ...  0.00002854  0.00002008  0.00000329]]]
Fock (ortho)
 (array([[-0.67670944, -0.        ,  0.        ,  0.07347645, -0.11397295, -0.        ,  0.        , -0.        ,  0.        ,  0.13653512,  0.        ,
        -0.        ,  0.00204817, -0.17859764,  0.        , -0.        ,  0.        , -0.        ,  0.00544106, -0.05856278,  0.        ,  0.        ,
         0.12361735, -0.        ,  0.        , -0.00862631,  0.00156751, -0.00075786],
       [-0.        ,  1.45489137, -0.        ,  0.        , -0.        ,  0.        ,  0.        , -0.01310258,  0.00252223,  0.        ,  0.74572634,
        -0.8656425 , -0.        , -0.        , -0.07502275,  0.48695686,  0.        , -0.        , -0.        ,  0.        ,  0.00139259, -0.00038607,
        -0.        , -0.0017196 , -0.00327916,  0.        , -0.        , -0.        ],
       [ 0.        , -0.        ,  1.45489137, -0.        , -0.        , -0.        ,  0.        , -0.00252223, -0.01310258,  0.        , -0.8656425 ,
        -0.74572634,  0.        ,  0.        ,  0.48695686,  0.07502275, -0.        ,  0.        ,  0.        , -0.        , -0.00038607, -0.00139259,
         0.        ,  0.00327916, -0.0017196 ,  0.        ,  0.        , -0.        ],
       [ 0.07347645,  0.        , -0.        ,  0.88603376,  0.00425624, -0.        , -0.        ,  0.        ,  0.        , -0.02486965,  0.        ,
         0.        ,  0.66741269,  0.01157806, -0.        ,  0.        , -0.        , -0.        ,  0.33809097, -0.00104277,  0.        , -0.        ,
        -0.00669923,  0.        ,  0.        ,  0.1055586 , -0.08329855,  0.06775935],
       [-0.11397295, -0.        , -0.        ,  0.00425624,  2.01311544,  0.        , -0.        , -0.        , -0.        , -0.71854282, -0.        ,
         0.        , -0.00971649,  1.22434896, -0.        , -0.        , -0.        ,  0.        ,  0.00105581,  0.72707876, -0.        , -0.        ,
        -0.01553003,  0.        , -0.        ,  0.00410277, -0.00331557, -0.00009373],
       [-0.        ,  0.        , -0.        , -0.        ,  0.        ,  3.21826385, -0.        ,  0.        ,  0.        ,  0.        ,  0.        ,
         0.        , -0.        , -0.        ,  0.        , -0.        , -0.        ,  0.00562553,  0.        ,  0.        ,  0.        , -0.        ,
         0.        ,  0.        , -0.        , -0.        ,  0.        ,  0.        ],
       [ 0.        ,  0.        ,  0.        , -0.        , -0.        , -0.        ,  3.21826385,  0.        , -0.        ,  0.        , -0.        ,
         0.        ,  0.        ,  0.        , -0.        ,  0.        , -0.00562553, -0.        , -0.        ,  0.        , -0.        ,  0.        ,
         0.        ,  0.        , -0.        , -0.        ,  0.        , -0.        ],
       [-0.        , -0.01310258, -0.00252223,  0.        , -0.        ,  0.        ,  0.        ,  2.86642886, -0.        ,  0.        ,  0.00190833,
        -0.00332568,  0.        , -0.        , -0.00029069, -0.00778763, -0.        ,  0.        ,  0.        , -0.        , -1.31015146,  0.6501074 ,
         0.        , -0.00153961, -0.00510701,  0.        ,  0.        , -0.        ],
       [ 0.        ,  0.00252223, -0.01310258,  0.        , -0.        ,  0.        , -0.        , -0.        ,  2.86642886,  0.        , -0.00332568,
        -0.00190833,  0.        , -0.        , -0.00778763,  0.00029069,  0.        , -0.        ,  0.        ,  0.        ,  0.6501074 ,  1.31015146,
         0.        ,  0.00510701, -0.00153961, -0.        , -0.        , -0.        ],
       [ 0.13653512,  0.        ,  0.        , -0.02486965, -0.71854282,  0.        ,  0.        ,  0.        ,  0.        ,  1.87507423, -0.        ,
        -0.        , -0.00356388,  0.62757665, -0.        ,  0.        , -0.        ,  0.        , -0.01176288, -0.6811762 ,  0.        ,  0.        ,
        -0.69377655,  0.        ,  0.        ,  0.00608124, -0.00297629,  0.00077983],
       [ 0.        ,  0.74572634, -0.8656425 ,  0.        , -0.        ,  0.        , -0.        ,  0.00190833, -0.00332568, -0.        ,  3.18216174,
         0.        , -0.        ,  0.        ,  0.60287289, -0.37650585, -0.        ,  0.        , -0.        ,  0.        ,  0.00332528,  0.00222282,
         0.        , -0.0020684 , -0.00048024, -0.        ,  0.        ,  0.        ],
       [-0.        , -0.8656425 , -0.74572634,  0.        ,  0.        ,  0.        ,  0.        , -0.00332568, -0.00190833, -0.        ,  0.        ,
         3.18216174, -0.        ,  0.        ,  0.37650585,  0.60287289,  0.        ,  0.        , -0.        ,  0.        , -0.00222282,  0.00332528,
         0.        , -0.00048024,  0.0020684 , -0.        , -0.        ,  0.        ],
       [ 0.00204817, -0.        ,  0.        ,  0.66741269, -0.00971649, -0.        ,  0.        ,  0.        ,  0.        , -0.00356388, -0.        ,
        -0.        ,  3.14377025,  0.00089518, -0.        ,  0.        , -0.        ,  0.        , -1.10344401,  0.0046771 , -0.        ,  0.        ,
        -0.00341411, -0.        , -0.        , -0.67391198,  0.24130869,  0.51333785],
       [-0.17859764, -0.        ,  0.        ,  0.01157806,  1.22434896, -0.        ,  0.        , -0.        , -0.        ,  0.62757665,  0.        ,
         0.        ,  0.00089518,  2.79910348,  0.        , -0.        , -0.        , -0.        ,  0.00274266,  1.14980659, -0.        , -0.        ,
        -1.62786685,  0.        , -0.        ,  0.00313808, -0.00218393, -0.00030607],
       [ 0.        , -0.07502275,  0.48695686, -0.        , -0.        ,  0.        , -0.        , -0.00029069, -0.00778763, -0.        ,  0.60287289,
         0.37650585, -0.        ,  0.        ,  3.87061867, -0.        ,  0.        , -0.        ,  0.        , -0.        , -0.00112309, -0.0024928 ,
         0.        , -0.00023225,  0.00007958,  0.        ,  0.        ,  0.        ],
       [-0.        ,  0.48695686,  0.07502275,  0.        , -0.        , -0.        ,  0.        , -0.00778763,  0.00029069,  0.        , -0.37650585,
         0.60287289,  0.        , -0.        , -0.        ,  3.87061867, -0.        ,  0.        , -0.        ,  0.        ,  0.0024928 , -0.00112309,
        -0.        ,  0.00007958,  0.00023225, -0.        , -0.        ,  0.        ],
       [ 0.        ,  0.        , -0.        , -0.        , -0.        , -0.        , -0.00562553, -0.        ,  0.        , -0.        , -0.        ,
         0.        , -0.        , -0.        ,  0.        , -0.        ,  4.30565401,  0.        , -0.        , -0.        ,  0.        , -0.        ,
        -0.        ,  0.        , -0.        , -0.        , -0.        , -0.        ],
       [-0.        , -0.        ,  0.        , -0.        ,  0.        ,  0.00562553, -0.        ,  0.        , -0.        ,  0.        ,  0.        ,
         0.        ,  0.        , -0.        , -0.        ,  0.        ,  0.        ,  4.30565401, -0.        ,  0.        ,  0.        ,  0.        ,
         0.        ,  0.        ,  0.        ,  0.        ,  0.        ,  0.        ],
       [ 0.00544106, -0.        ,  0.        ,  0.33809097,  0.00105581,  0.        , -0.        ,  0.        ,  0.        , -0.01176288, -0.        ,
        -0.        , -1.10344401,  0.00274266,  0.        , -0.        , -0.        , -0.        ,  3.2827574 ,  0.00459591,  0.        , -0.        ,
        -0.00146788, -0.        , -0.        , -0.5905914 , -0.60988927, -1.31715835],
       [-0.05856278,  0.        , -0.        , -0.00104277,  0.72707876,  0.        ,  0.        , -0.        ,  0.        , -0.6811762 ,  0.        ,
         0.        ,  0.0046771 ,  1.14980659, -0.        ,  0.        , -0.        ,  0.        ,  0.00459591,  2.04359511,  0.        ,  0.        ,
        -0.96238185, -0.        , -0.        , -0.00148305, -0.00002802, -0.00171706],
       [ 0.        ,  0.00139259, -0.00038607,  0.        , -0.        ,  0.        , -0.        , -1.31015146,  0.6501074 ,  0.        ,  0.00332528,
        -0.00222282, -0.        , -0.        , -0.00112309,  0.0024928 ,  0.        ,  0.        ,  0.        ,  0.        ,  3.46469876, -0.        ,
         0.        , -1.46299275, -1.55970199,  0.        ,  0.        , -0.        ],
       [ 0.        , -0.00038607, -0.00139259, -0.        , -0.        , -0.        ,  0.        ,  0.6501074 ,  1.31015146,  0.        ,  0.00222282,
         0.00332528,  0.        , -0.        , -0.0024928 , -0.00112309, -0.        ,  0.        , -0.        ,  0.        , -0.        ,  3.46469876,
         0.        , -1.55970199,  1.46299275,  0.        , -0.        , -0.        ],
       [ 0.12361735, -0.        ,  0.        , -0.00669923, -0.01553003,  0.        ,  0.        ,  0.        ,  0.        , -0.69377655,  0.        ,
         0.        , -0.00341411, -1.62786685,  0.        , -0.        , -0.        ,  0.        , -0.00146788, -0.96238185,  0.        ,  0.        ,
         5.27272811, -0.        ,  0.        ,  0.002422  , -0.00076756,  0.00018603],
       [-0.        , -0.0017196 ,  0.00327916,  0.        ,  0.        ,  0.        ,  0.        , -0.00153961,  0.00510701,  0.        , -0.0020684 ,
        -0.00048024, -0.        ,  0.        , -0.00023225,  0.00007958,  0.        ,  0.        , -0.        , -0.        , -1.46299275, -1.55970199,
        -0.        ,  5.26262475, -0.        , -0.        , -0.        ,  0.        ],
       [ 0.        , -0.00327916, -0.0017196 ,  0.        , -0.        , -0.        , -0.        , -0.00510701, -0.00153961,  0.        , -0.00048024,
         0.0020684 , -0.        , -0.        ,  0.00007958,  0.00023225, -0.        ,  0.        , -0.        , -0.        , -1.55970199,  1.46299275,
         0.        , -0.        ,  5.26262475, -0.        , -0.        ,  0.        ],
       [-0.00862631,  0.        ,  0.        ,  0.1055586 ,  0.00410277, -0.        , -0.        ,  0.        , -0.        ,  0.00608124, -0.        ,
        -0.        , -0.67391198,  0.00313808,  0.        , -0.        , -0.        ,  0.        , -0.5905914 , -0.00148305,  0.        ,  0.        ,
         0.002422  , -0.        , -0.        ,  5.76166781, -4.42704045,  0.38979584],
       [ 0.00156751, -0.        ,  0.        , -0.08329855, -0.00331557,  0.        ,  0.        ,  0.        , -0.        , -0.00297629,  0.        ,
        -0.        ,  0.24130869, -0.00218393,  0.        , -0.        , -0.        ,  0.        , -0.60988927, -0.00002802,  0.        , -0.        ,
        -0.00076756, -0.        , -0.        , -4.42704045,  4.66076095,  0.51510505],
       [-0.00075786, -0.        , -0.        ,  0.06775935, -0.00009373,  0.        , -0.        , -0.        , -0.        ,  0.00077983,  0.        ,
         0.        ,  0.51333785, -0.00030607,  0.        ,  0.        , -0.        ,  0.        , -1.31715835, -0.00171706, -0.        , -0.        ,
         0.00018603,  0.        ,  0.        ,  0.38979584,  0.51510505,  2.44973706]]), array([[-0.67670944,  0.        , -0.        , -0.07347645, -0.11397295,  0.        , -0.        ,  0.        , -0.        ,  0.13653512,  0.        ,
         0.        , -0.00204817, -0.17859764,  0.        , -0.        , -0.        ,  0.        , -0.00544106, -0.05856278,  0.        ,  0.        ,
         0.12361735, -0.        ,  0.        ,  0.00862631, -0.00156751,  0.00075786],
       [ 0.        ,  1.45489137, -0.        ,  0.        , -0.        ,  0.        ,  0.        ,  0.01310258, -0.00252223,  0.        ,  0.74572634,
        -0.8656425 , -0.        , -0.        , -0.07502275,  0.48695686,  0.        , -0.        , -0.        ,  0.        , -0.00139259,  0.00038607,
        -0.        ,  0.0017196 ,  0.00327916,  0.        , -0.        , -0.        ],
       [-0.        , -0.        ,  1.45489137, -0.        , -0.        , -0.        ,  0.        ,  0.00252223,  0.01310258,  0.        , -0.8656425 ,
        -0.74572634,  0.        ,  0.        ,  0.48695686,  0.07502275, -0.        ,  0.        ,  0.        , -0.        ,  0.00038607,  0.00139259,
         0.        , -0.00327916,  0.0017196 ,  0.        ,  0.        , -0.        ],
       [-0.07347645,  0.        , -0.        ,  0.88603376, -0.00425624,  0.        ,  0.        , -0.        ,  0.        ,  0.02486965,  0.        ,
         0.        ,  0.66741269, -0.01157806, -0.        ,  0.        , -0.        ,  0.        ,  0.33809097,  0.00104277,  0.        , -0.        ,
         0.00669923,  0.        ,  0.        ,  0.1055586 , -0.08329855,  0.06775935],
       [-0.11397295, -0.        , -0.        , -0.00425624,  2.01311544, -0.        , -0.        , -0.        , -0.        , -0.71854282, -0.        ,
         0.        ,  0.00971649,  1.22434896, -0.        , -0.        ,  0.        , -0.        , -0.00105581,  0.72707876, -0.        , -0.        ,
        -0.01553003,  0.        , -0.        , -0.00410277,  0.00331557,  0.00009373],
       [ 0.        ,  0.        , -0.        ,  0.        , -0.        ,  3.21826385, -0.        ,  0.        ,  0.        , -0.        ,  0.        ,
         0.        , -0.        ,  0.        ,  0.        , -0.        ,  0.        , -0.00562553,  0.        , -0.        ,  0.        , -0.        ,
        -0.        ,  0.        , -0.        , -0.        ,  0.        ,  0.        ],
       [-0.        ,  0.        ,  0.        ,  0.        , -0.        , -0.        ,  3.21826385,  0.        , -0.        ,  0.        , -0.        ,
         0.        ,  0.        ,  0.        , -0.        ,  0.        ,  0.00562553,  0.        , -0.        ,  0.        , -0.        ,  0.        ,
         0.        ,  0.        , -0.        , -0.        ,  0.        , -0.        ],
       [ 0.        ,  0.01310258,  0.00252223, -0.        , -0.        ,  0.        ,  0.        ,  2.86642886, -0.        ,  0.        , -0.00190833,
         0.00332568,  0.        , -0.        ,  0.00029069,  0.00778763, -0.        ,  0.        ,  0.        , -0.        , -1.31015146,  0.6501074 ,
         0.        , -0.00153961, -0.00510701,  0.        ,  0.        , -0.        ],
       [-0.        , -0.00252223,  0.01310258,  0.        , -0.        ,  0.        , -0.        , -0.        ,  2.86642886,  0.        ,  0.00332568,
         0.00190833, -0.        , -0.        ,  0.00778763, -0.00029069,  0.        , -0.        ,  0.        ,  0.        ,  0.6501074 ,  1.31015146,
         0.        ,  0.00510701, -0.00153961, -0.        , -0.        , -0.        ],
       [ 0.13653512,  0.        ,  0.        ,  0.02486965, -0.71854282, -0.        ,  0.        ,  0.        ,  0.        ,  1.87507423, -0.        ,
        -0.        ,  0.00356388,  0.62757665, -0.        ,  0.        ,  0.        , -0.        ,  0.01176288, -0.6811762 ,  0.        ,  0.        ,
        -0.69377655,  0.        ,  0.        , -0.00608124,  0.00297629, -0.00077983],
       [ 0.        ,  0.74572634, -0.8656425 ,  0.        , -0.        ,  0.        , -0.        , -0.00190833,  0.00332568, -0.        ,  3.18216174,
         0.        , -0.        ,  0.        ,  0.60287289, -0.37650585, -0.        ,  0.        , -0.        , -0.        , -0.00332528, -0.00222282,
         0.        ,  0.0020684 ,  0.00048024, -0.        ,  0.        ,  0.        ],
       [ 0.        , -0.8656425 , -0.74572634,  0.        ,  0.        ,  0.        ,  0.        ,  0.00332568,  0.00190833, -0.        ,  0.        ,
         3.18216174, -0.        ,  0.        ,  0.37650585,  0.60287289,  0.        ,  0.        , -0.        ,  0.        ,  0.00222282, -0.00332528,
         0.        ,  0.00048024, -0.0020684 , -0.        , -0.        ,  0.        ],
       [-0.00204817, -0.        ,  0.        ,  0.66741269,  0.00971649, -0.        ,  0.        ,  0.        , -0.        ,  0.00356388, -0.        ,
        -0.        ,  3.14377025, -0.00089518, -0.        ,  0.        , -0.        ,  0.        , -1.10344401, -0.0046771 , -0.        ,  0.        ,
         0.00341411, -0.        , -0.        , -0.67391198,  0.24130869,  0.51333785],
       [-0.17859764, -0.        ,  0.        , -0.01157806,  1.22434896,  0.        ,  0.        , -0.        , -0.        ,  0.62757665,  0.        ,
         0.        , -0.00089518,  2.79910348,  0.        , -0.        , -0.        ,  0.        , -0.00274266,  1.14980659, -0.        , -0.        ,
        -1.62786685,  0.        , -0.        , -0.00313808,  0.00218393,  0.00030607],
       [ 0.        , -0.07502275,  0.48695686, -0.        , -0.        ,  0.        , -0.        ,  0.00029069,  0.00778763, -0.        ,  0.60287289,
         0.37650585, -0.        ,  0.        ,  3.87061867, -0.        ,  0.        , -0.        ,  0.        , -0.        ,  0.00112309,  0.0024928 ,
         0.        ,  0.00023225, -0.00007958,  0.        ,  0.        ,  0.        ],
       [-0.        ,  0.48695686,  0.07502275,  0.        , -0.        , -0.        ,  0.        ,  0.00778763, -0.00029069,  0.        , -0.37650585,
         0.60287289,  0.        , -0.        , -0.        ,  3.87061867, -0.        ,  0.        , -0.        ,  0.        , -0.0024928 ,  0.00112309,
        -0.        , -0.00007958, -0.00023225, -0.        , -0.        ,  0.        ],
       [-0.        ,  0.        , -0.        , -0.        ,  0.        ,  0.        ,  0.00562553, -0.        ,  0.        ,  0.        , -0.        ,
         0.        , -0.        , -0.        ,  0.        , -0.        ,  4.30565401,  0.        , -0.        , -0.        ,  0.        , -0.        ,
        -0.        ,  0.        , -0.        , -0.        , -0.        , -0.        ],
       [ 0.        , -0.        ,  0.        ,  0.        , -0.        , -0.00562553,  0.        ,  0.        , -0.        , -0.        ,  0.        ,
         0.        ,  0.        ,  0.        , -0.        ,  0.        ,  0.        ,  4.30565401, -0.        , -0.        ,  0.        ,  0.        ,
        -0.        ,  0.        ,  0.        ,  0.        ,  0.        ,  0.        ],
       [-0.00544106, -0.        ,  0.        ,  0.33809097, -0.00105581,  0.        , -0.        ,  0.        ,  0.        ,  0.01176288, -0.        ,
        -0.        , -1.10344401, -0.00274266,  0.        , -0.        , -0.        , -0.        ,  3.2827574 , -0.00459591,  0.        , -0.        ,
         0.00146788, -0.        , -0.        , -0.5905914 , -0.60988927, -1.31715835],
       [-0.05856278,  0.        , -0.        ,  0.00104277,  0.72707876, -0.        ,  0.        , -0.        ,  0.        , -0.6811762 , -0.        ,
         0.        , -0.0046771 ,  1.14980659, -0.        ,  0.        , -0.        , -0.        , -0.00459591,  2.04359511,  0.        ,  0.        ,
        -0.96238185, -0.        , -0.        ,  0.00148305,  0.00002802,  0.00171706],
       [ 0.        , -0.00139259,  0.00038607,  0.        , -0.        ,  0.        , -0.        , -1.31015146,  0.6501074 ,  0.        , -0.00332528,
         0.00222282, -0.        , -0.        ,  0.00112309, -0.0024928 ,  0.        ,  0.        ,  0.        ,  0.        ,  3.46469876, -0.        ,
         0.        , -1.46299275, -1.55970199,  0.        ,  0.        , -0.        ],
       [ 0.        ,  0.00038607,  0.00139259, -0.        , -0.        , -0.        ,  0.        ,  0.6501074 ,  1.31015146,  0.        , -0.00222282,
        -0.00332528,  0.        , -0.        ,  0.0024928 ,  0.00112309, -0.        ,  0.        , -0.        ,  0.        , -0.        ,  3.46469876,
         0.        , -1.55970199,  1.46299275,  0.        , -0.        , -0.        ],
       [ 0.12361735, -0.        ,  0.        ,  0.00669923, -0.01553003, -0.        ,  0.        ,  0.        ,  0.        , -0.69377655,  0.        ,
         0.        ,  0.00341411, -1.62786685,  0.        , -0.        , -0.        , -0.        ,  0.00146788, -0.96238185,  0.        ,  0.        ,
         5.27272811, -0.        ,  0.        , -0.002422  ,  0.00076756, -0.00018603],
       [-0.        ,  0.0017196 , -0.00327916,  0.        ,  0.        ,  0.        ,  0.        , -0.00153961,  0.00510701,  0.        ,  0.0020684 ,
         0.00048024, -0.        ,  0.        ,  0.00023225, -0.00007958,  0.        ,  0.        , -0.        , -0.        , -1.46299275, -1.55970199,
        -0.        ,  5.26262475, -0.        , -0.        , -0.        ,  0.        ],
       [ 0.        ,  0.00327916,  0.0017196 ,  0.        , -0.        , -0.        , -0.        , -0.00510701, -0.00153961,  0.        ,  0.00048024,
        -0.0020684 , -0.        , -0.        , -0.00007958, -0.00023225, -0.        ,  0.        , -0.        , -0.        , -1.55970199,  1.46299275,
         0.        , -0.        ,  5.26262475, -0.        , -0.        ,  0.        ],
       [ 0.00862631,  0.        ,  0.        ,  0.1055586 , -0.00410277, -0.        , -0.        ,  0.        , -0.        , -0.00608124, -0.        ,
        -0.        , -0.67391198, -0.00313808,  0.        , -0.        , -0.        ,  0.        , -0.5905914 ,  0.00148305,  0.        ,  0.        ,
        -0.002422  , -0.        , -0.        ,  5.76166781, -4.42704045,  0.38979584],
       [-0.00156751, -0.        ,  0.        , -0.08329855,  0.00331557,  0.        ,  0.        ,  0.        , -0.        ,  0.00297629,  0.        ,
        -0.        ,  0.24130869,  0.00218393,  0.        , -0.        , -0.        ,  0.        , -0.60988927,  0.00002802,  0.        , -0.        ,
         0.00076756, -0.        , -0.        , -4.42704045,  4.66076095,  0.51510505],
       [ 0.00075786, -0.        , -0.        ,  0.06775935,  0.00009373,  0.        , -0.        , -0.        , -0.        , -0.00077983,  0.        ,
         0.        ,  0.51333785,  0.00030607,  0.        ,  0.        , -0.        ,  0.        , -1.31715835,  0.00171706, -0.        , -0.        ,
        -0.00018603,  0.        ,  0.        ,  0.38979584,  0.51510505,  2.44973706]]))
E(UHF) =    -2.104394
NO eigenvalue
[-1. -0. -0. -0. -0. -0. -0. -0. -0. -0. -0. -0. -0. -0. -0.  0.  0.  0.  0.  0.  0.  0.  0.  0.  0.  0.  0.  0.] [-1. -0. -0. -0. -0. -0. -0. -0. -0. -0. -0. -0. -0. -0.  0.  0.  0.  0.  0.  0.  0.  0.  0.  0.  0.  0.  0.  0.]
NO vec
[[ 0.99154106  0.          0.1005447  ...  0.          0.          0.        ]
 [ 0.          0.          0.53795232 ...  0.          0.          0.        ]
 [-0.          0.          0.         ...  0.          0.          0.        ]
 ...
 [ 0.         -0.01573135  0.         ... -0.09515545 -0.07078069 -0.1736329 ]
 [ 0.         -0.01106451  0.         ...  0.01207316  0.03654644 -0.06408313]
 [ 0.         -0.00181452  0.         ... -0.02760299 -0.00496554 -0.01268857]]
dm(NO)
[[ 1.  0. -0. ...  0.  0.  0.]
 [ 0.  1.  0. ...  0. -0. -0.]
 [-0.  0.  0. ...  0.  0.  0.]
 ...
 [ 0. -0.  0. ... -0.  0.  0.]
 [ 0. -0.  0. ...  0. -0.  0.]
 [ 0. -0.  0. ...  0.  0. -0.]]
D(g) (NO)
[[ 0.99951369  0.0305614  -0.         ...  0.00037932  0.00074256 -0.00256465]
 [-0.0305614   0.99951369 -0.00410237 ... -0.         -0.         -0.        ]
 [-0.          0.00410237  0.99951369 ... -0.01041812 -0.01027718  0.00926842]
 ...
 [-0.00037932 -0.          0.01041812 ...  0.99951369 -0.         -0.        ]
 [-0.00074256 -0.          0.01027718 ... -0.          0.99951369  0.        ]
 [ 0.00256465 -0.         -0.00926842 ... -0.          0.          0.99951369]]
...
N(g) (NO)
[[ 0.99955206 -0.03056257]
 [ 0.03056257  0.99955206]]
...
P(g) (NO)
[[ 1.          0.         -0.         ... -0.         -0.         -0.        ]
 [-0.          1.          0.         ...  0.         -0.         -0.        ]
 [ 0.00012538  0.00410054 -0.         ...  0.         -0.         -0.        ]
 ...
 [-0.00037915  0.00001159  0.         ...  0.         -0.         -0.        ]
 [-0.00074222  0.00002269  0.         ...  0.         -0.         -0.        ]
 [ 0.0025635  -0.00007838 -0.         ... -0.          0.          0.        ]]
...
Pg_ortho
[[ 0.98317236  0.         -0.         ... -0.00000969 -0.00000682 -0.00000112]
 [ 0.          0.         -0.         ...  0.          0.          0.        ]
 [-0.         -0.          0.         ... -0.         -0.         -0.        ]
 ...
 [-0.00096268 -0.          0.         ...  0.00024701  0.00017373  0.00002849]
 [-0.00067709 -0.          0.         ...  0.00017373  0.00012219  0.00002004]
 [-0.00011104 -0.          0.         ...  0.00002849  0.00002004  0.00000329]]
G(g) (NO)
[[ 0.70505475 -0.00022682  0.03418404 ...  0.00018172  0.00008135 -0.00027572]
 [ 0.00022682  0.70505475 -0.00044914 ... -0.06872585  0.18326599 -0.03072185]
 [ 0.03412793 -0.00228551  1.08046831 ...  0.00015419 -0.00038634  0.0002066 ]
 ...
 [ 0.000437   -0.06873633  0.00003913 ...  1.17285561 -0.19675548 -0.00573045]
 [ 0.00069026  0.18325121 -0.00004508 ... -0.19675085  1.03841383  0.20406658]
 [-0.00153992 -0.03068698  0.0002286  ... -0.00573165  0.20407404  1.15897324]]
...
C(NO)
[[-1.          0.          0.         ...  0.          0.          0.        ]
 [ 0.         -1.          0.         ...  0.          0.         -0.        ]
 [ 0.          0.         -0.49655613 ...  0.          0.          0.        ]
 ...
 [ 0.         -0.          0.         ... -0.00007375  0.00020417  0.0868166 ]
 [ 0.          0.          0.         ... -0.00029933  0.00082867  0.07629368]
 [ 0.          0.          0.         ... -0.00047453  0.00131367  0.07237717]]
detC 1.0
detNg [1.0000384  1.00099945 1.00526136 1.01433458 1.02601157 1.035465   1.04002611 1.0410656 ]
xg [0.99996161 0.99900155 0.99476618 0.985868   0.97464787 0.96574969 0.96151432 0.96055427]
ciS 1.960515871124777
[[-1.40472096  0.         -0.06807114 ...  0.          0.          0.        ]
 [ 0.         -1.40472096  0.         ...  0.08336518 -0.24648801  0.05734504]
 [-0.06807114  0.          0.128522   ...  0.          0.          0.        ]
 ...
 [ 0.          0.08336518  0.         ...  1.67376437  0.24242374  0.2062437 ]
 [ 0.         -0.24648801  0.         ...  0.24242374 -0.07502161  0.51834914]
 [ 0.          0.05734504  0.         ...  0.2062437   0.51834914  0.97719707]]
ciH -4.150732759562078
S2 = 0.000000
X(g)
[[ 2.          0.          0.00012538 ...  0.00037915  0.00074222 -0.0025635 ]
 [-0.          2.         -0.00410054 ...  0.00001159  0.00002269 -0.00007838]
 [ 0.00012538  0.00410054  0.         ...  0.          0.          0.        ]
 ...
 [-0.00037915  0.00001159  0.         ...  0.          0.          0.        ]
 [-0.00074222  0.00002269  0.         ...  0.          0.          0.        ]
 [ 0.0025635  -0.00007838  0.         ...  0.          0.          0.        ]]
X(g) int
[[ 2.          0.          0.0657652  ...  0.00487303  0.00953956 -0.0329478 ]
 [-0.          2.         -0.05270281 ...  0.00608081  0.01190394 -0.04111392]
 [ 0.0657652   0.05270281  0.         ...  0.          0.          0.        ]
 ...
 [-0.00487303  0.00608081  0.         ...  0.          0.          0.        ]
 [-0.00953956  0.01190394  0.         ...  0.          0.          0.        ]
 [ 0.0329478  -0.04111392  0.         ...  0.          0.          0.        ]]
Hsp + Hph =  -2.1171635591915616
Feff (mod,ortho)
[[-0.66431756  0.          0.         ...  0.          0.          0.        ]
 [ 0.          1.45489137 -0.         ...  0.          0.          0.        ]
 [ 0.         -0.          1.45489137 ...  0.          0.          0.        ]
 ...
 [ 0.          0.          0.         ...  5.76123519 -4.42711167  0.38974958]
 [ 0.          0.          0.         ... -4.42711167  4.66087478  0.5150994 ]
 [ 0.          0.          0.         ...  0.38974958  0.5150994   2.44973214]]
E(SUHF) =     -1.05880914
e_a, e_b
[-0.70274898  0.18446108  0.27661537  0.68344861  0.70156928  0.70156928  1.12589662  1.12589662  1.12843032  1.57813291  2.19314653  2.86596572  3.21823475
  3.21823475  3.47087077  3.47087077  3.60902511  3.60902511  3.70943856  4.30568311  4.30568311  4.33474296  4.33474296  5.13221139  6.71986787  6.85931939
  6.85931939  9.7426648 ] [-0.70274898  0.18446108  0.27661537  0.68344861  0.70156928  0.70156928  1.12589662  1.12589662  1.12843032  1.57813291  2.19314653  2.86596572  3.21823475
  3.21823475  3.47087077  3.47087077  3.60902511  3.60902511  3.70943856  4.30568311  4.30568311  4.33474296  4.33474296  5.13221139  6.71986787  6.85931939
  6.85931939  9.7426648 ]
P_a, P_b
[[ 0.97464903  0.         -0.         -0.10191594 -0.0035169   0.          0.          0.         -0.         -0.083529    0.         -0.          0.02117331
   0.06963334 -0.          0.          0.          0.          0.01501529 -0.03393917  0.          0.         -0.01643026  0.          0.          0.01616375
   0.0110816   0.00187524]
 [ 0.          0.          0.          0.          0.          0.          0.          0.          0.          0.          0.          0.          0.
   0.          0.          0.          0.          0.          0.          0.          0.          0.          0.          0.          0.          0.
   0.          0.        ]
 [-0.          0.          0.          0.          0.         -0.         -0.         -0.          0.          0.         -0.          0.         -0.
  -0.          0.         -0.         -0.         -0.         -0.          0.         -0.         -0.          0.         -0.         -0.         -0.
  -0.         -0.        ]
 [-0.10191594  0.          0.          0.01065703  0.00036775 -0.         -0.         -0.          0.          0.00873436 -0.          0.         -0.00221403
  -0.00728134  0.         -0.         -0.         -0.         -0.0015701   0.00354891 -0.         -0.          0.00171806 -0.         -0.         -0.00169019
  -0.00115877 -0.00019609]
 [-0.0035169   0.          0.          0.00036775  0.00001269 -0.         -0.         -0.          0.          0.0003014  -0.          0.         -0.0000764
  -0.00025126  0.         -0.         -0.         -0.         -0.00005418  0.00012247 -0.         -0.          0.00005929 -0.         -0.         -0.00005832
  -0.00003999 -0.00000677]
 [ 0.          0.         -0.         -0.         -0.          0.          0.          0.         -0.         -0.          0.         -0.          0.
   0.         -0.          0.          0.          0.          0.         -0.          0.          0.         -0.          0.          0.          0.
   0.          0.        ]
 [ 0.          0.         -0.         -0.         -0.          0.          0.          0.         -0.         -0.          0.         -0.          0.
   0.         -0.          0.          0.          0.          0.         -0.          0.          0.         -0.          0.          0.          0.
   0.          0.        ]
 [ 0.          0.         -0.         -0.         -0.          0.          0.          0.         -0.         -0.          0.         -0.          0.
   0.         -0.          0.          0.          0.          0.         -0.          0.          0.         -0.          0.          0.          0.
   0.          0.        ]
 [-0.          0.          0.          0.          0.         -0.         -0.         -0.          0.          0.         -0.          0.         -0.
  -0.          0.         -0.         -0.         -0.         -0.          0.         -0.         -0.          0.         -0.         -0.         -0.
  -0.         -0.        ]
 [-0.083529    0.          0.          0.00873436  0.0003014  -0.         -0.         -0.          0.          0.00715857 -0.          0.         -0.00181459
  -0.00596769  0.         -0.         -0.         -0.         -0.00128683  0.00290864 -0.         -0.          0.0014081  -0.         -0.         -0.00138526
  -0.00094971 -0.00016071]
 [ 0.          0.         -0.         -0.         -0.          0.          0.          0.         -0.         -0.          0.         -0.          0.
   0.         -0.          0.          0.          0.          0.         -0.          0.          0.         -0.          0.          0.          0.
   0.          0.        ]
 [-0.          0.          0.          0.          0.         -0.         -0.         -0.          0.          0.         -0.          0.         -0.
  -0.          0.         -0.         -0.         -0.         -0.          0.         -0.         -0.          0.         -0.         -0.         -0.
  -0.         -0.        ]
 [ 0.02117331  0.         -0.         -0.00221403 -0.0000764   0.          0.          0.         -0.         -0.00181459  0.         -0.          0.00045997
   0.00151272 -0.          0.          0.          0.          0.00032619 -0.0007373   0.          0.         -0.00035693  0.          0.          0.00035114
   0.00024074  0.00004074]
 [ 0.06963334  0.         -0.         -0.00728134 -0.00025126  0.          0.          0.         -0.         -0.00596769  0.         -0.          0.00151272
   0.00497492 -0.          0.          0.          0.          0.00107276 -0.00242477  0.          0.         -0.00117385  0.          0.          0.00115481
   0.00079172  0.00013398]
 [-0.          0.          0.          0.          0.         -0.         -0.         -0.          0.          0.         -0.          0.         -0.
  -0.          0.         -0.         -0.         -0.         -0.          0.         -0.         -0.          0.         -0.         -0.         -0.
  -0.         -0.        ]
 [ 0.          0.         -0.         -0.         -0.          0.          0.          0.         -0.         -0.          0.         -0.          0.
   0.         -0.          0.          0.          0.          0.         -0.          0.          0.         -0.          0.          0.          0.
   0.          0.        ]
 [ 0.          0.         -0.         -0.         -0.          0.          0.          0.         -0.         -0.          0.         -0.          0.
   0.         -0.          0.          0.          0.          0.         -0.          0.          0.         -0.          0.          0.          0.
   0.          0.        ]
 [ 0.          0.         -0.         -0.         -0.          0.          0.          0.         -0.         -0.          0.         -0.          0.
   0.         -0.          0.          0.          0.          0.         -0.          0.          0.         -0.          0.          0.          0.
   0.          0.        ]
 [ 0.01501529  0.         -0.         -0.0015701  -0.00005418  0.          0.          0.         -0.         -0.00128683  0.         -0.          0.00032619
   0.00107276 -0.          0.          0.          0.          0.00023132 -0.00052286  0.          0.         -0.00025312  0.          0.          0.00024902
   0.00017072  0.00002889]
 [-0.03393917  0.          0.          0.00354891  0.00012247 -0.         -0.         -0.          0.          0.00290864 -0.          0.         -0.0007373
  -0.00242477  0.         -0.         -0.         -0.         -0.00052286  0.00118183 -0.         -0.          0.00057213 -0.         -0.         -0.00056285
  -0.00038588 -0.0000653 ]
 [ 0.          0.         -0.         -0.         -0.          0.          0.          0.         -0.         -0.          0.         -0.          0.
   0.         -0.          0.          0.          0.          0.         -0.          0.          0.         -0.          0.          0.          0.
   0.          0.        ]
 [ 0.          0.         -0.         -0.         -0.          0.          0.          0.         -0.         -0.          0.         -0.          0.
   0.         -0.          0.          0.          0.          0.         -0.          0.          0.         -0.          0.          0.          0.
   0.          0.        ]
 [-0.01643026  0.          0.          0.00171806  0.00005929 -0.         -0.         -0.          0.          0.0014081  -0.          0.         -0.00035693
[...]

 [[-0.51276137 -0.         -0.         ...  0.10543724 -0.06681027  0.00558631]
  [-0.          1.49762115 -0.         ...  0.         -0.         -0.        ]
  [-0.         -0.          1.49762115 ...  0.          0.         -0.        ]
  ...
  [ 0.10543724  0.          0.         ...  5.80407664 -4.45677866  0.39346043]
  [-0.06681027 -0.          0.         ... -4.45677866  4.68829209  0.51693428]
  [ 0.00558631 -0.         -0.         ...  0.39346043  0.51693428  2.46023583]]]
e_a, e_b
[-0.64779702  0.19349164  0.28219897  0.6955765   0.72604566  0.72604566  1.13966845  1.13966845  1.14535939  1.58477587  2.22883565  2.89237123  3.2533943
  3.2533943   3.51390079  3.51390079  3.644021    3.644021    3.74669656  4.33713042  4.33713042  4.37016252  4.37016252  5.16984363  6.76733377  6.90574772
  6.90574772  9.8126221 ] [-0.64779702  0.19349164  0.28219897  0.6955765   0.72604566  0.72604566  1.13966845  1.13966845  1.14535939  1.58477587  2.22883565  2.89237123  3.2533943
  3.2533943   3.51390079  3.51390079  3.644021    3.644021    3.74669656  4.33713042  4.33713042  4.37016252  4.37016252  5.16984363  6.76733377  6.90574772
  6.90574772  9.8126221 ]
P_a, P_b
[[ 0.9146026   0.         -0.         -0.25056735 -0.00777056 -0.          0.          0.          0.         -0.0882525   0.          0.         -0.00209823
   0.07308602 -0.          0.         -0.          0.         -0.01776562 -0.0363467   0.          0.         -0.01585757  0.          0.          0.0138957
  -0.00664755 -0.00062139]
 [ 0.          0.         -0.         -0.         -0.         -0.          0.          0.          0.         -0.          0.          0.         -0.
   0.         -0.          0.         -0.          0.         -0.         -0.          0.          0.         -0.          0.          0.          0.
  -0.         -0.        ]
 [-0.         -0.          0.          0.          0.          0.         -0.         -0.         -0.          0.         -0.         -0.          0.
  -0.          0.         -0.          0.         -0.          0.          0.         -0.         -0.          0.         -0.         -0.         -0.
   0.          0.        ]
 [-0.25056735 -0.          0.          0.0686462   0.00212885  0.         -0.         -0.         -0.          0.02417793 -0.         -0.          0.00057484
  -0.02002287  0.         -0.          0.         -0.          0.00486712  0.00995765 -0.         -0.          0.00434439 -0.         -0.         -0.00380691
   0.00182118  0.00017024]
 [-0.00777056 -0.          0.          0.00212885  0.00006602  0.         -0.         -0.         -0.          0.0007498  -0.         -0.          0.00001783
  -0.00062095  0.         -0.          0.         -0.          0.00015094  0.00030881 -0.         -0.          0.00013473 -0.         -0.         -0.00011806
   0.00005648  0.00000528]
 [-0.         -0.          0.          0.          0.          0.         -0.         -0.         -0.          0.         -0.         -0.          0.
  -0.          0.         -0.          0.         -0.          0.          0.         -0.         -0.          0.         -0.         -0.         -0.
   0.          0.        ]
 [ 0.          0.         -0.         -0.         -0.         -0.          0.          0.          0.         -0.          0.          0.         -0.
   0.         -0.          0.         -0.          0.         -0.         -0.          0.          0.         -0.          0.          0.          0.
  -0.         -0.        ]
 [ 0.          0.         -0.         -0.         -0.         -0.          0.          0.          0.         -0.          0.          0.         -0.
   0.         -0.          0.         -0.          0.         -0.         -0.          0.          0.         -0.          0.          0.          0.
  -0.         -0.        ]
 [ 0.          0.         -0.         -0.         -0.         -0.          0.          0.          0.         -0.          0.          0.         -0.
   0.         -0.          0.         -0.          0.         -0.         -0.          0.          0.         -0.          0.          0.          0.
  -0.         -0.        ]
 [-0.0882525  -0.          0.          0.02417793  0.0007498   0.         -0.         -0.         -0.          0.00851572 -0.         -0.          0.00020246
  -0.00705227  0.         -0.          0.         -0.          0.00171425  0.00350719 -0.         -0.          0.00153014 -0.         -0.         -0.00134083
   0.00064144  0.00005996]
 [ 0.          0.         -0.         -0.         -0.         -0.          0.          0.          0.         -0.          0.          0.         -0.
   0.         -0.          0.         -0.          0.         -0.         -0.          0.          0.         -0.          0.          0.          0.
  -0.         -0.        ]
 [ 0.          0.         -0.         -0.         -0.         -0.          0.          0.          0.         -0.          0.          0.         -0.
   0.         -0.          0.         -0.          0.         -0.         -0.          0.          0.         -0.          0.          0.          0.
  -0.         -0.        ]
 [-0.00209823 -0.          0.          0.00057484  0.00001783  0.         -0.         -0.         -0.          0.00020246 -0.         -0.          0.00000481
  -0.00016767  0.         -0.          0.         -0.          0.00004076  0.00008338 -0.         -0.          0.00003638 -0.         -0.         -0.00003188
   0.00001525  0.00000143]
 [ 0.07308602  0.         -0.         -0.02002287 -0.00062095 -0.          0.          0.          0.         -0.00705227  0.          0.         -0.00016767
   0.00584031 -0.          0.         -0.          0.         -0.00141965 -0.00290447  0.          0.         -0.00126718  0.          0.          0.00111041
  -0.00053121 -0.00004966]
 [-0.         -0.          0.          0.          0.          0.         -0.         -0.         -0.          0.         -0.         -0.          0.
  -0.          0.         -0.          0.         -0.          0.          0.         -0.         -0.          0.         -0.         -0.         -0.
   0.          0.        ]
 [ 0.          0.         -0.         -0.         -0.         -0.          0.          0.          0.         -0.          0.          0.         -0.
   0.         -0.          0.         -0.          0.         -0.         -0.          0.          0.         -0.          0.          0.          0.
  -0.         -0.        ]
 [-0.         -0.          0.          0.          0.          0.         -0.         -0.         -0.          0.         -0.         -0.          0.
  -0.          0.         -0.          0.         -0.          0.          0.         -0.         -0.          0.         -0.         -0.         -0.
   0.          0.        ]
 [ 0.          0.         -0.         -0.         -0.         -0.          0.          0.          0.         -0.          0.          0.         -0.
   0.         -0.          0.         -0.          0.         -0.         -0.          0.          0.         -0.          0.          0.          0.
  -0.         -0.        ]
 [-0.01776562 -0.          0.          0.00486712  0.00015094  0.         -0.         -0.         -0.          0.00171425 -0.         -0.          0.00004076
  -0.00141965  0.         -0.          0.         -0.          0.00034509  0.00070601 -0.         -0.          0.00030802 -0.         -0.         -0.00026992
   0.00012912  0.00001207]
 [-0.0363467  -0.          0.          0.00995765  0.00030881  0.         -0.         -0.         -0.          0.00350719 -0.         -0.          0.00008338
  -0.00290447  0.         -0.          0.         -0.          0.00070601  0.00144443 -0.         -0.          0.00063019 -0.         -0.         -0.00055222
   0.00026418  0.00002469]
 [ 0.          0.         -0.         -0.         -0.         -0.          0.          0.          0.         -0.          0.          0.         -0.
   0.         -0.          0.         -0.          0.         -0.         -0.          0.          0.         -0.          0.          0.          0.
  -0.         -0.        ]
 [ 0.          0.         -0.         -0.         -0.         -0.          0.          0.          0.         -0.          0.          0.         -0.
   0.         -0.          0.         -0.          0.         -0.         -0.          0.          0.         -0.          0.          0.          0.
  -0.         -0.        ]
 [-0.01585757 -0.          0.          0.00434439  0.00013473  0.         -0.         -0.         -0.          0.00153014 -0.         -0.          0.00003638
  -0.00126718  0.         -0.          0.         -0.          0.00030802  0.00063019 -0.         -0.          0.00027494 -0.         -0.         -0.00024093
   0.00011526  0.00001077]
 [ 0.          0.         -0.         -0.         -0.         -0.          0.          0.          0.         -0.          0.          0.         -0.
   0.         -0.          0.         -0.          0.         -0.         -0.          0.          0.         -0.          0.          0.          0.
  -0.         -0.        ]
 [ 0.          0.         -0.         -0.         -0.         -0.          0.          0.          0.         -0.          0.          0.         -0.
   0.         -0.          0.         -0.          0.         -0.         -0.          0.          0.         -0.          0.          0.          0.
  -0.         -0.        ]
 [ 0.0138957   0.         -0.         -0.00380691 -0.00011806 -0.          0.          0.          0.         -0.00134083  0.          0.         -0.00003188
   0.00111041 -0.          0.         -0.          0.         -0.00026992 -0.00055222  0.          0.         -0.00024093  0.          0.          0.00021112
  -0.000101   -0.00000944]
 [-0.00664755 -0.          0.          0.00182118  0.00005648  0.         -0.         -0.         -0.          0.00064144 -0.         -0.          0.00001525
  -0.00053121  0.         -0.          0.         -0.          0.00012912  0.00026418 -0.         -0.          0.00011526 -0.         -0.         -0.000101
   0.00004832  0.00000452]
 [-0.00062139 -0.          0.          0.00017024  0.00000528  0.         -0.         -0.         -0.          0.00005996 -0.         -0.          0.00000143
  -0.00004966  0.         -0.          0.         -0.          0.00001207  0.00002469 -0.         -0.          0.00001077 -0.         -0.         -0.00000944
   0.00000452  0.00000042]] 
 [[ 0.9146026   0.          0.          0.25056735 -0.00777056 -0.         -0.         -0.          0.         -0.0882525   0.          0.          0.00209823
   0.07308602 -0.          0.          0.          0.          0.01776562 -0.0363467   0.          0.         -0.01585757 -0.         -0.         -0.0138957
   0.00664755  0.00062139]
 [ 0.          0.          0.          0.         -0.         -0.         -0.         -0.          0.         -0.          0.          0.          0.
   0.         -0.          0.          0.          0.          0.         -0.          0.          0.         -0.         -0.         -0.         -0.
   0.          0.        ]
 [ 0.          0.          0.          0.         -0.         -0.         -0.         -0.          0.         -0.          0.          0.          0.
   0.         -0.          0.          0.          0.          0.         -0.          0.          0.         -0.         -0.         -0.         -0.
   0.          0.        ]
 [ 0.25056735  0.          0.          0.0686462  -0.00212885 -0.         -0.         -0.          0.         -0.02417793  0.          0.          0.00057484
   0.02002287 -0.          0.          0.          0.          0.00486712 -0.00995765  0.          0.         -0.00434439 -0.         -0.         -0.00380691
   0.00182118  0.00017024]
 [-0.00777056 -0.         -0.         -0.00212885  0.00006602  0.          0.          0.         -0.          0.0007498  -0.         -0.         -0.00001783
  -0.00062095  0.         -0.         -0.         -0.         -0.00015094  0.00030881 -0.         -0.          0.00013473  0.          0.          0.00011806
  -0.00005648 -0.00000528]
 [-0.         -0.         -0.         -0.          0.          0.          0.          0.         -0.          0.         -0.         -0.         -0.
  -0.          0.         -0.         -0.         -0.         -0.          0.         -0.         -0.          0.          0.          0.          0.
  -0.         -0.        ]
 [-0.         -0.         -0.         -0.          0.          0.          0.          0.         -0.          0.         -0.         -0.         -0.
  -0.          0.         -0.         -0.         -0.         -0.          0.         -0.         -0.          0.          0.          0.          0.
  -0.         -0.        ]
 [-0.         -0.         -0.         -0.          0.          0.          0.          0.         -0.          0.         -0.         -0.         -0.
  -0.          0.         -0.         -0.         -0.         -0.          0.         -0.         -0.          0.          0.          0.          0.
  -0.         -0.        ]
 [ 0.          0.          0.          0.         -0.         -0.         -0.         -0.          0.         -0.          0.          0.          0.
   0.         -0.          0.          0.          0.          0.         -0.          0.          0.         -0.         -0.         -0.         -0.
   0.          0.        ]
 [-0.0882525  -0.         -0.         -0.02417793  0.0007498   0.          0.          0.         -0.          0.00851572 -0.         -0.         -0.00020246
  -0.00705227  0.         -0.         -0.         -0.         -0.00171425  0.00350719 -0.         -0.          0.00153014  0.          0.          0.00134083
  -0.00064144 -0.00005996]
 [ 0.          0.          0.          0.         -0.         -0.         -0.         -0.          0.         -0.          0.          0.          0.
   0.         -0.          0.          0.          0.          0.         -0.          0.          0.         -0.         -0.         -0.         -0.
   0.          0.        ]
 [ 0.          0.          0.          0.         -0.         -0.         -0.         -0.          0.         -0.          0.          0.          0.
   0.         -0.          0.          0.          0.          0.         -0.          0.          0.         -0.         -0.         -0.         -0.
   0.          0.        ]
 [ 0.00209823  0.          0.          0.00057484 -0.00001783 -0.         -0.         -0.          0.         -0.00020246  0.          0.          0.00000481
   0.00016767 -0.          0.          0.          0.          0.00004076 -0.00008338  0.          0.         -0.00003638 -0.         -0.         -0.00003188
   0.00001525  0.00000143]
 [ 0.07308602  0.          0.          0.02002287 -0.00062095 -0.         -0.         -0.          0.         -0.00705227  0.          0.          0.00016767
   0.00584031 -0.          0.          0.          0.          0.00141965 -0.00290447  0.          0.         -0.00126718 -0.         -0.         -0.00111041
   0.00053121  0.00004966]
 [-0.         -0.         -0.         -0.          0.          0.          0.          0.         -0.          0.         -0.         -0.         -0.
  -0.          0.         -0.         -0.         -0.         -0.          0.         -0.         -0.          0.          0.          0.          0.
  -0.         -0.        ]
 [ 0.          0.          0.          0.         -0.         -0.         -0.         -0.          0.         -0.          0.          0.          0.
   0.         -0.          0.          0.          0.          0.         -0.          0.          0.         -0.         -0.         -0.         -0.
   0.          0.        ]
 [ 0.          0.          0.          0.         -0.         -0.         -0.         -0.          0.         -0.          0.          0.          0.
   0.         -0.          0.          0.          0.          0.         -0.          0.          0.         -0.         -0.         -0.         -0.
   0.          0.        ]
 [ 0.          0.          0.          0.         -0.         -0.         -0.         -0.          0.         -0.          0.          0.          0.
   0.         -0.          0.          0.          0.          0.         -0.          0.          0.         -0.         -0.         -0.         -0.
   0.          0.        ]
 [ 0.01776562  0.          0.          0.00486712 -0.00015094 -0.         -0.         -0.          0.         -0.00171425  0.          0.          0.00004076
   0.00141965 -0.          0.          0.          0.          0.00034509 -0.00070601  0.          0.         -0.00030802 -0.         -0.         -0.00026992
   0.00012912  0.00001207]
 [-0.0363467  -0.         -0.         -0.00995765  0.00030881  0.          0.          0.         -0.          0.00350719 -0.         -0.         -0.00008338
  -0.00290447  0.         -0.         -0.         -0.         -0.00070601  0.00144443 -0.         -0.          0.00063019  0.          0.          0.00055222
  -0.00026418 -0.00002469]
 [ 0.          0.          0.          0.         -0.         -0.         -0.         -0.          0.         -0.          0.          0.          0.
   0.         -0.          0.          0.          0.          0.         -0.          0.          0.         -0.         -0.         -0.         -0.
   0.          0.        ]
 [ 0.          0.          0.          0.         -0.         -0.         -0.         -0.          0.         -0.          0.          0.          0.
   0.         -0.          0.          0.          0.          0.         -0.          0.          0.         -0.         -0.         -0.         -0.
   0.          0.        ]
 [-0.01585757 -0.         -0.         -0.00434439  0.00013473  0.          0.          0.         -0.          0.00153014 -0.         -0.         -0.00003638
  -0.00126718  0.         -0.         -0.         -0.         -0.00030802  0.00063019 -0.         -0.          0.00027494  0.          0.          0.00024093
  -0.00011526 -0.00001077]
 [-0.         -0.         -0.         -0.          0.          0.          0.          0.         -0.          0.         -0.         -0.         -0.
  -0.          0.         -0.         -0.         -0.         -0.          0.         -0.         -0.          0.          0.          0.          0.
  -0.         -0.        ]
 [-0.         -0.         -0.         -0.          0.          0.          0.          0.         -0.          0.         -0.         -0.         -0.
  -0.          0.         -0.         -0.         -0.         -0.          0.         -0.         -0.          0.          0.          0.          0.
  -0.         -0.        ]
 [-0.0138957  -0.         -0.         -0.00380691  0.00011806  0.          0.          0.         -0.          0.00134083 -0.         -0.         -0.00003188
  -0.00111041  0.         -0.         -0.         -0.         -0.00026992  0.00055222 -0.         -0.          0.00024093  0.          0.          0.00021112
  -0.000101   -0.00000944]
 [ 0.00664755  0.          0.          0.00182118 -0.00005648 -0.         -0.         -0.          0.         -0.00064144  0.          0.          0.00001525
   0.00053121 -0.          0.          0.          0.          0.00012912 -0.00026418  0.          0.         -0.00011526 -0.         -0.         -0.000101
   0.00004832  0.00000452]
 [ 0.00062139  0.          0.          0.00017024 -0.00000528 -0.         -0.         -0.          0.         -0.00005996  0.          0.          0.00000143
   0.00004966 -0.          0.          0.          0.          0.00001207 -0.00002469  0.          0.         -0.00001077 -0.         -0.         -0.00000944
   0.00000452  0.00000042]]

***************
SUHF converged at cycle 47
Final E(SUHF) =     -1.07617196, delta E = -5.22472e-09
