#INFO: **** input file is /share/home/srwang/ExSCF/test/pytest/scan_h2/scan_suhf.py ****
#import phf
from pyscf import lib
#import scipy
import numpy as np
import sys, os, contextlib

from pyphf import util, sudft

#xyz = 'h2.xyz' #sys.argv[1]
fch = 'test_uhf.fchk' #sys.argv[2]
#bas = '../h2.bas'
bas = 'cc-pvtz'

lib.num_threads(8)

for r in np.arange(0.5, 2.55, 0.1):
    output = 'suhf/suhf_%.1f_diis.out' % r
    os.system("echo '\n' > %s" % output)
    with open(output, 'w', encoding='utf-8') as f:
        with contextlib.redirect_stdout(f):
            xyz = '''H 0.0 0.0 0.0; H 0.0 0.0 %f'''%r
            mf = util.guess_from_fchk(xyz, bas, fch)
            #mf = util.guess(xyz, bas)
            #f.flush()
            mf2 = util.SUHF(mf)
            #mf2.cut_no = False
            mf2.debug = False
            #mf2.max_cycle = 50
            mf2.diis_on = True
            #mf2.output = 'sudft_%.1f.out'%r
            mf2.kernel()
            
            #mf3 = sudft.SUDFT(mf2)
            #mf3.suxc = 'TPSS'
            #mf3.kernel()
                    
#INFO: ******************** input file end ********************


System: uname_result(system='Linux', node='xcluster', release='3.10.0-693.el7.x86_64', version='#1 SMP Thu Jul 6 19:56:57 EDT 2017', machine='x86_64', processor='x86_64')  Threads 8
Python 3.7.4 (default, Aug 13 2019, 20:35:49) 
[GCC 7.3.0]
numpy 1.17.2  scipy 1.4.1
Date: Mon Nov 23 19:28:22 2020
PySCF version 1.7.5
PySCF path  /share/home/srwang/pyscf-1.7.5/pyscf

[CONFIG] conf_file None
[INPUT] verbose = 4
[INPUT] num. atoms = 2
[INPUT] num. electrons = 2
[INPUT] charge = 0
[INPUT] spin (= nelec alpha-beta = 2S) = 0
[INPUT] symmetry False subgroup None
[INPUT] Mole.unit = angstrom
[INPUT]  1 H      0.000000000000   0.000000000000   0.000000000000 AA    0.000000000000   0.000000000000   0.000000000000 Bohr
[INPUT]  2 H      0.000000000000   0.000000000000   2.300000000000 AA    0.000000000000   0.000000000000   4.346370086500 Bohr

nuclear repulsion = 0.230077048226087
number of shells = 12
number of NR pGTOs = 32
number of NR cGTOs = 28
basis = cc-pvtz
ecp = {}
CPU time:       869.42


******** <class 'pyscf.scf.uhf.UHF'> ********
method = UHF
initial guess = minao
damping factor = 0
level_shift factor = 0
DIIS = <class 'pyscf.scf.diis.CDIIS'>
diis_start_cycle = 1
diis_space = 8
SCF conv_tol = 1e-09
SCF conv_tol_grad = None
SCF max_cycles = 1
direct_scf = True
direct_scf_tol = 1e-13
chkfile to save SCF result = /share/home/srwang/ExSCF/test/pytest/scan_h2/tmpemfqh32i
max_memory 4000 MB (current use 125 MB)
number electrons alpha = 1  beta = 1
Set gradient conv threshold to 3.16228e-05
init E= -0.6483090022046
  alpha nocc = 1  HOMO = -0.232375855419328  LUMO = -0.128481373464624
  beta  nocc = 1  HOMO = -0.231076403221375  LUMO = -0.128316113913722
cycle= 1 E= -0.888187033621047  delta_E= -0.24  |g|= 0.032  |ddm|= 0.458
SCF not converged.
SCF energy = -0.888187033621047 after 1 cycles  <S^2> = 2.0537576e-07  2S+1 = 1.0000004


******** <class 'pyscf.scf.uhf.UHF'> ********
method = UHF
initial guess = minao
damping factor = 0
level_shift factor = 0
DIIS = <class 'pyscf.scf.diis.CDIIS'>
diis_start_cycle = 1
diis_space = 8
SCF conv_tol = 1e-09
SCF conv_tol_grad = None
SCF max_cycles = 1
direct_scf = True
direct_scf_tol = 1e-13
chkfile to save SCF result = /share/home/srwang/ExSCF/test/pytest/scan_h2/tmpemfqh32i
max_memory 4000 MB (current use 125 MB)
number electrons alpha = 1  beta = 1
Set gradient conv threshold to 3.16228e-05
init E= -0.859643029078367
  alpha nocc = 1  HOMO = -0.492045276371876  LUMO = -0.0426777033675119
  beta  nocc = 1  HOMO = -0.492045276371875  LUMO = -0.0426777033675133
cycle= 1 E= -0.99273361326367  delta_E= -0.133  |g|= 0.0533  |ddm|= 0.129
SCF not converged.
SCF energy = -0.99273361326367 after 1 cycles  <S^2> = 0.83099263  2S+1 = 2.0794159

******** <class 'pyphf.util.SUHF'> ********
max_cycle = 70
verbose: normal
DIIS: <class 'pyscf.scf.diis.CDIIS'>
diis_start_cyc = 40
SVD: S^(-1/2)
[[-0.19077967  0.28868982  0.07521358 -0.         -0.         -0.          0.         -0.1117935  -0.03104389 -0.         -0.         -0.          0.
  -0.         -0.         -0.         -0.          0.03292534 -0.65480524  0.6614934   0.11676971  0.          0.          0.         -0.         -0.36977714
   0.8542036  -0.74979918]
 [-0.26252421  0.32212049  0.06426977 -0.          0.         -0.         -0.         -0.08477506 -0.0069514   0.          0.          0.         -0.
   0.          0.          0.          0.          0.00710583 -0.04233118 -0.19095141 -0.03111933 -0.         -0.          0.          0.          0.29022828
  -1.67357194  1.65696108]
 [-0.28154511  0.21803104  0.02751584  0.         -0.         -0.          0.         -0.00536072  0.01054035  0.         -0.         -0.          0.
   0.         -0.          0.         -0.         -0.01578997  0.49456143 -0.59839415 -0.12178014 -0.         -0.         -0.         -0.          0.23171582
   0.99127795 -1.54146824]
 [ 0.          0.         -0.          0.13404426 -0.36360299 -0.16593753  0.36319914 -0.          0.          0.00006908  0.00954094  0.          0.
  -0.         -0.          0.00009825 -0.00961544 -0.          0.          0.          0.         -0.4506409  -0.66457721 -0.33461827 -0.73642185 -0.
  -0.         -0.        ]
 [ 0.         -0.          0.         -0.36360299 -0.13404426  0.36319914  0.16593753  0.          0.          0.00954094 -0.00006908  0.         -0.
  -0.          0.         -0.00961544 -0.00009825 -0.         -0.         -0.          0.         -0.66457721  0.4506409  -0.73642185  0.33461827 -0.
  -0.         -0.        ]
 [-0.03470744 -0.06521431 -0.3544823  -0.         -0.         -0.          0.         -0.42304159 -0.04743473  0.          0.          0.          0.
  -0.         -0.          0.          0.          0.04664374 -0.14054408 -0.31321565 -0.78810671 -0.         -0.         -0.         -0.         -0.76593036
   0.0010705   0.14565329]
 [-0.         -0.         -0.          0.13686739 -0.37126089 -0.16252297  0.35572546 -0.          0.          0.00000056  0.00007716  0.          0.
   0.         -0.          0.00000052 -0.00005042 -0.         -0.         -0.         -0.          0.44142611  0.6509878   0.34171162  0.75203276  0.
   0.          0.        ]
 [-0.         -0.          0.         -0.37126089 -0.13686739  0.35572546  0.16252297  0.         -0.          0.00007716 -0.00000056 -0.         -0.
  -0.          0.         -0.00005042 -0.00000052  0.          0.         -0.         -0.          0.6509878  -0.44142611  0.75203276 -0.34171162  0.
   0.          0.        ]
 [-0.06687552 -0.09203972 -0.39576462 -0.         -0.          0.          0.         -0.36307066 -0.00169039 -0.         -0.         -0.          0.
   0.         -0.         -0.         -0.         -0.00054421  0.03143861  0.21270669  0.71698356  0.          0.         -0.          0.          0.94166963
  -0.04181771 -0.30538209]
 [ 0.          0.          0.         -0.         -0.          0.          0.          0.          0.         -0.         -0.          0.70709047 -0.
   0.70712309 -0.          0.         -0.          0.          0.          0.         -0.          0.         -0.          0.         -0.         -0.
  -0.          0.        ]
 [-0.         -0.          0.         -0.00494932 -0.00182459 -0.00496279 -0.00226739  0.         -0.         -0.70671523  0.00511697 -0.          0.
   0.         -0.         -0.70731459 -0.00722735 -0.         -0.         -0.         -0.         -0.00890098  0.00603564  0.00995753 -0.00452454 -0.
  -0.         -0.        ]
 [-0.00930264 -0.00758936 -0.02132754  0.         -0.          0.          0.          0.03360643  0.70294587  0.          0.         -0.          0.
  -0.          0.          0.         -0.          0.70621131 -0.04616051 -0.02144733 -0.04478208 -0.         -0.         -0.         -0.          0.07081426
   0.00628187 -0.02603531]
 [-0.         -0.         -0.          0.00182459 -0.00494932  0.00226739 -0.00496279 -0.         -0.         -0.00511697 -0.70671523 -0.         -0.
  -0.          0.          0.00722735 -0.70731459 -0.          0.          0.          0.         -0.00603564 -0.00890098  0.00452454  0.00995753  0.
   0.          0.        ]
 [ 0.          0.          0.          0.          0.          0.          0.          0.          0.          0.         -0.          0.          0.70709047
   0.         -0.70712309 -0.          0.          0.          0.          0.          0.          0.         -0.         -0.          0.          0.
   0.          0.        ]
 [-0.19077967 -0.28868982  0.07521358  0.          0.         -0.         -0.          0.1117935  -0.03104389 -0.          0.          0.         -0.
   0.          0.         -0.         -0.         -0.03292534 -0.65480524 -0.6614934   0.11676971 -0.         -0.         -0.         -0.          0.36977714
   0.8542036   0.74979918]
 [-0.26252421 -0.32212049  0.06426977  0.          0.         -0.         -0.          0.08477506 -0.0069514   0.         -0.         -0.          0.
  -0.         -0.          0.          0.         -0.00710583 -0.04233118  0.19095141 -0.03111933  0.          0.          0.          0.         -0.29022828
  -1.67357194 -1.65696108]
 [-0.28154511 -0.21803104  0.02751584 -0.         -0.          0.          0.          0.00536072  0.01054035  0.          0.          0.         -0.
  -0.          0.         -0.         -0.          0.01578997  0.49456143  0.59839415 -0.12178014 -0.          0.         -0.         -0.         -0.23171582
   0.99127795  1.54146824]
 [-0.         -0.         -0.          0.13404426 -0.36360299  0.16593753 -0.36319914 -0.         -0.          0.00006908  0.00954094  0.          0.
   0.         -0.         -0.00009825  0.00961544 -0.          0.          0.          0.         -0.4506409  -0.66457721  0.33461827  0.73642185  0.
   0.          0.        ]
 [-0.         -0.          0.         -0.36360299 -0.13404426 -0.36319914 -0.16593753  0.          0.          0.00954094 -0.00006908  0.         -0.
  -0.          0.          0.00961544  0.00009825  0.         -0.         -0.          0.         -0.66457721  0.4506409   0.73642185 -0.33461827  0.
   0.          0.        ]
 [ 0.03470744 -0.06521431  0.3544823  -0.         -0.         -0.          0.         -0.42304159  0.04743473 -0.          0.          0.         -0.
   0.          0.         -0.         -0.          0.04664374  0.14054408 -0.31321565  0.78810671  0.          0.          0.          0.         -0.76593036
  -0.0010705   0.14565329]
 [-0.         -0.         -0.          0.13686739 -0.37126089  0.16252297 -0.35572546 -0.         -0.          0.00000056  0.00007716 -0.          0.
  -0.          0.         -0.00000052  0.00005042 -0.          0.         -0.         -0.          0.44142611  0.6509878  -0.34171162 -0.75203276 -0.
  -0.         -0.        ]
 [-0.         -0.          0.         -0.37126089 -0.13686739 -0.35572546 -0.16252297  0.          0.          0.00007716 -0.00000056  0.         -0.
   0.          0.          0.00005042  0.00000052  0.          0.          0.         -0.          0.6509878  -0.44142611 -0.75203276  0.34171162 -0.
  -0.          0.        ]
 [ 0.06687552 -0.09203972  0.39576462 -0.          0.         -0.         -0.         -0.36307066  0.00169039  0.         -0.         -0.          0.
  -0.         -0.          0.          0.         -0.00054421 -0.03143861  0.21270669 -0.71698356 -0.         -0.         -0.         -0.          0.94166963
   0.04181771 -0.30538209]
 [ 0.          0.          0.          0.         -0.         -0.          0.          0.         -0.         -0.         -0.          0.70709047 -0.
  -0.70712309 -0.          0.          0.         -0.          0.          0.          0.          0.          0.          0.         -0.          0.
   0.          0.        ]
 [ 0.          0.         -0.          0.00494932  0.00182459 -0.00496279 -0.00226739 -0.          0.          0.70671523 -0.00511697  0.         -0.
  -0.          0.         -0.70731459 -0.00722735  0.          0.          0.         -0.          0.00890098 -0.00603564  0.00995753 -0.00452454  0.
   0.          0.        ]
 [-0.00930264  0.00758936 -0.02132754 -0.          0.          0.         -0.         -0.03360643  0.70294587  0.         -0.          0.         -0.
   0.          0.          0.          0.         -0.70621131 -0.04616051  0.02144733 -0.04478208  0.         -0.          0.         -0.         -0.07081426
   0.00628187  0.02603531]
 [ 0.          0.          0.         -0.00182459  0.00494932  0.00226739 -0.00496279  0.         -0.          0.00511697  0.70671523  0.          0.
  -0.         -0.          0.00722735 -0.70731459 -0.         -0.         -0.         -0.          0.00603564  0.00890098  0.00452454  0.00995753  0.
   0.          0.        ]
 [ 0.          0.          0.         -0.          0.          0.         -0.          0.          0.         -0.         -0.          0.          0.70709047
  -0.          0.70712309  0.          0.          0.          0.          0.          0.          0.          0.          0.          0.          0.
   0.          0.        ]]
C (ortho)
[[-0.83394381 -0.5194119  -0.00940244  0.14898307 -0.08402054  0.         -0.         -0.          0.          0.00996038  0.04326358  0.03320912 -0.00156799
  -0.         -0.         -0.         -0.         -0.          0.         -0.         -0.          0.00143559 -0.04803164  0.         -0.          0.
  -0.          0.00445392]
 [ 0.52921275 -0.77467234 -0.0608411   0.2588994   0.01003982  0.         -0.         -0.          0.         -0.16417984 -0.03614789  0.11988178 -0.00946862
  -0.         -0.          0.          0.         -0.         -0.          0.          0.          0.04028068 -0.00225041 -0.          0.          0.
   0.         -0.06807873]
 [ 0.0934002   0.02244304 -0.029582   -0.04869752 -0.87042293  0.         -0.         -0.         -0.          0.06769687  0.00878371  0.00000691  0.08863252
  -0.          0.         -0.         -0.         -0.          0.         -0.         -0.          0.03523749 -0.46322204  0.         -0.         -0.
  -0.          0.03947165]
 [-0.          0.          0.         -0.          0.          0.13569884 -0.79369147  0.17585131 -0.25188628 -0.         -0.         -0.          0.
   0.02562576 -0.00980439 -0.          0.          0.          0.          0.01411887 -0.0176428   0.          0.         -0.14241415 -0.44744894 -0.11563407
   0.14880288 -0.        ]
 [ 0.          0.          0.          0.         -0.         -0.79369147 -0.13569884 -0.25188628 -0.17585131  0.          0.          0.         -0.
   0.00980439  0.02562576  0.         -0.         -0.         -0.         -0.0176428  -0.01411887 -0.         -0.         -0.44744894  0.14241415 -0.14880288
  -0.11563407  0.        ]
 [-0.          0.         -0.          0.         -0.         -0.07569802  0.30315599  0.50821894 -0.62228927 -0.          0.          0.         -0.
   0.01269365 -0.00598799 -0.          0.         -0.         -0.         -0.01836241  0.01970031  0.         -0.          0.04133885  0.17436801 -0.26133311
   0.39434182  0.        ]
 [-0.         -0.         -0.         -0.          0.          0.30315599  0.07569802 -0.62228927 -0.50821894  0.         -0.         -0.          0.
   0.00598799  0.01269365  0.          0.          0.          0.          0.01970031  0.01836241  0.          0.          0.17436801 -0.04133885 -0.39434182
  -0.26133311 -0.        ]
 [-0.08620688  0.06747094  0.19161898 -0.21012099 -0.07036116  0.          0.         -0.          0.         -0.8096816   0.01387977 -0.04532111 -0.02141952
  -0.         -0.         -0.          0.         -0.         -0.          0.          0.          0.1197653  -0.02586996 -0.          0.          0.
  -0.         -0.47842865]
 [-0.00512529  0.00388099  0.02012098  0.01934843  0.02222071  0.          0.          0.          0.         -0.00405015  0.09211842  0.04829775  0.96058745
   0.          0.         -0.          0.         -0.          0.         -0.         -0.          0.20297398  0.15465924 -0.          0.          0.
   0.          0.00215739]
 [ 0.          0.          0.          0.          0.         -0.00124547 -0.00643774  0.0007064  -0.00277762 -0.          0.          0.          0.
  -0.83834743  0.00417412  0.         -0.         -0.         -0.         -0.16763945  0.51540715 -0.          0.         -0.0347405  -0.04397841 -0.01254395
   0.00768629  0.        ]
 [ 0.         -0.         -0.          0.         -0.         -0.00643774  0.00124547 -0.00277762 -0.0007064   0.          0.         -0.          0.
  -0.00417412 -0.83834743 -0.          0.          0.          0.          0.51540715  0.16763945 -0.         -0.         -0.04397841  0.0347405  -0.00768629
  -0.01254395  0.        ]
 [ 0.         -0.          0.         -0.         -0.         -0.         -0.         -0.         -0.          0.         -0.         -0.         -0.
  -0.         -0.         -0.00099215  0.71688957  0.3182996   0.6202852  -0.          0.          0.         -0.         -0.         -0.         -0.
   0.          0.        ]
 [-0.         -0.         -0.          0.         -0.         -0.          0.          0.          0.          0.          0.         -0.          0.
   0.         -0.          0.71688957  0.00099215  0.6202852  -0.3182996   0.         -0.          0.          0.         -0.          0.          0.
  -0.         -0.        ]
 [ 0.         -0.          0.         -0.         -0.          0.          0.         -0.          0.          0.         -0.         -0.         -0.
   0.         -0.         -0.00096488  0.69718537 -0.32729554 -0.63781601  0.         -0.          0.         -0.          0.          0.          0.
  -0.          0.        ]
 [-0.         -0.         -0.          0.         -0.          0.         -0.          0.         -0.          0.         -0.         -0.          0.
  -0.          0.         -0.69718537 -0.00096488  0.63781601 -0.32729554 -0.          0.         -0.          0.         -0.         -0.         -0.
   0.         -0.        ]
 [-0.          0.          0.          0.          0.          0.00048531  0.00276672  0.00227441 -0.00833151 -0.          0.          0.          0.
  -0.54288339  0.0121827   0.          0.          0.          0.          0.27321723 -0.79268412 -0.          0.          0.01496349  0.01963776 -0.03202081
   0.02039802  0.        ]
 [ 0.          0.          0.         -0.          0.          0.00276672 -0.00048531 -0.00833151 -0.00227441 -0.         -0.          0.         -0.
  -0.0121827  -0.54288339 -0.         -0.         -0.         -0.         -0.79268412 -0.27321723  0.          0.          0.01963776 -0.01496349 -0.02039802
  -0.03202081 -0.        ]
 [ 0.00365585  0.00705891 -0.03996849  0.03735343 -0.0035558  -0.          0.          0.          0.         -0.05802766 -0.02824686  0.07081279  0.20891322
   0.          0.          0.          0.         -0.         -0.         -0.         -0.         -0.95234566 -0.05093942  0.         -0.         -0.
   0.         -0.1858764 ]
 [ 0.02585866  0.17075778  0.5688242   0.54570278  0.04335473  0.          0.          0.          0.         -0.00560083  0.50788063  0.24238685 -0.05817464
   0.         -0.          0.          0.          0.         -0.          0.          0.         -0.00448646 -0.16324273  0.         -0.         -0.
  -0.          0.01276295]
 [-0.07554143  0.27141905 -0.5119413   0.4352829  -0.01533835  0.         -0.         -0.          0.         -0.03593471 -0.24085647  0.54476188 -0.03052485
  -0.         -0.         -0.          0.         -0.         -0.          0.          0.          0.1432656  -0.0167885  -0.          0.          0.
   0.         -0.30170769]
 [-0.00879932 -0.01753155 -0.10058056 -0.09665192  0.47438017 -0.          0.          0.          0.         -0.04497893 -0.06518864 -0.02804508  0.12451705
   0.         -0.         -0.         -0.         -0.          0.          0.         -0.          0.06139715 -0.85127118  0.         -0.         -0.
  -0.          0.0642239 ]
 [-0.          0.         -0.         -0.          0.          0.33144952  0.33522876  0.06230661  0.17636886 -0.         -0.          0.         -0.
   0.02845581  0.01879206 -0.          0.         -0.         -0.         -0.00865689 -0.03078058 -0.         -0.         -0.76325927 -0.24751789 -0.31082711
  -0.01209281  0.        ]
 [-0.          0.         -0.         -0.          0.          0.33522876 -0.33144952  0.17636886 -0.06230661  0.         -0.          0.         -0.
  -0.01879206  0.02845581  0.         -0.         -0.         -0.         -0.03078058  0.00865689 -0.         -0.         -0.24751789  0.76325927  0.01209281
  -0.31082711  0.        ]
 [-0.          0.         -0.         -0.          0.          0.10207698  0.14593915 -0.08035603 -0.46751601 -0.         -0.          0.         -0.
  -0.0120301  -0.0052899   0.         -0.         -0.          0.         -0.00330508 -0.03142462 -0.         -0.         -0.27979809 -0.14672154  0.7946033
  -0.10427857  0.        ]
 [-0.          0.          0.         -0.          0.          0.14593915 -0.10207698 -0.46751601  0.08035603  0.         -0.          0.         -0.
   0.0052899  -0.0120301  -0.         -0.         -0.         -0.         -0.03142462  0.00330508 -0.         -0.         -0.14672154  0.27979809  0.10427857
   0.7946033   0.        ]
 [ 0.03488429 -0.06232036  0.02320986 -0.00032107  0.04050333 -0.          0.          0.         -0.          0.49437702  0.14351589 -0.30841993 -0.00623195
  -0.         -0.          0.         -0.          0.          0.          0.         -0.          0.09667799 -0.05949095 -0.          0.          0.
   0.         -0.7871893 ]
 [-0.02437793  0.07286421  0.39190799  0.41161745 -0.02201918  0.          0.         -0.         -0.          0.00238165 -0.74527225 -0.33000177  0.0728656
   0.          0.         -0.         -0.         -0.          0.         -0.         -0.          0.01476045 -0.02689839 -0.         -0.          0.
   0.          0.00159055]
 [ 0.00359546  0.11245553 -0.45466781  0.44322666 -0.02167425  0.         -0.         -0.          0.         -0.24826382  0.30172246 -0.64404732  0.0071839
  -0.          0.         -0.          0.         -0.         -0.         -0.         -0.         -0.02738654  0.00862043 -0.         -0.          0.
  -0.          0.12391172]]
[[-0.83394381 -0.5194119  -0.00940244  0.14898307  0.08402054  0.         -0.          0.         -0.         -0.00996038  0.04326358  0.03320912 -0.00156799
  -0.          0.          0.          0.         -0.          0.          0.          0.          0.00143559  0.04803164 -0.         -0.         -0.
  -0.         -0.00445392]
 [-0.52921275  0.77467234  0.0608411  -0.2588994   0.01003982  0.          0.         -0.          0.         -0.16417984  0.03614789 -0.11988178  0.00946862
  -0.          0.          0.          0.          0.          0.          0.         -0.         -0.04028068 -0.00225041 -0.         -0.         -0.
  -0.         -0.06807873]
 [ 0.0934002   0.02244304 -0.029582   -0.04869752  0.87042293  0.          0.          0.         -0.         -0.06769687  0.00878371  0.00000691  0.08863252
   0.         -0.         -0.          0.         -0.         -0.         -0.         -0.          0.03523749  0.46322204 -0.         -0.         -0.
  -0.         -0.03947165]
 [ 0.          0.         -0.          0.          0.         -0.73355286 -0.33205501 -0.13425992  0.27630536 -0.         -0.          0.          0.
  -0.02670581  0.00629329 -0.         -0.         -0.         -0.         -0.0080335   0.02112045  0.         -0.          0.40526681 -0.23717327 -0.13457752
   0.13191826 -0.        ]
 [ 0.          0.          0.         -0.          0.          0.33205501 -0.73355286 -0.27630536 -0.13425992 -0.         -0.          0.          0.
  -0.00629329 -0.02670581 -0.         -0.          0.         -0.          0.02112045  0.0080335   0.         -0.         -0.23717327 -0.40526681 -0.13191826
  -0.13457752  0.        ]
 [ 0.         -0.          0.         -0.         -0.         -0.29355145 -0.10705742  0.29573982 -0.74703974 -0.          0.          0.         -0.
   0.01337979 -0.00423863  0.          0.         -0.         -0.         -0.01144244  0.02437932  0.          0.          0.1610384  -0.07861131  0.311944
  -0.35565631  0.        ]
 [-0.         -0.         -0.         -0.         -0.          0.10705742 -0.29355145  0.74703974  0.29573982  0.          0.         -0.         -0.
   0.00423863  0.01337979  0.          0.          0.         -0.          0.02437932  0.01144244  0.          0.         -0.07861131 -0.1610384   0.35565631
   0.311944   -0.        ]
 [ 0.08620688 -0.06747094 -0.19161898  0.21012099 -0.07036116  0.          0.          0.         -0.         -0.8096816  -0.01387977  0.04532111  0.02141952
  -0.          0.          0.         -0.          0.          0.          0.          0.         -0.1197653  -0.02586996 -0.          0.          0.
  -0.         -0.47842865]
 [-0.00512529  0.00388099  0.02012098  0.01934843 -0.02222071 -0.          0.          0.          0.          0.00405015  0.09211842  0.04829775  0.96058745
   0.         -0.         -0.          0.         -0.         -0.         -0.         -0.          0.20297398 -0.15465924 -0.          0.          0.
  -0.         -0.00215739]
 [ 0.          0.         -0.          0.          0.         -0.00463608 -0.00463708 -0.00208126  0.00197041  0.          0.         -0.         -0.
   0.83139115  0.10785447 -0.          0.         -0.          0.          0.00164201 -0.54198231 -0.         -0.          0.0352785  -0.04354803 -0.01346289
   0.00593132  0.        ]
 [ 0.         -0.          0.          0.          0.          0.00463708 -0.00463608 -0.00197041 -0.00208126  0.          0.          0.          0.
  -0.10785447  0.83139115 -0.         -0.         -0.          0.         -0.54198231 -0.00164201  0.         -0.         -0.04354803 -0.0352785  -0.00593132
  -0.01346289  0.        ]
 [-0.          0.          0.          0.          0.         -0.         -0.         -0.          0.          0.         -0.          0.          0.
   0.          0.          0.68146169 -0.22257942  0.6971497   0.00711777 -0.         -0.          0.          0.          0.         -0.         -0.
   0.          0.        ]
 [ 0.         -0.         -0.         -0.         -0.          0.         -0.         -0.         -0.         -0.         -0.          0.         -0.
  -0.          0.          0.22257942  0.68146169 -0.00711777  0.6971497   0.          0.          0.          0.         -0.          0.         -0.
  -0.          0.        ]
 [-0.          0.          0.          0.          0.          0.          0.          0.          0.          0.         -0.          0.          0.
  -0.         -0.         -0.66273125  0.21646167  0.71685289  0.00731893 -0.          0.          0.          0.         -0.          0.          0.
   0.          0.        ]
 [ 0.         -0.         -0.          0.          0.         -0.         -0.         -0.          0.          0.         -0.          0.         -0.
   0.         -0.          0.21646167  0.66273125  0.00731893 -0.71685289 -0.         -0.         -0.         -0.          0.         -0.         -0.
   0.          0.        ]
 [ 0.          0.         -0.          0.          0.         -0.00202039 -0.00195148  0.00616696 -0.00604612  0.          0.         -0.         -0.
  -0.53964511 -0.06044791  0.         -0.          0.          0.          0.01717663 -0.83827247 -0.         -0.          0.01587355 -0.01890973  0.03447099
  -0.01591107  0.        ]
 [-0.         -0.         -0.          0.          0.          0.00195148 -0.00202039  0.00604612  0.00616696  0.          0.         -0.         -0.
   0.06044791 -0.53964511  0.         -0.         -0.          0.         -0.83827247 -0.01717663 -0.          0.         -0.01890973 -0.01587355  0.01591107
   0.03447099 -0.        ]
 [-0.00365585 -0.00705891  0.03996849 -0.03735343 -0.0035558   0.          0.         -0.          0.         -0.05802766  0.02824686 -0.07081279 -0.20891322
   0.         -0.         -0.          0.         -0.         -0.         -0.         -0.          0.95234566 -0.05093942  0.          0.          0.
   0.         -0.1858764 ]
 [ 0.02585866  0.17075778  0.5688242   0.54570278 -0.04335473 -0.          0.          0.          0.          0.00560083  0.50788063  0.24238685 -0.05817464
   0.          0.          0.          0.         -0.          0.          0.         -0.         -0.00448646  0.16324273 -0.         -0.         -0.
  -0.         -0.01276295]
 [ 0.07554143 -0.27141905  0.5119413  -0.4352829  -0.01533835 -0.          0.         -0.          0.         -0.03593471  0.24085647 -0.54476188  0.03052485
  -0.          0.          0.         -0.          0.          0.          0.         -0.         -0.1432656  -0.0167885  -0.         -0.          0.
  -0.         -0.30170769]
 [-0.00879932 -0.01753155 -0.10058056 -0.09665192 -0.47438017 -0.         -0.         -0.          0.          0.04497893 -0.06518864 -0.02804508  0.12451705
   0.          0.         -0.          0.         -0.         -0.         -0.         -0.          0.06139715  0.85127118 -0.         -0.         -0.
  -0.         -0.0642239 ]
 [ 0.         -0.         -0.         -0.         -0.          0.09211445  0.46233325  0.184373   -0.03153863 -0.          0.         -0.          0.
  -0.02569042 -0.02242492 -0.         -0.          0.         -0.          0.01767236  0.0266472   0.         -0.          0.07391222 -0.7989786  -0.30638442
  -0.05374308  0.        ]
 [-0.          0.         -0.          0.          0.         -0.46233325  0.09211445  0.03153863  0.184373    0.         -0.         -0.         -0.
   0.02242492 -0.02569042  0.          0.          0.         -0.          0.0266472  -0.01767236  0.         -0.         -0.7989786  -0.07391222  0.05374308
  -0.30638442  0.        ]
 [ 0.         -0.         -0.         -0.         -0.         -0.06374339 -0.1662971   0.44740663 -0.15765665 -0.          0.         -0.          0.
  -0.01121562 -0.00684954 -0.         -0.         -0.          0.         -0.01277535 -0.02890019 -0.         -0.         -0.08171473  0.30518336 -0.8014092
  -0.00342251  0.        ]
 [ 0.          0.         -0.          0.         -0.          0.1662971  -0.06374339  0.15765665  0.44740663  0.         -0.         -0.         -0.
   0.00684954 -0.01121562 -0.          0.         -0.          0.         -0.02890019  0.01277535  0.         -0.          0.30518336  0.08171473  0.00342251
  -0.8014092   0.        ]
 [-0.03488429  0.06232036 -0.02320986  0.00032107  0.04050333  0.          0.          0.         -0.          0.49437702 -0.14351589  0.30841993  0.00623195
  -0.          0.          0.          0.         -0.          0.          0.          0.         -0.09667799 -0.05949095 -0.         -0.         -0.
  -0.         -0.7871893 ]
 [-0.02437793  0.07286421  0.39190799  0.41161745  0.02201918 -0.          0.          0.          0.         -0.00238165 -0.74527225 -0.33000177  0.0728656
   0.         -0.         -0.          0.         -0.         -0.         -0.         -0.          0.01476045  0.02689839 -0.         -0.         -0.
  -0.         -0.00159055]
 [-0.00359546 -0.11245553  0.45466781 -0.44322666 -0.02167425 -0.          0.         -0.          0.         -0.24826382 -0.30172246  0.64404732 -0.0071839
   0.         -0.         -0.         -0.         -0.         -0.         -0.         -0.          0.02738654  0.00862043  0.         -0.         -0.
   0.          0.12391172]]
grids:  [0.06237655 0.31939555 0.74529195 1.28265786 1.85893479 2.39630071 2.8221971  3.07921611] 
weights:  [0.15900941 0.34931531 0.49276925 0.56970235 0.56970235 0.49276925 0.34931531 0.15900941]
S = 0.0, Sz = 0.0
Wigner small d:  1
value : [1. 1. 1. 1. 1. 1. 1. 1.]
**** Start Cycle 1 ****
dm (ortho)
[[[ 0.69546228 -0.4413337  -0.07789052 ... -0.02909154  0.02032983 -0.00299841]
  [-0.4413337   0.28006613  0.04942858 ...  0.01846121 -0.01290111  0.00190276]
  [-0.07789052  0.04942858  0.0087236  ...  0.0032582  -0.0022769   0.00033582]
  ...
  [-0.02909154  0.01846121  0.0032582  ...  0.00121691 -0.00085041  0.00012542]
  [ 0.02032983 -0.01290111 -0.0022769  ... -0.00085041  0.00059428 -0.00008765]
  [-0.00299841  0.00190276  0.00033582 ...  0.00012542 -0.00008765  0.00001293]]

 [[ 0.69546228  0.4413337  -0.07789052 ...  0.02909154  0.02032983  0.00299841]
  [ 0.4413337   0.28006613 -0.04942858 ...  0.01846121  0.01290111  0.00190276]
  [-0.07789052 -0.04942858  0.0087236  ... -0.0032582  -0.0022769  -0.00033582]
  ...
  [ 0.02909154  0.01846121 -0.0032582  ...  0.00121691  0.00085041  0.00012542]
  [ 0.02032983  0.01290111 -0.0022769  ...  0.00085041  0.00059428  0.00008765]
  [ 0.00299841  0.00190276 -0.00033582 ...  0.00012542  0.00008765  0.00001293]]]
Fock (ortho)
 (array([[-0.25103734,  0.27847645,  0.17158938,  0.        ,  0.        , -0.        , -0.        , -0.07386301, -0.02147805, -0.        , -0.        ,
        -0.        , -0.        ,  0.        , -0.        , -0.        ,  0.        ,  0.00864358,  0.1618047 ,  0.02915983,  0.10745503,  0.        ,
         0.        ,  0.        ,  0.        ,  0.00189272, -0.08075982,  0.0111176 ],
       [ 0.27847645,  0.00670771, -0.0632721 ,  0.        ,  0.        ,  0.        , -0.        ,  0.26789706,  0.00773131,  0.        , -0.        ,
        -0.        , -0.        , -0.        , -0.        ,  0.        ,  0.        , -0.04767665,  0.09054187,  0.39402923, -0.00736521,  0.        ,
         0.        ,  0.        ,  0.        ,  0.03412315,  0.01052863, -0.16124262],
       [ 0.17158938, -0.0632721 ,  1.36157519, -0.        , -0.        ,  0.        ,  0.        , -0.04565063,  0.02835806, -0.        , -0.        ,
        -0.        ,  0.        ,  0.        ,  0.        , -0.        , -0.        ,  0.0030695 ,  0.23749542, -0.01455752,  1.29788553,  0.        ,
         0.        ,  0.        ,  0.        , -0.00125619,  0.05673135, -0.00005301],
       [ 0.        ,  0.        , -0.        ,  1.54961018,  0.        ,  0.06156057,  0.00464811, -0.        , -0.        , -0.00339123,  0.00127816,
        -0.        ,  0.        ,  0.        , -0.        , -0.00134296,  0.00047956,  0.        ,  0.        ,  0.        ,  0.        ,  0.79200935,
        -1.10534389, -0.00500503,  0.00494822,  0.        ,  0.        ,  0.        ],
       [ 0.        ,  0.        , -0.        ,  0.        ,  1.54961018, -0.00464811,  0.06156057,  0.        ,  0.        , -0.00127816, -0.00339123,
        -0.        , -0.        ,  0.        , -0.        , -0.00047956, -0.00134296, -0.        ,  0.        , -0.        , -0.        ,  1.10534389,
         0.79200935, -0.00494822, -0.00500503,  0.        ,  0.        ,  0.        ],
       [-0.        ,  0.        ,  0.        ,  0.06156057, -0.00464811,  1.62310436, -0.        , -0.        ,  0.        , -0.00046858,  0.0002182 ,
         0.        , -0.        ,  0.        ,  0.        , -0.01076167,  0.00478447, -0.        , -0.        ,  0.        , -0.        ,  0.00439197,
        -0.00722218, -0.8887928 ,  1.02211058, -0.        , -0.        , -0.        ],
       [-0.        , -0.        ,  0.        ,  0.00464811,  0.06156057, -0.        ,  1.62310436, -0.        , -0.        , -0.0002182 , -0.00046858,
         0.        ,  0.        , -0.        , -0.        , -0.00478447, -0.01076167,  0.        , -0.        ,  0.        ,  0.        ,  0.00722218,
         0.00439197, -1.02211058, -0.8887928 , -0.        , -0.        , -0.        ],
       [-0.07386301,  0.26789706, -0.04565063, -0.        ,  0.        , -0.        , -0.        ,  1.75061997, -0.00703076, -0.        , -0.        ,
        -0.        ,  0.        , -0.        ,  0.        , -0.        , -0.        , -0.00388856, -0.03236701,  0.54197685, -0.00994266, -0.        ,
         0.        , -0.        , -0.        ,  1.24614464, -0.00063017, -0.04000079],
       [-0.02147805,  0.00773131,  0.02835806, -0.        ,  0.        ,  0.        , -0.        , -0.00703076,  3.40316926,  0.        , -0.        ,
        -0.        , -0.        , -0.        , -0.        ,  0.        ,  0.        , -0.02461162, -0.13290237,  0.00250313, -0.06370538,  0.        ,
        -0.        ,  0.        , -0.        , -0.00180762,  0.02736706, -0.00034127],
       [-0.        ,  0.        , -0.        , -0.00339123, -0.00127816, -0.00046858, -0.0002182 , -0.        ,  0.        ,  3.44187324, -0.        ,
        -0.        , -0.        ,  0.        ,  0.        , -0.02547727, -0.00044483,  0.        , -0.        ,  0.        , -0.        ,  0.0237436 ,
        -0.01585048,  0.00022063, -0.00009833, -0.        ,  0.        ,  0.        ],
       [-0.        , -0.        , -0.        ,  0.00127816, -0.00339123,  0.0002182 , -0.00046858, -0.        , -0.        , -0.        ,  3.44187324,
        -0.        ,  0.        , -0.        , -0.        ,  0.00044483, -0.02547727,  0.        , -0.        , -0.        , -0.        ,  0.01585048,
         0.0237436 ,  0.00009833,  0.00022063,  0.        , -0.        , -0.        ],
       [-0.        , -0.        , -0.        , -0.        , -0.        ,  0.        ,  0.        , -0.        , -0.        , -0.        , -0.        ,
         3.44960161,  0.        , -0.02558948,  0.        , -0.        ,  0.        , -0.        ,  0.        ,  0.        , -0.        ,  0.        ,
        -0.        ,  0.        , -0.        , -0.        , -0.        ,  0.        ],
       [-0.        , -0.        ,  0.        ,  0.        , -0.        , -0.        ,  0.        ,  0.        , -0.        , -0.        ,  0.        ,
         0.        ,  3.44960161,  0.        ,  0.02558948,  0.        , -0.        ,  0.        , -0.        , -0.        ,  0.        ,  0.        ,
         0.        ,  0.        ,  0.        , -0.        , -0.        , -0.        ],
       [ 0.        , -0.        ,  0.        ,  0.        ,  0.        ,  0.        , -0.        , -0.        , -0.        ,  0.        , -0.        ,
        -0.02558948,  0.        ,  3.45070029,  0.        ,  0.        ,  0.        , -0.        ,  0.        ,  0.        , -0.        , -0.        ,
         0.        , -0.        , -0.        , -0.        , -0.        ,  0.        ],
       [-0.        , -0.        ,  0.        , -0.        , -0.        ,  0.        , -0.        ,  0.        , -0.        ,  0.        , -0.        ,
         0.        ,  0.02558948,  0.        ,  3.45070029, -0.        ,  0.        ,  0.        , -0.        , -0.        ,  0.        ,  0.        ,
        -0.        ,  0.        , -0.        , -0.        , -0.        , -0.        ],
       [-0.        ,  0.        , -0.        , -0.00134296, -0.00047956, -0.01076167, -0.00478447, -0.        ,  0.        , -0.02547727,  0.00044483,
        -0.        ,  0.        ,  0.        , -0.        ,  3.45917432,  0.        ,  0.        , -0.        ,  0.        , -0.        , -0.00035615,
         0.00024685, -0.02693012,  0.01257015, -0.        ,  0.        ,  0.        ],
       [ 0.        ,  0.        , -0.        ,  0.00047956, -0.00134296,  0.00478447, -0.01076167, -0.        ,  0.        , -0.00044483, -0.02547727,
         0.        , -0.        ,  0.        ,  0.        ,  0.        ,  3.45917432,  0.        ,  0.        ,  0.        ,  0.        , -0.00024685,
        -0.00035615, -0.01257015, -0.02693012, -0.        , -0.        ,  0.        ],
       [ 0.00864358, -0.04767665,  0.0030695 ,  0.        , -0.        , -0.        ,  0.        , -0.00388856, -0.02461162,  0.        ,  0.        ,
        -0.        ,  0.        , -0.        ,  0.        ,  0.        ,  0.        ,  3.48221412,  0.00690027, -0.1237321 ,  0.0019133 , -0.        ,
         0.        , -0.        ,  0.        ,  0.20117556, -0.00053932, -0.11109248],
       [ 0.1618047 ,  0.09054187,  0.23749542,  0.        ,  0.        , -0.        , -0.        , -0.03236701, -0.13290237, -0.        , -0.        ,
         0.        , -0.        ,  0.        , -0.        , -0.        ,  0.        ,  0.00690027,  1.18114737,  0.05091455,  0.37711942,  0.        ,
         0.        ,  0.        ,  0.        , -0.02043368, -0.95573988, -0.01151045],
       [ 0.02915983,  0.39402923, -0.01455752,  0.        , -0.        ,  0.        ,  0.        ,  0.54197685,  0.00250313,  0.        , -0.        ,
         0.        , -0.        ,  0.        , -0.        ,  0.        ,  0.        , -0.1237321 ,  0.05091455,  1.56301837, -0.01666822, -0.        ,
        -0.        , -0.        , -0.        ,  0.49826146, -0.01878926, -1.07600839],
       [ 0.10745503, -0.00736521,  1.29788553,  0.        , -0.        , -0.        ,  0.        , -0.00994266, -0.06370538, -0.        , -0.        ,
        -0.        ,  0.        , -0.        ,  0.        , -0.        ,  0.        ,  0.0019133 ,  0.37711942, -0.01666822,  3.01990261,  0.        ,
         0.        ,  0.        ,  0.        , -0.01513031,  0.22592602,  0.00358485],
       [ 0.        ,  0.        ,  0.        ,  0.79200935,  1.10534389,  0.00439197,  0.00722218, -0.        ,  0.        ,  0.0237436 ,  0.01585048,
         0.        ,  0.        , -0.        ,  0.        , -0.00035615, -0.00024685, -0.        ,  0.        , -0.        ,  0.        ,  3.04308127,
        -0.        , -0.02165565, -0.00370337,  0.        ,  0.        ,  0.        ],
       [ 0.        ,  0.        ,  0.        , -1.10534389,  0.79200935, -0.00722218,  0.00439197,  0.        , -0.        , -0.01585048,  0.0237436 ,
        -0.        ,  0.        ,  0.        , -0.        ,  0.00024685, -0.00035615,  0.        ,  0.        , -0.        ,  0.        , -0.        ,
         3.04308127,  0.00370337, -0.02165565, -0.        ,  0.        , -0.        ],
       [ 0.        ,  0.        ,  0.        , -0.00500503, -0.00494822, -0.8887928 , -1.02211058, -0.        ,  0.        ,  0.00022063,  0.00009833,
         0.        ,  0.        , -0.        ,  0.        , -0.02693012, -0.01257015, -0.        ,  0.        , -0.        ,  0.        , -0.02165565,
         0.00370337,  3.11380764, -0.        ,  0.        ,  0.        ,  0.        ],
       [ 0.        ,  0.        ,  0.        ,  0.00494822, -0.00500503,  1.02211058, -0.8887928 , -0.        , -0.        , -0.00009833,  0.00022063,
        -0.        ,  0.        , -0.        , -0.        ,  0.01257015, -0.02693012,  0.        ,  0.        , -0.        ,  0.        , -0.00370337,
        -0.02165565, -0.        ,  3.11380764, -0.        ,  0.        , -0.        ],
       [ 0.00189272,  0.03412315, -0.00125619,  0.        ,  0.        , -0.        , -0.        ,  1.24614464, -0.00180762, -0.        ,  0.        ,
        -0.        , -0.        , -0.        , -0.        , -0.        , -0.        ,  0.20117556, -0.02043368,  0.49826146, -0.01513031,  0.        ,
        -0.        ,  0.        , -0.        ,  3.18890513,  0.01010964,  0.07287468],
       [-0.08075982,  0.01052863,  0.05673135,  0.        ,  0.        , -0.        , -0.        , -0.00063017,  0.02736706,  0.        , -0.        ,
        -0.        , -0.        , -0.        , -0.        ,  0.        , -0.        , -0.00053932, -0.95573988, -0.01878926,  0.22592602,  0.        ,
         0.        ,  0.        ,  0.        ,  0.01010964,  1.80796958,  0.01690445],
       [ 0.0111176 , -0.16124262, -0.00005301,  0.        ,  0.        , -0.        , -0.        , -0.04000079, -0.00034127,  0.        , -0.        ,
         0.        , -0.        ,  0.        , -0.        ,  0.        ,  0.        , -0.11109248, -0.01151045, -1.07600839,  0.00358485,  0.        ,
        -0.        ,  0.        , -0.        ,  0.07287468,  0.01690445,  1.59161725]]), array([[-0.25103734, -0.27847645,  0.17158938,  0.        ,  0.        , -0.        , -0.        ,  0.07386301, -0.02147805, -0.        ,  0.        ,
         0.        ,  0.        ,  0.        ,  0.        , -0.        , -0.        , -0.00864358,  0.1618047 , -0.02915983,  0.10745503,  0.        ,
         0.        ,  0.        ,  0.        , -0.00189272, -0.08075982, -0.0111176 ],
       [-0.27847645,  0.00670771,  0.0632721 ,  0.        ,  0.        ,  0.        , -0.        ,  0.26789706, -0.00773131, -0.        ,  0.        ,
        -0.        ,  0.        , -0.        ,  0.        , -0.        , -0.        , -0.04767665, -0.09054187,  0.39402923,  0.00736521,  0.        ,
         0.        ,  0.        ,  0.        ,  0.03412315, -0.01052863, -0.16124262],
       [ 0.17158938,  0.0632721 ,  1.36157519, -0.        , -0.        ,  0.        ,  0.        ,  0.04565063,  0.02835806, -0.        , -0.        ,
        -0.        , -0.        ,  0.        , -0.        , -0.        , -0.        , -0.0030695 ,  0.23749542,  0.01455752,  1.29788553,  0.        ,
         0.        ,  0.        ,  0.        ,  0.00125619,  0.05673135,  0.00005301],
       [ 0.        ,  0.        , -0.        ,  1.54961018, -0.        , -0.06156057, -0.00464811,  0.        , -0.        , -0.00339123,  0.00127816,
        -0.        ,  0.        ,  0.        , -0.        ,  0.00134296, -0.00047956,  0.        ,  0.        ,  0.        ,  0.        ,  0.79200935,
        -1.10534389,  0.00500503, -0.00494822,  0.        ,  0.        ,  0.        ],
       [ 0.        ,  0.        , -0.        , -0.        ,  1.54961018,  0.00464811, -0.06156057,  0.        ,  0.        , -0.00127816, -0.00339123,
        -0.        , -0.        ,  0.        , -0.        ,  0.00047956,  0.00134296, -0.        ,  0.        , -0.        , -0.        ,  1.10534389,
         0.79200935,  0.00494822,  0.00500503,  0.        ,  0.        ,  0.        ],
       [-0.        ,  0.        ,  0.        , -0.06156057,  0.00464811,  1.62310436,  0.        ,  0.        ,  0.        ,  0.00046858, -0.0002182 ,
         0.        , -0.        ,  0.        ,  0.        , -0.01076167,  0.00478447, -0.        , -0.        , -0.        , -0.        , -0.00439197,
         0.00722218, -0.8887928 ,  1.02211058, -0.        , -0.        , -0.        ],
       [-0.        , -0.        ,  0.        , -0.00464811, -0.06156057,  0.        ,  1.62310436, -0.        , -0.        ,  0.0002182 ,  0.00046858,
         0.        ,  0.        , -0.        , -0.        , -0.00478447, -0.01076167,  0.        , -0.        ,  0.        ,  0.        , -0.00722218,
        -0.00439197, -1.02211058, -0.8887928 , -0.        , -0.        , -0.        ],
       [ 0.07386301,  0.26789706,  0.04565063,  0.        ,  0.        ,  0.        , -0.        ,  1.75061997,  0.00703076, -0.        , -0.        ,
        -0.        , -0.        , -0.        , -0.        , -0.        , -0.        , -0.00388856,  0.03236701,  0.54197685,  0.00994266, -0.        ,
         0.        , -0.        , -0.        ,  1.24614464,  0.00063017, -0.04000079],
       [-0.02147805, -0.00773131,  0.02835806, -0.        ,  0.        ,  0.        , -0.        ,  0.00703076,  3.40316926,  0.        , -0.        ,
        -0.        ,  0.        , -0.        ,  0.        ,  0.        ,  0.        ,  0.02461162, -0.13290237, -0.00250313, -0.06370538,  0.        ,
        -0.        ,  0.        , -0.        ,  0.00180762,  0.02736706,  0.00034127],
       [-0.        , -0.        , -0.        , -0.00339123, -0.00127816,  0.00046858,  0.0002182 , -0.        ,  0.        ,  3.44187324,  0.        ,
        -0.        ,  0.        , -0.        , -0.        ,  0.02547727,  0.00044483,  0.        , -0.        ,  0.        , -0.        ,  0.0237436 ,
        -0.01585048, -0.00022063,  0.00009833, -0.        ,  0.        ,  0.        ],
       [ 0.        ,  0.        , -0.        ,  0.00127816, -0.00339123, -0.0002182 ,  0.00046858, -0.        , -0.        ,  0.        ,  3.44187324,
         0.        , -0.        ,  0.        ,  0.        , -0.00044483,  0.02547727,  0.        , -0.        , -0.        , -0.        ,  0.01585048,
         0.0237436 , -0.00009833, -0.00022063,  0.        ,  0.        , -0.        ],
       [ 0.        , -0.        , -0.        , -0.        , -0.        ,  0.        ,  0.        , -0.        , -0.        , -0.        ,  0.        ,
         3.44960161, -0.        ,  0.02558948, -0.        ,  0.        , -0.        , -0.        ,  0.        ,  0.        , -0.        ,  0.        ,
        -0.        ,  0.        , -0.        , -0.        , -0.        ,  0.        ],
       [ 0.        ,  0.        , -0.        ,  0.        , -0.        , -0.        ,  0.        , -0.        ,  0.        ,  0.        , -0.        ,
        -0.        ,  3.44960161, -0.        , -0.02558948, -0.        ,  0.        ,  0.        ,  0.        ,  0.        , -0.        ,  0.        ,
         0.        ,  0.        ,  0.        ,  0.        ,  0.        ,  0.        ],
       [ 0.        , -0.        ,  0.        ,  0.        ,  0.        ,  0.        , -0.        , -0.        , -0.        , -0.        ,  0.        ,
         0.02558948, -0.        ,  3.45070029, -0.        , -0.        , -0.        , -0.        ,  0.        ,  0.        , -0.        , -0.        ,
         0.        ,  0.        , -0.        , -0.        , -0.        ,  0.        ],
       [ 0.        ,  0.        , -0.        , -0.        , -0.        ,  0.        , -0.        , -0.        ,  0.        , -0.        ,  0.        ,
        -0.        , -0.02558948, -0.        ,  3.45070029,  0.        , -0.        ,  0.        ,  0.        ,  0.        , -0.        ,  0.        ,
        -0.        , -0.        , -0.        ,  0.        ,  0.        ,  0.        ],
       [-0.        , -0.        , -0.        ,  0.00134296,  0.00047956, -0.01076167, -0.00478447, -0.        ,  0.        ,  0.02547727, -0.00044483,
         0.        , -0.        , -0.        ,  0.        ,  3.45917432, -0.        ,  0.        , -0.        ,  0.        , -0.        ,  0.00035615,
        -0.00024685, -0.02693012,  0.01257015, -0.        ,  0.        ,  0.        ],
       [-0.        , -0.        , -0.        , -0.00047956,  0.00134296,  0.00478447, -0.01076167, -0.        ,  0.        ,  0.00044483,  0.02547727,
        -0.        ,  0.        , -0.        , -0.        , -0.        ,  3.45917432,  0.        ,  0.        ,  0.        ,  0.        ,  0.00024685,
         0.00035615, -0.01257015, -0.02693012, -0.        , -0.        ,  0.        ],
       [-0.00864358, -0.04767665, -0.0030695 ,  0.        , -0.        , -0.        ,  0.        , -0.00388856,  0.02461162,  0.        ,  0.        ,
        -0.        ,  0.        , -0.        ,  0.        ,  0.        ,  0.        ,  3.48221412, -0.00690027, -0.1237321 , -0.0019133 , -0.        ,
         0.        , -0.        ,  0.        ,  0.20117556,  0.00053932, -0.11109248],
       [ 0.1618047 , -0.09054187,  0.23749542,  0.        ,  0.        , -0.        , -0.        ,  0.03236701, -0.13290237, -0.        , -0.        ,
         0.        ,  0.        ,  0.        ,  0.        , -0.        ,  0.        , -0.00690027,  1.18114737, -0.05091455,  0.37711942,  0.        ,
         0.        ,  0.        ,  0.        ,  0.02043368, -0.95573988,  0.01151045],
       [-0.02915983,  0.39402923,  0.01455752,  0.        , -0.        , -0.        ,  0.        ,  0.54197685, -0.00250313,  0.        , -0.        ,
         0.        ,  0.        ,  0.        ,  0.        ,  0.        ,  0.        , -0.1237321 , -0.05091455,  1.56301837,  0.01666822, -0.        ,
        -0.        , -0.        , -0.        ,  0.49826146,  0.01878926, -1.07600839],
       [ 0.10745503,  0.00736521,  1.29788553,  0.        , -0.        , -0.        ,  0.        ,  0.00994266, -0.06370538, -0.        , -0.        ,
        -0.        , -0.        , -0.        , -0.        , -0.        ,  0.        , -0.0019133 ,  0.37711942,  0.01666822,  3.01990261,  0.        ,
         0.        ,  0.        ,  0.        ,  0.01513031,  0.22592602, -0.00358485],
       [ 0.        ,  0.        ,  0.        ,  0.79200935,  1.10534389, -0.00439197, -0.00722218, -0.        ,  0.        ,  0.0237436 ,  0.01585048,
         0.        ,  0.        , -0.        ,  0.        ,  0.00035615,  0.00024685, -0.        ,  0.        , -0.        ,  0.        ,  3.04308127,
        -0.        ,  0.02165565,  0.00370337,  0.        ,  0.        ,  0.        ],
       [ 0.        ,  0.        ,  0.        , -1.10534389,  0.79200935,  0.00722218, -0.00439197,  0.        , -0.        , -0.01585048,  0.0237436 ,
        -0.        ,  0.        ,  0.        , -0.        , -0.00024685,  0.00035615,  0.        ,  0.        , -0.        ,  0.        , -0.        ,
         3.04308127, -0.00370337,  0.02165565, -0.        ,  0.        , -0.        ],
       [ 0.        ,  0.        ,  0.        ,  0.00500503,  0.00494822, -0.8887928 , -1.02211058, -0.        ,  0.        , -0.00022063, -0.00009833,
         0.        ,  0.        ,  0.        , -0.        , -0.02693012, -0.01257015, -0.        ,  0.        , -0.        ,  0.        ,  0.02165565,
        -0.00370337,  3.11380764, -0.        ,  0.        ,  0.        ,  0.        ],
       [ 0.        ,  0.        ,  0.        , -0.00494822,  0.00500503,  1.02211058, -0.8887928 , -0.        , -0.        ,  0.00009833, -0.00022063,
        -0.        ,  0.        , -0.        , -0.        ,  0.01257015, -0.02693012,  0.        ,  0.        , -0.        ,  0.        ,  0.00370337,
         0.02165565, -0.        ,  3.11380764, -0.        ,  0.        , -0.        ],
       [-0.00189272,  0.03412315,  0.00125619,  0.        ,  0.        , -0.        , -0.        ,  1.24614464,  0.00180762, -0.        ,  0.        ,
        -0.        ,  0.        , -0.        ,  0.        , -0.        , -0.        ,  0.20117556,  0.02043368,  0.49826146,  0.01513031,  0.        ,
        -0.        ,  0.        , -0.        ,  3.18890513, -0.01010964,  0.07287468],
       [-0.08075982, -0.01052863,  0.05673135,  0.        ,  0.        , -0.        , -0.        ,  0.00063017,  0.02736706,  0.        ,  0.        ,
        -0.        ,  0.        , -0.        ,  0.        ,  0.        , -0.        ,  0.00053932, -0.95573988,  0.01878926,  0.22592602,  0.        ,
         0.        ,  0.        ,  0.        , -0.01010964,  1.80796958, -0.01690445],
       [-0.0111176 , -0.16124262,  0.00005301,  0.        ,  0.        , -0.        , -0.        , -0.04000079,  0.00034127,  0.        , -0.        ,
         0.        ,  0.        ,  0.        ,  0.        ,  0.        ,  0.        , -0.11109248,  0.01151045, -1.07600839, -0.00358485,  0.        ,
        -0.        ,  0.        , -0.        ,  0.07287468, -0.01690445,  1.59161725]]))
E(UHF) =    -1.222811
NO eigenvalue
[-1. -0. -0. -0. -0. -0. -0. -0. -0. -0. -0. -0. -0. -0. -0.  0.  0.  0.  0.  0.  0.  0.  0.  0.  0.  0.  0.  0.] [-1. -0. -0. -0. -0. -0. -0. -0. -0. -0. -0. -0. -0. -0. -0. -0. -0.  0.  0.  0.  0.  0.  0.  0.  0.  0.  0.  0.]
NO vec
[[ 0.83394381  0.         -0.54752364 ...  0.          0.          0.        ]
 [-0.52921275  0.         -0.82004815 ...  0.          0.          0.        ]
 [-0.0934002   0.         -0.14178027 ...  0.          0.          0.        ]
 ...
 [ 0.          0.03488429  0.         ... -0.08941847  0.17599126 -0.52439801]
 [ 0.          0.02437793  0.         ...  0.06439941  0.70855962 -0.14556644]
 [ 0.          0.00359546  0.         ... -0.06202249 -0.01517145 -0.02342052]]
dm(NO)
[[ 1.  0. -0. ...  0.  0.  0.]
 [ 0.  1.  0. ... -0.  0.  0.]
 [-0.  0. -0. ...  0.  0.  0.]
 ...
 [ 0. -0.  0. ... -0.  0. -0.]
 [ 0. -0.  0. ...  0. -0. -0.]
 [ 0.  0.  0. ... -0. -0. -0.]]
D(g) (NO)
[[ 0.99951369  0.01281958 -0.         ...  0.00029712 -0.00217281 -0.00965758]
 [-0.01281958  0.99951369  0.0276098  ... -0.         -0.          0.        ]
 [-0.         -0.0276098   0.99951369 ...  0.00037906 -0.00145558 -0.0092204 ]
 ...
 [-0.00029712  0.         -0.00037906 ...  0.99951369 -0.         -0.        ]
 [ 0.00217281  0.          0.00145558 ... -0.          0.99951369  0.        ]
 [ 0.00965758  0.          0.0092204  ... -0.          0.          0.99951369]]
...
N(g) (NO)
[[ 1.000322   -0.01282995]
 [ 0.01282995  1.000322  ]]
...
P(g) (NO)
[[ 1.         -0.         -0.         ...  0.         -0.         -0.        ]
 [-0.          1.          0.         ... -0.          0.          0.        ]
 [-0.00035423 -0.02761869  0.         ...  0.         -0.         -0.        ]
 ...
 [-0.00029722  0.00000381  0.         ... -0.          0.          0.        ]
 [ 0.00217351 -0.00002788 -0.         ...  0.         -0.         -0.        ]
 [ 0.00966068 -0.00012391 -0.         ...  0.         -0.         -0.        ]]
...
Pg_ortho
[[ 0.69562613 -0.44143768 -0.07790887 ...  0.0005344   0.00037345  0.00005508]
 [-0.44108454  0.27990802  0.04940067 ...  0.00081261  0.00056787  0.00008375]
 [-0.07790887  0.04944022  0.00872565 ... -0.00005985 -0.00004183 -0.00000617]
 ...
 [ 0.00128052 -0.00081261 -0.00014342 ...  0.00121623  0.00084993  0.00012535]
 [-0.00037345  0.00023699  0.00004183 ...  0.00085061  0.00059442  0.00008767]
 [ 0.00013198 -0.00008375 -0.00001478 ...  0.00012535  0.0000876   0.00001292]]
G(g) (NO)
[[ 0.25773031 -0.00195554 -0.07515861 ... -0.00018235 -0.00023983 -0.00011496]
 [ 0.00195554  0.25773031  0.00088035 ...  0.00888922  0.02779556 -0.00671904]
 [-0.07507684  0.01610237  0.81218507 ...  0.00155128  0.00121305  0.00009025]
 ...
 [ 0.00174694  0.00888771  0.00052464 ...  0.81711331 -0.10211114 -0.06042106]
 [-0.0007538   0.02779947 -0.00016764 ... -0.10211145  0.67698104  0.04148154]
 [-0.0049521  -0.00670149 -0.00152389 ... -0.06042047  0.04148205  0.74878301]]
...
C(NO)
[[-1.          0.         -0.         ...  0.          0.          0.        ]
 [ 0.         -1.          0.         ... -0.         -0.          0.        ]
 [ 0.          0.          0.94210544 ...  0.          0.          0.        ]
 ...
 [ 0.          0.          0.         ... -0.          0.          0.02189608]
 [ 0.          0.          0.         ... -0.         -0.          0.03882614]
 [ 0.         -0.          0.         ... -0.         -0.          0.31795639]]
detC 0.9999999999999984
detNg [1.0008087  1.02146461 1.12378775 1.42333678 2.14393083 3.58217995 5.26257806 5.88874675]
xg [0.99919195 0.97898643 0.88984775 0.70257441 0.46643296 0.27915962 0.19002093 0.16981542]
ciS 1.1690073679803437
[[-0.74025795  0.          0.03916274 ...  0.          0.          0.        ]
 [ 0.         -0.74025795  0.         ... -0.00755243 -0.02541655  0.00220387]
 [ 0.03916274  0.         -0.63898455 ...  0.          0.          0.        ]
 ...
 [ 0.         -0.00755243  0.         ...  2.12329118 -0.53891442 -0.37317838]
 [ 0.         -0.02541655  0.         ... -0.53891442  0.75390083  0.16259471]
 [ 0.          0.00220387  0.         ... -0.37317838  0.16259471  0.73445555]]
ciH -1.4287563017262017
S2 = -0.000000
X(g)
[[ 2.         -0.         -0.00035423 ...  0.00029722 -0.00217351 -0.00966068]
 [-0.          2.          0.02761869 ...  0.00000381 -0.00002788 -0.00012391]
 [-0.00035423 -0.02761869  0.         ...  0.          0.          0.        ]
 ...
 [-0.00029722  0.00000381  0.         ...  0.          0.          0.        ]
 [ 0.00217351 -0.00002788  0.         ...  0.          0.          0.        ]
 [ 0.00966068 -0.00012391  0.         ...  0.          0.          0.        ]]
X(g) int
[[ 2.         -0.         -0.31137077 ...  0.0064016  -0.04681368 -0.20807495]
 [ 0.          2.          0.59486019 ...  0.00335082 -0.02450393 -0.10891376]
 [-0.31137077 -0.59486019  0.         ...  0.          0.          0.        ]
 ...
 [-0.0064016   0.00335082  0.         ...  0.          0.          0.        ]
 [ 0.04681368 -0.02450393  0.         ...  0.          0.          0.        ]
 [ 0.20807495 -0.10891376  0.         ...  0.          0.          0.        ]]
Hsp + Hph =  -1.2221961476552692
Feff (mod,ortho)
[[-0.22833481  0.28893253  0.16858475 ...  0.          0.          0.        ]
 [ 0.28893253 -0.01570537 -0.06414999 ...  0.          0.          0.        ]
 [ 0.16858475 -0.06414999  1.36196344 ...  0.          0.          0.        ]
 ...
 [ 0.          0.          0.         ...  3.18899156 -0.01000529  0.07281722]
 [ 0.          0.          0.         ... -0.01000529  1.80807321 -0.01694008]
 [ 0.          0.          0.         ...  0.07281722 -0.01694008  1.59160449]]
E(SUHF) =     -0.99211910
e_a, e_b
[-0.4888321   0.05207928  0.37128696  0.49390637  0.65284127  0.72436066  0.72436066  0.84241416  0.84241416  1.05398417  2.46776873  2.60715624  3.40157558
  3.42287083  3.42287083  3.42455558  3.42455558  3.47574632  3.47574632  3.47634502  3.47634502  3.48580307  3.82532193  3.83128126  3.83128126  3.93337907
  3.93337907  4.1829177 ] [-0.4888321   0.05207928  0.37128696  0.49390637  0.65284127  0.72436066  0.72436066  0.84241416  0.84241416  1.05398417  2.46776873  2.60715624  3.40157558
  3.42287083  3.42287083  3.42455558  3.42455558  3.47574632  3.47574632  3.47634502  3.47634502  3.48580307  3.82532193  3.83128126  3.83128126  3.93337907
  3.93337907  4.1829177 ]
P_a, P_b
[[ 0.60200151 -0.47139452 -0.07315195  0.          0.          0.          0.          0.07910801  0.00398224 -0.          0.         -0.          0.
  -0.          0.          0.         -0.         -0.00368495 -0.02337777  0.06252271  0.0098383   0.         -0.          0.          0.         -0.03080315
   0.01441079 -0.0059386 ]
 [-0.47139452  0.36912332  0.0572813  -0.         -0.         -0.         -0.         -0.06194517 -0.00311827  0.         -0.          0.         -0.
   0.         -0.         -0.          0.          0.00288549  0.01830586 -0.04895812 -0.00770383 -0.          0.         -0.         -0.          0.02412027
  -0.01128431  0.00465019]
 [-0.07315195  0.0572813   0.00888903 -0.         -0.         -0.         -0.         -0.00961278 -0.0004839   0.         -0.          0.         -0.
   0.         -0.         -0.          0.          0.00044778  0.00284074 -0.00759742 -0.0011955  -0.          0.         -0.         -0.          0.00374303
  -0.00175112  0.00072163]
 [ 0.         -0.         -0.          0.          0.          0.          0.          0.          0.         -0.          0.         -0.          0.
  -0.          0.          0.         -0.         -0.         -0.          0.          0.          0.         -0.          0.          0.         -0.
   0.         -0.        ]
 [ 0.         -0.         -0.          0.          0.          0.          0.          0.          0.         -0.          0.         -0.          0.
  -0.          0.          0.         -0.         -0.         -0.          0.          0.          0.         -0.          0.          0.         -0.
   0.         -0.        ]
 [ 0.         -0.         -0.          0.          0.          0.          0.          0.          0.         -0.          0.         -0.          0.
  -0.          0.          0.         -0.         -0.         -0.          0.          0.          0.         -0.          0.          0.         -0.
   0.         -0.        ]
 [ 0.         -0.         -0.          0.          0.          0.          0.          0.          0.         -0.          0.         -0.          0.
  -0.          0.          0.         -0.         -0.         -0.          0.          0.          0.         -0.          0.          0.         -0.
   0.         -0.        ]
 [ 0.07910801 -0.06194517 -0.00961278  0.          0.          0.          0.          0.01039545  0.0005233  -0.          0.         -0.          0.
  -0.          0.          0.         -0.         -0.00048423 -0.00307203  0.008216    0.00129283  0.         -0.          0.          0.         -0.00404779
   0.0018937  -0.00078038]
 [ 0.00398224 -0.00311827 -0.0004839   0.          0.          0.          0.          0.0005233   0.00002634 -0.          0.         -0.          0.
  -0.          0.          0.         -0.         -0.00002438 -0.00015464  0.00041359  0.00006508  0.         -0.          0.          0.         -0.00020376
   0.00009533 -0.00003928]
 [-0.          0.          0.         -0.         -0.         -0.         -0.         -0.         -0.          0.         -0.          0.         -0.
   0.         -0.         -0.          0.          0.          0.         -0.         -0.         -0.          0.         -0.         -0.          0.
  -0.          0.        ]
 [ 0.         -0.         -0.          0.          0.          0.          0.          0.          0.         -0.          0.         -0.          0.
  -0.          0.          0.         -0.         -0.         -0.          0.          0.          0.         -0.          0.          0.         -0.
   0.         -0.        ]
 [-0.          0.          0.         -0.         -0.         -0.         -0.         -0.         -0.          0.         -0.          0.         -0.
   0.         -0.         -0.          0.          0.          0.         -0.         -0.         -0.          0.         -0.         -0.          0.
  -0.          0.        ]
 [ 0.         -0.         -0.          0.          0.          0.          0.          0.          0.         -0.          0.         -0.          0.
  -0.          0.          0.         -0.         -0.         -0.          0.          0.          0.         -0.          0.          0.         -0.
   0.         -0.        ]
 [-0.          0.          0.         -0.         -0.         -0.         -0.         -0.         -0.          0.         -0.          0.         -0.
   0.         -0.         -0.          0.          0.          0.         -0.         -0.         -0.          0.         -0.         -0.          0.
  -0.          0.        ]
 [ 0.         -0.         -0.          0.          0.          0.          0.          0.          0.         -0.          0.         -0.          0.
  -0.          0.          0.         -0.         -0.         -0.          0.          0.          0.         -0.          0.          0.         -0.
   0.         -0.        ]
 [ 0.         -0.         -0.          0.          0.          0.          0.          0.          0.         -0.          0.         -0.          0.
  -0.          0.          0.         -0.         -0.         -0.          0.          0.          0.         -0.          0.          0.         -0.
   0.         -0.        ]
 [-0.          0.          0.         -0.         -0.         -0.         -0.         -0.         -0.          0.         -0.          0.         -0.
   0.         -0.         -0.          0.          0.          0.         -0.         -0.         -0.          0.         -0.         -0.          0.
  -0.          0.        ]
 [-0.00368495  0.00288549  0.00044778 -0.         -0.         -0.         -0.         -0.00048423 -0.00002438  0.         -0.          0.         -0.
   0.         -0.         -0.          0.          0.00002256  0.0001431  -0.00038271 -0.00006022 -0.          0.         -0.         -0.          0.00018855
  -0.00008821  0.00003635]
 [-0.02337777  0.01830586  0.00284074 -0.         -0.         -0.         -0.         -0.00307203 -0.00015464  0.         -0.          0.         -0.
   0.         -0.         -0.          0.          0.0001431   0.00090784 -0.00242797 -0.00038205 -0.          0.         -0.         -0.          0.00119619
  -0.00055962  0.00023062]
 [ 0.06252271 -0.04895812 -0.00759742  0.          0.          0.          0.          0.008216    0.00041359 -0.          0.         -0.          0.
  -0.          0.          0.         -0.         -0.00038271 -0.00242797  0.00649349  0.00102179  0.         -0.          0.          0.         -0.00319916
   0.00149668 -0.00061677]
 [ 0.0098383  -0.00770383 -0.0011955   0.          0.          0.          0.          0.00129283  0.00006508 -0.          0.         -0.          0.
  -0.          0.          0.         -0.         -0.00006022 -0.00038205  0.00102179  0.00016078  0.         -0.          0.          0.         -0.0005034
   0.00023551 -0.00009705]
 [ 0.         -0.         -0.          0.          0.          0.          0.          0.          0.         -0.          0.         -0.          0.
  -0.          0.          0.         -0.         -0.         -0.          0.          0.          0.         -0.          0.          0.         -0.
   0.         -0.        ]
 [-0.          0.          0.         -0.         -0.         -0.         -0.         -0.         -0.          0.         -0.          0.         -0.
   0.         -0.         -0.          0.          0.          0.         -0.         -0.         -0.          0.         -0.         -0.          0.
  -0.          0.        ]
 [ 0.         -0.         -0.          0.          0.          0.          0.          0.          0.         -0.          0.         -0.          0.
  -0.          0.          0.         -0.         -0.         -0.          0.          0.          0.         -0.          0.          0.         -0.
   0.         -0.        ]
 [ 0.         -0.         -0.          0.          0.          0.          0.          0.          0.         -0.          0.         -0.          0.
  -0.          0.          0.         -0.         -0.         -0.          0.          0.          0.         -0.          0.          0.         -0.
   0.         -0.        ]
 [-0.03080315  0.02412027  0.00374303 -0.         -0.         -0.         -0.         -0.00404779 -0.00020376  0.         -0.          0.         -0.
   0.         -0.         -0.          0.          0.00018855  0.00119619 -0.00319916 -0.0005034  -0.          0.         -0.         -0.          0.00157613
  -0.00073737  0.00030387]
 [ 0.01441079 -0.01128431 -0.00175112  0.          0.          0.          0.          0.0018937   0.00009533 -0.          0.         -0.          0.
  -0.          0.          0.         -0.         -0.00008821 -0.00055962  0.00149668  0.00023551  0.         -0.          0.          0.         -0.00073737
   0.00034497 -0.00014216]
 [-0.0059386   0.00465019  0.00072163 -0.         -0.         -0.         -0.         -0.00078038 -0.00003928  0.         -0.          0.         -0.
   0.         -0.         -0.          0.          0.00003635  0.00023062 -0.00061677 -0.00009705 -0.          0.         -0.         -0.          0.00030387
  -0.00014216  0.00005858]] 
 [[ 0.60200151  0.47139452 -0.07315195 -0.         -0.         -0.          0.         -0.07910801  0.00398224 -0.         -0.          0.         -0.
   0.         -0.         -0.          0.          0.00368495 -0.02337777 -0.06252271  0.0098383  -0.          0.         -0.         -0.          0.03080315
   0.01441079  0.0059386 ]
 [ 0.47139452  0.36912332 -0.0572813  -0.         -0.         -0.          0.         -0.06194517  0.00311827 -0.         -0.          0.         -0.
   0.         -0.         -0.          0.          0.00288549 -0.01830586 -0.04895812  0.00770383 -0.          0.         -0.         -0.          0.02412027
   0.01128431  0.00465019]
 [-0.07315195 -0.0572813   0.00888903  0.          0.          0.         -0.          0.00961278 -0.0004839   0.          0.         -0.          0.
  -0.          0.          0.         -0.         -0.00044778  0.00284074  0.00759742 -0.0011955   0.         -0.          0.          0.         -0.00374303
  -0.00175112 -0.00072163]
 [-0.         -0.          0.          0.          0.          0.         -0.          0.         -0.          0.          0.         -0.          0.
  -0.          0.          0.         -0.         -0.          0.          0.         -0.          0.         -0.          0.          0.         -0.
  -0.         -0.        ]
 [-0.         -0.          0.          0.          0.          0.         -0.          0.         -0.          0.          0.         -0.          0.
  -0.          0.          0.         -0.         -0.          0.          0.         -0.          0.         -0.          0.          0.         -0.
  -0.         -0.        ]
 [-0.         -0.          0.          0.          0.          0.         -0.          0.         -0.          0.          0.         -0.          0.
  -0.          0.          0.         -0.         -0.          0.          0.         -0.          0.         -0.          0.          0.         -0.
  -0.         -0.        ]
 [ 0.          0.         -0.         -0.         -0.         -0.          0.         -0.          0.         -0.         -0.          0.         -0.
   0.         -0.         -0.          0.          0.         -0.         -0.          0.         -0.          0.         -0.         -0.          0.
   0.          0.        ]
 [-0.07910801 -0.06194517  0.00961278  0.          0.          0.         -0.          0.01039545 -0.0005233   0.          0.         -0.          0.
  -0.          0.          0.         -0.         -0.00048423  0.00307203  0.008216   -0.00129283  0.         -0.          0.          0.         -0.00404779
  -0.0018937  -0.00078038]
 [ 0.00398224  0.00311827 -0.0004839  -0.         -0.         -0.          0.         -0.0005233   0.00002634 -0.         -0.          0.         -0.
   0.         -0.         -0.          0.          0.00002438 -0.00015464 -0.00041359  0.00006508 -0.          0.         -0.         -0.          0.00020376
   0.00009533  0.00003928]
 [-0.         -0.          0.          0.          0.          0.         -0.          0.         -0.          0.          0.         -0.          0.
  -0.          0.          0.         -0.         -0.          0.          0.         -0.          0.         -0.          0.          0.         -0.
  -0.         -0.        ]
 [-0.         -0.          0.          0.          0.          0.         -0.          0.         -0.          0.          0.         -0.          0.
  -0.          0.          0.         -0.         -0.          0.          0.         -0.          0.         -0.          0.          0.         -0.
  -0.         -0.        ]
 [ 0.          0.         -0.         -0.         -0.         -0.          0.         -0.          0.         -0.         -0.          0.         -0.
   0.         -0.         -0.          0.          0.         -0.         -0.          0.         -0.          0.         -0.         -0.          0.
   0.          0.        ]
 [-0.         -0.          0.          0.          0.          0.         -0.          0.         -0.          0.          0.         -0.          0.
  -0.          0.          0.         -0.         -0.          0.          0.         -0.          0.         -0.          0.          0.         -0.
  -0.         -0.        ]
 [ 0.          0.         -0.         -0.         -0.         -0.          0.         -0.          0.         -0.         -0.          0.         -0.
   0.         -0.         -0.          0.          0.         -0.         -0.          0.         -0.          0.         -0.         -0.          0.
   0.          0.        ]
 [-0.         -0.          0.          0.          0.          0.         -0.          0.         -0.          0.          0.         -0.          0.
  -0.          0.          0.         -0.         -0.          0.          0.         -0.          0.         -0.          0.          0.         -0.
  -0.         -0.        ]
 [-0.         -0.          0.          0.          0.          0.         -0.          0.         -0.          0.          0.         -0.          0.
  -0.          0.          0.         -0.         -0.          0.          0.         -0.          0.         -0.          0.          0.         -0.
  -0.         -0.        ]
 [ 0.          0.         -0.         -0.         -0.         -0.          0.         -0.          0.         -0.         -0.          0.         -0.
   0.         -0.         -0.          0.          0.         -0.         -0.          0.         -0.          0.         -0.         -0.          0.
   0.          0.        ]
 [ 0.00368495  0.00288549 -0.00044778 -0.         -0.         -0.          0.         -0.00048423  0.00002438 -0.         -0.          0.         -0.
   0.         -0.         -0.          0.          0.00002256 -0.0001431  -0.00038271  0.00006022 -0.          0.         -0.         -0.          0.00018855
   0.00008821  0.00003635]
 [-0.02337777 -0.01830586  0.00284074  0.          0.          0.         -0.          0.00307203 -0.00015464  0.          0.         -0.          0.
  -0.          0.          0.         -0.         -0.0001431   0.00090784  0.00242797 -0.00038205  0.         -0.          0.          0.         -0.00119619
  -0.00055962 -0.00023062]
 [-0.06252271 -0.04895812  0.00759742  0.          0.          0.         -0.          0.008216   -0.00041359  0.          0.         -0.          0.
  -0.          0.          0.         -0.         -0.00038271  0.00242797  0.00649349 -0.00102179  0.         -0.          0.          0.         -0.00319916
  -0.00149668 -0.00061677]
 [ 0.0098383   0.00770383 -0.0011955  -0.         -0.         -0.          0.         -0.00129283  0.00006508 -0.         -0.          0.         -0.
   0.         -0.         -0.          0.          0.00006022 -0.00038205 -0.00102179  0.00016078 -0.          0.         -0.         -0.          0.0005034
   0.00023551  0.00009705]
 [-0.         -0.          0.          0.          0.          0.         -0.          0.         -0.          0.          0.         -0.          0.
  -0.          0.          0.         -0.         -0.          0.          0.         -0.          0.         -0.          0.          0.         -0.
  -0.         -0.        ]
 [ 0.          0.         -0.         -0.         -0.         -0.          0.         -0.          0.         -0.         -0.          0.         -0.
   0.         -0.         -0.          0.          0.         -0.         -0.          0.         -0.          0.         -0.         -0.          0.
   0.          0.        ]
 [-0.         -0.          0.          0.          0.          0.         -0.          0.         -0.          0.          0.         -0.          0.
  -0.          0.          0.         -0.         -0.          0.          0.         -0.          0.         -0.          0.          0.         -0.
  -0.         -0.        ]
 [-0.         -0.          0.          0.          0.          0.         -0.          0.         -0.          0.          0.         -0.          0.
  -0.          0.          0.         -0.         -0.          0.          0.         -0.          0.         -0.          0.          0.         -0.
  -0.         -0.        ]
 [ 0.03080315  0.02412027 -0.00374303 -0.         -0.         -0.          0.         -0.00404779  0.00020376 -0.         -0.          0.         -0.
   0.         -0.         -0.          0.          0.00018855 -0.00119619 -0.00319916  0.0005034  -0.          0.         -0.         -0.          0.00157613
   0.00073737  0.00030387]
 [ 0.01441079  0.01128431 -0.00175112 -0.         -0.         -0.          0.         -0.0018937   0.00009533 -0.         -0.          0.         -0.
   0.         -0.         -0.          0.          0.00008821 -0.00055962 -0.00149668  0.00023551 -0.          0.         -0.         -0.          0.00073737
   0.00034497  0.00014216]
 [ 0.0059386   0.00465019 -0.00072163 -0.         -0.         -0.          0.         -0.00078038  0.00003928 -0.         -0.          0.         -0.
   0.         -0.         -0.          0.          0.00003635 -0.00023062 -0.00061677  0.00009705 -0.          0.         -0.         -0.          0.00030387
[...]
 [-0.72098506  0.18705531  0.         ...  0.          0.          0.        ]]
Hsp + Hph =  -1.2375563798052578
Feff (mod,ortho)
[[-0.22142274  0.30253612  0.1751415  ...  0.          0.          0.        ]
 [ 0.30253612 -0.01211344 -0.0725709  ...  0.          0.          0.        ]
 [ 0.1751415  -0.0725709   1.36813077 ...  0.          0.          0.        ]
 ...
 [ 0.          0.          0.         ...  3.19169574 -0.01100796  0.07253258]
 [ 0.          0.          0.         ... -0.01100796  1.81216803 -0.01864954]
 [ 0.          0.          0.         ...  0.07253258 -0.01864954  1.59589462]]
E(SUHF) =     -1.00747933
e_a, e_b
[-0.49894979  0.06315159  0.36819235  0.50303106  0.65614089  0.72553413  0.72553413  0.84786394  0.84786394  1.05701806  2.47135015  2.62189778  3.40837583
  3.42762866  3.42762866  3.42966462  3.42966462  3.48525228  3.48525228  3.48554405  3.48554405  3.49206817  3.83314499  3.83804966  3.83804966  3.94693109
  3.94693109  4.19388092] [-0.49894979  0.06315159  0.36819235  0.50303106  0.65614089  0.72553413  0.72553413  0.84786394  0.84786394  1.05701806  2.47135015  2.62189778  3.40837583
  3.42762866  3.42762866  3.42966462  3.42966462  3.48525228  3.48525228  3.48554405  3.48554405  3.49206817  3.83314499  3.83804966  3.83804966  3.94693109
  3.94693109  4.19388092]
P_a, P_b
[[ 0.59053691 -0.47298493 -0.07787677  0.         -0.          0.          0.          0.08255967  0.00476294 -0.         -0.         -0.          0.
  -0.          0.         -0.         -0.         -0.00415971 -0.01149359  0.05899992  0.01088086  0.          0.          0.         -0.         -0.03155084
   0.01906697 -0.00877205]
 [-0.47298493  0.37883279  0.06237466 -0.          0.         -0.         -0.         -0.06612538 -0.00381483  0.          0.          0.         -0.
   0.         -0.          0.          0.          0.00333168  0.00920568 -0.04725542 -0.00871492 -0.         -0.         -0.          0.          0.02527035
  -0.01527151  0.00702589]
 [-0.07787677  0.06237466  0.01026996 -0.          0.         -0.         -0.         -0.01088752 -0.00062811  0.          0.          0.         -0.
   0.         -0.          0.          0.          0.00054856  0.00151571 -0.00778059 -0.00143491 -0.         -0.         -0.          0.          0.00416075
  -0.00251445  0.00115681]
 [ 0.         -0.         -0.          0.         -0.          0.          0.          0.          0.         -0.         -0.         -0.          0.
  -0.          0.         -0.         -0.         -0.         -0.          0.          0.          0.          0.          0.         -0.         -0.
   0.         -0.        ]
 [-0.          0.          0.         -0.          0.         -0.         -0.         -0.         -0.          0.          0.          0.         -0.
   0.         -0.          0.          0.          0.          0.         -0.         -0.         -0.         -0.         -0.          0.          0.
  -0.          0.        ]
 [ 0.         -0.         -0.          0.         -0.          0.          0.          0.          0.         -0.         -0.         -0.          0.
  -0.          0.         -0.         -0.         -0.         -0.          0.          0.          0.          0.          0.         -0.         -0.
   0.         -0.        ]
 [ 0.         -0.         -0.          0.         -0.          0.          0.          0.          0.         -0.         -0.         -0.          0.
  -0.          0.         -0.         -0.         -0.         -0.          0.          0.          0.          0.          0.         -0.         -0.
   0.         -0.        ]
 [ 0.08255967 -0.06612538 -0.01088752  0.         -0.          0.          0.          0.01154221  0.00066588 -0.         -0.         -0.          0.
  -0.          0.         -0.         -0.         -0.00058155 -0.00160685  0.00824845  0.00152119  0.          0.          0.         -0.         -0.00441095
   0.00266565 -0.00122637]
 [ 0.00476294 -0.00381483 -0.00062811  0.         -0.          0.          0.          0.00066588  0.00003842 -0.         -0.         -0.          0.
  -0.          0.         -0.         -0.         -0.00003355 -0.0000927   0.00047586  0.00008776  0.          0.          0.         -0.         -0.00025447
   0.00015378 -0.00007075]
 [-0.          0.          0.         -0.          0.         -0.         -0.         -0.         -0.          0.          0.          0.         -0.
   0.         -0.          0.          0.          0.          0.         -0.         -0.         -0.         -0.         -0.          0.          0.
  -0.          0.        ]
 [-0.          0.          0.         -0.          0.         -0.         -0.         -0.         -0.          0.          0.          0.         -0.
   0.         -0.          0.          0.          0.          0.         -0.         -0.         -0.         -0.         -0.          0.          0.
  -0.          0.        ]
 [-0.          0.          0.         -0.          0.         -0.         -0.         -0.         -0.          0.          0.          0.         -0.
   0.         -0.          0.          0.          0.          0.         -0.         -0.         -0.         -0.         -0.          0.          0.
  -0.          0.        ]
 [ 0.         -0.         -0.          0.         -0.          0.          0.          0.          0.         -0.         -0.         -0.          0.
  -0.          0.         -0.         -0.         -0.         -0.          0.          0.          0.          0.          0.         -0.         -0.
   0.         -0.        ]
 [-0.          0.          0.         -0.          0.         -0.         -0.         -0.         -0.          0.          0.          0.         -0.
   0.         -0.          0.          0.          0.          0.         -0.         -0.         -0.         -0.         -0.          0.          0.
  -0.          0.        ]
 [ 0.         -0.         -0.          0.         -0.          0.          0.          0.          0.         -0.         -0.         -0.          0.
  -0.          0.         -0.         -0.         -0.         -0.          0.          0.          0.          0.          0.         -0.         -0.
   0.         -0.        ]
 [-0.          0.          0.         -0.          0.         -0.         -0.         -0.         -0.          0.          0.          0.         -0.
   0.         -0.          0.          0.          0.          0.         -0.         -0.         -0.         -0.         -0.          0.          0.
  -0.          0.        ]
 [-0.          0.          0.         -0.          0.         -0.         -0.         -0.         -0.          0.          0.          0.         -0.
   0.         -0.          0.          0.          0.          0.         -0.         -0.         -0.         -0.         -0.          0.          0.
  -0.          0.        ]
 [-0.00415971  0.00333168  0.00054856 -0.          0.         -0.         -0.         -0.00058155 -0.00003355  0.          0.          0.         -0.
   0.         -0.          0.          0.          0.0000293   0.00008096 -0.00041559 -0.00007664 -0.         -0.         -0.          0.          0.00022224
  -0.00013431  0.00006179]
 [-0.01149359  0.00920568  0.00151571 -0.          0.         -0.         -0.         -0.00160685 -0.0000927   0.          0.          0.         -0.
   0.         -0.          0.          0.          0.00008096  0.0002237  -0.00114831 -0.00021177 -0.         -0.         -0.          0.          0.00061407
  -0.0003711   0.00017073]
 [ 0.05899992 -0.04725542 -0.00778059  0.         -0.          0.          0.          0.00824845  0.00047586 -0.         -0.         -0.          0.
  -0.          0.         -0.         -0.         -0.00041559 -0.00114831  0.00589462  0.0010871   0.          0.          0.         -0.         -0.00315221
   0.00190496 -0.00087641]
 [ 0.01088086 -0.00871492 -0.00143491  0.         -0.          0.          0.          0.00152119  0.00008776 -0.         -0.         -0.          0.
  -0.          0.         -0.         -0.         -0.00007664 -0.00021177  0.0010871   0.00020048  0.          0.          0.         -0.         -0.00058134
   0.00035132 -0.00016163]
 [ 0.         -0.         -0.          0.         -0.          0.          0.          0.          0.         -0.         -0.         -0.          0.
  -0.          0.         -0.         -0.         -0.         -0.          0.          0.          0.          0.          0.         -0.         -0.
   0.         -0.        ]
 [ 0.         -0.         -0.          0.         -0.          0.          0.          0.          0.         -0.         -0.         -0.          0.
  -0.          0.         -0.         -0.         -0.         -0.          0.          0.          0.          0.          0.         -0.         -0.
   0.         -0.        ]
 [ 0.         -0.         -0.          0.         -0.          0.          0.          0.          0.         -0.         -0.         -0.          0.
  -0.          0.         -0.         -0.         -0.         -0.          0.          0.          0.          0.          0.         -0.         -0.
   0.         -0.        ]
 [-0.          0.          0.         -0.          0.         -0.         -0.         -0.         -0.          0.          0.          0.         -0.
   0.         -0.          0.          0.          0.          0.         -0.         -0.         -0.         -0.         -0.          0.          0.
  -0.          0.        ]
 [-0.03155084  0.02527035  0.00416075 -0.          0.         -0.         -0.         -0.00441095 -0.00025447  0.          0.          0.         -0.
   0.         -0.          0.          0.          0.00022224  0.00061407 -0.00315221 -0.00058134 -0.         -0.         -0.          0.          0.00168568
  -0.0010187   0.00046867]
 [ 0.01906697 -0.01527151 -0.00251445  0.         -0.          0.          0.          0.00266565  0.00015378 -0.         -0.         -0.          0.
  -0.          0.         -0.         -0.         -0.00013431 -0.0003711   0.00190496  0.00035132  0.          0.          0.         -0.         -0.0010187
   0.00061563 -0.00028323]
 [-0.00877205  0.00702589  0.00115681 -0.          0.         -0.         -0.         -0.00122637 -0.00007075  0.          0.          0.         -0.
   0.         -0.          0.          0.          0.00006179  0.00017073 -0.00087641 -0.00016163 -0.         -0.         -0.          0.          0.00046867
  -0.00028323  0.0001303 ]] 
 [[ 0.59053691  0.47298493 -0.07787677 -0.          0.         -0.          0.         -0.08255967  0.00476294 -0.          0.          0.         -0.
   0.         -0.         -0.         -0.          0.00415971 -0.01149359 -0.05899992  0.01088086 -0.         -0.         -0.          0.          0.03155084
   0.01906697  0.00877205]
 [ 0.47298493  0.37883279 -0.06237466 -0.          0.         -0.          0.         -0.06612538  0.00381483 -0.          0.          0.         -0.
   0.         -0.         -0.         -0.          0.00333168 -0.00920568 -0.04725542  0.00871492 -0.         -0.         -0.          0.          0.02527035
   0.01527151  0.00702589]
 [-0.07787677 -0.06237466  0.01026996  0.         -0.          0.         -0.          0.01088752 -0.00062811  0.         -0.         -0.          0.
  -0.          0.          0.          0.         -0.00054856  0.00151571  0.00778059 -0.00143491  0.          0.          0.         -0.         -0.00416075
  -0.00251445 -0.00115681]
 [-0.         -0.          0.          0.         -0.          0.         -0.          0.         -0.          0.         -0.         -0.          0.
  -0.          0.          0.          0.         -0.          0.          0.         -0.          0.          0.          0.         -0.         -0.
  -0.         -0.        ]
 [ 0.          0.         -0.         -0.          0.         -0.          0.         -0.          0.         -0.          0.          0.         -0.
   0.         -0.         -0.         -0.          0.         -0.         -0.          0.         -0.         -0.         -0.          0.          0.
   0.          0.        ]
 [-0.         -0.          0.          0.         -0.          0.         -0.          0.         -0.          0.         -0.         -0.          0.
  -0.          0.          0.          0.         -0.          0.          0.         -0.          0.          0.          0.         -0.         -0.
  -0.         -0.        ]
 [ 0.          0.         -0.         -0.          0.         -0.          0.         -0.          0.         -0.          0.          0.         -0.
   0.         -0.         -0.         -0.          0.         -0.         -0.          0.         -0.         -0.         -0.          0.          0.
   0.          0.        ]
 [-0.08255967 -0.06612538  0.01088752  0.         -0.          0.         -0.          0.01154221 -0.00066588  0.         -0.         -0.          0.
  -0.          0.          0.          0.         -0.00058155  0.00160685  0.00824845 -0.00152119  0.          0.          0.         -0.         -0.00441095
  -0.00266565 -0.00122637]
 [ 0.00476294  0.00381483 -0.00062811 -0.          0.         -0.          0.         -0.00066588  0.00003842 -0.          0.          0.         -0.
   0.         -0.         -0.         -0.          0.00003355 -0.0000927  -0.00047586  0.00008776 -0.         -0.         -0.          0.          0.00025447
   0.00015378  0.00007075]
 [-0.         -0.          0.          0.         -0.          0.         -0.          0.         -0.          0.         -0.         -0.          0.
  -0.          0.          0.          0.         -0.          0.          0.         -0.          0.          0.          0.         -0.         -0.
  -0.         -0.        ]
 [ 0.          0.         -0.         -0.          0.         -0.          0.         -0.          0.         -0.          0.          0.         -0.
   0.         -0.         -0.         -0.          0.         -0.         -0.          0.         -0.         -0.         -0.          0.          0.
   0.          0.        ]
 [ 0.          0.         -0.         -0.          0.         -0.          0.         -0.          0.         -0.          0.          0.         -0.
   0.         -0.         -0.         -0.          0.         -0.         -0.          0.         -0.         -0.         -0.          0.          0.
   0.          0.        ]
 [-0.         -0.          0.          0.         -0.          0.         -0.          0.         -0.          0.         -0.         -0.          0.
  -0.          0.          0.          0.         -0.          0.          0.         -0.          0.          0.          0.         -0.         -0.
  -0.         -0.        ]
 [ 0.          0.         -0.         -0.          0.         -0.          0.         -0.          0.         -0.          0.          0.         -0.
   0.         -0.         -0.         -0.          0.         -0.         -0.          0.         -0.         -0.         -0.          0.          0.
   0.          0.        ]
 [-0.         -0.          0.          0.         -0.          0.         -0.          0.         -0.          0.         -0.         -0.          0.
  -0.          0.          0.          0.         -0.          0.          0.         -0.          0.          0.          0.         -0.         -0.
  -0.         -0.        ]
 [-0.         -0.          0.          0.         -0.          0.         -0.          0.         -0.          0.         -0.         -0.          0.
  -0.          0.          0.          0.         -0.          0.          0.         -0.          0.          0.          0.         -0.         -0.
  -0.         -0.        ]
 [-0.         -0.          0.          0.         -0.          0.         -0.          0.         -0.          0.         -0.         -0.          0.
  -0.          0.          0.          0.         -0.          0.          0.         -0.          0.          0.          0.         -0.         -0.
  -0.         -0.        ]
 [ 0.00415971  0.00333168 -0.00054856 -0.          0.         -0.          0.         -0.00058155  0.00003355 -0.          0.          0.         -0.
   0.         -0.         -0.         -0.          0.0000293  -0.00008096 -0.00041559  0.00007664 -0.         -0.         -0.          0.          0.00022224
   0.00013431  0.00006179]
 [-0.01149359 -0.00920568  0.00151571  0.         -0.          0.         -0.          0.00160685 -0.0000927   0.         -0.         -0.          0.
  -0.          0.          0.          0.         -0.00008096  0.0002237   0.00114831 -0.00021177  0.          0.          0.         -0.         -0.00061407
  -0.0003711  -0.00017073]
 [-0.05899992 -0.04725542  0.00778059  0.         -0.          0.         -0.          0.00824845 -0.00047586  0.         -0.         -0.          0.
  -0.          0.          0.          0.         -0.00041559  0.00114831  0.00589462 -0.0010871   0.          0.          0.         -0.         -0.00315221
  -0.00190496 -0.00087641]
 [ 0.01088086  0.00871492 -0.00143491 -0.          0.         -0.          0.         -0.00152119  0.00008776 -0.          0.          0.         -0.
   0.         -0.         -0.         -0.          0.00007664 -0.00021177 -0.0010871   0.00020048 -0.         -0.         -0.          0.          0.00058134
   0.00035132  0.00016163]
 [-0.         -0.          0.          0.         -0.          0.         -0.          0.         -0.          0.         -0.         -0.          0.
  -0.          0.          0.          0.         -0.          0.          0.         -0.          0.          0.          0.         -0.         -0.
  -0.         -0.        ]
 [-0.         -0.          0.          0.         -0.          0.         -0.          0.         -0.          0.         -0.         -0.          0.
  -0.          0.          0.          0.         -0.          0.          0.         -0.          0.          0.          0.         -0.         -0.
  -0.         -0.        ]
 [-0.         -0.          0.          0.         -0.          0.         -0.          0.         -0.          0.         -0.         -0.          0.
  -0.          0.          0.          0.         -0.          0.          0.         -0.          0.          0.          0.         -0.         -0.
  -0.         -0.        ]
 [ 0.          0.         -0.         -0.          0.         -0.          0.         -0.          0.         -0.          0.          0.         -0.
   0.         -0.         -0.         -0.          0.         -0.         -0.          0.         -0.         -0.         -0.          0.          0.
   0.          0.        ]
 [ 0.03155084  0.02527035 -0.00416075 -0.          0.         -0.          0.         -0.00441095  0.00025447 -0.          0.          0.         -0.
   0.         -0.         -0.         -0.          0.00022224 -0.00061407 -0.00315221  0.00058134 -0.         -0.         -0.          0.          0.00168568
   0.0010187   0.00046867]
 [ 0.01906697  0.01527151 -0.00251445 -0.          0.         -0.          0.         -0.00266565  0.00015378 -0.          0.          0.         -0.
   0.         -0.         -0.         -0.          0.00013431 -0.0003711  -0.00190496  0.00035132 -0.         -0.         -0.          0.          0.0010187
   0.00061563  0.00028323]
 [ 0.00877205  0.00702589 -0.00115681 -0.          0.         -0.          0.         -0.00122637  0.00007075 -0.          0.          0.         -0.
   0.         -0.         -0.         -0.          0.00006179 -0.00017073 -0.00087641  0.00016163 -0.         -0.         -0.          0.          0.00046867
   0.00028323  0.0001303 ]]

***************
SUHF converged at cycle 8
Final E(SUHF) =     -1.00747933, delta E = -5.32837e-09
