 Entering Gaussian System, Link 0=g09
 Input=suhf-1.7.gjf
 Output=suhf-1.7.log
 Initial command:
 /share/apps/gaussian/G09C01Z/srwang-mod-2020/g09/l1.exe /share/home/srwang/gauscr/Gau-26787.inp -scrdir=/share/home/srwang/gauscr/
 Entering Link 1 = /share/apps/gaussian/G09C01Z/srwang-mod-2020/g09/l1.exe PID=     26788.
  
 Copyright (c) 1988,1990,1992,1993,1995,1998,2003,2009,2011,
            Gaussian, Inc.  All Rights Reserved.
  
 This is part of the Gaussian(R) 09 program.  It is based on
 the Gaussian(R) 03 system (copyright 2003, Gaussian, Inc.),
 the Gaussian(R) 98 system (copyright 1998, Gaussian, Inc.),
 the Gaussian(R) 94 system (copyright 1995, Gaussian, Inc.),
 the Gaussian 92(TM) system (copyright 1992, Gaussian, Inc.),
 the Gaussian 90(TM) system (copyright 1990, Gaussian, Inc.),
 the Gaussian 88(TM) system (copyright 1988, Gaussian, Inc.),
 the Gaussian 86(TM) system (copyright 1986, Carnegie Mellon
 University), and the Gaussian 82(TM) system (copyright 1983,
 Carnegie Mellon University). Gaussian is a federally registered
 trademark of Gaussian, Inc.
  
 This software contains proprietary and confidential information,
 including trade secrets, belonging to Gaussian, Inc.
  
 This software is provided under written license and may be
 used, copied, transmitted, or stored only in accord with that
 written license.
  
 The following legend is applicable only to US Government
 contracts under FAR:
  
                    RESTRICTED RIGHTS LEGEND
  
 Use, reproduction and disclosure by the US Government is
 subject to restrictions as set forth in subparagraphs (a)
 and (c) of the Commercial Computer Software - Restricted
 Rights clause in FAR 52.227-19.
  
 Gaussian, Inc.
 340 Quinnipiac St., Bldg. 40, Wallingford CT 06492
  
  
 ---------------------------------------------------------------
 Warning -- This program may not be used in any manner that
 competes with the business of Gaussian, Inc. or will provide
 assistance to any competitor of Gaussian, Inc.  The licensee
 of this program is prohibited from giving any competitor of
 Gaussian, Inc. access to this program.  By using this program,
 the user acknowledges that Gaussian, Inc. is engaged in the
 business of creating and licensing software in the field of
 computational chemistry and represents and warrants to the
 licensee that it is not a competitor of Gaussian, Inc. and that
 it will not use this program in any manner prohibited above.
 ---------------------------------------------------------------
  

 Cite this work as:
 Gaussian 09, Revision C.01,
 M. J. Frisch, G. W. Trucks, H. B. Schlegel, G. E. Scuseria, 
 M. A. Robb, J. R. Cheeseman, G. Scalmani, V. Barone, B. Mennucci, 
 G. A. Petersson, H. Nakatsuji, M. Caricato, X. Li, H. P. Hratchian, 
 A. F. Izmaylov, J. Bloino, G. Zheng, J. L. Sonnenberg, M. Hada, 
 M. Ehara, K. Toyota, R. Fukuda, J. Hasegawa, M. Ishida, T. Nakajima, 
 Y. Honda, O. Kitao, H. Nakai, T. Vreven, J. A. Montgomery, Jr., 
 J. E. Peralta, F. Ogliaro, M. Bearpark, J. J. Heyd, E. Brothers, 
 K. N. Kudin, V. N. Staroverov, T. Keith, R. Kobayashi, J. Normand, 
 K. Raghavachari, A. Rendell, J. C. Burant, S. S. Iyengar, J. Tomasi, 
 M. Cossi, N. Rega, J. M. Millam, M. Klene, J. E. Knox, J. B. Cross, 
 V. Bakken, C. Adamo, J. Jaramillo, R. Gomperts, R. E. Stratmann, 
 O. Yazyev, A. J. Austin, R. Cammi, C. Pomelli, J. W. Ochterski, 
 R. L. Martin, K. Morokuma, V. G. Zakrzewski, G. A. Voth, 
 P. Salvador, J. J. Dannenberg, S. Dapprich, A. D. Daniels, 
 O. Farkas, J. B. Foresman, J. V. Ortiz, J. Cioslowski, 
 and D. J. Fox, Gaussian, Inc., Wallingford CT, 2010.
 
 ******************************************
 Gaussian 09:  EM64L-G09RevC.01 23-Sep-2011
                24-Nov-2020 
 ******************************************
 %subst l530 /share/home/srwang/ExSCF/phf
 %nproc=1
 Will use up to    1 processors via shared memory.
 %mem=4GB
 %chk=suhf-1.7.chk
 ----------------------------------------------------------------------
 #p uhf/cc-pvtz guess=mix scf=conver=4 extralink=l530 iop( 5/207=4) pop
 =none
 ----------------------------------------------------------------------
 1/38=1/1;
 2/12=2,17=6,18=5,40=1/2;
 3/5=16,6=1,11=2,16=1,25=1,30=1,116=2/1,2,3;
 4/13=-1/1;
 5/5=2,6=4,38=5,207=4/2,30;
 99/5=1,9=1/99;
 Leave Link    1 at Tue Nov 24 04:04:12 2020, MaxMem=  536870912 cpu:       0.0
 (Enter /share/apps/gaussian/G09C01Z/srwang-mod-2020/g09/l101.exe)
 -----
 title
 -----
 Charge =  0 Multiplicity = 1
 Symbolic Z-Matrix:
 H                     0.        0.        0. 
 H                     0.        0.        1.7 
 
 NAtoms=      2 NQM=        0 NQMF=       0 NMMI=      2 NMMIF=      0
                NMic=       0 NMicF=      0.
                    Isotopes and Nuclear Properties:
 (Nuclear quadrupole moments (NQMom) in fm**2, nuclear magnetic moments (NMagM)
  in nuclear magnetons)

  Atom         1           2
 IAtWgt=           1           1
 AtmWgt=   1.0078250   1.0078250
 NucSpn=           1           1
 AtZEff=   0.0000000   0.0000000
 NQMom=    0.0000000   0.0000000
 NMagM=    2.7928460   2.7928460
 Leave Link  101 at Tue Nov 24 04:04:12 2020, MaxMem=  536870912 cpu:       0.0
 (Enter /share/apps/gaussian/G09C01Z/srwang-mod-2020/g09/l202.exe)
                          Input orientation:                          
 ---------------------------------------------------------------------
 Center     Atomic      Atomic             Coordinates (Angstroms)
 Number     Number       Type             X           Y           Z
 ---------------------------------------------------------------------
      1          1           0        0.000000    0.000000    0.000000
      2          1           0        0.000000    0.000000    1.700000
 ---------------------------------------------------------------------
 Stoichiometry    H2
 Framework group  D*H[C*(H.H)]
 Deg. of freedom     1
 Full point group                 D*H     NOp   8
 Largest Abelian subgroup         D2H     NOp   8
 Largest concise Abelian subgroup C2      NOp   2
                         Standard orientation:                         
 ---------------------------------------------------------------------
 Center     Atomic      Atomic             Coordinates (Angstroms)
 Number     Number       Type             X           Y           Z
 ---------------------------------------------------------------------
      1          1           0        0.000000    0.000000    0.850000
      2          1           0        0.000000    0.000000   -0.850000
 ---------------------------------------------------------------------
 Rotational constants (GHZ):      0.0000000    347.0277511    347.0277511
 Leave Link  202 at Tue Nov 24 04:04:12 2020, MaxMem=  536870912 cpu:       0.0
 (Enter /share/apps/gaussian/G09C01Z/srwang-mod-2020/g09/l301.exe)
 Standard basis: CC-pVTZ (5D, 7F)
 Ernie: Thresh=  0.10000D-02 Tol=  0.10000D-05 Strict=F.
 There are     7 symmetry adapted basis functions of AG  symmetry.
 There are     1 symmetry adapted basis functions of B1G symmetry.
 There are     3 symmetry adapted basis functions of B2G symmetry.
 There are     3 symmetry adapted basis functions of B3G symmetry.
 There are     1 symmetry adapted basis functions of AU  symmetry.
 There are     7 symmetry adapted basis functions of B1U symmetry.
 There are     3 symmetry adapted basis functions of B2U symmetry.
 There are     3 symmetry adapted basis functions of B3U symmetry.
 Integral buffers will be    131072 words long.
 Raffenetti 2 integral format.
 Two-electron integral symmetry is turned on.
    28 basis functions,    34 primitive gaussians,    30 cartesian basis functions
     1 alpha electrons        1 beta electrons
       nuclear repulsion energy         0.3112807109 Hartrees.
 IExCor=    0 DFT=F Ex=HF Corr=None ExCW=0 ScaHFX=  1.000000
 ScaDFX=  1.000000  1.000000  1.000000  1.000000 ScalE2=  1.000000  1.000000
 IRadAn=      0 IRanWt=     -1 IRanGd=            0 ICorTp=0
 NAtoms=    2 NActive=    2 NUniq=    1 SFac= 4.00D+00 NAtFMM=   60 NAOKFM=F Big=F
 Leave Link  301 at Tue Nov 24 04:04:12 2020, MaxMem=  536870912 cpu:       0.0
 (Enter /share/apps/gaussian/G09C01Z/srwang-mod-2020/g09/l302.exe)
 NPDir=0 NMtPBC=     1 NCelOv=     1 NCel=       1 NClECP=     1 NCelD=      1
         NCelK=      1 NCelE2=     1 NClLst=     1 CellRange=     0.0.
 One-electron integrals computed using PRISM.
 One-electron integral symmetry used in STVInt
 Bad symmetry data in SVDSVc:  NBasis=   28 NT=   28 NBlks=8 MaxCmp=8 NBF=    7    1    3    3    1    7    3    3
 NBasis=    28 RedAO= T  NBF=     7     1     3     3     1     7     3     3
 NBsUse=    28 1.00D-06 NBFU=     7     1     3     3     1     7     3     3
 Leave Link  302 at Tue Nov 24 04:04:12 2020, MaxMem=  536870912 cpu:       0.1
 (Enter /share/apps/gaussian/G09C01Z/srwang-mod-2020/g09/l303.exe)
 DipDrv:  MaxL=1.
 Leave Link  303 at Tue Nov 24 04:04:12 2020, MaxMem=  536870912 cpu:       0.0
 (Enter /share/apps/gaussian/G09C01Z/srwang-mod-2020/g09/l401.exe)
 Harris functional with IExCor=  205 diagonalized for initial guess.
 ExpMin= 1.03D-01 ExpMax= 3.39D+01 ExpMxC= 3.39D+01 IAcc=1 IRadAn=         1 AccDes= 0.00D+00
 HarFok:  IExCor=  205 AccDes= 0.00D+00 IRadAn=         1 IDoV= 1
 ScaDFX=  1.000000  1.000000  1.000000  1.000000
 FoFCou: FMM=F IPFlag=           0 FMFlag=      100000 FMFlg1=           0
         NFxFlg=           0 DoJE=T BraDBF=F KetDBF=T FulRan=T
         Omega=  0.000000  0.000000  1.000000  0.000000  0.000000 ICntrl=     500 IOpCl=  0
         NMat0=    1 NMatS0=    1 NMatT0=    0 NMatD0=    1 NMtDS0=    0 NMtDT0=    0
         I1Cent=           4 NGrid=           0.
 Petite list used in FoFCou.
 Harris En= -1.04499600413514    
 Mixing orbitals, IMix= 1 IMixAn=  0 NRI=1 NE=    1 Coef=  7.07106781D-01  7.07106781D-01
 Mixing orbitals, IMix= 1 IMixAn=  0 NRI=1 NE=    1 Coef= -7.07106781D-01  7.07106781D-01
 Initial guess orbital symmetries:
 Alpha Orbitals:
       Occupied  (?A)
       Virtual   (?A) (SGG) (SGU) (PIU) (PIU) (SGG) (PIG) (PIG)
                 (SGU) (SGG) (SGU) (SGG) (PIU) (PIU) (DLTG) (DLTG)
                 (DLTU) (DLTU) (PIG) (PIG) (SGU) (PIU) (PIU) (PIG)
                 (PIG) (SGG) (SGU)
 Beta  Orbitals:
       Occupied  (?A)
       Virtual   (?A) (SGG) (SGU) (PIU) (PIU) (SGG) (PIG) (PIG)
                 (SGU) (SGG) (SGU) (SGG) (PIU) (PIU) (DLTG) (DLTG)
                 (DLTU) (DLTU) (PIG) (PIG) (SGU) (PIU) (PIU) (PIG)
                 (PIG) (SGG) (SGU)
 Initial guess <Sx>= 0.0000 <Sy>= 0.0000 <Sz>= 0.0000 <S**2>= 1.0000 S= 0.6180
 Leave Link  401 at Tue Nov 24 04:04:12 2020, MaxMem=  536870912 cpu:       0.1
 (Enter /share/apps/gaussian/G09C01Z/srwang-mod-2020/g09/l502.exe)
 UHF open shell SCF:
 Requested convergence on RMS density matrix=1.00D-04 within 128 cycles.
 Requested convergence on MAX density matrix=1.00D-02.
 Requested convergence on             energy=1.00D-02.
 No special actions if energy rises.
 Using DIIS extrapolation, IDIIS=  1040.
 Integral symmetry usage will be decided dynamically.
 Keep R1 and R2 ints in memory in canonical form, NReq=1058073.
 IEnd=       21362 IEndB=       21362 NGot=   536870912 MDV=   536650403
 LenX=   536650403 LenY=   536649062
 Symmetry not used in FoFDir.
 MinBra= 0 MaxBra= 2 Meth= 1.
 IRaf=       0 NMat=   1 IRICut=       1 DoRegI=T DoRafI=F ISym2E= 0 JSym2E=0.
 An orbital has undefined symmetry, so N**3 symmetry is turned off.

 Cycle   1  Pass 1  IDiag  1:
 Density matrix breaks symmetry, PCut= 1.00D-04
 Density matrix has no symmetry -- integrals replicated.
 E=-0.960915085367355    
 DIIS: error= 3.41D-02 at cycle   1 NSaved=   1.
 NSaved= 1 IEnMin= 1 EnMin=-0.960915085367355     IErMin= 1 ErrMin= 3.41D-02
 ErrMax= 3.41D-02 EMaxC= 1.00D-01 BMatC= 4.24D-02 BMatP= 4.24D-02
 IDIUse=3 WtCom= 6.59D-01 WtEn= 3.41D-01
 Coeff-Com:  0.100D+01
 Coeff-En:   0.100D+01
 Coeff:      0.100D+01
 Gap=     0.573 Goal=   None    Shift=    0.000
 Gap=     0.573 Goal=   None    Shift=    0.000
 GapD=    0.573 DampG=2.000 DampE=0.500 DampFc=1.0000 IDamp=-1.
 RMSDP=8.43D-03 MaxDP=1.43D-01              OVMax= 1.56D-01

 Cycle   2  Pass 1  IDiag  1:
 Density matrix breaks symmetry, PCut= 1.00D-07
 Density matrix has no symmetry -- integrals replicated.
 E= -1.00353960396034     Delta-E=       -0.042624518593 Rises=F Damp=F
 DIIS: error= 1.41D-02 at cycle   2 NSaved=   2.
 NSaved= 2 IEnMin= 2 EnMin= -1.00353960396034     IErMin= 2 ErrMin= 1.41D-02
 ErrMax= 1.41D-02 EMaxC= 1.00D-01 BMatC= 5.50D-03 BMatP= 4.24D-02
 IDIUse=3 WtCom= 8.59D-01 WtEn= 1.41D-01
 Coeff-Com: -0.474D+00 0.147D+01
 Coeff-En:   0.000D+00 0.100D+01
 Coeff:     -0.407D+00 0.141D+01
 Gap=     0.588 Goal=   None    Shift=    0.000
 Gap=     0.588 Goal=   None    Shift=    0.000
 RMSDP=3.72D-03 MaxDP=5.53D-02 DE=-4.26D-02 OVMax= 8.14D-02

 Cycle   3  Pass 1  IDiag  1:
 Density matrix breaks symmetry, PCut= 1.00D-07
 Density matrix has no symmetry -- integrals replicated.
 E= -1.01066216642192     Delta-E=       -0.007122562462 Rises=F Damp=F
 DIIS: error= 4.31D-03 at cycle   3 NSaved=   3.
 NSaved= 3 IEnMin= 3 EnMin= -1.01066216642192     IErMin= 3 ErrMin= 4.31D-03
 ErrMax= 4.31D-03 EMaxC= 1.00D-01 BMatC= 4.15D-04 BMatP= 5.50D-03
 IDIUse=3 WtCom= 9.57D-01 WtEn= 4.31D-02
 Coeff-Com:  0.177D+00-0.705D+00 0.153D+01
 Coeff-En:   0.000D+00 0.000D+00 0.100D+01
 Coeff:      0.169D+00-0.675D+00 0.151D+01
 Gap=     0.571 Goal=   None    Shift=    0.000
 Gap=     0.571 Goal=   None    Shift=    0.000
 RMSDP=7.50D-04 MaxDP=7.97D-03 DE=-7.12D-03 OVMax= 2.54D-02

 Cycle   4  Pass 1  IDiag  1:
 Density matrix breaks symmetry, PCut= 1.00D-07
 Density matrix has no symmetry -- integrals replicated.
 E= -1.01130421335746     Delta-E=       -0.000642046936 Rises=F Damp=F
 DIIS: error= 1.41D-03 at cycle   4 NSaved=   4.
 NSaved= 4 IEnMin= 4 EnMin= -1.01130421335746     IErMin= 4 ErrMin= 1.41D-03
 ErrMax= 1.41D-03 EMaxC= 1.00D-01 BMatC= 5.27D-05 BMatP= 4.15D-04
 IDIUse=3 WtCom= 9.86D-01 WtEn= 1.41D-02
 Coeff-Com: -0.667D-01 0.283D+00-0.937D+00 0.172D+01
 Coeff-En:   0.000D+00 0.000D+00 0.000D+00 0.100D+01
 Coeff:     -0.657D-01 0.279D+00-0.924D+00 0.171D+01
 Gap=     0.571 Goal=   None    Shift=    0.000
 Gap=     0.571 Goal=   None    Shift=    0.000
 RMSDP=3.34D-04 MaxDP=5.80D-03 DE=-6.42D-04 OVMax= 1.10D-02

 Cycle   5  Pass 1  IDiag  1:
 Density matrix breaks symmetry, PCut= 1.00D-07
 Density matrix has no symmetry -- integrals replicated.
 E= -1.01138810601942     Delta-E=       -0.000083892662 Rises=F Damp=F
 DIIS: error= 1.86D-04 at cycle   5 NSaved=   5.
 NSaved= 5 IEnMin= 5 EnMin= -1.01138810601942     IErMin= 5 ErrMin= 1.86D-04
 ErrMax= 1.86D-04 EMaxC= 1.00D-01 BMatC= 1.11D-06 BMatP= 5.27D-05
 IDIUse=3 WtCom= 9.98D-01 WtEn= 1.86D-03
 Coeff-Com:  0.987D-02-0.456D-01 0.181D+00-0.521D+00 0.138D+01
 Coeff-En:   0.000D+00 0.000D+00 0.000D+00 0.000D+00 0.100D+01
 Coeff:      0.985D-02-0.455D-01 0.180D+00-0.521D+00 0.138D+01
 Gap=     0.569 Goal=   None    Shift=    0.000
 Gap=     0.569 Goal=   None    Shift=    0.000
 RMSDP=6.06D-05 MaxDP=1.10D-03 DE=-8.39D-05 OVMax= 1.88D-03

 Density matrix breaks symmetry, PCut= 1.00D-07
 Density matrix has no symmetry -- integrals replicated.
 SCF Done:  E(UHF) =  -1.01138810602     A.U. after    5 cycles
             Convg  =    0.6059D-04             -V/T =  2.0718
 <Sx>= 0.0000 <Sy>= 0.0000 <Sz>= 0.0000 <S**2>= 0.7664 S= 0.5082
 <L.S>= 0.000000000000E+00
 KE= 9.436396506893D-01 PE=-2.595565227976D+00 EE= 3.292567603321D-01
 Annihilation of the first spin contaminant:
 S**2 before annihilation     0.7664,   after     0.0000
 Leave Link  502 at Tue Nov 24 04:04:12 2020, MaxMem=  536870912 cpu:       0.1
  
  +-------------------------------------------+
  |                                           |
  |  LINK 530 - Projected Hartree-Fock (PHF)  |
  |     Self-Consistent Field (SCF) Code      |
  |                                           |
  |                                           |
  |         the Scuseria group, v0.2, 07.2011 |
  +-------------------------------------------+
  
 (Enter /share/home/srwang/ExSCF/phf/l530.exe)

 PHF SCF was invoked with the following options:

   method selection:
 iprint =  0
 iphf   =  4, [ UHF + spin projection ]

   general options:
 maxcyc =    512, S      =      0
 ngrda  =      1, ngrdb  =      8, ngrdg  =      1

   accuracy requested:
 conv criterion (RMSDP, RMSDK) =     1.0000E-08
 requested integral accuracy   =     1.0000E-10

   use of symmetry:
 two-electron integral symmetry not used

   strategy options:
 level shifting is turned off
 istrat =      1, continue as usual if energy rises
 modified PHF effective Fock matrix used

   initial guess options:
 igues1 =  1, read GDV guess


 PHF SCF - preparing initial guess


 PHF SCF - starting SCF procedure

beta in GauLeg
grd=    0.0624    0.3194    0.7453    1.2827    1.8589    2.3963    2.8222    3.0792
wgt=    0.0099    0.1097    0.3342    0.5462    0.5462    0.3342    0.1097    0.0099
WigArr: s=    0, sz=    0, isint=    T, ncis=                       1, dind=    0.0000
dmt=    1.0000    1.0000    1.0000    1.0000    1.0000    1.0000    1.0000    1.0000
*********  Start Cycle  1  *************
 
Start hffock
  
 Core Hamiltonian (real):
                 1             2             3             4             5 
      1  -0.835036889131123D+00 -0.206372773651776D+00  0.339253302523128D-01  0.000000000000000D+00 -0.390028461194726D-01
      2  -0.206372773651776D+00  0.312272018107152D+00 -0.218201195918994D-01  0.000000000000000D+00  0.942166693739785D-02
      3   0.339253302523128D-01 -0.218201195918994D-01  0.224610821047961D+01  0.000000000000000D+00 -0.132923261554856D+00
      4   0.000000000000000D+00  0.000000000000000D+00  0.000000000000000D+00  0.250297233657122D+01  0.000000000000000D+00
      5  -0.390028461194726D-01  0.942166693739781D-02 -0.132923261554856D+00  0.000000000000000D+00  0.322302970187619D+00
      6  -0.214961471930755D+00  0.104148055447935D+01  0.198586898879604D+00  0.000000000000000D+00 -0.153098559816753D+00
      7  -0.701817276822177D-01 -0.528441287771975D-01 -0.291536764360396D+00  0.000000000000000D+00 -0.787048701329216D+00
      8   0.000000000000000D+00  0.000000000000000D+00  0.000000000000000D+00  0.000000000000000D+00  0.000000000000000D+00
      9   0.000000000000000D+00  0.000000000000000D+00  0.000000000000000D+00  0.000000000000000D+00  0.000000000000000D+00
     10   0.000000000000000D+00  0.000000000000000D+00  0.000000000000000D+00  0.000000000000000D+00  0.000000000000000D+00
     11   0.000000000000000D+00  0.000000000000000D+00  0.000000000000000D+00  0.000000000000000D+00  0.000000000000000D+00
     12   0.000000000000000D+00  0.000000000000000D+00  0.000000000000000D+00  0.000000000000000D+00  0.000000000000000D+00
     13   0.000000000000000D+00  0.000000000000000D+00  0.000000000000000D+00  0.000000000000000D+00  0.000000000000000D+00
     14   0.000000000000000D+00  0.000000000000000D+00  0.000000000000000D+00  0.000000000000000D+00  0.000000000000000D+00
     15   0.000000000000000D+00  0.000000000000000D+00  0.000000000000000D+00  0.000000000000000D+00  0.000000000000000D+00
     16   0.000000000000000D+00  0.000000000000000D+00  0.000000000000000D+00  0.000000000000000D+00  0.000000000000000D+00
     17   0.000000000000000D+00  0.000000000000000D+00  0.000000000000000D+00  0.000000000000000D+00  0.000000000000000D+00
     18   0.000000000000000D+00  0.000000000000000D+00  0.000000000000000D+00  0.000000000000000D+00  0.000000000000000D+00
     19   0.000000000000000D+00  0.000000000000000D+00  0.000000000000000D+00  0.000000000000000D+00  0.000000000000000D+00
     20   0.000000000000000D+00  0.000000000000000D+00  0.000000000000000D+00  0.000000000000000D+00  0.000000000000000D+00
     21   0.000000000000000D+00  0.000000000000000D+00  0.000000000000000D+00  0.000000000000000D+00  0.000000000000000D+00
     22   0.000000000000000D+00  0.000000000000000D+00  0.000000000000000D+00  0.000000000000000D+00  0.000000000000000D+00
     23   0.000000000000000D+00  0.000000000000000D+00  0.000000000000000D+00  0.000000000000000D+00  0.000000000000000D+00
     24   0.000000000000000D+00  0.000000000000000D+00  0.000000000000000D+00  0.000000000000000D+00  0.000000000000000D+00
     25   0.000000000000000D+00  0.000000000000000D+00  0.000000000000000D+00  0.000000000000000D+00  0.000000000000000D+00
     26   0.000000000000000D+00  0.000000000000000D+00  0.000000000000000D+00  0.000000000000000D+00  0.000000000000000D+00
     27   0.000000000000000D+00  0.000000000000000D+00  0.000000000000000D+00  0.000000000000000D+00  0.000000000000000D+00
     28   0.000000000000000D+00  0.000000000000000D+00  0.000000000000000D+00  0.000000000000000D+00  0.000000000000000D+00
                 6             7             8             9            10 
      1  -0.214961471930755D+00 -0.701817276822174D-01  0.000000000000000D+00  0.000000000000000D+00  0.000000000000000D+00
      2   0.104148055447935D+01 -0.528441287771975D-01  0.000000000000000D+00  0.000000000000000D+00  0.000000000000000D+00
      3   0.198586898879604D+00 -0.291536764360396D+00  0.000000000000000D+00  0.000000000000000D+00  0.000000000000000D+00
      4   0.000000000000000D+00  0.000000000000000D+00  0.000000000000000D+00  0.000000000000000D+00  0.000000000000000D+00
      5  -0.153098559816753D+00 -0.787048701329216D+00  0.000000000000000D+00  0.000000000000000D+00  0.000000000000000D+00
      6   0.261734551542190D+01 -0.167412615544781D+00  0.000000000000000D+00  0.000000000000000D+00  0.000000000000000D+00
      7  -0.167412615544781D+00  0.107654299593857D+01  0.000000000000000D+00  0.000000000000000D+00  0.000000000000000D+00
      8   0.000000000000000D+00  0.000000000000000D+00  0.250297233657122D+01  0.000000000000000D+00  0.000000000000000D+00
      9   0.000000000000000D+00  0.000000000000000D+00  0.000000000000000D+00  0.861000615953088D+00  0.383477242986265D-01
     10   0.000000000000000D+00  0.000000000000000D+00  0.000000000000000D+00  0.383477242986265D-01  0.270133882501402D+01
     11   0.000000000000000D+00  0.000000000000000D+00  0.000000000000000D+00 -0.125207931984038D+01 -0.118486599893916D+00
     12   0.000000000000000D+00  0.000000000000000D+00  0.000000000000000D+00  0.000000000000000D+00  0.000000000000000D+00
     13   0.000000000000000D+00  0.000000000000000D+00  0.000000000000000D+00  0.000000000000000D+00  0.000000000000000D+00
     14   0.000000000000000D+00  0.000000000000000D+00  0.000000000000000D+00  0.000000000000000D+00  0.000000000000000D+00
     15   0.000000000000000D+00  0.000000000000000D+00  0.000000000000000D+00  0.000000000000000D+00  0.000000000000000D+00
     16   0.000000000000000D+00  0.000000000000000D+00  0.000000000000000D+00  0.000000000000000D+00  0.000000000000000D+00
     17   0.000000000000000D+00  0.000000000000000D+00  0.000000000000000D+00  0.000000000000000D+00  0.000000000000000D+00
     18   0.000000000000000D+00  0.000000000000000D+00  0.000000000000000D+00  0.000000000000000D+00  0.000000000000000D+00
     19   0.000000000000000D+00  0.000000000000000D+00  0.000000000000000D+00  0.000000000000000D+00  0.000000000000000D+00
     20   0.000000000000000D+00  0.000000000000000D+00  0.000000000000000D+00  0.000000000000000D+00  0.000000000000000D+00
     21   0.000000000000000D+00  0.000000000000000D+00  0.000000000000000D+00  0.000000000000000D+00  0.000000000000000D+00
     22   0.000000000000000D+00  0.000000000000000D+00  0.000000000000000D+00  0.000000000000000D+00  0.000000000000000D+00
     23   0.000000000000000D+00  0.000000000000000D+00  0.000000000000000D+00  0.000000000000000D+00  0.000000000000000D+00
     24   0.000000000000000D+00  0.000000000000000D+00  0.000000000000000D+00  0.000000000000000D+00  0.000000000000000D+00
     25   0.000000000000000D+00  0.000000000000000D+00  0.000000000000000D+00  0.000000000000000D+00  0.000000000000000D+00
     26   0.000000000000000D+00  0.000000000000000D+00  0.000000000000000D+00  0.000000000000000D+00  0.000000000000000D+00
     27   0.000000000000000D+00  0.000000000000000D+00  0.000000000000000D+00  0.000000000000000D+00  0.000000000000000D+00
     28   0.000000000000000D+00  0.000000000000000D+00  0.000000000000000D+00  0.000000000000000D+00  0.000000000000000D+00
                11            12            13            14            15 
      1   0.000000000000000D+00  0.000000000000000D+00  0.000000000000000D+00  0.000000000000000D+00  0.000000000000000D+00
      2   0.000000000000000D+00  0.000000000000000D+00  0.000000000000000D+00  0.000000000000000D+00  0.000000000000000D+00
      3   0.000000000000000D+00  0.000000000000000D+00  0.000000000000000D+00  0.000000000000000D+00  0.000000000000000D+00
      4   0.000000000000000D+00  0.000000000000000D+00  0.000000000000000D+00  0.000000000000000D+00  0.000000000000000D+00
      5   0.000000000000000D+00  0.000000000000000D+00  0.000000000000000D+00  0.000000000000000D+00  0.000000000000000D+00
      6   0.000000000000000D+00  0.000000000000000D+00  0.000000000000000D+00  0.000000000000000D+00  0.000000000000000D+00
      7   0.000000000000000D+00  0.000000000000000D+00  0.000000000000000D+00  0.000000000000000D+00  0.000000000000000D+00
      8   0.000000000000000D+00  0.000000000000000D+00  0.000000000000000D+00  0.000000000000000D+00  0.000000000000000D+00
      9  -0.125207931984038D+01  0.000000000000000D+00  0.000000000000000D+00  0.000000000000000D+00  0.000000000000000D+00
     10  -0.118486599893916D+00  0.000000000000000D+00  0.000000000000000D+00  0.000000000000000D+00  0.000000000000000D+00
     11   0.228187617233209D+01  0.000000000000000D+00  0.000000000000000D+00  0.000000000000000D+00  0.000000000000000D+00
     12   0.000000000000000D+00  0.861000615953088D+00  0.383477242986265D-01 -0.125207931984038D+01  0.000000000000000D+00
     13   0.000000000000000D+00  0.383477242986265D-01  0.270133882501402D+01 -0.118486599893916D+00  0.000000000000000D+00
     14   0.000000000000000D+00 -0.125207931984038D+01 -0.118486599893916D+00  0.228187617233209D+01  0.000000000000000D+00
     15   0.000000000000000D+00  0.000000000000000D+00  0.000000000000000D+00  0.000000000000000D+00  0.255123415242654D+01
     16   0.000000000000000D+00  0.000000000000000D+00  0.000000000000000D+00  0.000000000000000D+00  0.000000000000000D+00
     17   0.000000000000000D+00  0.000000000000000D+00  0.000000000000000D+00  0.000000000000000D+00  0.000000000000000D+00
     18   0.000000000000000D+00  0.000000000000000D+00  0.000000000000000D+00  0.000000000000000D+00  0.000000000000000D+00
     19   0.000000000000000D+00  0.000000000000000D+00  0.000000000000000D+00  0.000000000000000D+00  0.000000000000000D+00
     20   0.000000000000000D+00  0.000000000000000D+00  0.000000000000000D+00  0.000000000000000D+00  0.000000000000000D+00
     21   0.000000000000000D+00  0.000000000000000D+00  0.000000000000000D+00  0.000000000000000D+00  0.000000000000000D+00
     22   0.000000000000000D+00  0.000000000000000D+00  0.000000000000000D+00  0.000000000000000D+00  0.000000000000000D+00
     23   0.000000000000000D+00  0.000000000000000D+00  0.000000000000000D+00  0.000000000000000D+00  0.000000000000000D+00
     24   0.000000000000000D+00  0.000000000000000D+00  0.000000000000000D+00  0.000000000000000D+00  0.000000000000000D+00
     25   0.000000000000000D+00  0.000000000000000D+00  0.000000000000000D+00  0.000000000000000D+00  0.000000000000000D+00
     26   0.000000000000000D+00  0.000000000000000D+00  0.000000000000000D+00  0.000000000000000D+00  0.000000000000000D+00
     27   0.000000000000000D+00  0.000000000000000D+00  0.000000000000000D+00  0.000000000000000D+00  0.000000000000000D+00
     28   0.000000000000000D+00  0.000000000000000D+00  0.000000000000000D+00  0.000000000000000D+00  0.000000000000000D+00
                16            17            18            19            20 
      1   0.000000000000000D+00  0.000000000000000D+00  0.000000000000000D+00  0.000000000000000D+00  0.000000000000000D+00
      2   0.000000000000000D+00  0.000000000000000D+00  0.000000000000000D+00  0.000000000000000D+00  0.000000000000000D+00
      3   0.000000000000000D+00  0.000000000000000D+00  0.000000000000000D+00  0.000000000000000D+00  0.000000000000000D+00
      4   0.000000000000000D+00  0.000000000000000D+00  0.000000000000000D+00  0.000000000000000D+00  0.000000000000000D+00
      5   0.000000000000000D+00  0.000000000000000D+00  0.000000000000000D+00  0.000000000000000D+00  0.000000000000000D+00
      6   0.000000000000000D+00  0.000000000000000D+00  0.000000000000000D+00  0.000000000000000D+00  0.000000000000000D+00
      7   0.000000000000000D+00  0.000000000000000D+00  0.000000000000000D+00  0.000000000000000D+00  0.000000000000000D+00
      8   0.000000000000000D+00  0.000000000000000D+00  0.000000000000000D+00  0.000000000000000D+00  0.000000000000000D+00
      9   0.000000000000000D+00  0.000000000000000D+00  0.000000000000000D+00  0.000000000000000D+00  0.000000000000000D+00
     10   0.000000000000000D+00  0.000000000000000D+00  0.000000000000000D+00  0.000000000000000D+00  0.000000000000000D+00
     11   0.000000000000000D+00  0.000000000000000D+00  0.000000000000000D+00  0.000000000000000D+00  0.000000000000000D+00
     12   0.000000000000000D+00  0.000000000000000D+00  0.000000000000000D+00  0.000000000000000D+00  0.000000000000000D+00
     13   0.000000000000000D+00  0.000000000000000D+00  0.000000000000000D+00  0.000000000000000D+00  0.000000000000000D+00
     14   0.000000000000000D+00  0.000000000000000D+00  0.000000000000000D+00  0.000000000000000D+00  0.000000000000000D+00
     15   0.000000000000000D+00  0.000000000000000D+00  0.000000000000000D+00  0.000000000000000D+00  0.000000000000000D+00
     16  -0.494971860992525D+00  0.487872350263143D+00  0.000000000000000D+00 -0.183481923301787D+00  0.410838340837112D+00
     17   0.487872350263143D+00  0.114330512925245D+01  0.000000000000000D+00  0.207149385451832D+00  0.634631067940764D+00
     18   0.000000000000000D+00  0.000000000000000D+00  0.255123415242654D+01  0.000000000000000D+00  0.000000000000000D+00
     19  -0.183481923301787D+00  0.207149385451832D+00  0.000000000000000D+00  0.287959436603392D+01 -0.280698946937999D+00
     20   0.410838340837112D+00  0.634631067940764D+00  0.000000000000000D+00 -0.280698946937999D+00  0.102243020061634D+01
     21  -0.631532897099754D-01 -0.121070757901204D+01  0.000000000000000D+00 -0.560582590251196D+00 -0.566749829277523D+00
     22   0.166745748029030D+00 -0.146636861025106D+00  0.000000000000000D+00 -0.133327413488956D+00  0.864793978663377D+00
     23   0.000000000000000D+00  0.000000000000000D+00  0.000000000000000D+00  0.000000000000000D+00  0.000000000000000D+00
     24   0.000000000000000D+00  0.000000000000000D+00  0.000000000000000D+00  0.000000000000000D+00  0.000000000000000D+00
     25   0.000000000000000D+00  0.000000000000000D+00  0.000000000000000D+00  0.000000000000000D+00  0.000000000000000D+00
     26   0.000000000000000D+00  0.000000000000000D+00  0.000000000000000D+00  0.000000000000000D+00  0.000000000000000D+00
     27   0.000000000000000D+00  0.000000000000000D+00  0.000000000000000D+00  0.000000000000000D+00  0.000000000000000D+00
     28   0.000000000000000D+00  0.000000000000000D+00  0.000000000000000D+00  0.000000000000000D+00  0.000000000000000D+00
                21            22            23            24            25 
      1   0.000000000000000D+00  0.000000000000000D+00  0.000000000000000D+00  0.000000000000000D+00  0.000000000000000D+00
      2   0.000000000000000D+00  0.000000000000000D+00  0.000000000000000D+00  0.000000000000000D+00  0.000000000000000D+00
      3   0.000000000000000D+00  0.000000000000000D+00  0.000000000000000D+00  0.000000000000000D+00  0.000000000000000D+00
      4   0.000000000000000D+00  0.000000000000000D+00  0.000000000000000D+00  0.000000000000000D+00  0.000000000000000D+00
      5   0.000000000000000D+00  0.000000000000000D+00  0.000000000000000D+00  0.000000000000000D+00  0.000000000000000D+00
      6   0.000000000000000D+00  0.000000000000000D+00  0.000000000000000D+00  0.000000000000000D+00  0.000000000000000D+00
      7   0.000000000000000D+00  0.000000000000000D+00  0.000000000000000D+00  0.000000000000000D+00  0.000000000000000D+00
      8   0.000000000000000D+00  0.000000000000000D+00  0.000000000000000D+00  0.000000000000000D+00  0.000000000000000D+00
      9   0.000000000000000D+00  0.000000000000000D+00  0.000000000000000D+00  0.000000000000000D+00  0.000000000000000D+00
     10   0.000000000000000D+00  0.000000000000000D+00  0.000000000000000D+00  0.000000000000000D+00  0.000000000000000D+00
     11   0.000000000000000D+00  0.000000000000000D+00  0.000000000000000D+00  0.000000000000000D+00  0.000000000000000D+00
     12   0.000000000000000D+00  0.000000000000000D+00  0.000000000000000D+00  0.000000000000000D+00  0.000000000000000D+00
     13   0.000000000000000D+00  0.000000000000000D+00  0.000000000000000D+00  0.000000000000000D+00  0.000000000000000D+00
     14   0.000000000000000D+00  0.000000000000000D+00  0.000000000000000D+00  0.000000000000000D+00  0.000000000000000D+00
     15   0.000000000000000D+00  0.000000000000000D+00  0.000000000000000D+00  0.000000000000000D+00  0.000000000000000D+00
     16  -0.631532897099753D-01  0.166745748029030D+00  0.000000000000000D+00  0.000000000000000D+00  0.000000000000000D+00
     17  -0.121070757901205D+01 -0.146636861025106D+00  0.000000000000000D+00  0.000000000000000D+00  0.000000000000000D+00
     18   0.000000000000000D+00  0.000000000000000D+00  0.000000000000000D+00  0.000000000000000D+00  0.000000000000000D+00
     19  -0.560582590251196D+00 -0.133327413488956D+00  0.000000000000000D+00  0.000000000000000D+00  0.000000000000000D+00
     20  -0.566749829277523D+00  0.864793978663377D+00  0.000000000000000D+00  0.000000000000000D+00  0.000000000000000D+00
     21   0.245015827573537D+01  0.411505359118530D+00  0.000000000000000D+00  0.000000000000000D+00  0.000000000000000D+00
     22   0.411505359118530D+00  0.936065652136441D+00  0.000000000000000D+00  0.000000000000000D+00  0.000000000000000D+00
     23   0.000000000000000D+00  0.000000000000000D+00  0.519616526554678D+00  0.444274933159182D-01  0.119521474899588D+01
     24   0.000000000000000D+00  0.000000000000000D+00  0.444274933159182D-01  0.234019068558951D+01 -0.427635517073515D-01
     25   0.000000000000000D+00  0.000000000000000D+00  0.119521474899588D+01 -0.427635517073515D-01  0.226505570059633D+01
     26   0.000000000000000D+00  0.000000000000000D+00  0.000000000000000D+00  0.000000000000000D+00  0.000000000000000D+00
     27   0.000000000000000D+00  0.000000000000000D+00  0.000000000000000D+00  0.000000000000000D+00  0.000000000000000D+00
     28   0.000000000000000D+00  0.000000000000000D+00  0.000000000000000D+00  0.000000000000000D+00  0.000000000000000D+00
                26            27            28 
      1   0.000000000000000D+00  0.000000000000000D+00  0.000000000000000D+00
      2   0.000000000000000D+00  0.000000000000000D+00  0.000000000000000D+00
      3   0.000000000000000D+00  0.000000000000000D+00  0.000000000000000D+00
      4   0.000000000000000D+00  0.000000000000000D+00  0.000000000000000D+00
      5   0.000000000000000D+00  0.000000000000000D+00  0.000000000000000D+00
      6   0.000000000000000D+00  0.000000000000000D+00  0.000000000000000D+00
      7   0.000000000000000D+00  0.000000000000000D+00  0.000000000000000D+00
      8   0.000000000000000D+00  0.000000000000000D+00  0.000000000000000D+00
      9   0.000000000000000D+00  0.000000000000000D+00  0.000000000000000D+00
     10   0.000000000000000D+00  0.000000000000000D+00  0.000000000000000D+00
     11   0.000000000000000D+00  0.000000000000000D+00  0.000000000000000D+00
     12   0.000000000000000D+00  0.000000000000000D+00  0.000000000000000D+00
     13   0.000000000000000D+00  0.000000000000000D+00  0.000000000000000D+00
     14   0.000000000000000D+00  0.000000000000000D+00  0.000000000000000D+00
     15   0.000000000000000D+00  0.000000000000000D+00  0.000000000000000D+00
     16   0.000000000000000D+00  0.000000000000000D+00  0.000000000000000D+00
     17   0.000000000000000D+00  0.000000000000000D+00  0.000000000000000D+00
     18   0.000000000000000D+00  0.000000000000000D+00  0.000000000000000D+00
     19   0.000000000000000D+00  0.000000000000000D+00  0.000000000000000D+00
     20   0.000000000000000D+00  0.000000000000000D+00  0.000000000000000D+00
     21   0.000000000000000D+00  0.000000000000000D+00  0.000000000000000D+00
     22   0.000000000000000D+00  0.000000000000000D+00  0.000000000000000D+00
     23   0.000000000000000D+00  0.000000000000000D+00  0.000000000000000D+00
     24   0.000000000000000D+00  0.000000000000000D+00  0.000000000000000D+00
     25   0.000000000000000D+00  0.000000000000000D+00  0.000000000000000D+00
     26   0.519616526554679D+00  0.444274933159182D-01  0.119521474899588D+01
     27   0.444274933159182D-01  0.234019068558951D+01 -0.427635517073515D-01
     28   0.119521474899588D+01 -0.427635517073515D-01  0.226505570059633D+01
 Core Hamiltonian (imaginary):
                 1             2             3             4             5 
      1   0.000000000000000D+00  0.000000000000000D+00  0.000000000000000D+00  0.000000000000000D+00  0.000000000000000D+00
      2   0.000000000000000D+00  0.000000000000000D+00  0.000000000000000D+00  0.000000000000000D+00  0.000000000000000D+00
      3   0.000000000000000D+00  0.000000000000000D+00  0.000000000000000D+00  0.000000000000000D+00  0.000000000000000D+00
      4   0.000000000000000D+00  0.000000000000000D+00  0.000000000000000D+00  0.000000000000000D+00  0.000000000000000D+00
      5   0.000000000000000D+00  0.000000000000000D+00  0.000000000000000D+00  0.000000000000000D+00  0.000000000000000D+00
      6   0.000000000000000D+00  0.000000000000000D+00  0.000000000000000D+00  0.000000000000000D+00  0.000000000000000D+00
      7   0.000000000000000D+00  0.000000000000000D+00  0.000000000000000D+00  0.000000000000000D+00  0.000000000000000D+00
      8   0.000000000000000D+00  0.000000000000000D+00  0.000000000000000D+00  0.000000000000000D+00  0.000000000000000D+00
      9   0.000000000000000D+00  0.000000000000000D+00  0.000000000000000D+00  0.000000000000000D+00  0.000000000000000D+00
     10   0.000000000000000D+00  0.000000000000000D+00  0.000000000000000D+00  0.000000000000000D+00  0.000000000000000D+00
     11   0.000000000000000D+00  0.000000000000000D+00  0.000000000000000D+00  0.000000000000000D+00  0.000000000000000D+00
     12   0.000000000000000D+00  0.000000000000000D+00  0.000000000000000D+00  0.000000000000000D+00  0.000000000000000D+00
     13   0.000000000000000D+00  0.000000000000000D+00  0.000000000000000D+00  0.000000000000000D+00  0.000000000000000D+00
     14   0.000000000000000D+00  0.000000000000000D+00  0.000000000000000D+00  0.000000000000000D+00  0.000000000000000D+00
     15   0.000000000000000D+00  0.000000000000000D+00  0.000000000000000D+00  0.000000000000000D+00  0.000000000000000D+00
     16   0.000000000000000D+00  0.000000000000000D+00  0.000000000000000D+00  0.000000000000000D+00  0.000000000000000D+00
     17   0.000000000000000D+00  0.000000000000000D+00  0.000000000000000D+00  0.000000000000000D+00  0.000000000000000D+00
     18   0.000000000000000D+00  0.000000000000000D+00  0.000000000000000D+00  0.000000000000000D+00  0.000000000000000D+00
     19   0.000000000000000D+00  0.000000000000000D+00  0.000000000000000D+00  0.000000000000000D+00  0.000000000000000D+00
     20   0.000000000000000D+00  0.000000000000000D+00  0.000000000000000D+00  0.000000000000000D+00  0.000000000000000D+00
     21   0.000000000000000D+00  0.000000000000000D+00  0.000000000000000D+00  0.000000000000000D+00  0.000000000000000D+00
     22   0.000000000000000D+00  0.000000000000000D+00  0.000000000000000D+00  0.000000000000000D+00  0.000000000000000D+00
     23   0.000000000000000D+00  0.000000000000000D+00  0.000000000000000D+00  0.000000000000000D+00  0.000000000000000D+00
     24   0.000000000000000D+00  0.000000000000000D+00  0.000000000000000D+00  0.000000000000000D+00  0.000000000000000D+00
     25   0.000000000000000D+00  0.000000000000000D+00  0.000000000000000D+00  0.000000000000000D+00  0.000000000000000D+00
     26   0.000000000000000D+00  0.000000000000000D+00  0.000000000000000D+00  0.000000000000000D+00  0.000000000000000D+00
     27   0.000000000000000D+00  0.000000000000000D+00  0.000000000000000D+00  0.000000000000000D+00  0.000000000000000D+00
     28   0.000000000000000D+00  0.000000000000000D+00  0.000000000000000D+00  0.000000000000000D+00  0.000000000000000D+00
                 6             7             8             9            10 
      1   0.000000000000000D+00  0.000000000000000D+00  0.000000000000000D+00  0.000000000000000D+00  0.000000000000000D+00
      2   0.000000000000000D+00  0.000000000000000D+00  0.000000000000000D+00  0.000000000000000D+00  0.000000000000000D+00
      3   0.000000000000000D+00  0.000000000000000D+00  0.000000000000000D+00  0.000000000000000D+00  0.000000000000000D+00
      4   0.000000000000000D+00  0.000000000000000D+00  0.000000000000000D+00  0.000000000000000D+00  0.000000000000000D+00
      5   0.000000000000000D+00  0.000000000000000D+00  0.000000000000000D+00  0.000000000000000D+00  0.000000000000000D+00
      6   0.000000000000000D+00  0.000000000000000D+00  0.000000000000000D+00  0.000000000000000D+00  0.000000000000000D+00
      7   0.000000000000000D+00  0.000000000000000D+00  0.000000000000000D+00  0.000000000000000D+00  0.000000000000000D+00
      8   0.000000000000000D+00  0.000000000000000D+00  0.000000000000000D+00  0.000000000000000D+00  0.000000000000000D+00
      9   0.000000000000000D+00  0.000000000000000D+00  0.000000000000000D+00  0.000000000000000D+00  0.000000000000000D+00
     10   0.000000000000000D+00  0.000000000000000D+00  0.000000000000000D+00  0.000000000000000D+00  0.000000000000000D+00
     11   0.000000000000000D+00  0.000000000000000D+00  0.000000000000000D+00  0.000000000000000D+00  0.000000000000000D+00
     12   0.000000000000000D+00  0.000000000000000D+00  0.000000000000000D+00  0.000000000000000D+00  0.000000000000000D+00
     13   0.000000000000000D+00  0.000000000000000D+00  0.000000000000000D+00  0.000000000000000D+00  0.000000000000000D+00
     14   0.000000000000000D+00  0.000000000000000D+00  0.000000000000000D+00  0.000000000000000D+00  0.000000000000000D+00
     15   0.000000000000000D+00  0.000000000000000D+00  0.000000000000000D+00  0.000000000000000D+00  0.000000000000000D+00
     16   0.000000000000000D+00  0.000000000000000D+00  0.000000000000000D+00  0.000000000000000D+00  0.000000000000000D+00
     17   0.000000000000000D+00  0.000000000000000D+00  0.000000000000000D+00  0.000000000000000D+00  0.000000000000000D+00
     18   0.000000000000000D+00  0.000000000000000D+00  0.000000000000000D+00  0.000000000000000D+00  0.000000000000000D+00
     19   0.000000000000000D+00  0.000000000000000D+00  0.000000000000000D+00  0.000000000000000D+00  0.000000000000000D+00
     20   0.000000000000000D+00  0.000000000000000D+00  0.000000000000000D+00  0.000000000000000D+00  0.000000000000000D+00
     21   0.000000000000000D+00  0.000000000000000D+00  0.000000000000000D+00  0.000000000000000D+00  0.000000000000000D+00
     22   0.000000000000000D+00  0.000000000000000D+00  0.000000000000000D+00  0.000000000000000D+00  0.000000000000000D+00
     23   0.000000000000000D+00  0.000000000000000D+00  0.000000000000000D+00  0.000000000000000D+00  0.000000000000000D+00
     24   0.000000000000000D+00  0.000000000000000D+00  0.000000000000000D+00  0.000000000000000D+00  0.000000000000000D+00
     25   0.000000000000000D+00  0.000000000000000D+00  0.000000000000000D+00  0.000000000000000D+00  0.000000000000000D+00
     26   0.000000000000000D+00  0.000000000000000D+00  0.000000000000000D+00  0.000000000000000D+00  0.000000000000000D+00
     27   0.000000000000000D+00  0.000000000000000D+00  0.000000000000000D+00  0.000000000000000D+00  0.000000000000000D+00
     28   0.000000000000000D+00  0.000000000000000D+00  0.000000000000000D+00  0.000000000000000D+00  0.000000000000000D+00
                11            12            13            14            15 
      1   0.000000000000000D+00  0.000000000000000D+00  0.000000000000000D+00  0.000000000000000D+00  0.000000000000000D+00
      2   0.000000000000000D+00  0.000000000000000D+00  0.000000000000000D+00  0.000000000000000D+00  0.000000000000000D+00
      3   0.000000000000000D+00  0.000000000000000D+00  0.000000000000000D+00  0.000000000000000D+00  0.000000000000000D+00
      4   0.000000000000000D+00  0.000000000000000D+00  0.000000000000000D+00  0.000000000000000D+00  0.000000000000000D+00
      5   0.000000000000000D+00  0.000000000000000D+00  0.000000000000000D+00  0.000000000000000D+00  0.000000000000000D+00
      6   0.000000000000000D+00  0.000000000000000D+00  0.000000000000000D+00  0.000000000000000D+00  0.000000000000000D+00
      7   0.000000000000000D+00  0.000000000000000D+00  0.000000000000000D+00  0.000000000000000D+00  0.000000000000000D+00
      8   0.000000000000000D+00  0.000000000000000D+00  0.000000000000000D+00  0.000000000000000D+00  0.000000000000000D+00
      9   0.000000000000000D+00  0.000000000000000D+00  0.000000000000000D+00  0.000000000000000D+00  0.000000000000000D+00
     10   0.000000000000000D+00  0.000000000000000D+00  0.000000000000000D+00  0.000000000000000D+00  0.000000000000000D+00
     11   0.000000000000000D+00  0.000000000000000D+00  0.000000000000000D+00  0.000000000000000D+00  0.000000000000000D+00
     12   0.000000000000000D+00  0.000000000000000D+00  0.000000000000000D+00  0.000000000000000D+00  0.000000000000000D+00
     13   0.000000000000000D+00  0.000000000000000D+00  0.000000000000000D+00  0.000000000000000D+00  0.000000000000000D+00
     14   0.000000000000000D+00  0.000000000000000D+00  0.000000000000000D+00  0.000000000000000D+00  0.000000000000000D+00
     15   0.000000000000000D+00  0.000000000000000D+00  0.000000000000000D+00  0.000000000000000D+00  0.000000000000000D+00
     16   0.000000000000000D+00  0.000000000000000D+00  0.000000000000000D+00  0.000000000000000D+00  0.000000000000000D+00
     17   0.000000000000000D+00  0.000000000000000D+00  0.000000000000000D+00  0.000000000000000D+00  0.000000000000000D+00
     18   0.000000000000000D+00  0.000000000000000D+00  0.000000000000000D+00  0.000000000000000D+00  0.000000000000000D+00
     19   0.000000000000000D+00  0.000000000000000D+00  0.000000000000000D+00  0.000000000000000D+00  0.000000000000000D+00
     20   0.000000000000000D+00  0.000000000000000D+00  0.000000000000000D+00  0.000000000000000D+00  0.000000000000000D+00
     21   0.000000000000000D+00  0.000000000000000D+00  0.000000000000000D+00  0.000000000000000D+00  0.000000000000000D+00
     22   0.000000000000000D+00  0.000000000000000D+00  0.000000000000000D+00  0.000000000000000D+00  0.000000000000000D+00
     23   0.000000000000000D+00  0.000000000000000D+00  0.000000000000000D+00  0.000000000000000D+00  0.000000000000000D+00
     24   0.000000000000000D+00  0.000000000000000D+00  0.000000000000000D+00  0.000000000000000D+00  0.000000000000000D+00
     25   0.000000000000000D+00  0.000000000000000D+00  0.000000000000000D+00  0.000000000000000D+00  0.000000000000000D+00
     26   0.000000000000000D+00  0.000000000000000D+00  0.000000000000000D+00  0.000000000000000D+00  0.000000000000000D+00
     27   0.000000000000000D+00  0.000000000000000D+00  0.000000000000000D+00  0.000000000000000D+00  0.000000000000000D+00
     28   0.000000000000000D+00  0.000000000000000D+00  0.000000000000000D+00  0.000000000000000D+00  0.000000000000000D+00
                16            17            18            19            20 
      1   0.000000000000000D+00  0.000000000000000D+00  0.000000000000000D+00  0.000000000000000D+00  0.000000000000000D+00
      2   0.000000000000000D+00  0.000000000000000D+00  0.000000000000000D+00  0.000000000000000D+00  0.000000000000000D+00
      3   0.000000000000000D+00  0.000000000000000D+00  0.000000000000000D+00  0.000000000000000D+00  0.000000000000000D+00
      4   0.000000000000000D+00  0.000000000000000D+00  0.000000000000000D+00  0.000000000000000D+00  0.000000000000000D+00
      5   0.000000000000000D+00  0.000000000000000D+00  0.000000000000000D+00  0.000000000000000D+00  0.000000000000000D+00
      6   0.000000000000000D+00  0.000000000000000D+00  0.000000000000000D+00  0.000000000000000D+00  0.000000000000000D+00
      7   0.000000000000000D+00  0.000000000000000D+00  0.000000000000000D+00  0.000000000000000D+00  0.000000000000000D+00
      8   0.000000000000000D+00  0.000000000000000D+00  0.000000000000000D+00  0.000000000000000D+00  0.000000000000000D+00
      9   0.000000000000000D+00  0.000000000000000D+00  0.000000000000000D+00  0.000000000000000D+00  0.000000000000000D+00
     10   0.000000000000000D+00  0.000000000000000D+00  0.000000000000000D+00  0.000000000000000D+00  0.000000000000000D+00
     11   0.000000000000000D+00  0.000000000000000D+00  0.000000000000000D+00  0.000000000000000D+00  0.000000000000000D+00
     12   0.000000000000000D+00  0.000000000000000D+00  0.000000000000000D+00  0.000000000000000D+00  0.000000000000000D+00
     13   0.000000000000000D+00  0.000000000000000D+00  0.000000000000000D+00  0.000000000000000D+00  0.000000000000000D+00
     14   0.000000000000000D+00  0.000000000000000D+00  0.000000000000000D+00  0.000000000000000D+00  0.000000000000000D+00
     15   0.000000000000000D+00  0.000000000000000D+00  0.000000000000000D+00  0.000000000000000D+00  0.000000000000000D+00
     16   0.000000000000000D+00  0.000000000000000D+00  0.000000000000000D+00  0.000000000000000D+00  0.000000000000000D+00
     17   0.000000000000000D+00  0.000000000000000D+00  0.000000000000000D+00  0.000000000000000D+00  0.000000000000000D+00
     18   0.000000000000000D+00  0.000000000000000D+00  0.000000000000000D+00  0.000000000000000D+00  0.000000000000000D+00
     19   0.000000000000000D+00  0.000000000000000D+00  0.000000000000000D+00  0.000000000000000D+00  0.000000000000000D+00
     20   0.000000000000000D+00  0.000000000000000D+00  0.000000000000000D+00  0.000000000000000D+00  0.000000000000000D+00
     21   0.000000000000000D+00  0.000000000000000D+00  0.000000000000000D+00  0.000000000000000D+00  0.000000000000000D+00
     22   0.000000000000000D+00  0.000000000000000D+00  0.000000000000000D+00  0.000000000000000D+00  0.000000000000000D+00
     23   0.000000000000000D+00  0.000000000000000D+00  0.000000000000000D+00  0.000000000000000D+00  0.000000000000000D+00
     24   0.000000000000000D+00  0.000000000000000D+00  0.000000000000000D+00  0.000000000000000D+00  0.000000000000000D+00
     25   0.000000000000000D+00  0.000000000000000D+00  0.000000000000000D+00  0.000000000000000D+00  0.000000000000000D+00
     26   0.000000000000000D+00  0.000000000000000D+00  0.000000000000000D+00  0.000000000000000D+00  0.000000000000000D+00
     27   0.000000000000000D+00  0.000000000000000D+00  0.000000000000000D+00  0.000000000000000D+00  0.000000000000000D+00
     28   0.000000000000000D+00  0.000000000000000D+00  0.000000000000000D+00  0.000000000000000D+00  0.000000000000000D+00
                21            22            23            24            25 
      1   0.000000000000000D+00  0.000000000000000D+00  0.000000000000000D+00  0.000000000000000D+00  0.000000000000000D+00
      2   0.000000000000000D+00  0.000000000000000D+00  0.000000000000000D+00  0.000000000000000D+00  0.000000000000000D+00
      3   0.000000000000000D+00  0.000000000000000D+00  0.000000000000000D+00  0.000000000000000D+00  0.000000000000000D+00
      4   0.000000000000000D+00  0.000000000000000D+00  0.000000000000000D+00  0.000000000000000D+00  0.000000000000000D+00
      5   0.000000000000000D+00  0.000000000000000D+00  0.000000000000000D+00  0.000000000000000D+00  0.000000000000000D+00
      6   0.000000000000000D+00  0.000000000000000D+00  0.000000000000000D+00  0.000000000000000D+00  0.000000000000000D+00
      7   0.000000000000000D+00  0.000000000000000D+00  0.000000000000000D+00  0.000000000000000D+00  0.000000000000000D+00
      8   0.000000000000000D+00  0.000000000000000D+00  0.000000000000000D+00  0.000000000000000D+00  0.000000000000000D+00
      9   0.000000000000000D+00  0.000000000000000D+00  0.000000000000000D+00  0.000000000000000D+00  0.000000000000000D+00
     10   0.000000000000000D+00  0.000000000000000D+00  0.000000000000000D+00  0.000000000000000D+00  0.000000000000000D+00
     11   0.000000000000000D+00  0.000000000000000D+00  0.000000000000000D+00  0.000000000000000D+00  0.000000000000000D+00
     12   0.000000000000000D+00  0.000000000000000D+00  0.000000000000000D+00  0.000000000000000D+00  0.000000000000000D+00
     13   0.000000000000000D+00  0.000000000000000D+00  0.000000000000000D+00  0.000000000000000D+00  0.000000000000000D+00
     14   0.000000000000000D+00  0.000000000000000D+00  0.000000000000000D+00  0.000000000000000D+00  0.000000000000000D+00
     15   0.000000000000000D+00  0.000000000000000D+00  0.000000000000000D+00  0.000000000000000D+00  0.000000000000000D+00
     16   0.000000000000000D+00  0.000000000000000D+00  0.000000000000000D+00  0.000000000000000D+00  0.000000000000000D+00
     17   0.000000000000000D+00  0.000000000000000D+00  0.000000000000000D+00  0.000000000000000D+00  0.000000000000000D+00
     18   0.000000000000000D+00  0.000000000000000D+00  0.000000000000000D+00  0.000000000000000D+00  0.000000000000000D+00
     19   0.000000000000000D+00  0.000000000000000D+00  0.000000000000000D+00  0.000000000000000D+00  0.000000000000000D+00
     20   0.000000000000000D+00  0.000000000000000D+00  0.000000000000000D+00  0.000000000000000D+00  0.000000000000000D+00
     21   0.000000000000000D+00  0.000000000000000D+00  0.000000000000000D+00  0.000000000000000D+00  0.000000000000000D+00
     22   0.000000000000000D+00  0.000000000000000D+00  0.000000000000000D+00  0.000000000000000D+00  0.000000000000000D+00
     23   0.000000000000000D+00  0.000000000000000D+00  0.000000000000000D+00  0.000000000000000D+00  0.000000000000000D+00
     24   0.000000000000000D+00  0.000000000000000D+00  0.000000000000000D+00  0.000000000000000D+00  0.000000000000000D+00
     25   0.000000000000000D+00  0.000000000000000D+00  0.000000000000000D+00  0.000000000000000D+00  0.000000000000000D+00
     26   0.000000000000000D+00  0.000000000000000D+00  0.000000000000000D+00  0.000000000000000D+00  0.000000000000000D+00
     27   0.000000000000000D+00  0.000000000000000D+00  0.000000000000000D+00  0.000000000000000D+00  0.000000000000000D+00
     28   0.000000000000000D+00  0.000000000000000D+00  0.000000000000000D+00  0.000000000000000D+00  0.000000000000000D+00
                26            27            28 
      1   0.000000000000000D+00  0.000000000000000D+00  0.000000000000000D+00
      2   0.000000000000000D+00  0.000000000000000D+00  0.000000000000000D+00
      3   0.000000000000000D+00  0.000000000000000D+00  0.000000000000000D+00
      4   0.000000000000000D+00  0.000000000000000D+00  0.000000000000000D+00
      5   0.000000000000000D+00  0.000000000000000D+00  0.000000000000000D+00
      6   0.000000000000000D+00  0.000000000000000D+00  0.000000000000000D+00
      7   0.000000000000000D+00  0.000000000000000D+00  0.000000000000000D+00
      8   0.000000000000000D+00  0.000000000000000D+00  0.000000000000000D+00
      9   0.000000000000000D+00  0.000000000000000D+00  0.000000000000000D+00
     10   0.000000000000000D+00  0.000000000000000D+00  0.000000000000000D+00
     11   0.000000000000000D+00  0.000000000000000D+00  0.000000000000000D+00
     12   0.000000000000000D+00  0.000000000000000D+00  0.000000000000000D+00
     13   0.000000000000000D+00  0.000000000000000D+00  0.000000000000000D+00
     14   0.000000000000000D+00  0.000000000000000D+00  0.000000000000000D+00
     15   0.000000000000000D+00  0.000000000000000D+00  0.000000000000000D+00
     16   0.000000000000000D+00  0.000000000000000D+00  0.000000000000000D+00
     17   0.000000000000000D+00  0.000000000000000D+00  0.000000000000000D+00
     18   0.000000000000000D+00  0.000000000000000D+00  0.000000000000000D+00
     19   0.000000000000000D+00  0.000000000000000D+00  0.000000000000000D+00
     20   0.000000000000000D+00  0.000000000000000D+00  0.000000000000000D+00
     21   0.000000000000000D+00  0.000000000000000D+00  0.000000000000000D+00
     22   0.000000000000000D+00  0.000000000000000D+00  0.000000000000000D+00
     23   0.000000000000000D+00  0.000000000000000D+00  0.000000000000000D+00
     24   0.000000000000000D+00  0.000000000000000D+00  0.000000000000000D+00
     25   0.000000000000000D+00  0.000000000000000D+00  0.000000000000000D+00
     26   0.000000000000000D+00  0.000000000000000D+00  0.000000000000000D+00
     27   0.000000000000000D+00  0.000000000000000D+00  0.000000000000000D+00
     28   0.000000000000000D+00  0.000000000000000D+00  0.000000000000000D+00

 Symmetry not used in FoFDir.
 MinBra= 0 MaxBra= 2 Meth= 1.
 IRaf=       1 NMat=   2 IRICut=       1 DoRegI=T DoRafI=F ISym2E= 0 JSym2E=0.
 PrsmSu:  NPrtUS=   1 ThrOK=F IAlg=1 NPAlg=1 LenDen=           0.
 Prism:   IPart=     0 DynPar=F LinDyn=F Incr=          30.
 PRISM was handed   536821431 working-precision words and    78 shell-pairs
 IPart=  0 NShTot=        3081 NBatch=          66 AvBLen=        46.7
 PrSmSu:  NxtVal=             31.
 
Start hfdmdg: find NO basis
 
Start formng/pg
 
Start formgg

 Symmetry not used in FoFDir.
 MinBra= 0 MaxBra= 2 Meth= 1.
 IRaf=       1 NMat=  64 IRICut=       1 DoRegI=T DoRafI=F ISym2E= 0 JSym2E=0.
 PrsmSu:  NPrtUS=   1 ThrOK=F IAlg=1 NPAlg=1 LenDen=           0.
 Prism:   IPart=     0 DynPar=F LinDyn=F Incr=          30.
 PRISM was handed   536685811 working-precision words and    78 shell-pairs
 IPart=  0 NShTot=        3081 NBatch=          66 AvBLen=        46.7
 PrSmSu:  NxtVal=             31.
 
Start evalsmt/hmt
 
Form Fock eff
ifsel =     2, useproj    T
 
Diag Fock
*********  Start Cycle  2  *************
 
Start hffock
  
 Core Hamiltonian (real):
                 1             2             3             4             5 
      1  -0.835036889131123D+00 -0.206372773651776D+00  0.339253302523128D-01  0.000000000000000D+00 -0.390028461194726D-01
      2  -0.206372773651776D+00  0.312272018107152D+00 -0.218201195918994D-01  0.000000000000000D+00  0.942166693739785D-02
      3   0.339253302523128D-01 -0.218201195918994D-01  0.224610821047961D+01  0.000000000000000D+00 -0.132923261554856D+00
      4   0.000000000000000D+00  0.000000000000000D+00  0.000000000000000D+00  0.250297233657122D+01  0.000000000000000D+00
      5  -0.390028461194726D-01  0.942166693739781D-02 -0.132923261554856D+00  0.000000000000000D+00  0.322302970187619D+00
      6  -0.214961471930755D+00  0.104148055447935D+01  0.198586898879604D+00  0.000000000000000D+00 -0.153098559816753D+00
      7  -0.701817276822177D-01 -0.528441287771975D-01 -0.291536764360396D+00  0.000000000000000D+00 -0.787048701329216D+00
      8   0.000000000000000D+00  0.000000000000000D+00  0.000000000000000D+00  0.000000000000000D+00  0.000000000000000D+00
      9   0.000000000000000D+00  0.000000000000000D+00  0.000000000000000D+00  0.000000000000000D+00  0.000000000000000D+00
     10   0.000000000000000D+00  0.000000000000000D+00  0.000000000000000D+00  0.000000000000000D+00  0.000000000000000D+00
     11   0.000000000000000D+00  0.000000000000000D+00  0.000000000000000D+00  0.000000000000000D+00  0.000000000000000D+00
     12   0.000000000000000D+00  0.000000000000000D+00  0.000000000000000D+00  0.000000000000000D+00  0.000000000000000D+00
     13   0.000000000000000D+00  0.000000000000000D+00  0.000000000000000D+00  0.000000000000000D+00  0.000000000000000D+00
     14   0.000000000000000D+00  0.000000000000000D+00  0.000000000000000D+00  0.000000000000000D+00  0.000000000000000D+00
     15   0.000000000000000D+00  0.000000000000000D+00  0.000000000000000D+00  0.000000000000000D+00  0.000000000000000D+00
     16   0.000000000000000D+00  0.000000000000000D+00  0.000000000000000D+00  0.000000000000000D+00  0.000000000000000D+00
     17   0.000000000000000D+00  0.000000000000000D+00  0.000000000000000D+00  0.000000000000000D+00  0.000000000000000D+00
     18   0.000000000000000D+00  0.000000000000000D+00  0.000000000000000D+00  0.000000000000000D+00  0.000000000000000D+00
     19   0.000000000000000D+00  0.000000000000000D+00  0.000000000000000D+00  0.000000000000000D+00  0.000000000000000D+00
     20   0.000000000000000D+00  0.000000000000000D+00  0.000000000000000D+00  0.000000000000000D+00  0.000000000000000D+00
     21   0.000000000000000D+00  0.000000000000000D+00  0.000000000000000D+00  0.000000000000000D+00  0.000000000000000D+00
     22   0.000000000000000D+00  0.000000000000000D+00  0.000000000000000D+00  0.000000000000000D+00  0.000000000000000D+00
     23   0.000000000000000D+00  0.000000000000000D+00  0.000000000000000D+00  0.000000000000000D+00  0.000000000000000D+00
     24   0.000000000000000D+00  0.000000000000000D+00  0.000000000000000D+00  0.000000000000000D+00  0.000000000000000D+00
     25   0.000000000000000D+00  0.000000000000000D+00  0.000000000000000D+00  0.000000000000000D+00  0.000000000000000D+00
     26   0.000000000000000D+00  0.000000000000000D+00  0.000000000000000D+00  0.000000000000000D+00  0.000000000000000D+00
     27   0.000000000000000D+00  0.000000000000000D+00  0.000000000000000D+00  0.000000000000000D+00  0.000000000000000D+00
     28   0.000000000000000D+00  0.000000000000000D+00  0.000000000000000D+00  0.000000000000000D+00  0.000000000000000D+00
                 6             7             8             9            10 
      1  -0.214961471930755D+00 -0.701817276822174D-01  0.000000000000000D+00  0.000000000000000D+00  0.000000000000000D+00
      2   0.104148055447935D+01 -0.528441287771975D-01  0.000000000000000D+00  0.000000000000000D+00  0.000000000000000D+00
      3   0.198586898879604D+00 -0.291536764360396D+00  0.000000000000000D+00  0.000000000000000D+00  0.000000000000000D+00
      4   0.000000000000000D+00  0.000000000000000D+00  0.000000000000000D+00  0.000000000000000D+00  0.000000000000000D+00
      5  -0.153098559816753D+00 -0.787048701329216D+00  0.000000000000000D+00  0.000000000000000D+00  0.000000000000000D+00
      6   0.261734551542190D+01 -0.167412615544781D+00  0.000000000000000D+00  0.000000000000000D+00  0.000000000000000D+00
      7  -0.167412615544781D+00  0.107654299593857D+01  0.000000000000000D+00  0.000000000000000D+00  0.000000000000000D+00
      8   0.000000000000000D+00  0.000000000000000D+00  0.250297233657122D+01  0.000000000000000D+00  0.000000000000000D+00
      9   0.000000000000000D+00  0.000000000000000D+00  0.000000000000000D+00  0.861000615953088D+00  0.383477242986265D-01
     10   0.000000000000000D+00  0.000000000000000D+00  0.000000000000000D+00  0.383477242986265D-01  0.270133882501402D+01
     11   0.000000000000000D+00  0.000000000000000D+00  0.000000000000000D+00 -0.125207931984038D+01 -0.118486599893916D+00
     12   0.000000000000000D+00  0.000000000000000D+00  0.000000000000000D+00  0.000000000000000D+00  0.000000000000000D+00
     13   0.000000000000000D+00  0.000000000000000D+00  0.000000000000000D+00  0.000000000000000D+00  0.000000000000000D+00
     14   0.000000000000000D+00  0.000000000000000D+00  0.000000000000000D+00  0.000000000000000D+00  0.000000000000000D+00
     15   0.000000000000000D+00  0.000000000000000D+00  0.000000000000000D+00  0.000000000000000D+00  0.000000000000000D+00
     16   0.000000000000000D+00  0.000000000000000D+00  0.000000000000000D+00  0.000000000000000D+00  0.000000000000000D+00
     17   0.000000000000000D+00  0.000000000000000D+00  0.000000000000000D+00  0.000000000000000D+00  0.000000000000000D+00
     18   0.000000000000000D+00  0.000000000000000D+00  0.000000000000000D+00  0.000000000000000D+00  0.000000000000000D+00
     19   0.000000000000000D+00  0.000000000000000D+00  0.000000000000000D+00  0.000000000000000D+00  0.000000000000000D+00
     20   0.000000000000000D+00  0.000000000000000D+00  0.000000000000000D+00  0.000000000000000D+00  0.000000000000000D+00
     21   0.000000000000000D+00  0.000000000000000D+00  0.000000000000000D+00  0.000000000000000D+00  0.000000000000000D+00
     22   0.000000000000000D+00  0.000000000000000D+00  0.000000000000000D+00  0.000000000000000D+00  0.000000000000000D+00
     23   0.000000000000000D+00  0.000000000000000D+00  0.000000000000000D+00  0.000000000000000D+00  0.000000000000000D+00
     24   0.000000000000000D+00  0.000000000000000D+00  0.000000000000000D+00  0.000000000000000D+00  0.000000000000000D+00
     25   0.000000000000000D+00  0.000000000000000D+00  0.000000000000000D+00  0.000000000000000D+00  0.000000000000000D+00
     26   0.000000000000000D+00  0.000000000000000D+00  0.000000000000000D+00  0.000000000000000D+00  0.000000000000000D+00
     27   0.000000000000000D+00  0.000000000000000D+00  0.000000000000000D+00  0.000000000000000D+00  0.000000000000000D+00
     28   0.000000000000000D+00  0.000000000000000D+00  0.000000000000000D+00  0.000000000000000D+00  0.000000000000000D+00
                11            12            13            14            15 
      1   0.000000000000000D+00  0.000000000000000D+00  0.000000000000000D+00  0.000000000000000D+00  0.000000000000000D+00
      2   0.000000000000000D+00  0.000000000000000D+00  0.000000000000000D+00  0.000000000000000D+00  0.000000000000000D+00
      3   0.000000000000000D+00  0.000000000000000D+00  0.000000000000000D+00  0.000000000000000D+00  0.000000000000000D+00
      4   0.000000000000000D+00  0.000000000000000D+00  0.000000000000000D+00  0.000000000000000D+00  0.000000000000000D+00
      5   0.000000000000000D+00  0.000000000000000D+00  0.000000000000000D+00  0.000000000000000D+00  0.000000000000000D+00
      6   0.000000000000000D+00  0.000000000000000D+00  0.000000000000000D+00  0.000000000000000D+00  0.000000000000000D+00
      7   0.000000000000000D+00  0.000000000000000D+00  0.000000000000000D+00  0.000000000000000D+00  0.000000000000000D+00
      8   0.000000000000000D+00  0.000000000000000D+00  0.000000000000000D+00  0.000000000000000D+00  0.000000000000000D+00
      9  -0.125207931984038D+01  0.000000000000000D+00  0.000000000000000D+00  0.000000000000000D+00  0.000000000000000D+00
     10  -0.118486599893916D+00  0.000000000000000D+00  0.000000000000000D+00  0.000000000000000D+00  0.000000000000000D+00
     11   0.228187617233209D+01  0.000000000000000D+00  0.000000000000000D+00  0.000000000000000D+00  0.000000000000000D+00
     12   0.000000000000000D+00  0.861000615953088D+00  0.383477242986265D-01 -0.125207931984038D+01  0.000000000000000D+00
     13   0.000000000000000D+00  0.383477242986265D-01  0.270133882501402D+01 -0.118486599893916D+00  0.000000000000000D+00
     14   0.000000000000000D+00 -0.125207931984038D+01 -0.118486599893916D+00  0.228187617233209D+01  0.000000000000000D+00
     15   0.000000000000000D+00  0.000000000000000D+00  0.000000000000000D+00  0.000000000000000D+00  0.255123415242654D+01
     16   0.000000000000000D+00  0.000000000000000D+00  0.000000000000000D+00  0.000000000000000D+00  0.000000000000000D+00
     17   0.000000000000000D+00  0.000000000000000D+00  0.000000000000000D+00  0.000000000000000D+00  0.000000000000000D+00
     18   0.000000000000000D+00  0.000000000000000D+00  0.000000000000000D+00  0.000000000000000D+00  0.000000000000000D+00
     19   0.000000000000000D+00  0.000000000000000D+00  0.000000000000000D+00  0.000000000000000D+00  0.000000000000000D+00
     20   0.000000000000000D+00  0.000000000000000D+00  0.000000000000000D+00  0.000000000000000D+00  0.000000000000000D+00
     21   0.000000000000000D+00  0.000000000000000D+00  0.000000000000000D+00  0.000000000000000D+00  0.000000000000000D+00
     22   0.000000000000000D+00  0.000000000000000D+00  0.000000000000000D+00  0.000000000000000D+00  0.000000000000000D+00
     23   0.000000000000000D+00  0.000000000000000D+00  0.000000000000000D+00  0.000000000000000D+00  0.000000000000000D+00
     24   0.000000000000000D+00  0.000000000000000D+00  0.000000000000000D+00  0.000000000000000D+00  0.000000000000000D+00
     25   0.000000000000000D+00  0.000000000000000D+00  0.000000000000000D+00  0.000000000000000D+00  0.000000000000000D+00
     26   0.000000000000000D+00  0.000000000000000D+00  0.000000000000000D+00  0.000000000000000D+00  0.000000000000000D+00
     27   0.000000000000000D+00  0.000000000000000D+00  0.000000000000000D+00  0.000000000000000D+00  0.000000000000000D+00
     28   0.000000000000000D+00  0.000000000000000D+00  0.000000000000000D+00  0.000000000000000D+00  0.000000000000000D+00
                16            17            18            19            20 
      1   0.000000000000000D+00  0.000000000000000D+00  0.000000000000000D+00  0.000000000000000D+00  0.000000000000000D+00
      2   0.000000000000000D+00  0.000000000000000D+00  0.000000000000000D+00  0.000000000000000D+00  0.000000000000000D+00
      3   0.000000000000000D+00  0.000000000000000D+00  0.000000000000000D+00  0.000000000000000D+00  0.000000000000000D+00
      4   0.000000000000000D+00  0.000000000000000D+00  0.000000000000000D+00  0.000000000000000D+00  0.000000000000000D+00
      5   0.000000000000000D+00  0.000000000000000D+00  0.000000000000000D+00  0.000000000000000D+00  0.000000000000000D+00
      6   0.000000000000000D+00  0.000000000000000D+00  0.000000000000000D+00  0.000000000000000D+00  0.000000000000000D+00
      7   0.000000000000000D+00  0.000000000000000D+00  0.000000000000000D+00  0.000000000000000D+00  0.000000000000000D+00
      8   0.000000000000000D+00  0.000000000000000D+00  0.000000000000000D+00  0.000000000000000D+00  0.000000000000000D+00
      9   0.000000000000000D+00  0.000000000000000D+00  0.000000000000000D+00  0.000000000000000D+00  0.000000000000000D+00
     10   0.000000000000000D+00  0.000000000000000D+00  0.000000000000000D+00  0.000000000000000D+00  0.000000000000000D+00
     11   0.000000000000000D+00  0.000000000000000D+00  0.000000000000000D+00  0.000000000000000D+00  0.000000000000000D+00
     12   0.000000000000000D+00  0.000000000000000D+00  0.000000000000000D+00  0.000000000000000D+00  0.000000000000000D+00
     13   0.000000000000000D+00  0.000000000000000D+00  0.000000000000000D+00  0.000000000000000D+00  0.000000000000000D+00
     14   0.000000000000000D+00  0.000000000000000D+00  0.000000000000000D+00  0.000000000000000D+00  0.000000000000000D+00
     15   0.000000000000000D+00  0.000000000000000D+00  0.000000000000000D+00  0.000000000000000D+00  0.000000000000000D+00
     16  -0.494971860992525D+00  0.487872350263143D+00  0.000000000000000D+00 -0.183481923301787D+00  0.410838340837112D+00
     17   0.487872350263143D+00  0.114330512925245D+01  0.000000000000000D+00  0.207149385451832D+00  0.634631067940764D+00
     18   0.000000000000000D+00  0.000000000000000D+00  0.255123415242654D+01  0.000000000000000D+00  0.000000000000000D+00
     19  -0.183481923301787D+00  0.207149385451832D+00  0.000000000000000D+00  0.287959436603392D+01 -0.280698946937999D+00
     20   0.410838340837112D+00  0.634631067940764D+00  0.000000000000000D+00 -0.280698946937999D+00  0.102243020061634D+01
     21  -0.631532897099754D-01 -0.121070757901204D+01  0.000000000000000D+00 -0.560582590251196D+00 -0.566749829277523D+00
     22   0.166745748029030D+00 -0.146636861025106D+00  0.000000000000000D+00 -0.133327413488956D+00  0.864793978663377D+00
     23   0.000000000000000D+00  0.000000000000000D+00  0.000000000000000D+00  0.000000000000000D+00  0.000000000000000D+00
     24   0.000000000000000D+00  0.000000000000000D+00  0.000000000000000D+00  0.000000000000000D+00  0.000000000000000D+00
     25   0.000000000000000D+00  0.000000000000000D+00  0.000000000000000D+00  0.000000000000000D+00  0.000000000000000D+00
     26   0.000000000000000D+00  0.000000000000000D+00  0.000000000000000D+00  0.000000000000000D+00  0.000000000000000D+00
     27   0.000000000000000D+00  0.000000000000000D+00  0.000000000000000D+00  0.000000000000000D+00  0.000000000000000D+00
     28   0.000000000000000D+00  0.000000000000000D+00  0.000000000000000D+00  0.000000000000000D+00  0.000000000000000D+00
                21            22            23            24            25 
      1   0.000000000000000D+00  0.000000000000000D+00  0.000000000000000D+00  0.000000000000000D+00  0.000000000000000D+00
      2   0.000000000000000D+00  0.000000000000000D+00  0.000000000000000D+00  0.000000000000000D+00  0.000000000000000D+00
      3   0.000000000000000D+00  0.000000000000000D+00  0.000000000000000D+00  0.000000000000000D+00  0.000000000000000D+00
      4   0.000000000000000D+00  0.000000000000000D+00  0.000000000000000D+00  0.000000000000000D+00  0.000000000000000D+00
      5   0.000000000000000D+00  0.000000000000000D+00  0.000000000000000D+00  0.000000000000000D+00  0.000000000000000D+00
      6   0.000000000000000D+00  0.000000000000000D+00  0.000000000000000D+00  0.000000000000000D+00  0.000000000000000D+00
      7   0.000000000000000D+00  0.000000000000000D+00  0.000000000000000D+00  0.000000000000000D+00  0.000000000000000D+00
      8   0.000000000000000D+00  0.000000000000000D+00  0.000000000000000D+00  0.000000000000000D+00  0.000000000000000D+00
      9   0.000000000000000D+00  0.000000000000000D+00  0.000000000000000D+00  0.000000000000000D+00  0.000000000000000D+00
     10   0.000000000000000D+00  0.000000000000000D+00  0.000000000000000D+00  0.000000000000000D+00  0.000000000000000D+00
     11   0.000000000000000D+00  0.000000000000000D+00  0.000000000000000D+00  0.000000000000000D+00  0.000000000000000D+00
     12   0.000000000000000D+00  0.000000000000000D+00  0.000000000000000D+00  0.000000000000000D+00  0.000000000000000D+00
     13   0.000000000000000D+00  0.000000000000000D+00  0.000000000000000D+00  0.000000000000000D+00  0.000000000000000D+00
     14   0.000000000000000D+00  0.000000000000000D+00  0.000000000000000D+00  0.000000000000000D+00  0.000000000000000D+00
     15   0.000000000000000D+00  0.000000000000000D+00  0.000000000000000D+00  0.000000000000000D+00  0.000000000000000D+00
     16  -0.631532897099753D-01  0.166745748029030D+00  0.000000000000000D+00  0.000000000000000D+00  0.000000000000000D+00
     17  -0.121070757901205D+01 -0.146636861025106D+00  0.000000000000000D+00  0.000000000000000D+00  0.000000000000000D+00
     18   0.000000000000000D+00  0.000000000000000D+00  0.000000000000000D+00  0.000000000000000D+00  0.000000000000000D+00
     19  -0.560582590251196D+00 -0.133327413488956D+00  0.000000000000000D+00  0.000000000000000D+00  0.000000000000000D+00
     20  -0.566749829277523D+00  0.864793978663377D+00  0.000000000000000D+00  0.000000000000000D+00  0.000000000000000D+00
     21   0.245015827573537D+01  0.411505359118530D+00  0.000000000000000D+00  0.000000000000000D+00  0.000000000000000D+00
     22   0.411505359118530D+00  0.936065652136441D+00  0.000000000000000D+00  0.000000000000000D+00  0.000000000000000D+00
     23   0.000000000000000D+00  0.000000000000000D+00  0.519616526554678D+00  0.444274933159182D-01  0.119521474899588D+01
     24   0.000000000000000D+00  0.000000000000000D+00  0.444274933159182D-01  0.234019068558951D+01 -0.427635517073515D-01
     25   0.000000000000000D+00  0.000000000000000D+00  0.119521474899588D+01 -0.427635517073515D-01  0.226505570059633D+01
     26   0.000000000000000D+00  0.000000000000000D+00  0.000000000000000D+00  0.000000000000000D+00  0.000000000000000D+00
     27   0.000000000000000D+00  0.000000000000000D+00  0.000000000000000D+00  0.000000000000000D+00  0.000000000000000D+00
     28   0.000000000000000D+00  0.000000000000000D+00  0.000000000000000D+00  0.000000000000000D+00  0.000000000000000D+00
                26            27            28 
      1   0.000000000000000D+00  0.000000000000000D+00  0.000000000000000D+00
      2   0.000000000000000D+00  0.000000000000000D+00  0.000000000000000D+00
      3   0.000000000000000D+00  0.000000000000000D+00  0.000000000000000D+00
      4   0.000000000000000D+00  0.000000000000000D+00  0.000000000000000D+00
      5   0.000000000000000D+00  0.000000000000000D+00  0.000000000000000D+00
      6   0.000000000000000D+00  0.000000000000000D+00  0.000000000000000D+00
      7   0.000000000000000D+00  0.000000000000000D+00  0.000000000000000D+00
      8   0.000000000000000D+00  0.000000000000000D+00  0.000000000000000D+00
      9   0.000000000000000D+00  0.000000000000000D+00  0.000000000000000D+00
     10   0.000000000000000D+00  0.000000000000000D+00  0.000000000000000D+00
     11   0.000000000000000D+00  0.000000000000000D+00  0.000000000000000D+00
     12   0.000000000000000D+00  0.000000000000000D+00  0.000000000000000D+00
     13   0.000000000000000D+00  0.000000000000000D+00  0.000000000000000D+00
     14   0.000000000000000D+00  0.000000000000000D+00  0.000000000000000D+00
     15   0.000000000000000D+00  0.000000000000000D+00  0.000000000000000D+00
     16   0.000000000000000D+00  0.000000000000000D+00  0.000000000000000D+00
     17   0.000000000000000D+00  0.000000000000000D+00  0.000000000000000D+00
     18   0.000000000000000D+00  0.000000000000000D+00  0.000000000000000D+00
     19   0.000000000000000D+00  0.000000000000000D+00  0.000000000000000D+00
     20   0.000000000000000D+00  0.000000000000000D+00  0.000000000000000D+00
     21   0.000000000000000D+00  0.000000000000000D+00  0.000000000000000D+00
     22   0.000000000000000D+00  0.000000000000000D+00  0.000000000000000D+00
     23   0.000000000000000D+00  0.000000000000000D+00  0.000000000000000D+00
     24   0.000000000000000D+00  0.000000000000000D+00  0.000000000000000D+00
     25   0.000000000000000D+00  0.000000000000000D+00  0.000000000000000D+00
     26   0.519616526554679D+00  0.444274933159182D-01  0.119521474899588D+01
     27   0.444274933159182D-01  0.234019068558951D+01 -0.427635517073515D-01
     28   0.119521474899588D+01 -0.427635517073515D-01  0.226505570059633D+01
 Core Hamiltonian (imaginary):
                 1             2             3             4             5 
      1   0.000000000000000D+00  0.000000000000000D+00  0.000000000000000D+00  0.000000000000000D+00  0.000000000000000D+00
      2   0.000000000000000D+00  0.000000000000000D+00  0.000000000000000D+00  0.000000000000000D+00  0.000000000000000D+00
      3   0.000000000000000D+00  0.000000000000000D+00  0.000000000000000D+00  0.000000000000000D+00  0.000000000000000D+00
      4   0.000000000000000D+00  0.000000000000000D+00  0.000000000000000D+00  0.000000000000000D+00  0.000000000000000D+00
      5   0.000000000000000D+00  0.000000000000000D+00  0.000000000000000D+00  0.000000000000000D+00  0.000000000000000D+00
      6   0.000000000000000D+00  0.000000000000000D+00  0.000000000000000D+00  0.000000000000000D+00  0.000000000000000D+00
      7   0.000000000000000D+00  0.000000000000000D+00  0.000000000000000D+00  0.000000000000000D+00  0.000000000000000D+00
      8   0.000000000000000D+00  0.000000000000000D+00  0.000000000000000D+00  0.000000000000000D+00  0.000000000000000D+00
      9   0.000000000000000D+00  0.000000000000000D+00  0.000000000000000D+00  0.000000000000000D+00  0.000000000000000D+00
     10   0.000000000000000D+00  0.000000000000000D+00  0.000000000000000D+00  0.000000000000000D+00  0.000000000000000D+00
     11   0.000000000000000D+00  0.000000000000000D+00  0.000000000000000D+00  0.000000000000000D+00  0.000000000000000D+00
     12   0.000000000000000D+00  0.000000000000000D+00  0.000000000000000D+00  0.000000000000000D+00  0.000000000000000D+00
     13   0.000000000000000D+00  0.000000000000000D+00  0.000000000000000D+00  0.000000000000000D+00  0.000000000000000D+00
[...]
     17   0.000000000000000D+00  0.000000000000000D+00  0.000000000000000D+00  0.000000000000000D+00  0.000000000000000D+00
     18   0.000000000000000D+00  0.000000000000000D+00  0.000000000000000D+00  0.000000000000000D+00  0.000000000000000D+00
     19   0.000000000000000D+00  0.000000000000000D+00  0.000000000000000D+00  0.000000000000000D+00  0.000000000000000D+00
     20   0.000000000000000D+00  0.000000000000000D+00  0.000000000000000D+00  0.000000000000000D+00  0.000000000000000D+00
     21   0.000000000000000D+00  0.000000000000000D+00  0.000000000000000D+00  0.000000000000000D+00  0.000000000000000D+00
     22   0.000000000000000D+00  0.000000000000000D+00  0.000000000000000D+00  0.000000000000000D+00  0.000000000000000D+00
     23   0.000000000000000D+00  0.000000000000000D+00  0.000000000000000D+00  0.000000000000000D+00  0.000000000000000D+00
     24   0.000000000000000D+00  0.000000000000000D+00  0.000000000000000D+00  0.000000000000000D+00  0.000000000000000D+00
     25   0.000000000000000D+00  0.000000000000000D+00  0.000000000000000D+00  0.000000000000000D+00  0.000000000000000D+00
     26   0.000000000000000D+00  0.000000000000000D+00  0.000000000000000D+00  0.000000000000000D+00  0.000000000000000D+00
     27   0.000000000000000D+00  0.000000000000000D+00  0.000000000000000D+00  0.000000000000000D+00  0.000000000000000D+00
     28   0.000000000000000D+00  0.000000000000000D+00  0.000000000000000D+00  0.000000000000000D+00  0.000000000000000D+00
                 6             7             8             9            10 
      1   0.000000000000000D+00  0.000000000000000D+00  0.000000000000000D+00  0.000000000000000D+00  0.000000000000000D+00
      2   0.000000000000000D+00  0.000000000000000D+00  0.000000000000000D+00  0.000000000000000D+00  0.000000000000000D+00
      3   0.000000000000000D+00  0.000000000000000D+00  0.000000000000000D+00  0.000000000000000D+00  0.000000000000000D+00
      4   0.000000000000000D+00  0.000000000000000D+00  0.000000000000000D+00  0.000000000000000D+00  0.000000000000000D+00
      5   0.000000000000000D+00  0.000000000000000D+00  0.000000000000000D+00  0.000000000000000D+00  0.000000000000000D+00
      6   0.000000000000000D+00  0.000000000000000D+00  0.000000000000000D+00  0.000000000000000D+00  0.000000000000000D+00
      7   0.000000000000000D+00  0.000000000000000D+00  0.000000000000000D+00  0.000000000000000D+00  0.000000000000000D+00
      8   0.000000000000000D+00  0.000000000000000D+00  0.000000000000000D+00  0.000000000000000D+00  0.000000000000000D+00
      9   0.000000000000000D+00  0.000000000000000D+00  0.000000000000000D+00  0.000000000000000D+00  0.000000000000000D+00
     10   0.000000000000000D+00  0.000000000000000D+00  0.000000000000000D+00  0.000000000000000D+00  0.000000000000000D+00
     11   0.000000000000000D+00  0.000000000000000D+00  0.000000000000000D+00  0.000000000000000D+00  0.000000000000000D+00
     12   0.000000000000000D+00  0.000000000000000D+00  0.000000000000000D+00  0.000000000000000D+00  0.000000000000000D+00
     13   0.000000000000000D+00  0.000000000000000D+00  0.000000000000000D+00  0.000000000000000D+00  0.000000000000000D+00
     14   0.000000000000000D+00  0.000000000000000D+00  0.000000000000000D+00  0.000000000000000D+00  0.000000000000000D+00
     15   0.000000000000000D+00  0.000000000000000D+00  0.000000000000000D+00  0.000000000000000D+00  0.000000000000000D+00
     16   0.000000000000000D+00  0.000000000000000D+00  0.000000000000000D+00  0.000000000000000D+00  0.000000000000000D+00
     17   0.000000000000000D+00  0.000000000000000D+00  0.000000000000000D+00  0.000000000000000D+00  0.000000000000000D+00
     18   0.000000000000000D+00  0.000000000000000D+00  0.000000000000000D+00  0.000000000000000D+00  0.000000000000000D+00
     19   0.000000000000000D+00  0.000000000000000D+00  0.000000000000000D+00  0.000000000000000D+00  0.000000000000000D+00
     20   0.000000000000000D+00  0.000000000000000D+00  0.000000000000000D+00  0.000000000000000D+00  0.000000000000000D+00
     21   0.000000000000000D+00  0.000000000000000D+00  0.000000000000000D+00  0.000000000000000D+00  0.000000000000000D+00
     22   0.000000000000000D+00  0.000000000000000D+00  0.000000000000000D+00  0.000000000000000D+00  0.000000000000000D+00
     23   0.000000000000000D+00  0.000000000000000D+00  0.000000000000000D+00  0.000000000000000D+00  0.000000000000000D+00
     24   0.000000000000000D+00  0.000000000000000D+00  0.000000000000000D+00  0.000000000000000D+00  0.000000000000000D+00
     25   0.000000000000000D+00  0.000000000000000D+00  0.000000000000000D+00  0.000000000000000D+00  0.000000000000000D+00
     26   0.000000000000000D+00  0.000000000000000D+00  0.000000000000000D+00  0.000000000000000D+00  0.000000000000000D+00
     27   0.000000000000000D+00  0.000000000000000D+00  0.000000000000000D+00  0.000000000000000D+00  0.000000000000000D+00
     28   0.000000000000000D+00  0.000000000000000D+00  0.000000000000000D+00  0.000000000000000D+00  0.000000000000000D+00
                11            12            13            14            15 
      1   0.000000000000000D+00  0.000000000000000D+00  0.000000000000000D+00  0.000000000000000D+00  0.000000000000000D+00
      2   0.000000000000000D+00  0.000000000000000D+00  0.000000000000000D+00  0.000000000000000D+00  0.000000000000000D+00
      3   0.000000000000000D+00  0.000000000000000D+00  0.000000000000000D+00  0.000000000000000D+00  0.000000000000000D+00
      4   0.000000000000000D+00  0.000000000000000D+00  0.000000000000000D+00  0.000000000000000D+00  0.000000000000000D+00
      5   0.000000000000000D+00  0.000000000000000D+00  0.000000000000000D+00  0.000000000000000D+00  0.000000000000000D+00
      6   0.000000000000000D+00  0.000000000000000D+00  0.000000000000000D+00  0.000000000000000D+00  0.000000000000000D+00
      7   0.000000000000000D+00  0.000000000000000D+00  0.000000000000000D+00  0.000000000000000D+00  0.000000000000000D+00
      8   0.000000000000000D+00  0.000000000000000D+00  0.000000000000000D+00  0.000000000000000D+00  0.000000000000000D+00
      9   0.000000000000000D+00  0.000000000000000D+00  0.000000000000000D+00  0.000000000000000D+00  0.000000000000000D+00
     10   0.000000000000000D+00  0.000000000000000D+00  0.000000000000000D+00  0.000000000000000D+00  0.000000000000000D+00
     11   0.000000000000000D+00  0.000000000000000D+00  0.000000000000000D+00  0.000000000000000D+00  0.000000000000000D+00
     12   0.000000000000000D+00  0.000000000000000D+00  0.000000000000000D+00  0.000000000000000D+00  0.000000000000000D+00
     13   0.000000000000000D+00  0.000000000000000D+00  0.000000000000000D+00  0.000000000000000D+00  0.000000000000000D+00
     14   0.000000000000000D+00  0.000000000000000D+00  0.000000000000000D+00  0.000000000000000D+00  0.000000000000000D+00
     15   0.000000000000000D+00  0.000000000000000D+00  0.000000000000000D+00  0.000000000000000D+00  0.000000000000000D+00
     16   0.000000000000000D+00  0.000000000000000D+00  0.000000000000000D+00  0.000000000000000D+00  0.000000000000000D+00
     17   0.000000000000000D+00  0.000000000000000D+00  0.000000000000000D+00  0.000000000000000D+00  0.000000000000000D+00
     18   0.000000000000000D+00  0.000000000000000D+00  0.000000000000000D+00  0.000000000000000D+00  0.000000000000000D+00
     19   0.000000000000000D+00  0.000000000000000D+00  0.000000000000000D+00  0.000000000000000D+00  0.000000000000000D+00
     20   0.000000000000000D+00  0.000000000000000D+00  0.000000000000000D+00  0.000000000000000D+00  0.000000000000000D+00
     21   0.000000000000000D+00  0.000000000000000D+00  0.000000000000000D+00  0.000000000000000D+00  0.000000000000000D+00
     22   0.000000000000000D+00  0.000000000000000D+00  0.000000000000000D+00  0.000000000000000D+00  0.000000000000000D+00
     23   0.000000000000000D+00  0.000000000000000D+00  0.000000000000000D+00  0.000000000000000D+00  0.000000000000000D+00
     24   0.000000000000000D+00  0.000000000000000D+00  0.000000000000000D+00  0.000000000000000D+00  0.000000000000000D+00
     25   0.000000000000000D+00  0.000000000000000D+00  0.000000000000000D+00  0.000000000000000D+00  0.000000000000000D+00
     26   0.000000000000000D+00  0.000000000000000D+00  0.000000000000000D+00  0.000000000000000D+00  0.000000000000000D+00
     27   0.000000000000000D+00  0.000000000000000D+00  0.000000000000000D+00  0.000000000000000D+00  0.000000000000000D+00
     28   0.000000000000000D+00  0.000000000000000D+00  0.000000000000000D+00  0.000000000000000D+00  0.000000000000000D+00
                16            17            18            19            20 
      1   0.000000000000000D+00  0.000000000000000D+00  0.000000000000000D+00  0.000000000000000D+00  0.000000000000000D+00
      2   0.000000000000000D+00  0.000000000000000D+00  0.000000000000000D+00  0.000000000000000D+00  0.000000000000000D+00
      3   0.000000000000000D+00  0.000000000000000D+00  0.000000000000000D+00  0.000000000000000D+00  0.000000000000000D+00
      4   0.000000000000000D+00  0.000000000000000D+00  0.000000000000000D+00  0.000000000000000D+00  0.000000000000000D+00
      5   0.000000000000000D+00  0.000000000000000D+00  0.000000000000000D+00  0.000000000000000D+00  0.000000000000000D+00
      6   0.000000000000000D+00  0.000000000000000D+00  0.000000000000000D+00  0.000000000000000D+00  0.000000000000000D+00
      7   0.000000000000000D+00  0.000000000000000D+00  0.000000000000000D+00  0.000000000000000D+00  0.000000000000000D+00
      8   0.000000000000000D+00  0.000000000000000D+00  0.000000000000000D+00  0.000000000000000D+00  0.000000000000000D+00
      9   0.000000000000000D+00  0.000000000000000D+00  0.000000000000000D+00  0.000000000000000D+00  0.000000000000000D+00
     10   0.000000000000000D+00  0.000000000000000D+00  0.000000000000000D+00  0.000000000000000D+00  0.000000000000000D+00
     11   0.000000000000000D+00  0.000000000000000D+00  0.000000000000000D+00  0.000000000000000D+00  0.000000000000000D+00
     12   0.000000000000000D+00  0.000000000000000D+00  0.000000000000000D+00  0.000000000000000D+00  0.000000000000000D+00
     13   0.000000000000000D+00  0.000000000000000D+00  0.000000000000000D+00  0.000000000000000D+00  0.000000000000000D+00
     14   0.000000000000000D+00  0.000000000000000D+00  0.000000000000000D+00  0.000000000000000D+00  0.000000000000000D+00
     15   0.000000000000000D+00  0.000000000000000D+00  0.000000000000000D+00  0.000000000000000D+00  0.000000000000000D+00
     16   0.000000000000000D+00  0.000000000000000D+00  0.000000000000000D+00  0.000000000000000D+00  0.000000000000000D+00
     17   0.000000000000000D+00  0.000000000000000D+00  0.000000000000000D+00  0.000000000000000D+00  0.000000000000000D+00
     18   0.000000000000000D+00  0.000000000000000D+00  0.000000000000000D+00  0.000000000000000D+00  0.000000000000000D+00
     19   0.000000000000000D+00  0.000000000000000D+00  0.000000000000000D+00  0.000000000000000D+00  0.000000000000000D+00
     20   0.000000000000000D+00  0.000000000000000D+00  0.000000000000000D+00  0.000000000000000D+00  0.000000000000000D+00
     21   0.000000000000000D+00  0.000000000000000D+00  0.000000000000000D+00  0.000000000000000D+00  0.000000000000000D+00
     22   0.000000000000000D+00  0.000000000000000D+00  0.000000000000000D+00  0.000000000000000D+00  0.000000000000000D+00
     23   0.000000000000000D+00  0.000000000000000D+00  0.000000000000000D+00  0.000000000000000D+00  0.000000000000000D+00
     24   0.000000000000000D+00  0.000000000000000D+00  0.000000000000000D+00  0.000000000000000D+00  0.000000000000000D+00
     25   0.000000000000000D+00  0.000000000000000D+00  0.000000000000000D+00  0.000000000000000D+00  0.000000000000000D+00
     26   0.000000000000000D+00  0.000000000000000D+00  0.000000000000000D+00  0.000000000000000D+00  0.000000000000000D+00
     27   0.000000000000000D+00  0.000000000000000D+00  0.000000000000000D+00  0.000000000000000D+00  0.000000000000000D+00
     28   0.000000000000000D+00  0.000000000000000D+00  0.000000000000000D+00  0.000000000000000D+00  0.000000000000000D+00
                21            22            23            24            25 
      1   0.000000000000000D+00  0.000000000000000D+00  0.000000000000000D+00  0.000000000000000D+00  0.000000000000000D+00
      2   0.000000000000000D+00  0.000000000000000D+00  0.000000000000000D+00  0.000000000000000D+00  0.000000000000000D+00
      3   0.000000000000000D+00  0.000000000000000D+00  0.000000000000000D+00  0.000000000000000D+00  0.000000000000000D+00
      4   0.000000000000000D+00  0.000000000000000D+00  0.000000000000000D+00  0.000000000000000D+00  0.000000000000000D+00
      5   0.000000000000000D+00  0.000000000000000D+00  0.000000000000000D+00  0.000000000000000D+00  0.000000000000000D+00
      6   0.000000000000000D+00  0.000000000000000D+00  0.000000000000000D+00  0.000000000000000D+00  0.000000000000000D+00
      7   0.000000000000000D+00  0.000000000000000D+00  0.000000000000000D+00  0.000000000000000D+00  0.000000000000000D+00
      8   0.000000000000000D+00  0.000000000000000D+00  0.000000000000000D+00  0.000000000000000D+00  0.000000000000000D+00
      9   0.000000000000000D+00  0.000000000000000D+00  0.000000000000000D+00  0.000000000000000D+00  0.000000000000000D+00
     10   0.000000000000000D+00  0.000000000000000D+00  0.000000000000000D+00  0.000000000000000D+00  0.000000000000000D+00
     11   0.000000000000000D+00  0.000000000000000D+00  0.000000000000000D+00  0.000000000000000D+00  0.000000000000000D+00
     12   0.000000000000000D+00  0.000000000000000D+00  0.000000000000000D+00  0.000000000000000D+00  0.000000000000000D+00
     13   0.000000000000000D+00  0.000000000000000D+00  0.000000000000000D+00  0.000000000000000D+00  0.000000000000000D+00
     14   0.000000000000000D+00  0.000000000000000D+00  0.000000000000000D+00  0.000000000000000D+00  0.000000000000000D+00
     15   0.000000000000000D+00  0.000000000000000D+00  0.000000000000000D+00  0.000000000000000D+00  0.000000000000000D+00
     16   0.000000000000000D+00  0.000000000000000D+00  0.000000000000000D+00  0.000000000000000D+00  0.000000000000000D+00
     17   0.000000000000000D+00  0.000000000000000D+00  0.000000000000000D+00  0.000000000000000D+00  0.000000000000000D+00
     18   0.000000000000000D+00  0.000000000000000D+00  0.000000000000000D+00  0.000000000000000D+00  0.000000000000000D+00
     19   0.000000000000000D+00  0.000000000000000D+00  0.000000000000000D+00  0.000000000000000D+00  0.000000000000000D+00
     20   0.000000000000000D+00  0.000000000000000D+00  0.000000000000000D+00  0.000000000000000D+00  0.000000000000000D+00
     21   0.000000000000000D+00  0.000000000000000D+00  0.000000000000000D+00  0.000000000000000D+00  0.000000000000000D+00
     22   0.000000000000000D+00  0.000000000000000D+00  0.000000000000000D+00  0.000000000000000D+00  0.000000000000000D+00
     23   0.000000000000000D+00  0.000000000000000D+00  0.000000000000000D+00  0.000000000000000D+00  0.000000000000000D+00
     24   0.000000000000000D+00  0.000000000000000D+00  0.000000000000000D+00  0.000000000000000D+00  0.000000000000000D+00
     25   0.000000000000000D+00  0.000000000000000D+00  0.000000000000000D+00  0.000000000000000D+00  0.000000000000000D+00
     26   0.000000000000000D+00  0.000000000000000D+00  0.000000000000000D+00  0.000000000000000D+00  0.000000000000000D+00
     27   0.000000000000000D+00  0.000000000000000D+00  0.000000000000000D+00  0.000000000000000D+00  0.000000000000000D+00
     28   0.000000000000000D+00  0.000000000000000D+00  0.000000000000000D+00  0.000000000000000D+00  0.000000000000000D+00
                26            27            28 
      1   0.000000000000000D+00  0.000000000000000D+00  0.000000000000000D+00
      2   0.000000000000000D+00  0.000000000000000D+00  0.000000000000000D+00
      3   0.000000000000000D+00  0.000000000000000D+00  0.000000000000000D+00
      4   0.000000000000000D+00  0.000000000000000D+00  0.000000000000000D+00
      5   0.000000000000000D+00  0.000000000000000D+00  0.000000000000000D+00
      6   0.000000000000000D+00  0.000000000000000D+00  0.000000000000000D+00
      7   0.000000000000000D+00  0.000000000000000D+00  0.000000000000000D+00
      8   0.000000000000000D+00  0.000000000000000D+00  0.000000000000000D+00
      9   0.000000000000000D+00  0.000000000000000D+00  0.000000000000000D+00
     10   0.000000000000000D+00  0.000000000000000D+00  0.000000000000000D+00
     11   0.000000000000000D+00  0.000000000000000D+00  0.000000000000000D+00
     12   0.000000000000000D+00  0.000000000000000D+00  0.000000000000000D+00
     13   0.000000000000000D+00  0.000000000000000D+00  0.000000000000000D+00
     14   0.000000000000000D+00  0.000000000000000D+00  0.000000000000000D+00
     15   0.000000000000000D+00  0.000000000000000D+00  0.000000000000000D+00
     16   0.000000000000000D+00  0.000000000000000D+00  0.000000000000000D+00
     17   0.000000000000000D+00  0.000000000000000D+00  0.000000000000000D+00
     18   0.000000000000000D+00  0.000000000000000D+00  0.000000000000000D+00
     19   0.000000000000000D+00  0.000000000000000D+00  0.000000000000000D+00
     20   0.000000000000000D+00  0.000000000000000D+00  0.000000000000000D+00
     21   0.000000000000000D+00  0.000000000000000D+00  0.000000000000000D+00
     22   0.000000000000000D+00  0.000000000000000D+00  0.000000000000000D+00
     23   0.000000000000000D+00  0.000000000000000D+00  0.000000000000000D+00
     24   0.000000000000000D+00  0.000000000000000D+00  0.000000000000000D+00
     25   0.000000000000000D+00  0.000000000000000D+00  0.000000000000000D+00
     26   0.000000000000000D+00  0.000000000000000D+00  0.000000000000000D+00
     27   0.000000000000000D+00  0.000000000000000D+00  0.000000000000000D+00
     28   0.000000000000000D+00  0.000000000000000D+00  0.000000000000000D+00

 Symmetry not used in FoFDir.
 MinBra= 0 MaxBra= 2 Meth= 1.
 IRaf=       1 NMat=   2 IRICut=       1 DoRegI=T DoRafI=F ISym2E= 0 JSym2E=0.
 PrsmSu:  NPrtUS=   1 ThrOK=F IAlg=1 NPAlg=1 LenDen=           0.
 Prism:   IPart=     0 DynPar=F LinDyn=F Incr=          30.
 PRISM was handed   536821431 working-precision words and    78 shell-pairs
 IPart=  0 NShTot=        3081 NBatch=          66 AvBLen=        46.7
 PrSmSu:  NxtVal=             31.
 
Start hfdmdg: find NO basis
 
Start formng/pg
 
Start formgg

 Symmetry not used in FoFDir.
 MinBra= 0 MaxBra= 2 Meth= 1.
 IRaf=       1 NMat=  64 IRICut=       1 DoRegI=T DoRafI=F ISym2E= 0 JSym2E=0.
 PrsmSu:  NPrtUS=   1 ThrOK=F IAlg=1 NPAlg=1 LenDen=           0.
 Prism:   IPart=     0 DynPar=F LinDyn=F Incr=          30.
 PRISM was handed   536685811 working-precision words and    78 shell-pairs
 IPart=  0 NShTot=        3081 NBatch=          66 AvBLen=        46.7
 PrSmSu:  NxtVal=             31.
 
Start evalsmt/hmt
 
Form Fock eff
ifsel =     2, useproj    T
 
Diag Fock

 *** SCF Done after   23 cycles ***

        E =      -1.037224297679    conv =           8.4052E-09
      Hsp =      -1.690927787063     Hph =       0.342422778449
   <S**2> =       0.000000000000

 **********************************


 PHF SCF - quitting the program

 Leave Link  530 at Tue Nov 24 04:04:14 2020, MaxMem=  536870912 cpu:       2.0
 (Enter /share/apps/gaussian/G09C01Z/srwang-mod-2020/g09/l9999.exe)

 Test job not archived.
 1\1\GINC-XC02N18\SP\CUHF\CC-pVTZ\H2\SRWANG\24-Nov-2020\0\\#p uhf/cc-pv
 tz guess=mix scf=conver=4 extralink=l530 iop( 5/207=4) pop=none\\title
 \\0,1\H,0,0.,0.,0.\H,0,0.,0.,1.7\\Version=EM64L-G09RevC.01\HF=-1.03722
 43\S2=0.\S2-1=0.\S2A=0.\RMSD=8.405e-09\PG=D*H [C*(H1.H1)]\\@


 ALL THINGS ARE POSSIBLE EXCEPT SKIING THROUGH A REVOLVING DOOR.
 Job cpu time:  0 days  0 hours  0 minutes  2.5 seconds.
 File lengths (MBytes):  RWF=     82 Int=      0 D2E=      0 Chk=      2 Scr=      2
 Normal termination of Gaussian 09 at Tue Nov 24 04:04:14 2020.
