#INFO: **** input file is /share/home/srwang/ExSCF/test/pt2/test.py ****
#import phf
from pyscf import gto, scf, lib
#import scipy
#import numpy as np
import sys

from pyphf import util, guess, pt2

lib.num_threads(4)

xyz = '''H 0.0 0.0 0.0; H 0.0 0.0 2.0''' #sys.argv[1]
fch = '../test_carlos/test_uhf.fchk' #sys.argv[2]
bas = '3-21g'


#mf = util.guess_from_fchk(xyz, bas, fch)
mf = guess.mix(xyz, bas)

mf2 = util.SUHF(mf)
mf2.cut_no = False
mf2.verbose = 6
mf2.diis_on = True
mf2.max_cycle = 15
mf2.kernel()

mf4 = pt2.EMP2(mf2)
mf4.kernel()#INFO: ******************** input file end ********************


System: uname_result(system='Linux', node='xn01', release='3.10.0-1127.el7.x86_64', version='#1 SMP Tue Feb 18 16:39:12 EST 2020', machine='x86_64', processor='x86_64')  Threads 4
Python 3.7.4 (default, Aug 13 2019, 20:35:49) 
[GCC 7.3.0]
numpy 1.17.2  scipy 1.4.1
Date: Mon Mar 22 21:48:48 2021
PySCF version 1.7.6a1
PySCF path  /share/home/srwang/pyscf/pyscf
GIT HEAD      ref: refs/heads/master
GIT master branch  80f71dfe77ac5f9caae26788acf76446987635bd

[CONFIG] conf_file None
[INPUT] verbose = 4
[INPUT] num. atoms = 2
[INPUT] num. electrons = 2
[INPUT] charge = 0
[INPUT] spin (= nelec alpha-beta = 2S) = 0
[INPUT] symmetry False subgroup None
[INPUT] Mole.unit = angstrom
[INPUT]  1 H      0.000000000000   0.000000000000   0.000000000000 AA    0.000000000000   0.000000000000   0.000000000000 Bohr
[INPUT]  2 H      0.000000000000   0.000000000000   2.000000000000 AA    0.000000000000   0.000000000000   3.779452249130 Bohr

nuclear repulsion = 0.26458860546
number of shells = 4
number of NR pGTOs = 6
number of NR cGTOs = 4
basis = 3-21g
ecp = {}
CPU time:         1.04


******** <class 'pyscf.scf.hf.RHF'> ********
method = RHF
initial guess = minao
damping factor = 0
level_shift factor = 0
DIIS = <class 'pyscf.scf.diis.CDIIS'>
diis_start_cycle = 1
diis_space = 8
SCF conv_tol = 1e-09
SCF conv_tol_grad = None
SCF max_cycles = 8
direct_scf = True
direct_scf_tol = 1e-13
chkfile to save SCF result = /share/home/srwang/ExSCF/test/pt2/tmpnz0hbzxx
max_memory 4000 MB (current use 108 MB)
Set gradient conv threshold to 3.16228e-05
init E= -0.648815945420394
  HOMO = -0.244674774926751  LUMO = -0.0864459286574333
cycle= 1 E= -0.907663399996248  delta_E= -0.259  |g|= 0.019  |ddm|= 0.828
  HOMO = -0.369605169894072  LUMO = -0.0101025752244085
cycle= 2 E= -0.907801422494245  delta_E= -0.000138  |g|= 0.00293  |ddm|= 0.0218
  HOMO = -0.370705495656876  LUMO = -0.0112684200431647
cycle= 3 E= -0.907804773936949  delta_E= -3.35e-06  |g|= 1.06e-06  |ddm|= 0.00397
  HOMO = -0.370703571859563  LUMO = -0.0112677864667395
cycle= 4 E= -0.907804773937317  delta_E= -3.67e-13  |g|= 4.38e-07  |ddm|= 8.49e-07
  HOMO = -0.370702200369487  LUMO = -0.0112673163072342
Extra cycle  E= -0.90780477393739  delta_E= -7.37e-14  |g|= 6.76e-08  |ddm|= 5.03e-07
converged SCF energy = -0.90780477393739


******** <class 'pyscf.scf.uhf.UHF'> ********
method = UHF
initial guess = minao
damping factor = 0
level_shift factor = 0
DIIS = <class 'pyscf.scf.diis.CDIIS'>
diis_start_cycle = 1
diis_space = 8
SCF conv_tol = 1e-09
SCF conv_tol_grad = None
SCF max_cycles = 5
direct_scf = True
direct_scf_tol = 1e-13
chkfile to save SCF result = /share/home/srwang/ExSCF/test/pt2/tmplrczwgtq
max_memory 4000 MB (current use 113 MB)
number electrons alpha = 1  beta = 1
Set gradient conv threshold to 3.16228e-05
init E= -1.69135653601085
  alpha nocc = 1  HOMO = -0.241362634120718  LUMO = 0.900983832264798
  beta  nocc = 1  HOMO = -0.241362634120718  LUMO = 0.900983832264799
cycle= 1 E= -0.985589253562578  delta_E= 0.706  |g|= 0.0835  |ddm|= 1.15
  alpha nocc = 1  HOMO = -0.500699366970839  LUMO = 0.115721879153891
  beta  nocc = 1  HOMO = -0.500699366970839  LUMO = 0.115721879153891
cycle= 2 E= -0.995568238237131  delta_E= -0.00998  |g|= 0.0263  |ddm|= 0.145
  alpha nocc = 1  HOMO = -0.497083605632848  LUMO = 0.125003394347004
  beta  nocc = 1  HOMO = -0.497083605632847  LUMO = 0.125003394347005
cycle= 3 E= -0.996982488677194  delta_E= -0.00141  |g|= 0.00453  |ddm|= 0.0714
  alpha nocc = 1  HOMO = -0.492766860245783  LUMO = 0.118670910258919
  beta  nocc = 1  HOMO = -0.492766860245783  LUMO = 0.118670910258919
cycle= 4 E= -0.997011162805272  delta_E= -2.87e-05  |g|= 0.000416  |ddm|= 0.00998
  alpha nocc = 1  HOMO = -0.494395497422847  LUMO = 0.120246563440781
  beta  nocc = 1  HOMO = -0.494395497422846  LUMO = 0.120246563440781
cycle= 5 E= -0.997011453176462  delta_E= -2.9e-07  |g|= 3.04e-05  |ddm|= 0.00094
SCF not converged.
SCF energy = -0.997011453176462 after 5 cycles  <S^2> = 0.91053826  2S+1 = 2.1545656

******** <class 'pyphf.util.SUHF'> ********
max_cycle = 15
verbose: 6, debug
DIIS: <class 'pyscf.scf.diis.CDIIS'>
diis_start_cyc = 10
S
[[1.         0.64589894 0.00227256 0.07465634]
 [0.64589894 1.         0.07465634 0.27025724]
 [0.00227256 0.07465634 1.         0.64589894]
 [0.07465634 0.27025724 0.64589894 1.        ]]
SVD: S^(-1/2)
[[-0.3306004   0.46012676 -0.85621932  0.83453679]
 [-0.39774539  0.36468663  0.71167752 -1.05293881]
 [-0.3306004  -0.46012676 -0.85621932 -0.83453679]
 [-0.39774539 -0.36468663  0.71167752  1.05293881]]
S^(1/2)
[[-0.61794925 -0.74345483 -0.61794925 -0.74345483]
 [ 0.66740563  0.52897143 -0.66740563 -0.52897143]
 [-0.34536213  0.28706017 -0.34536213  0.28706017]
 [ 0.23115675 -0.29165151 -0.23115675  0.29165151]]
C (ortho)
 [[-0.80168437 -0.57012967 -0.09238421 -0.15401133]
 [ 0.58107309 -0.75899383  0.10125266 -0.27573598]
 [ 0.08278252  0.16888346 -0.79175753 -0.58115871]
 [-0.11315161  0.26525254  0.59525882 -0.75000316]] 
 [[-0.80168437 -0.57012967 -0.09238421 -0.15401133]
 [-0.58107309  0.75899383 -0.10125266  0.27573598]
 [ 0.08278252  0.16888346 -0.79175753 -0.58115871]
 [ 0.11315161 -0.26525254 -0.59525882  0.75000316]]
density matrix (ortho)
[[[ 0.64269783 -0.46583722 -0.06636545  0.09071188]
  [-0.46583722  0.33764594  0.0481027  -0.06574935]
  [-0.06636545  0.0481027   0.00685295 -0.00936698]
  [ 0.09071188 -0.06574935 -0.00936698  0.01280329]]

 [[ 0.64269783  0.46583722 -0.06636545 -0.09071188]
  [ 0.46583722  0.33764594 -0.0481027  -0.06574935]
  [-0.06636545 -0.0481027   0.00685295  0.00936698]
  [-0.09071188 -0.06574935  0.00936698  0.01280329]]]
grids:  [0.06237655 0.31939555 0.74529195 1.28265786 1.85893479 2.39630071
 2.8221971  3.07921611] 
weights:  [0.15900941 0.34931531 0.49276925 0.56970235 0.56970235 0.49276925
 0.34931531 0.15900941]
S = 0.0, Sz = 0.0
Wigner small d:  1
value : [1. 1. 1. 1. 1. 1. 1. 1.]
time for Preparation before cyc: 0.006
**** Start Cycle 1 ****
dm (ortho)
[[[ 0.6426978299 -0.4658372158 -0.066365453   0.0907118756]
  [-0.4658372158  0.337645938   0.0481026953 -0.0657493547]
  [-0.066365453   0.0481026953  0.0068529457 -0.0093669753]
  [ 0.0907118756 -0.0657493547 -0.0093669753  0.0128032864]]

 [[ 0.6426978299  0.4658372158 -0.066365453  -0.0907118756]
  [ 0.4658372158  0.337645938  -0.0481026953 -0.0657493547]
  [-0.066365453  -0.0481026953  0.0068529457  0.0093669753]
  [-0.0907118756 -0.0657493547  0.0093669753  0.0128032864]]]
Fock (ortho)
 (array([[-0.2388734256,  0.3264271342,  0.2163619033,  0.0245881809],
       [ 0.3264271342,  0.0110600318,  0.0780698989,  0.3396311546],
       [ 0.2163619033,  0.0780698989,  1.1220215485,  0.050655689 ],
       [ 0.0245881809,  0.3396311546,  0.050655689 ,  1.1126187083]]), array([[-0.2388734256, -0.3264271342,  0.2163619033, -0.0245881809],
       [-0.3264271342,  0.0110600318, -0.0780698989,  0.3396311546],
       [ 0.2163619033, -0.0780698989,  1.1220215485, -0.050655689 ],
       [-0.0245881809,  0.3396311546, -0.050655689 ,  1.1126187083]]))
E(UHF) =    -1.261600
NO eigenvalue
[-1.0000000000e+00 -6.4420965796e-17 -4.4579987294e-19  3.5659419604e-18] 
 [-1.0000000000e+00 -4.2045586686e-18 -1.3090653986e-19  1.1237705407e-16]
NO vec
[[ 0.8016843705  0.            0.5571821959  0.0205983906  0.2154666495  0.            0.            0.          ]
 [-0.5810730918  0.            0.8052860487 -0.0792055393  0.0871488631  0.            0.            0.          ]
 [-0.0827825207  0.            0.0190984431  0.9826818796  0.1646773427  0.            0.            0.          ]
 [ 0.113151608   0.            0.2017365358  0.1662483453 -0.9585721524  0.            0.            0.          ]
 [ 0.            0.8016843705  0.            0.            0.           -0.0558023602  0.0327988136  0.5942327024]
 [ 0.            0.5810730918  0.            0.            0.            0.2684945169  0.0859666375 -0.7634621756]
 [ 0.           -0.0827825207  0.            0.            0.            0.0304388375  0.99431447    0.059659586 ]
 [ 0.           -0.113151608   0.            0.            0.            0.961181704  -0.0535976662  0.2458734138]]
dm(NO)
[[ 1.0000000000e+00  0.0000000000e+00 -2.7679417840e-16 -1.8367161644e-18 -3.7739061653e-17  0.0000000000e+00  0.0000000000e+00  0.0000000000e+00]
 [ 0.0000000000e+00  1.0000000000e+00  0.0000000000e+00  0.0000000000e+00  0.0000000000e+00  1.3365861419e-16 -2.9798136512e-17  5.2680127066e-17]
 [-1.9771522471e-16  0.0000000000e+00 -3.6391799080e-17  3.7757531986e-18 -7.3797548397e-18  0.0000000000e+00  0.0000000000e+00  0.0000000000e+00]
 [-1.2884498981e-17  0.0000000000e+00 -1.6715577706e-18 -1.3067613034e-19 -1.5308728524e-18  0.0000000000e+00  0.0000000000e+00  0.0000000000e+00]
 [-4.5912737330e-17  0.0000000000e+00  7.6285609742e-19 -2.5327717129e-18  7.5649748411e-19  0.0000000000e+00  0.0000000000e+00  0.0000000000e+00]
 [ 0.0000000000e+00  9.5957960646e-17  0.0000000000e+00  0.0000000000e+00  0.0000000000e+00  1.9335707286e-18  1.5127009377e-18  5.1819605681e-18]
 [ 0.0000000000e+00 -3.5135218029e-17  0.0000000000e+00  0.0000000000e+00  0.0000000000e+00  1.9576514676e-19 -3.5186620241e-19  6.2705921168e-19]
 [ 0.0000000000e+00  2.7019905356e-16  0.0000000000e+00  0.0000000000e+00  0.0000000000e+00  1.3110114559e-17  1.8288158224e-18 -1.1170001180e-17]]
D(g) (NO)
 [[ 9.9951368521e-01  9.3269488274e-03 -1.8855105962e-16 -7.2883678235e-18 -4.0014087245e-17 -2.9471685563e-03 -3.4936156756e-03  2.9402550014e-02]
 [-9.3269488274e-03  9.9951368521e-01 -2.7759502629e-02  4.0435574943e-03 -9.9227393856e-03  7.3565876694e-17 -4.7741064397e-17  2.9604744665e-16]
 [-1.4956597358e-16  2.7759502629e-02  9.9951368521e-01 -8.6233195870e-17 -1.4341787720e-16  1.1837449120e-02  2.9836071547e-03 -7.2647075111e-03]
 [-8.1907055077e-18 -4.0435574943e-03 -9.5987361824e-17  9.9951368521e-01  1.4717972172e-16  5.2166676417e-03  2.9999841473e-02  5.3701590178e-03]
 [-4.2700261594e-17  9.9227393856e-03 -1.4125042443e-16  1.3558883193e-16  9.9951368521e-01 -2.8220000873e-02  7.1620754135e-03 -5.1252848036e-03]
 [ 2.9471685563e-03  9.6113391305e-17 -1.1837449120e-02 -5.2166676417e-03  2.8220000873e-02  9.9951368521e-01  2.1117351462e-16 -2.4782070348e-17]
 [ 3.4936156756e-03 -4.1633363423e-17 -2.9836071547e-03 -2.9999841473e-02 -7.1620754135e-03  2.1163626407e-16  9.9951368521e-01 -8.3266726847e-17]
 [-2.9402550014e-02  2.7755575616e-16  7.2647075111e-03 -5.3701590178e-03  5.1252848036e-03 -2.7755575616e-17 -6.9388939039e-17  9.9951368521e-01]]
N(g) (NO)
 [[ 1.00039944   -0.0093352142]
 [ 0.0093352142  1.00039944  ]]
P(g) (NO)
 [[ 1.0000000000e+00  8.2785737297e-18 -2.7679417840e-16 -1.8367161644e-18 -3.7739061653e-17  1.0194096625e-33 -2.4074124305e-34  3.8518598888e-34]
 [ 1.6915411960e-18  1.0000000000e+00 -5.9180627169e-34 -3.5628320678e-37 -9.2400661280e-35  1.3365861419e-16 -2.9798136512e-17  5.2680127066e-17]
 [ 2.5914090413e-04  2.7770590884e-02 -7.1728693648e-20 -4.7596828748e-22 -9.7797345580e-21  3.7117786927e-18 -8.2751185818e-19  1.4629582565e-18]
 [-3.7747475486e-05 -4.0451726528e-03  1.0448281464e-20  6.9331398391e-23  1.4245543046e-21 -5.4067217092e-19  1.2053860692e-19 -2.1310020936e-19]
 [ 9.2630897976e-05  9.9267029244e-03 -2.5639693299e-20 -1.7013666764e-22 -3.4958031697e-21  1.3267893563e-18 -2.9579724886e-19  5.2293997141e-19]
 [ 2.9483457732e-03 -2.7512449863e-05 -8.1608494592e-19 -5.4152743399e-21 -1.1126780291e-19 -3.6772759216e-21  8.1981973681e-22 -1.4493593547e-21]
 [ 3.4950111654e-03 -3.2613650791e-05 -9.6739874400e-19 -6.4193435022e-21 -1.3189844185e-19 -4.3590953683e-21  9.7182601844e-22 -1.7180912678e-21]
 [-2.9414294568e-02  2.7447910348e-04  8.1417054980e-18  5.4025710298e-20  1.1100678762e-18  3.6686496594e-20 -8.1789657952e-21  1.4459594048e-20]]
time for NO, Ng: 0.014
Pg_ortho
 [[ 6.4282896141e-01 -4.6593226194e-01 -6.6378993741e-02  9.0730383816e-02  1.4052587586e-02  1.0185530387e-02 -1.4510805820e-03 -1.9834150946e-03]
 [-4.6566104963e-01  3.3751825007e-01  4.8084504206e-02 -6.5724490179e-02  1.8878681140e-02  1.3683556800e-02 -1.9494265698e-03 -2.6645812317e-03]
 [-6.6378993741e-02  4.8112509790e-02  6.8543439617e-03 -9.3688865016e-03 -1.4510805820e-03 -1.0517653970e-03  1.4983965355e-04  2.0480890883e-04]
 [ 9.0677570996e-02 -6.5724490179e-02 -9.3634330108e-03  1.2798444553e-02 -3.6762210426e-03 -2.6645812317e-03  3.7960930236e-04  5.1887044021e-04]
 [-1.4052587586e-02  1.0185530387e-02  1.4510805820e-03 -1.9834150946e-03  6.4282896141e-01  4.6593226194e-01 -6.6378993741e-02 -9.0730383816e-02]
 [ 1.8878681140e-02 -1.3683556800e-02 -1.9494265698e-03  2.6645812317e-03  4.6566104963e-01  3.3751825007e-01 -4.8084504206e-02 -6.5724490179e-02]
 [ 1.4510805820e-03 -1.0517653970e-03 -1.4983965355e-04  2.0480890883e-04 -6.6378993741e-02 -4.8112509790e-02  6.8543439617e-03  9.3688865016e-03]
 [-3.6762210426e-03  2.6645812317e-03  3.7960930236e-04 -5.1887044021e-04 -9.0677570996e-02 -6.5724490179e-02  9.3634330108e-03  1.2798444553e-02]]
G(g) (NO)
 [[ 2.7294507097e-01 -1.5807934026e-03  4.7760881172e-02  5.8174841437e-04  2.5857063845e-02 -4.7112288843e-04 -4.1488345323e-04  3.5303313438e-04]
 [ 1.5807934026e-03  2.7294507097e-01 -5.3319205908e-04  3.7122950308e-04  3.1082524657e-04  1.9286182019e-03  2.4622153366e-03  5.4224034152e-02]
 [ 4.7692733676e-02 -1.9029909860e-02  9.8799485704e-01  1.4747495720e-01 -5.1204417028e-02 -4.3648484156e-03 -4.8152759886e-03  8.9885091475e-04]
 [ 5.9206463842e-04 -1.9410172363e-03  1.4747183884e-01  8.1657013302e-01  4.3390414269e-03 -2.2077769217e-03 -2.2516237967e-03  2.5255361756e-04]
 [ 2.5839870718e-02 -3.6901676150e-03 -5.1200064493e-02  4.3393140865e-03  7.0234481272e-01  3.6358211923e-04  2.2989743792e-04  4.0596529553e-04]
 [-5.3104661206e-03  1.9421954818e-03  1.2071340497e-03 -2.2856076822e-03 -2.4788582536e-03  8.1280057389e-01 -6.6732959702e-02 -1.5645822620e-01]
 [ 1.9389654858e-03  2.4719811641e-03 -1.2013823059e-03  1.8779463676e-03  1.9497750012e-03 -6.6731964724e-02  8.1022548794e-01  1.1991504317e-01]
 [ 1.8643007178e-02  5.4154995066e-02 -2.5910455749e-03  3.7493588328e-03  3.3220017132e-03 -1.5646290523e-01  1.1991746385e-01  8.8388374095e-01]]
time for Gg: 0.023
C(NO)
[[-1.0000000000e+00  0.0000000000e+00 -1.4481030028e-16  1.5385683489e-16 -3.7714005725e-17  0.0000000000e+00  0.0000000000e+00  0.0000000000e+00]
 [ 0.0000000000e+00 -1.0000000000e+00  0.0000000000e+00  0.0000000000e+00  0.0000000000e+00 -2.4616631101e-16  2.2898349883e-16 -6.9388939039e-17]
 [ 2.1848337033e-16  0.0000000000e+00 -8.7213669884e-01  1.3502663267e-01 -4.7026097755e-01  0.0000000000e+00  0.0000000000e+00  0.0000000000e+00]
 [ 1.3407344713e-17  0.0000000000e+00  2.5842927492e-01 -6.8900772385e-01 -6.7711348114e-01  0.0000000000e+00  0.0000000000e+00  0.0000000000e+00]
 [ 5.1041922583e-17  0.0000000000e+00 -4.1544179905e-01 -7.1206471963e-01  5.6601408698e-01  0.0000000000e+00  0.0000000000e+00  0.0000000000e+00]
 [ 0.0000000000e+00 -8.0302311252e-17  0.0000000000e+00  0.0000000000e+00  0.0000000000e+00 -1.4215012793e-02 -6.1828259496e-01  7.8582731320e-01]
 [ 0.0000000000e+00  4.0700656166e-17  0.0000000000e+00  0.0000000000e+00  0.0000000000e+00  2.2868875674e-01 -7.6708593111e-01 -5.9940022258e-01]
 [ 0.0000000000e+00 -2.2985099317e-16  0.0000000000e+00  0.0000000000e+00  0.0000000000e+00 -9.7339580128e-01 -1.7118938944e-01 -1.5229841428e-01]]
detC 0.9999999999999994
detNg [ 1.0008861857  1.0235677093  1.1372636606  1.4834511689  2.4075617555  4.7583209498  8.8899320309 11.0684191068]
xg [0.9991145989 0.9769749387 0.8793035728 0.6741037528 0.4153579852 0.2101581652 0.1124867993 0.090347139 ]
ciS 1.0894617379405291
ciH -1.3880614178251602
0.9999999999999999 6.979551485375435e-18 -0.02840485448000089j 1.0842021724855044e-17
0.5448101838140994 0.0004034178790150134 -0.0004034178790150134 0.45518981618590015
0.9999999999999998 3.745918505937418e-17 -0.1463202334250747j 9.93129189996722e-17
0.5468641223791956 0.010704805354784172 -0.010704805354784174 0.4531358776208039
0.9999999999999998 1.1915381875615694e-16 -0.3511384889667945j 6.505213034913027e-17
0.5578535028887409 0.06164911921694183 -0.06164911921694184 0.44214649711125886
0.9999999999999999 1.496198998029996e-16 -0.6475270955872431j -1.2576745200831851e-16
0.598435974566782 0.20964566975982532 -0.20964566975982532 0.4015640254332178
1.0 1.8127860323957634e-16 -1.0509017780052785j -4.206704429243757e-17
0.7592759336889009 0.5521972735073281 -0.552197273507328 0.2407240663110989
1.0 1.43982048506075e-16 -1.469166461704342j -1.938553484404082e-16
1.5127792597059309 1.0792250460984283 -1.079225046098428 -0.5127792597059309
0.9999999999999999 1.5178830414797062e-17 -1.2708264612918012j -3.642919299551295e-16
4.035120452923285 0.8074999473597212 -0.8074999473597211 -3.0351204529232843
1.0000000000000007 3.404394821604484e-17 -0.31411846674809996j -7.025630077706069e-16
5.979974352571127 0.04933520557608859 -0.049335205576088594 -4.9799743525711255
S2 = 0.000000
X(g)
[[ 2.0000000000e+00  0.0000000000e+00  2.5914090413e-04 -3.7747475486e-05  9.2630897976e-05 -2.9483457732e-03 -3.4950111654e-03  2.9414294568e-02]
 [-5.2041704279e-18  2.0000000000e+00 -2.7770590884e-02  4.0451726528e-03 -9.9267029244e-03 -2.7512449863e-05 -3.2613650791e-05  2.7447910348e-04]
 [ 2.5914090413e-04  2.7770590884e-02  0.0000000000e+00  0.0000000000e+00  0.0000000000e+00  0.0000000000e+00  0.0000000000e+00  0.0000000000e+00]
 [-3.7747475486e-05 -4.0451726528e-03  0.0000000000e+00  0.0000000000e+00  0.0000000000e+00  0.0000000000e+00  0.0000000000e+00  0.0000000000e+00]
 [ 9.2630897976e-05  9.9267029244e-03  0.0000000000e+00  0.0000000000e+00  0.0000000000e+00  0.0000000000e+00  0.0000000000e+00  0.0000000000e+00]
 [ 2.9483457732e-03 -2.7512449863e-05  0.0000000000e+00  0.0000000000e+00  0.0000000000e+00  0.0000000000e+00  0.0000000000e+00  0.0000000000e+00]
 [ 3.4950111654e-03 -3.2613650791e-05  0.0000000000e+00  0.0000000000e+00  0.0000000000e+00  0.0000000000e+00  0.0000000000e+00  0.0000000000e+00]
 [-2.9414294568e-02  2.7447910348e-04  0.0000000000e+00  0.0000000000e+00  0.0000000000e+00  0.0000000000e+00  0.0000000000e+00  0.0000000000e+00]]
X(g) int
[[ 2.0000000000e+00 -1.0216244080e-17  2.4439788035e-01 -3.5599949102e-02  8.7360948268e-02 -6.8133695517e-02 -8.0766655232e-02  6.7973865486e-01]
 [-1.2850653725e-16  2.0000000000e+00 -6.4175409845e-01  9.3480406656e-02 -2.2939743387e-01 -2.5947213746e-02 -3.0758197554e-02  2.5886346007e-01]
 [ 2.4439788035e-01  6.4175409845e-01  0.0000000000e+00  0.0000000000e+00  0.0000000000e+00  0.0000000000e+00  0.0000000000e+00  0.0000000000e+00]
 [-3.5599949102e-02 -9.3480406656e-02  0.0000000000e+00  0.0000000000e+00  0.0000000000e+00  0.0000000000e+00  0.0000000000e+00  0.0000000000e+00]
 [ 8.7360948268e-02  2.2939743387e-01  0.0000000000e+00  0.0000000000e+00  0.0000000000e+00  0.0000000000e+00  0.0000000000e+00  0.0000000000e+00]
 [ 6.8133695517e-02 -2.5947213746e-02  0.0000000000e+00  0.0000000000e+00  0.0000000000e+00  0.0000000000e+00  0.0000000000e+00  0.0000000000e+00]
 [ 8.0766655232e-02 -3.0758197554e-02  0.0000000000e+00  0.0000000000e+00  0.0000000000e+00  0.0000000000e+00  0.0000000000e+00  0.0000000000e+00]
 [-6.7973865486e-01  2.5886346007e-01  0.0000000000e+00  0.0000000000e+00  0.0000000000e+00  0.0000000000e+00  0.0000000000e+00  0.0000000000e+00]]
Hsp + Hph =  -1.2740800061956201
Feff (mod,ortho)
[[-0.2302593429  0.3297454875  0.2245050049  0.0340359206  0.            0.            0.            0.          ]
 [ 0.3297454875  0.001724175   0.071180278   0.3341328875  0.            0.            0.            0.          ]
 [ 0.2245050049  0.071180278   1.1202479731  0.0509549905  0.            0.            0.            0.          ]
 [ 0.0340359206  0.3341328875  0.0509549905  1.115114058   0.            0.            0.            0.          ]
 [ 0.            0.            0.            0.           -0.2302593429 -0.3297454875  0.2245050049 -0.0340359206]
 [ 0.            0.            0.            0.           -0.3297454875  0.001724175  -0.071180278   0.3341328875]
 [ 0.            0.            0.            0.            0.2245050049 -0.071180278   1.1202479731 -0.0509549905]
 [ 0.            0.            0.            0.           -0.0340359206  0.3341328875 -0.0509549905  1.115114058 ]]
Alpha occ 1 vir 3; Beta occ 1 vir 3
Alpha energies:  [-0.4945413536] <- HOMO
         LUMO->  [0.1202183346 1.0992021966 1.2819476854]
Beta energies:   [-0.4945413536] <- HOMO
         LUMO->  [0.1202183346 1.0992021966 1.2819476854]
e_a, e_b
 [-0.4945413536  0.1202183346  1.0992021966  1.2819476854] 
 [-0.4945413536  0.1202183346  1.0992021966  1.2819476854]
v_a, v_b
 [[ 0.7959196416 -0.5758519428  0.0931776361  0.161939471 ]
 [-0.5890947425 -0.7547791458 -0.1018707211  0.2699966326]
 [-0.0881053541  0.1695239946  0.7916327941  0.5803590106]
 [ 0.1082439607  0.264508216  -0.5951956012  0.7510398425]] 
 [[ 0.7959196416  0.5758519428 -0.0931776361  0.161939471 ]
 [ 0.5890947425 -0.7547791458 -0.1018707211 -0.2699966326]
 [-0.0881053541 -0.1695239946 -0.7916327941  0.5803590106]
 [-0.1082439607  0.264508216  -0.5951956012 -0.7510398425]]
P_a, P_b
 [[ 0.6334880759 -0.4688720763 -0.0701247819  0.0861534944]
 [-0.4688720763  0.3470326157  0.0519024009 -0.0637659482]
 [-0.0701247819  0.0519024009  0.0077625534 -0.0095368725]
 [ 0.0861534944 -0.0637659482 -0.0095368725  0.011716755 ]] 
 [[ 0.6334880759  0.4688720763 -0.0701247819 -0.0861534944]
 [ 0.4688720763  0.3470326157 -0.0519024009 -0.0637659482]
 [-0.0701247819 -0.0519024009  0.0077625534  0.0095368725]
 [-0.0861534944 -0.0637659482  0.0095368725  0.011716755 ]]
time for xg, H, S2, Yg, Feff: 0.021
 E(SUHF) =     -1.00949140
**** Start Cycle 2 ****
dm (ortho)
[[[ 0.6334880759 -0.4688720763 -0.0701247819  0.0861534944]
  [-0.4688720763  0.3470326157  0.0519024009 -0.0637659482]
  [-0.0701247819  0.0519024009  0.0077625534 -0.0095368725]
  [ 0.0861534944 -0.0637659482 -0.0095368725  0.011716755 ]]

 [[ 0.6334880759  0.4688720763 -0.0701247819 -0.0861534944]
  [ 0.4688720763  0.3470326157 -0.0519024009 -0.0637659482]
  [-0.0701247819 -0.0519024009  0.0077625534  0.0095368725]
  [-0.0861534944 -0.0637659482  0.0095368725  0.011716755 ]]]
Fock (ortho)
 (array([[-0.2363071238,  0.3284581574,  0.2173269551,  0.026191974 ],
       [ 0.3284581574,  0.0087238652,  0.0778284732,  0.3390099423],
       [ 0.2173269551,  0.0778284732,  1.1216824539,  0.050917293 ],
       [ 0.026191974 ,  0.3390099423,  0.050917293 ,  1.1127046858]]), array([[-0.2363071238, -0.3284581574,  0.2173269551, -0.026191974 ],
       [-0.3284581574,  0.0087238652, -0.0778284732,  0.3390099423],
       [ 0.2173269551, -0.0778284732,  1.1216824539, -0.050917293 ],
       [-0.026191974 ,  0.3390099423, -0.050917293 ,  1.1127046858]]))
E(UHF) =    -1.261271
NO eigenvalue
[-1.0000000000e+00 -5.6803301077e-18 -2.5241563262e-19  5.8008701370e-17] 
 [-1.0000000000e+00 -1.6743861128e-16 -7.8833520909e-19  4.0669146344e-18]
NO vec
[[ 0.7959196416  0.           -0.1184533659  0.019320751   0.593386411   0.            0.            0.          ]
 [-0.5890947425  0.           -0.3770874258  0.0074840256  0.71464428    0.            0.            0.          ]
 [-0.0881053541  0.            0.5262689066  0.8226096307  0.1964481613  0.            0.            0.          ]
 [ 0.1082439607  0.           -0.7528711121  0.5682289094 -0.3139812735  0.            0.            0.          ]
 [ 0.            0.7959196416  0.            0.            0.           -0.6037822788 -0.0294408719  0.0330472227]
 [ 0.            0.5890947425  0.            0.            0.            0.7656945049 -0.0593094494 -0.251319913 ]
 [ 0.           -0.0881053541  0.            0.            0.           -0.0814018875 -0.966617185  -0.226412007 ]
 [ 0.           -0.1082439607  0.            0.            0.           -0.2062343753  0.2475213969 -0.9404699812]]
dm(NO)
[[ 1.0000000000e+00  0.0000000000e+00 -4.5492759226e-17 -9.3819406010e-19  1.0278756690e-16  0.0000000000e+00  0.0000000000e+00  0.0000000000e+00]
 [ 0.0000000000e+00  1.0000000000e+00  0.0000000000e+00  0.0000000000e+00  0.0000000000e+00  6.5045397024e-17  1.6352769272e-17  4.5438276489e-17]
 [-8.3661534483e-17  0.0000000000e+00 -9.9912733617e-18  2.3241522027e-18  1.7472639139e-17  0.0000000000e+00  0.0000000000e+00  0.0000000000e+00]
 [ 8.9403225248e-18  0.0000000000e+00  3.1416426012e-18 -1.1006211424e-20 -5.9048767844e-18  0.0000000000e+00  0.0000000000e+00  0.0000000000e+00]
 [ 2.4011151140e-16  0.0000000000e+00 -5.5395329068e-18 -7.2538233475e-18  2.5565858428e-17  0.0000000000e+00  0.0000000000e+00  0.0000000000e+00]
 [ 0.0000000000e+00  6.9473679868e-17  0.0000000000e+00  0.0000000000e+00  0.0000000000e+00 -1.0564475838e-17 -3.8736265970e-18 -6.6989417965e-18]
 [ 0.0000000000e+00  8.5490514944e-18  0.0000000000e+00  0.0000000000e+00  0.0000000000e+00 -3.1823957222e-18  1.2720001630e-18  4.8681465426e-20]
 [ 0.0000000000e+00  3.9625160185e-17  0.0000000000e+00  0.0000000000e+00  0.0000000000e+00 -1.5111509240e-18  6.5613072096e-19  1.4769677216e-18]]
D(g) (NO)
 [[ 9.9951368521e-01  8.8092982871e-03 -5.0704621952e-17  1.8588119321e-18  1.1156660161e-16 -2.9523661507e-02  3.8499786856e-03  2.8845127434e-03]
 [-8.8092982871e-03  9.9951368521e-01  8.7716189582e-03  3.5610328966e-03 -2.8375466234e-02  7.2732402368e-17  4.7221954820e-19  5.3920349140e-17]
 [-4.5331205424e-17 -8.7716189582e-03  9.9951368521e-01  6.1031833035e-17 -2.1578132936e-16 -3.2675367705e-03 -2.0867811261e-02  2.1196920347e-02]
 [-1.2249721958e-18 -3.5610328966e-03  5.4272669539e-17  9.9951368521e-01  7.8775033264e-18 -5.9274732070e-03 -2.0440988625e-02 -2.2510956551e-02]
 [ 1.3083920218e-16  2.8375466234e-02 -1.8945518390e-16 -9.1732586937e-18  9.9951368521e-01  7.4117980809e-03 -1.0211325871e-02  2.8319717367e-03]
 [ 2.9523661507e-02  7.9714930180e-17  3.2675367705e-03  5.9274732070e-03 -7.4117980809e-03  9.9951368521e-01 -8.0313757799e-18  1.0650678678e-16]
 [-3.8499786856e-03  1.3877787808e-17  2.0867811261e-02  2.0440988625e-02  1.0211325871e-02 -1.3877787808e-17  9.9951368521e-01  2.2204460493e-16]
 [-2.8845127434e-03  6.2450045135e-17 -2.1196920347e-02  2.2510956551e-02 -2.8319717367e-03  1.0061396161e-16  2.2204460493e-16  9.9951368521e-01]]
N(g) (NO)
 [[ 1.0004088404 -0.0088171878]
 [ 0.0088171878  1.0004088404]]
P(g) (NO)
 [[ 1.0000000000e+00 -3.3416570787e-18 -4.5492759226e-17 -9.3819406010e-19  1.0278756690e-16 -1.8630703599e-34 -4.8148248610e-35 -9.6296497219e-35]
 [-2.4399035256e-18  1.0000000000e+00  1.3431324239e-34  3.7868276112e-36 -1.9878445907e-34  6.5045397024e-17  1.6352769272e-17  4.5438276489e-17]
 [-7.7341011777e-05 -8.7752051502e-03  3.5184560270e-21  7.2560877851e-23 -7.9496944223e-21 -5.7078670296e-19 -1.4349890513e-19 -3.9873019786e-19]
 [-3.1398295857e-05 -3.5624887907e-03  1.4283951135e-21  2.9457694670e-23 -3.2273544360e-21 -2.3172349778e-19 -5.8256557227e-20 -1.6187335066e-19]
 [ 2.5019181506e-04  2.8387067270e-02 -1.1381916003e-20 -2.3472847477e-22  2.5716607929e-20  1.8464480609e-18  4.6420716137e-19  1.2898594113e-18]
 [ 2.9535731972e-02 -2.6031566843e-04 -1.3436619432e-18 -2.7710248297e-20  3.0359060261e-18 -1.6932336004e-20 -4.2568820636e-21 -1.1828295317e-20]
 [-3.8515527124e-03  3.3945985146e-05  1.7521776019e-19  3.6135038769e-21 -3.9589173210e-19  2.2080300812e-21  5.5511086280e-22  1.5424470588e-21]
 [-2.8856920486e-03  2.5433290607e-05  1.3127809357e-19  2.7073391393e-21 -2.9661326451e-19  1.6543184851e-21  4.1590473311e-22  1.1556448906e-21]]
time for NO, Ng: 0.013
Pg_ortho
 [[ 6.3361304727e-01 -4.6896457309e-01 -7.0138615758e-02  8.6170490344e-02  1.4179405991e-02  1.0494795058e-02 -1.5696076853e-03 -1.9283794301e-03]
 [-4.6870674194e-01  3.4691024449e-01  5.1884099007e-02 -6.3743462915e-02  1.8759040392e-02  1.3884381654e-02 -2.0765562384e-03 -2.5512033187e-03]
 [-7.0138615758e-02  5.1912639959e-02  7.7640847859e-03 -9.5387538782e-03 -1.5696076853e-03 -1.1617349125e-03  1.7374975279e-04  2.1346445511e-04]
 [ 8.6123114833e-02 -6.3743462915e-02 -9.5335095847e-03  1.1712623449e-02 -3.4469036719e-03 -2.5512033187e-03  3.8155946005e-04  4.6877408989e-04]
 [-1.4179405991e-02  1.0494795058e-02  1.5696076853e-03 -1.9283794301e-03  6.3361304727e-01  4.6896457309e-01 -7.0138615758e-02 -8.6170490344e-02]
 [ 1.8759040392e-02 -1.3884381654e-02 -2.0765562384e-03  2.5512033187e-03  4.6870674194e-01  3.4691024449e-01 -5.1884099007e-02 -6.3743462915e-02]
 [ 1.5696076853e-03 -1.1617349125e-03 -1.7374975279e-04  2.1346445511e-04 -7.0138615758e-02 -5.1912639959e-02  7.7640847859e-03  9.5387538782e-03]
 [-3.4469036719e-03  2.5512033187e-03  3.8155946005e-04 -4.6877408989e-04 -8.6123114833e-02 -6.3743462915e-02  9.5335095847e-03  1.1712623449e-02]]
G(g) (NO)
 [[ 2.7122561502e-01 -1.4540267350e-03 -3.2477216823e-03 -7.0918296225e-03  4.9323935849e-02 -3.0461518202e-04  3.0172462257e-04  4.4524195755e-04]
 [ 1.4540267350e-03  2.7122561502e-01  5.6459397238e-04  1.3625715081e-04 -2.1150932121e-04 -4.9403705176e-02  3.4417149631e-03 -6.4125583176e-03]
 [-3.2216142779e-03  6.2778240691e-03  7.7548468367e-01 -5.1577319998e-02 -9.2246222118e-02  5.3073099599e-05 -1.3735251737e-03 -1.8937778615e-03]
 [-7.0858974060e-03 -3.1352451087e-03 -5.1575512208e-02  8.4372721771e-01  1.7666978411e-01 -2.0277682458e-04  2.3027530506e-03  3.2897895536e-03]
 [ 4.9261746672e-02 -1.8371763912e-02 -9.2248792435e-02  1.7667442998e-01  8.8939243576e-01 -9.5199932998e-04  3.5082971777e-03  4.4144408601e-03]
 [-1.9033604794e-02 -4.9337944958e-02 -5.5986577387e-03 -1.8103216664e-03 -2.6776406760e-05  9.0386174835e-01  1.4894060653e-01 -1.2883916354e-01]
 [-2.3952657037e-03  3.4326808221e-03 -3.3303832515e-03 -8.8513329454e-04 -3.1871873731e-04  1.4893695222e-01  8.2654913459e-01 -5.3564662551e-02]
 [ 4.3297964104e-03 -6.4259097032e-03  2.6561786655e-03  6.8221029489e-04  4.7316684533e-04 -1.2883501489e-01 -5.3565607734e-02  7.7819345420e-01]]
time for Gg: 0.022
C(NO)
[[ 1.0000000000e+00  0.0000000000e+00  2.9684042559e-16  3.1455329072e-18 -2.5301403272e-17  0.0000000000e+00  0.0000000000e+00  0.0000000000e+00]
 [ 0.0000000000e+00  1.0000000000e+00  0.0000000000e+00  0.0000000000e+00  0.0000000000e+00  4.9994950250e-16  4.1633363423e-17  1.2490009027e-16]
 [-6.2800149302e-17  0.0000000000e+00  2.4290393860e-01  8.9209426248e-01 -3.8100591002e-01  0.0000000000e+00  0.0000000000e+00  0.0000000000e+00]
 [ 5.0538335166e-18  0.0000000000e+00  2.7297860725e-01  3.1403527181e-01  9.0932091587e-01  0.0000000000e+00  0.0000000000e+00  0.0000000000e+00]
 [ 1.9041165924e-16  0.0000000000e+00 -9.3084926631e-01  3.2488409459e-01  1.6724224492e-01  0.0000000000e+00  0.0000000000e+00  0.0000000000e+00]
 [ 0.0000000000e+00  8.0570521624e-17  0.0000000000e+00  0.0000000000e+00  0.0000000000e+00 -9.6637055621e-01  1.6544735072e-01 -1.9686320690e-01]
 [ 0.0000000000e+00  6.0476209994e-18  0.0000000000e+00  0.0000000000e+00  0.0000000000e+00  2.5714820181e-01  6.2666734355e-01 -7.3563771167e-01]
 [ 0.0000000000e+00  5.6837629389e-17  0.0000000000e+00  0.0000000000e+00  0.0000000000e+00 -1.6584324212e-03  7.6152164425e-01  6.4813735808e-01]]
detC 1.0
detNg [ 1.0008955907  1.0238235599  1.1389213125  1.4910948388  2.4440387958  4.9558145136  9.701563814  12.3913049506]
xg [0.9991052107 0.9767307953 0.8780237836 0.6706481533 0.4091588078 0.2017831776 0.1030761658 0.0807017505]
ciS 1.0798069611217853
ciH -1.3762057129978147
1.0000000000000002 7.15573433840433e-18 -0.02870631148743445j 1.5482407023093003e-16
0.5399749869392378 0.00041202615960680554 -0.00041202615960680554 0.4600250130607627
1.0 7.318364664277155e-18 -0.1479086834044374j 7.41594285980085e-17
0.5418274141830369 0.010938489313217052 -0.01093848931321705 0.45817258581696296
0.9999999999999999 6.288372600415926e-17 -0.3553789804445012j 1.5525775109992423e-16
0.5517604708509873 0.06314710987088658 -0.06314710987088658 0.4482395291490126
1.0 6.548581121812447e-17 -0.6577649099839441j 7.806255641895632e-17
0.5887199549008405 0.216327338403093 -0.216327338403093 0.4112800450991595
1.0 1.0538445116559103e-16 -1.0781359553460792j 2.992397996059992e-17
0.7383564833761322 0.5811885691050012 -0.5811885691050013 0.2616435166238677
0.9999999999999999 -2.6020852139652106e-17 -1.546368734821212j 3.0964814046186007e-16
1.4800333729031225 1.195628132016278 -1.195628132016278 -0.4800333729031228
1.0000000000000002 3.0444397003392965e-16 -1.4015554894737823j 2.445960101127298e-16
4.255729175043626 0.9821788950370464 -0.9821788950370465 -3.2557291750436272
1.0000000000000007 9.194034422677078e-17 -0.3553903753315189j 2.0122792321330962e-16
6.6269575120821465 0.06315115943913896 -0.06315115943913895 -5.6269575120821465
S2 = -0.000000
X(g)
[[ 2.0000000000e+00 -3.4694469520e-18 -7.7341011777e-05 -3.1398295857e-05  2.5019181506e-04 -2.9535731972e-02  3.8515527124e-03  2.8856920486e-03]
 [ 3.4694469520e-18  2.0000000000e+00  8.7752051502e-03  3.5624887907e-03 -2.8387067270e-02 -2.6031566843e-04  3.3945985146e-05  2.5433290607e-05]
 [-7.7341011777e-05 -8.7752051502e-03  0.0000000000e+00  0.0000000000e+00  0.0000000000e+00  0.0000000000e+00  0.0000000000e+00  0.0000000000e+00]
 [-3.1398295857e-05 -3.5624887907e-03  0.0000000000e+00  0.0000000000e+00  0.0000000000e+00  0.0000000000e+00  0.0000000000e+00  0.0000000000e+00]
 [ 2.5019181506e-04  2.8387067270e-02  0.0000000000e+00  0.0000000000e+00  0.0000000000e+00  0.0000000000e+00  0.0000000000e+00  0.0000000000e+00]
 [ 2.9535731972e-02 -2.6031566843e-04  0.0000000000e+00  0.0000000000e+00  0.0000000000e+00  0.0000000000e+00  0.0000000000e+00  0.0000000000e+00]
 [-3.8515527124e-03  3.3945985146e-05  0.0000000000e+00  0.0000000000e+00  0.0000000000e+00  0.0000000000e+00  0.0000000000e+00  0.0000000000e+00]
 [-2.8856920486e-03  2.5433290607e-05  0.0000000000e+00  0.0000000000e+00  0.0000000000e+00  0.0000000000e+00  0.0000000000e+00  0.0000000000e+00]]
X(g) int
[[ 2.0000000000e+00 -4.2393325053e-17 -7.3592421472e-02 -2.9876472639e-02  2.3806543359e-01 -6.8864127165e-01  8.9800996304e-02  6.7281442148e-02]
 [ 1.4327018551e-16  2.0000000000e+00  2.0459856689e-01  8.3061317504e-02 -6.6185954429e-01 -2.4769860061e-01  3.2300679663e-02  2.4200581280e-02]
 [-7.3592421472e-02 -2.0459856689e-01  0.0000000000e+00  0.0000000000e+00  0.0000000000e+00  0.0000000000e+00  0.0000000000e+00  0.0000000000e+00]
 [-2.9876472639e-02 -8.3061317504e-02  0.0000000000e+00  0.0000000000e+00  0.0000000000e+00  0.0000000000e+00  0.0000000000e+00  0.0000000000e+00]
 [ 2.3806543359e-01  6.6185954429e-01  0.0000000000e+00  0.0000000000e+00  0.0000000000e+00  0.0000000000e+00  0.0000000000e+00  0.0000000000e+00]
 [ 6.8864127165e-01 -2.4769860061e-01  0.0000000000e+00  0.0000000000e+00  0.0000000000e+00  0.0000000000e+00  0.0000000000e+00  0.0000000000e+00]
 [-8.9800996304e-02  3.2300679663e-02  0.0000000000e+00  0.0000000000e+00  0.0000000000e+00  0.0000000000e+00  0.0000000000e+00  0.0000000000e+00]
 [-6.7281442148e-02  2.4200581280e-02  0.0000000000e+00  0.0000000000e+00  0.0000000000e+00  0.0000000000e+00  0.0000000000e+00  0.0000000000e+00]]
Hsp + Hph =  -1.2744923514552153
Feff (mod,ortho)
[[-0.2317660707  0.3307692724  0.2234862517  0.0367470905  0.            0.            0.            0.          ]
 [ 0.3307692724  0.0028151066  0.0726418244  0.3319690454  0.            0.            0.            0.          ]
 [ 0.2234862517  0.0726418244  1.1202631867  0.0506548999  0.            0.            0.            0.          ]
 [ 0.0367470905  0.3319690454  0.0506548999  1.1154916584  0.            0.            0.            0.          ]
 [ 0.            0.            0.            0.           -0.2317660707 -0.3307692724  0.2234862517 -0.0367470905]
 [ 0.            0.            0.            0.           -0.3307692724  0.0028151066 -0.0726418244  0.3319690454]
 [ 0.            0.            0.            0.            0.2234862517 -0.0726418244  1.1202631867 -0.0506548999]
 [ 0.            0.            0.            0.           -0.0367470905  0.3319690454 -0.0506548999  1.1154916584]]
Alpha occ 1 vir 3; Beta occ 1 vir 3
Alpha energies:  [-0.4950424038] <- HOMO
         LUMO->  [0.1210967755 1.0986657271 1.2820837821]
Beta energies:   [-0.4950424038] <- HOMO
         LUMO->  [0.1210967755 1.0986657271 1.2820837821]
e_a, e_b
 [-0.4950424038  0.1210967755  1.0986657271  1.2820837821] 
 [-0.4950424038  0.1210967755  1.0986657271  1.2820837821]
v_a, v_b
 [[ 0.7974913315 -0.5736705726  0.0914113233  0.1629528165]
 [-0.5875671982 -0.7561933834 -0.1006135913  0.269839322 ]
 [-0.0872271678  0.1698570612  0.7911442951  0.5810599833]
 [ 0.1056588142  0.2649947543 -0.5963317696  0.750334869 ]] 
 [[ 0.7974913315  0.5736705726 -0.0914113233  0.1629528165]
 [ 0.5875671982 -0.7561933834 -0.1006135913 -0.269839322 ]
 [-0.0872271678 -0.1698570612 -0.7911442951  0.5810599833]
 [-0.1056588142  0.2649947543 -0.5963317696 -0.750334869 ]]
P_a, P_b
 [[ 0.6359924237 -0.4685797472 -0.0695629102  0.0842619884]
 [-0.4685797472  0.3452352124  0.0512518226 -0.0620816534]
 [-0.0695629102  0.0512518226  0.0076085788 -0.0092163191]
 [ 0.0842619884 -0.0620816534 -0.0092163191  0.011163785 ]] 
 [[ 0.6359924237  0.4685797472 -0.0695629102 -0.0842619884]
 [ 0.4685797472  0.3452352124 -0.0512518226 -0.0620816534]
 [-0.0695629102 -0.0512518226  0.0076085788  0.0092163191]
 [-0.0842619884 -0.0620816534  0.0092163191  0.011163785 ]]
time for xg, H, S2, Yg, Feff: 0.021
 E(SUHF) =     -1.00990375, delta E = -0.000412345, MaxD(dm) = 0.00250435, RMSD(dm) = 0.00700222
**** Start Cycle 3 ****
dm (ortho)
[[[ 0.6359924237 -0.4685797472 -0.0695629102  0.0842619884]
  [-0.4685797472  0.3452352124  0.0512518226 -0.0620816534]
  [-0.0695629102  0.0512518226  0.0076085788 -0.0092163191]
  [ 0.0842619884 -0.0620816534 -0.0092163191  0.011163785 ]]

 [[ 0.6359924237  0.4685797472 -0.0695629102 -0.0842619884]
  [ 0.4685797472  0.3452352124 -0.0512518226 -0.0620816534]
  [-0.0695629102 -0.0512518226  0.0076085788  0.0092163191]
  [-0.0842619884 -0.0620816534  0.0092163191  0.011163785 ]]]
Fock (ortho)
 (array([[-0.2364624822,  0.3286848192,  0.21724534  ,  0.0271371325],
       [ 0.3286848192,  0.0096476741,  0.0785721106,  0.3387524181],
       [ 0.21724534  ,  0.0785721106,  1.1222637338,  0.0510836064],
       [ 0.0271371325,  0.3387524181,  0.0510836064,  1.1132575047]]), array([[-0.2364624822, -0.3286848192,  0.21724534  , -0.0271371325],
       [-0.3286848192,  0.0096476741, -0.0785721106,  0.3387524181],
       [ 0.21724534  , -0.0785721106,  1.1222637338, -0.0510836064],
       [-0.0271371325,  0.3387524181, -0.0510836064,  1.1132575047]]))
E(UHF) =    -1.261249
NO eigenvalue
[-1.0000000000e+00 -1.8239180610e-17 -1.4242837019e-18  1.5511622813e-17] 
 [-1.0000000000e+00 -2.8130965924e-18 -4.8308695552e-19  5.6050608615e-17]
NO vec
[[ 0.7974913315  0.           -0.4032354903 -0.0967428077  0.4382345774  0.            0.            0.          ]
 [-0.5875671982  0.           -0.6460470755  0.046319104   0.4850180455  0.            0.            0.          ]
 [-0.0872271678  0.            0.6479369982  0.0077833262  0.7566429061  0.            0.            0.          ]
 [ 0.1056588142  0.           -0.0142113344  0.9942005782  0.0141231497  0.            0.            0.          ]
 [ 0.            0.7974913315  0.            0.            0.            0.0332042913 -0.0482232112 -0.6004827834]
 [ 0.            0.5875671982  0.            0.            0.           -0.2689330715  0.0769674078  0.7592863812]
 [ 0.           -0.0872271678  0.            0.            0.           -0.5571459942  0.7984693352 -0.2107759072]
 [ 0.           -0.1056588142  0.            0.            0.           -0.7849591195 -0.5951447393 -0.135934304 ]]
dm(NO)
[[ 1.0000000000e+00  0.0000000000e+00 -4.5621350406e-17 -1.5284692148e-17 -5.5808622236e-17  0.0000000000e+00  0.0000000000e+00  0.0000000000e+00]
 [ 0.0000000000e+00  1.0000000000e+00  0.0000000000e+00  0.0000000000e+00  0.0000000000e+00  7.1863631704e-17  2.2581481913e-18 -2.0479129908e-16]
 [-1.5224277930e-17  0.0000000000e+00 -7.6988473102e-18 -4.3795310256e-18  1.1465315976e-17  0.0000000000e+00  0.0000000000e+00  0.0000000000e+00]
 [-3.2996105141e-17  0.0000000000e+00 -1.4197375834e-18  1.7229804471e-18  8.6023535232e-19  0.0000000000e+00  0.0000000000e+00  0.0000000000e+00]
 [-5.4195427097e-17  0.0000000000e+00 -4.5454355366e-18 -1.4461176076e-18 -7.0684299033e-19  0.0000000000e+00  0.0000000000e+00  0.0000000000e+00]
 [ 0.0000000000e+00  2.8669521474e-17  0.0000000000e+00  0.0000000000e+00  0.0000000000e+00  2.0114935122e-18 -3.8256720270e-19  6.0597321147e-18]
 [ 0.0000000000e+00 -7.6016998378e-19  0.0000000000e+00  0.0000000000e+00  0.0000000000e+00 -1.6084161924e-18  6.5054355480e-19  7.0305435416e-18]
 [ 0.0000000000e+00 -2.4996587958e-16  0.0000000000e+00  0.0000000000e+00  0.0000000000e+00 -3.1284627077e-18  3.4461506288e-18 -6.9130473064e-18]]
D(g) (NO)
 [[ 9.9951368521e-01  8.9558826889e-03 -7.1116178399e-17 -4.0524999814e-17  1.3319979926e-17  4.6823723033e-03 -6.7421741446e-03 -2.8719396188e-02]
 [-8.9558826889e-03  9.9951368521e-01  2.3580407394e-02  4.8540088773e-03 -1.7680164733e-02  5.6089942764e-17  1.1449593716e-17 -2.3627560876e-16]
 [-1.3895721546e-16 -2.3580407394e-02  9.9951368521e-01 -4.7596866514e-17  3.1825917667e-16 -5.9087804354e-03  1.5452418466e-02 -1.1944309909e-02]
 [-2.6225781811e-17 -4.8540088773e-03 -5.4874907963e-17  9.9951368521e-01  5.6711437019e-17 -2.4959430321e-02 -1.8000455945e-02 -1.3572385158e-03]
 [ 2.6124144237e-17  1.7680164733e-02  2.7716247893e-16  6.0224092894e-17  9.9951368521e-01 -1.7105017280e-02  1.9082518489e-02 -1.7551984846e-03]
 [-4.6823723033e-03  5.0464747330e-17  5.9087804354e-03  2.4959430321e-02  1.7105017280e-02  9.9951368521e-01 -1.6713290555e-19  7.7815559928e-17]
 [ 6.7421741446e-03  0.0000000000e+00 -1.5452418466e-02  1.8000455945e-02 -1.9082518489e-02  5.5511151231e-17  9.9951368521e-01 -1.1102230246e-16]
 [ 2.8719396188e-02 -3.8857805862e-16  1.1944309909e-02  1.3572385158e-03  1.7551984846e-03  8.3266726847e-17 -1.1102230246e-16  9.9951368521e-01]]
N(g) (NO)
 [[ 1.0004062329 -0.0089638801]
 [ 0.0089638801  1.0004062329]]
P(g) (NO)
 [[ 1.0000000000e+00 -8.5243062587e-19 -4.5621350406e-17 -1.5284692148e-17 -5.5808622236e-17 -1.7498541917e-34 -3.0092655381e-36  0.0000000000e+00]
 [ 3.2071391751e-18  1.0000000000e+00 -1.7122849248e-34 -4.7730514173e-35 -1.5045091927e-34  7.1863631704e-17  2.2581481913e-18 -2.0479129908e-16]
 [-2.1137194530e-04 -2.3589986531e-02  9.6430735827e-21  3.2307551128e-21  1.1796377047e-20 -1.6952621039e-18 -5.3269685418e-20  4.8310239869e-18]
 [-4.3510753728e-05 -4.8559807354e-03  1.9850193423e-21  6.6504847588e-22  2.4282752180e-21 -3.4896841113e-19 -1.0965524115e-20  9.9446260310e-19]
 [ 1.5848287735e-04  1.7687346997e-02 -7.2302028809e-21 -2.4223619911e-21 -8.8447110328e-21  1.2710769904e-18  3.9940650631e-20 -3.6222147688e-18]
 [-4.6842744369e-03  4.1972224053e-05  2.1370292548e-19  7.1597692707e-20  2.6142290250e-19  3.0162764511e-21  9.4779501831e-23 -8.5955462890e-21]
 [ 6.7449130375e-03 -6.0436040851e-05 -3.0771204114e-19 -1.0309391935e-19 -3.7642430372e-19 -4.3431533813e-21 -1.3647353634e-22  1.2376775317e-20]
 [ 2.8731062952e-02 -2.5743722485e-04 -1.3107498905e-18 -4.3914545231e-19 -1.6034410387e-18 -1.8500373914e-20 -5.8133140368e-22  5.2720903709e-20]]
time for NO, Ng: 0.013
Pg_ortho
 [[ 6.3611914089e-01 -4.6867310854e-01 -6.9576770149e-02  8.4278777042e-02  1.4142159432e-02  1.0419510115e-02 -1.5468262358e-03 -1.8736802984e-03]
 [-4.6841115126e-01  3.4511099608e-01  5.1233382100e-02 -6.2059316319e-02  1.8816010157e-02  1.3863060241e-02 -2.0580377632e-03 -2.4929140202e-03]
 [-6.9576770149e-02  5.1262034188e-02  7.6100947656e-03 -9.2181554080e-03 -1.5468262358e-03 -1.1396542153e-03  1.6918713265e-04  2.0493743243e-04]
 [ 8.4231670778e-02 -6.2059316319e-02 -9.2130030685e-03  1.1159768265e-02 -3.3835743847e-03 -2.4929140202e-03  3.7008503929e-04  4.4828632381e-04]
 [-1.4142159432e-02  1.0419510115e-02  1.5468262358e-03 -1.8736802984e-03  6.3611914089e-01  4.6867310854e-01 -6.9576770149e-02 -8.4278777042e-02]
 [ 1.8816010157e-02 -1.3863060241e-02 -2.0580377632e-03  2.4929140202e-03  4.6841115126e-01  3.4511099608e-01 -5.1233382100e-02 -6.2059316319e-02]
 [ 1.5468262358e-03 -1.1396542153e-03 -1.6918713265e-04  2.0493743243e-04 -6.9576770149e-02 -5.1262034188e-02  7.6100947656e-03  9.2181554080e-03]
 [-3.3835743847e-03  2.4929140202e-03  3.7008503929e-04 -4.4828632381e-04 -8.4231670778e-02 -6.2059316319e-02  9.2130030685e-03  1.1159768265e-02]]
G(g) (NO)
 [[ 2.7182186176e-01 -1.4742259196e-03 -3.4304045612e-02 -1.8138731958e-02  3.2611208409e-02  5.3936563446e-04 -1.6980590221e-04 -2.8726543926e-04]
 [ 1.4742259196e-03  2.7182186176e-01  5.7050225662e-04 -2.7692024492e-04  1.0635685402e-05 -3.7167450910e-03 -1.2625585723e-02 -4.8949488735e-02]
 [-3.4247924117e-02  1.2872626500e-02  7.6089092428e-01 -6.4807138854e-02 -8.4867082740e-02 -2.5241253475e-03  9.1466168108e-04  3.0720344947e-04]
 [-1.8134306067e-02 -3.9823688008e-04 -6.4803363056e-02  7.4096443488e-01  1.1158494947e-01  2.1201798229e-03 -4.0852686407e-04  2.6293769105e-04]
 [ 3.2571665283e-02 -1.4877216936e-02 -8.4864348963e-02  1.1158830985e-01  1.0080548893e+00  6.2208638279e-03 -1.8999618199e-03 -4.7876730355e-04]
 [ 3.5624975905e-03 -3.7341590550e-03  8.9052876809e-04 -9.4805225102e-04  6.8772616502e-04  7.5121793798e-01  1.6693822540e-02 -7.3078314760e-02]
 [ 1.0407026215e-03 -1.2612403191e-02  2.2249711522e-03 -2.1088781310e-03  1.3459421958e-03  1.6692412495e-02  8.0445343267e-01 -1.7114190151e-01]
 [-1.9324084412e-02 -4.8884251903e-02 -4.8994471527e-03  3.4925006143e-03 -2.2349994786e-03 -7.3080711899e-02 -1.7114693021e-01  9.5423887777e-01]]
time for Gg: 0.022
C(NO)
[[ 1.0000000000e+00  0.0000000000e+00  1.3560579214e-16 -7.6596985896e-17 -2.4799597531e-16  0.0000000000e+00  0.0000000000e+00  0.0000000000e+00]
 [ 0.0000000000e+00  1.0000000000e+00  0.0000000000e+00  0.0000000000e+00  0.0000000000e+00  7.2767330422e-17  6.2450045135e-17  5.5511151231e-17]
 [-2.4804668694e-17  0.0000000000e+00  8.2615160370e-01  5.4922715657e-01  1.2578973802e-01  0.0000000000e+00  0.0000000000e+00  0.0000000000e+00]
 [-2.9162479956e-17  0.0000000000e+00  2.8525229279e-01 -6.0021937550e-01  7.4724014261e-01  0.0000000000e+00  0.0000000000e+00  0.0000000000e+00]
 [-5.5808622236e-17  0.0000000000e+00 -4.8590601680e-01  5.8145183099e-01  6.5254050532e-01  0.0000000000e+00  0.0000000000e+00  0.0000000000e+00]
 [ 0.0000000000e+00  4.7092347799e-17  0.0000000000e+00  0.0000000000e+00  0.0000000000e+00  1.0903886624e-01  9.3290200963e-01  3.4322640645e-01]
 [ 0.0000000000e+00  7.8766435916e-18  0.0000000000e+00  0.0000000000e+00  0.0000000000e+00 -3.7920237035e-01 -2.8013656357e-01  8.8188948745e-01]
 [ 0.0000000000e+00 -2.6565836469e-16  0.0000000000e+00  0.0000000000e+00  0.0000000000e+00 -9.1886674114e-01  2.2631249676e-01 -3.2321288007e-01]]
detC 0.9999999999999999
detNg [ 1.0008929819  1.0237525796  1.1384610309  1.4889667636  2.4338105249  4.8994096868  9.4619485469 11.9936898351]
xg [0.9991078148 0.9767985155 0.87837877   0.6716066634 0.4108783283 0.2041062218 0.1056864762 0.083377177 ]
ciS 1.0824849917380859
ciH -1.3796552593517406
1.0 4.824699667560495e-18 -0.028622693130183577j 8.326672684688674e-17
0.5413161863648841 0.000409629281012329 -0.000409629281012329 0.45868381363511584
0.9999999999999997 5.160802341031001e-17 -0.14746800144227518j -3.165870343657673e-17
0.5432249955983094 0.01087340572468944 -0.010873405724689438 0.4567750044016902
0.9999999999999997 6.310056643865636e-17 -0.35420151952743634j -1.3877787807814457e-16
0.5534541315986425 0.06272935821777245 -0.06272935821777244 0.44654586840135685
0.9999999999999999 1.238158880978446e-16 -0.6549145986542222j 1.0755285551056204e-16
0.5914355216288626 0.21445656576521052 -0.21445656576521047 0.40856447837113713
1.0 4.575333167888829e-16 -1.0704994108110293j 1.7780915628762273e-17
0.7442971887206989 0.5729844942733804 -0.5729844942733804 0.25570281127930117
1.0 5.004677228193088e-16 -1.5243195056678018j -2.5847379792054426e-16
1.4899937494865776 1.161774977679666 -1.161774977679666 -0.48999374948657753
1.0000000000000002 6.722053469410127e-16 -1.3629608069359143j -3.434752482434078e-16
4.19237756669774 0.9288310806216992 -0.9288310806216994 -3.1923775666977376
1.0000000000000009 9.215718466126788e-17 -0.3429854238571199j -3.2612801348363973e-16
6.432675120529334 0.05881950048922411 -0.05881950048922409 -5.432675120529332
S2 = -0.000000
X(g)
[[ 2.0000000000e+00 -6.9388939039e-18 -2.1137194530e-04 -4.3510753728e-05  1.5848287735e-04  4.6842744369e-03 -6.7449130375e-03 -2.8731062952e-02]
 [ 0.0000000000e+00  2.0000000000e+00  2.3589986531e-02  4.8559807354e-03 -1.7687346997e-02  4.1972224053e-05 -6.0436040851e-05 -2.5743722485e-04]
 [-2.1137194530e-04 -2.3589986531e-02  0.0000000000e+00  0.0000000000e+00  0.0000000000e+00  0.0000000000e+00  0.0000000000e+00  0.0000000000e+00]
 [-4.3510753728e-05 -4.8559807354e-03  0.0000000000e+00  0.0000000000e+00  0.0000000000e+00  0.0000000000e+00  0.0000000000e+00  0.0000000000e+00]
 [ 1.5848287735e-04  1.7687346997e-02  0.0000000000e+00  0.0000000000e+00  0.0000000000e+00  0.0000000000e+00  0.0000000000e+00  0.0000000000e+00]
 [-4.6842744369e-03  4.1972224053e-05  0.0000000000e+00  0.0000000000e+00  0.0000000000e+00  0.0000000000e+00  0.0000000000e+00  0.0000000000e+00]
 [ 6.7449130375e-03 -6.0436040851e-05  0.0000000000e+00  0.0000000000e+00  0.0000000000e+00  0.0000000000e+00  0.0000000000e+00  0.0000000000e+00]
 [ 2.8731062952e-02 -2.5743722485e-04  0.0000000000e+00  0.0000000000e+00  0.0000000000e+00  0.0000000000e+00  0.0000000000e+00  0.0000000000e+00]]
X(g) int
[[ 2.0000000000e+00 -1.6982504199e-16 -2.0063003981e-01 -4.1299540675e-02  1.5042879009e-01  1.0894643189e-01 -1.5687257840e-01 -6.6822446788e-01]
 [ 1.0146015927e-16  2.0000000000e+00  5.4865377669e-01  1.1293996148e-01 -4.1137071939e-01  3.9839198956e-02 -5.7364686049e-02 -2.4435428550e-01]
 [-2.0063003981e-01 -5.4865377669e-01  0.0000000000e+00  0.0000000000e+00  0.0000000000e+00  0.0000000000e+00  0.0000000000e+00  0.0000000000e+00]
 [-4.1299540675e-02 -1.1293996148e-01  0.0000000000e+00  0.0000000000e+00  0.0000000000e+00  0.0000000000e+00  0.0000000000e+00  0.0000000000e+00]
 [ 1.5042879009e-01  4.1137071939e-01  0.0000000000e+00  0.0000000000e+00  0.0000000000e+00  0.0000000000e+00  0.0000000000e+00  0.0000000000e+00]
 [-1.0894643189e-01  3.9839198956e-02  0.0000000000e+00  0.0000000000e+00  0.0000000000e+00  0.0000000000e+00  0.0000000000e+00  0.0000000000e+00]
 [ 1.5687257840e-01 -5.7364686049e-02  0.0000000000e+00  0.0000000000e+00  0.0000000000e+00  0.0000000000e+00  0.0000000000e+00  0.0000000000e+00]
 [ 6.6822446788e-01 -2.4435428550e-01  0.0000000000e+00  0.0000000000e+00  0.0000000000e+00  0.0000000000e+00  0.0000000000e+00  0.0000000000e+00]]
Hsp + Hph =  -1.2745259933225541
Feff (mod,ortho)
[[-0.2310737043  0.331332349   0.2236667484  0.0384641585  0.            0.            0.            0.          ]
 [ 0.331332349   0.0028212506  0.0731171769  0.3312837998  0.            0.            0.            0.          ]
 [ 0.2236667484  0.0731171769  1.120794558   0.0507735468  0.            0.            0.            0.          ]
 [ 0.0384641585  0.3312837998  0.0507735468  1.116164326   0.            0.            0.            0.          ]
 [ 0.            0.            0.            0.           -0.2310737043 -0.331332349   0.2236667484 -0.0384641585]
 [ 0.            0.            0.            0.           -0.331332349   0.0028212506 -0.0731171769  0.3312837998]
 [ 0.            0.            0.            0.            0.2236667484 -0.0731171769  1.120794558  -0.0507735468]
 [ 0.            0.            0.            0.           -0.0384641585  0.3312837998 -0.0507735468  1.116164326 ]]
Alpha occ 1 vir 3; Beta occ 1 vir 3
Alpha energies:  [-0.4947222979] <- HOMO
         LUMO->  [0.1214849193 1.0988027884 1.2831410205]
Beta energies:   [-0.4947222979] <- HOMO
         LUMO->  [0.1214849193 1.0988027884 1.2831410205]
e_a, e_b
 [-0.4947222979  0.1214849193  1.0988027884  1.2831410205] 
 [-0.4947222979  0.1214849193  1.0988027884  1.2831410205]
v_a, v_b
 [[ 0.7974157097 -0.5736010917  0.0906725114  0.1639770388]
 [-0.587880081  -0.7560563122 -0.1003875695  0.2696260357]
 [-0.0870819433  0.170223437   0.7905450217  0.581789726 ]
 [ 0.104603688   0.2653010024 -0.597276653   0.7496226026]] 
 [[ 0.7974157097  0.5736010917 -0.0906725114  0.1639770388]
 [ 0.587880081  -0.7560563122 -0.1003875695 -0.2696260357]
 [-0.0870819433 -0.170223437  -0.7905450217  0.581789726 ]
 [-0.104603688   0.2653010024 -0.597276653  -0.7496226026]]
P_a, P_b
 [[ 0.635871814  -0.468784812  -0.0694405096  0.0834126241]
 [-0.468784812   0.3456029896  0.0511937399 -0.0614944246]
 [-0.0694405096  0.0511937399  0.0075832649 -0.0091090924]
 [ 0.0834126241 -0.0614944246 -0.0091090924  0.0109419316]] 
 [[ 0.635871814   0.468784812  -0.0694405096 -0.0834126241]
 [ 0.468784812   0.3456029896 -0.0511937399 -0.0614944246]
 [-0.0694405096 -0.0511937399  0.0075832649  0.0091090924]
 [-0.0834126241 -0.0614944246  0.0091090924  0.0109419316]]
time for xg, H, S2, Yg, Feff: 0.021
 E(SUHF) =     -1.00993739, delta E = -3.36419e-05, MaxD(dm) = 0.000849364, RMSD(dm) =  0.0022253
**** Start Cycle 4 ****
dm (ortho)
[[[ 0.635871814  -0.468784812  -0.0694405096  0.0834126241]
  [-0.468784812   0.3456029896  0.0511937399 -0.0614944246]
  [-0.0694405096  0.0511937399  0.0075832649 -0.0091090924]
  [ 0.0834126241 -0.0614944246 -0.0091090924  0.0109419316]]

 [[ 0.635871814   0.468784812  -0.0694405096 -0.0834126241]
  [ 0.468784812   0.3456029896 -0.0511937399 -0.0614944246]
  [-0.0694405096 -0.0511937399  0.0075832649  0.0091090924]
  [-0.0834126241 -0.0614944246  0.0091090924  0.0109419316]]]
Fock (ortho)
 (array([[-0.2362399418,  0.3289821985,  0.2172415109,  0.0275604179],
       [ 0.3289821985,  0.0097339823,  0.0788644772,  0.3386482974],
       [ 0.2172415109,  0.0788644772,  1.1224640086,  0.0511750047],
       [ 0.0275604179,  0.3386482974,  0.0511750047,  1.1134701829]]), array([[-0.2362399418, -0.3289821985,  0.2172415109, -0.0275604179],
       [-0.3289821985,  0.0097339823, -0.0788644772,  0.3386482974],
       [ 0.2172415109, -0.0788644772,  1.1224640086, -0.0511750047],
       [-0.0275604179,  0.3386482974, -0.0511750047,  1.1134701829]]))
E(UHF) =    -1.261193
NO eigenvalue
[-1.0000000000e+00 -2.8029872967e-16 -6.2303554331e-20  1.5019770589e-18] 
 [-1.0000000000e+00 -4.7233304502e-18  2.6474186844e-18  5.8108093914e-17]
NO vec
[[ 0.7974157097  0.            0.6004861785  0.0061217233  0.0592204352  0.            0.            0.          ]
 [-0.587880081   0.            0.7947254897  0.0373690572 -0.1463282613  0.            0.            0.          ]
 [-0.0870819433  0.            0.0371334822  0.6815813194  0.7255926851  0.            0.            0.          ]
 [ 0.104603688   0.           -0.0803047322  0.7307619196 -0.6697732716  0.            0.            0.          ]
 [ 0.            0.7974157097  0.            0.            0.            0.1114456561  0.0545848328  0.5905324274]
 [ 0.            0.587880081   0.            0.            0.           -0.276963723   0.111347478  -0.7518575967]
 [ 0.           -0.0870819433  0.            0.            0.           -0.9506536258  0.0619157019  0.2912745523]
 [ 0.           -0.104603688   0.            0.            0.            0.0844313075  0.9903477576  0.0337748682]]
dm(NO)
[[ 1.0000000000e+00  0.0000000000e+00  1.0703644857e-16  2.8022227935e-18  9.3487067559e-18  0.0000000000e+00  0.0000000000e+00  0.0000000000e+00]
 [ 0.0000000000e+00  1.0000000000e+00  0.0000000000e+00  0.0000000000e+00  0.0000000000e+00  3.4813804175e-17 -4.9999935455e-19  6.9593059146e-17]
 [ 5.2489523299e-17  0.0000000000e+00 -1.6852873183e-18 -4.7991974041e-18 -5.9713106301e-18  0.0000000000e+00  0.0000000000e+00  0.0000000000e+00]
 [-4.1029575894e-18  0.0000000000e+00 -1.8095806001e-18  2.2457175125e-19 -2.4943015462e-19  0.0000000000e+00  0.0000000000e+00  0.0000000000e+00]
 [ 5.1529889942e-18  0.0000000000e+00 -9.8632296432e-18  3.2488618229e-19  1.0186018423e-18  0.0000000000e+00  0.0000000000e+00  0.0000000000e+00]
 [ 0.0000000000e+00  2.4301286076e-17  0.0000000000e+00  0.0000000000e+00  0.0000000000e+00 -1.1236553189e-18 -5.6123731673e-19 -8.1939919470e-18]
 [ 0.0000000000e+00  6.8090633134e-18  0.0000000000e+00  0.0000000000e+00  0.0000000000e+00 -2.1912007782e-18  2.0615556356e-19 -5.1597050055e-18]
 [ 0.0000000000e+00  5.6758540448e-17  0.0000000000e+00  0.0000000000e+00  0.0000000000e+00 -8.7623096497e-18 -6.9246014977e-18 -1.0157206838e-17]]
D(g) (NO)
 [[ 9.9951368521e-01  8.9467819481e-03 -6.6298786920e-17 -1.3911506471e-17 -2.0972193760e-17  1.0705403375e-02  2.3783479874e-03  2.7786434945e-02]
 [-8.9467819481e-03  9.9951368521e-01 -2.9661692369e-02  3.3972162217e-03  9.9553768362e-04  3.6730785638e-17 -3.1587509841e-17  5.6774426870e-17]
 [-9.0065469855e-17  2.9661692369e-02  9.9951368521e-01  8.6581687422e-18 -4.9168243574e-17 -6.0891428103e-03  1.3732356556e-03 -7.3221338579e-03]
 [-1.6265726181e-17 -3.3972162217e-03  6.8366634228e-18  9.9951368521e-01  1.2384341320e-16 -1.8582584739e-02  2.4023679426e-02  6.1969644137e-03]
 [ 5.5674432942e-18 -9.9553768362e-04 -5.8786559332e-17  1.0027488440e-16  9.9951368521e-01 -2.1803607444e-02 -1.9690444035e-02  1.0406300765e-02]
 [-1.0705403375e-02  1.3118609187e-17  6.0891428103e-03  1.8582584739e-02  2.1803607444e-02  9.9951368521e-01 -7.5548864642e-17  6.0400023155e-17]
 [-2.3783479874e-03 -2.0816681712e-17 -1.3732356556e-03 -2.4023679426e-02  1.9690444035e-02 -8.3266726847e-17  9.9951368521e-01  3.4694469520e-17]
 [-2.7786434945e-02  0.0000000000e+00  7.3221338579e-03 -6.1969644137e-03 -1.0406300765e-02  5.5511151231e-17  4.1633363423e-17  9.9951368521e-01]]
N(g) (NO)
 [[ 1.000406396  -0.0089547727]
 [ 0.0089547727  1.000406396 ]]
P(g) (NO)
 [[ 1.0000000000e+00 -4.5852043416e-18  1.0703644857e-16  2.8022227935e-18  9.3487067559e-18 -1.6153093722e-34  2.2569491536e-36 -1.9259299444e-34]
 [ 5.4622218552e-19  1.0000000000e+00 -5.3803671578e-35  3.4475080153e-36  8.7393687209e-36  3.4813804175e-17 -4.9999935455e-19  6.9593059146e-17]
 [ 2.6561371375e-04  2.9673746763e-02  2.8430348611e-20  7.4430880291e-22  2.4831447202e-21  1.0330560089e-18 -1.4836854229e-20  2.0650868135e-18]
 [-3.0421299156e-05 -3.3985968369e-03 -3.2561878227e-21 -8.5247257903e-23 -2.8439980495e-22 -1.1831808475e-19  1.6992962248e-21 -2.3651875068e-19]
 [-8.9148136941e-06 -9.9594226618e-04 -9.5420999750e-22 -2.4981294133e-23 -8.3341979010e-23 -3.4672539024e-20  4.9797049026e-22 -6.9310669036e-20]
 [-1.0709754008e-02  9.5864454133e-05 -1.1463340341e-18 -3.0011116795e-20 -1.0012234965e-19  3.3374063335e-21 -4.7932165191e-23  6.6715006264e-21]
 [-2.3793145385e-03  2.1297565683e-05 -2.5467337824e-19 -6.6673694327e-21 -2.2243513901e-20  7.4144928110e-22 -1.0648769095e-23  1.4821627483e-21]
 [-2.7797727242e-02  2.4882120972e-04 -2.9753700023e-18 -7.7895424883e-20 -2.5987280046e-19  8.6624128696e-21 -1.2441044426e-22  1.7316229165e-20]]
time for NO, Ng: 0.013
Pg_ortho
 [[ 6.3599843022e-01 -4.6887815743e-01 -6.9454336777e-02  8.3429233446e-02  1.4145269072e-02  1.0428339731e-02 -1.5447369605e-03 -1.8555532522e-03]
 [-4.6861635177e-01  3.4547879542e-01  5.1175343159e-02 -6.1472326268e-02  1.8819979661e-02  1.3874684224e-02 -2.0552396727e-03 -2.4687741384e-03]
 [-6.9454336777e-02  5.1203933698e-02  7.5847748483e-03 -9.1109062562e-03 -1.5447369605e-03 -1.1388289425e-03  1.6869331116e-04  2.0263606695e-04]
 [ 8.3382649393e-02 -6.1472326268e-02 -9.1058190352e-03  1.0937999515e-02 -3.3487089380e-03 -2.4687741384e-03  3.6569643461e-04  4.3927815928e-04]
 [-1.4145269072e-02  1.0428339731e-02  1.5447369605e-03 -1.8555532522e-03  6.3599843022e-01  4.6887815743e-01 -6.9454336777e-02 -8.3429233446e-02]
 [ 1.8819979661e-02 -1.3874684224e-02 -2.0552396727e-03  2.4687741384e-03  4.6861635177e-01  3.4547879542e-01 -5.1175343159e-02 -6.1472326268e-02]
 [ 1.5447369605e-03 -1.1388289425e-03 -1.6869331116e-04  2.0263606695e-04 -6.9454336777e-02 -5.1203933698e-02  7.5847748483e-03  9.1109062562e-03]
 [-3.3487089380e-03  2.4687741384e-03  3.6569643461e-04 -4.3927815928e-04 -8.3382649393e-02 -6.1472326268e-02  9.1058190352e-03  1.0937999515e-02]]
G(g) (NO)
 [[ 2.7184001455e-01 -1.4699566045e-03  4.8754079026e-02 -9.5635476962e-03  9.4069472031e-03  4.5823239556e-04 -3.3113729918e-04  2.7998991183e-04]
 [ 1.4699566045e-03  2.7184001455e-01 -3.8018396553e-04  3.5634142892e-05  5.0220867196e-04  1.3008706895e-02  1.4673467001e-02  4.6608746314e-02]
 [ 4.8685966634e-02 -1.9432127498e-02  9.3292336777e-01  1.9023612026e-01 -4.1974006576e-03  4.8170061567e-03 -3.8230550630e-03  5.1837542117e-04]
 [-9.5593028444e-03 -3.2468044299e-03  1.9023051999e-01  8.3785055274e-01  2.5069191076e-02  2.9439803806e-03 -2.7968636067e-03 -4.7317137525e-05]
 [ 9.4154030552e-03  1.7955273863e-06 -4.1959915361e-03  2.5068829467e-02  7.3983977285e-01  2.9887678549e-04 -1.0851069702e-04  2.3034020246e-04]
 [ 2.7563482094e-03  1.2982492135e-02  2.2128242416e-04  2.4398909537e-06 -1.4319702290e-03  7.5668295858e-01  9.0553851892e-03 -8.7789990657e-02]
 [-1.7189742237e-03  1.4674932896e-02  1.8117514707e-04 -2.2503585359e-05 -2.4158115841e-03  9.0569140372e-03  7.5402965668e-01 -1.3575719125e-01]
 [ 1.9431855122e-02  4.6545189602e-02 -1.7686588013e-03  6.6127221506e-04  6.5726291081e-03 -8.7793110028e-02 -1.3576181850e-01  9.9990107811e-01]]
time for Gg: 0.022
C(NO)
[[ 1.0000000000e+00  0.0000000000e+00  1.5284796783e-17 -3.8077051307e-17  7.5127761894e-17  0.0000000000e+00  0.0000000000e+00  0.0000000000e+00]
 [ 0.0000000000e+00  1.0000000000e+00  0.0000000000e+00  0.0000000000e+00  0.0000000000e+00  1.0182702333e-16 -4.8572257327e-17  8.3266726847e-17]
 [ 5.1525297341e-17  0.0000000000e+00 -9.6028068744e-01  5.1986860752e-02  2.7415026470e-01  0.0000000000e+00  0.0000000000e+00  0.0000000000e+00]
 [-1.1075565014e-17  0.0000000000e+00  2.7812844588e-01  9.9157368682e-02  9.5541215391e-01  0.0000000000e+00  0.0000000000e+00  0.0000000000e+00]
 [ 9.3487067559e-18  0.0000000000e+00  2.2484859735e-02  9.9371282700e-01 -1.0967793095e-01  0.0000000000e+00  0.0000000000e+00  0.0000000000e+00]
 [ 0.0000000000e+00  3.3079080699e-17  0.0000000000e+00  0.0000000000e+00  0.0000000000e+00  4.5754875915e-01  7.1880429992e-01 -5.2342096960e-01]
 [ 0.0000000000e+00  1.3377788453e-17  0.0000000000e+00  0.0000000000e+00  0.0000000000e+00  1.9932570536e-01 -6.5658599047e-01 -7.2743666412e-01]
 [ 0.0000000000e+00  3.7934355709e-17  0.0000000000e+00  0.0000000000e+00  0.0000000000e+00  8.6655547784e-01 -2.2850648906e-01  4.4369627932e-01]]
detC 0.9999999999999998
detNg [ 1.0008931452  1.0237570202  1.1384898179  1.4890997302  2.4344479537  4.9029010206  9.4765926231 12.0178171203]
xg [0.9991076518 0.9767942786 0.87835656   0.6715466934 0.4107707452 0.2039608786 0.10552316   0.0832097868]
ciS 1.082317438600957
ciH -1.3794481628127908
1.0 -1.2197274440461925e-17 -0.02862792476710405j -2.7321894746634712e-17
0.5412322735553282 0.00040977903823548475 -0.0004097790382354848 0.458767726444672
0.9999999999999998 -2.6020852139652106e-18 -0.14749557127137883j -1.942890293094024e-16
0.5431375661718131 0.010877471772335199 -0.010877471772335195 0.45686243382818686
1.0000000000000002 -8.478460988836645e-17 -0.35427516040537865j 3.122502256758253e-17
0.5533482471426241 0.06275544464012839 -0.06275544464012837 0.446651752857376
1.0000000000000002 -1.7607443281164592e-16 -0.6550926920615275j -2.42861286636753e-17
0.5912660852980036 0.21457321759620973 -0.2145732175962097 0.4087339147019966
1.0000000000000002 -4.150325916274511e-16 -1.0709753224361058j 3.599551212651875e-17
0.7439286661900079 0.5734940706335604 -0.5734940706335604 0.2560713338099923
0.9999999999999999 -6.7914424084492e-16 -1.5256843041144683j -1.46150452851046e-16
1.4893913392772422 1.1638562979106248 -1.1638562979106248 -0.48939133927724227
1.0 -7.381248390281314e-16 -1.3653195192039795j -1.4051260155412137e-16
4.1962920324744575 0.9320486947596931 -0.9320486947596929 -3.196292032474457
0.9999999999999993 -1.0148132334464322e-16 -0.3437381563118362j -1.942890293094024e-16
6.444468561538717 0.05907796005233016 -0.05907796005233017 -5.444468561538719
S2 = 0.000000
X(g)
[[ 2.0000000000e+00 -5.2041704279e-18  2.6561371375e-04 -3.0421299156e-05 -8.9148136941e-06  1.0709754008e-02  2.3793145385e-03  2.7797727242e-02]
 [ 0.0000000000e+00  2.0000000000e+00 -2.9673746763e-02  3.3985968369e-03  9.9594226618e-04  9.5864454133e-05  2.1297565683e-05  2.4882120972e-04]
 [ 2.6561371375e-04  2.9673746763e-02  0.0000000000e+00  0.0000000000e+00  0.0000000000e+00  0.0000000000e+00  0.0000000000e+00  0.0000000000e+00]
 [-3.0421299156e-05 -3.3985968369e-03  0.0000000000e+00  0.0000000000e+00  0.0000000000e+00  0.0000000000e+00  0.0000000000e+00  0.0000000000e+00]
 [-8.9148136941e-06 -9.9594226618e-04  0.0000000000e+00  0.0000000000e+00  0.0000000000e+00  0.0000000000e+00  0.0000000000e+00  0.0000000000e+00]
 [-1.0709754008e-02  9.5864454133e-05  0.0000000000e+00  0.0000000000e+00  0.0000000000e+00  0.0000000000e+00  0.0000000000e+00  0.0000000000e+00]
 [-2.3793145385e-03  2.1297565683e-05  0.0000000000e+00  0.0000000000e+00  0.0000000000e+00  0.0000000000e+00  0.0000000000e+00  0.0000000000e+00]
 [-2.7797727242e-02  2.4882120972e-04  0.0000000000e+00  0.0000000000e+00  0.0000000000e+00  0.0000000000e+00  0.0000000000e+00  0.0000000000e+00]]
X(g) int
[[ 2.0000000000e+00 -8.3386871559e-17  2.5215423463e-01 -2.8879756609e-02 -8.4630721515e-03  2.4912501205e-01  5.5346440509e-02  6.4661701181e-01]
 [ 6.9191412799e-17  2.0000000000e+00 -6.9025605202e-01  7.9056482276e-02  2.3167117459e-02  9.1006701871e-02  2.0218351299e-02  2.3621265939e-01]
 [ 2.5215423463e-01  6.9025605202e-01  0.0000000000e+00  0.0000000000e+00  0.0000000000e+00  0.0000000000e+00  0.0000000000e+00  0.0000000000e+00]
 [-2.8879756609e-02 -7.9056482276e-02  0.0000000000e+00  0.0000000000e+00  0.0000000000e+00  0.0000000000e+00  0.0000000000e+00  0.0000000000e+00]
 [-8.4630721515e-03 -2.3167117459e-02  0.0000000000e+00  0.0000000000e+00  0.0000000000e+00  0.0000000000e+00  0.0000000000e+00  0.0000000000e+00]
 [-2.4912501205e-01  9.1006701871e-02  0.0000000000e+00  0.0000000000e+00  0.0000000000e+00  0.0000000000e+00  0.0000000000e+00  0.0000000000e+00]
 [-5.5346440509e-02  2.0218351299e-02  0.0000000000e+00  0.0000000000e+00  0.0000000000e+00  0.0000000000e+00  0.0000000000e+00  0.0000000000e+00]
 [-6.4661701181e-01  2.3621265939e-01  0.0000000000e+00  0.0000000000e+00  0.0000000000e+00  0.0000000000e+00  0.0000000000e+00  0.0000000000e+00]]
Hsp + Hph =  -1.2745319567204938
Feff (mod,ortho)
[[-0.2309658426  0.3316282443  0.2236485381  0.0391741498  0.            0.            0.            0.          ]
 [ 0.3316282443  0.002965957   0.073427437   0.3309434429  0.            0.            0.            0.          ]
 [ 0.2236485381  0.073427437   1.1210017495  0.0508227414  0.            0.            0.            0.          ]
 [ 0.0391741498  0.3309434429  0.0508227414  1.1164263681  0.            0.            0.            0.          ]
 [ 0.            0.            0.            0.           -0.2309658426 -0.3316282443  0.2236485381 -0.0391741498]
 [ 0.            0.            0.            0.           -0.3316282443  0.002965957  -0.073427437   0.3309434429]
 [ 0.            0.            0.            0.            0.2236485381 -0.073427437   1.1210017495 -0.0508227414]
 [ 0.            0.            0.            0.           -0.0391741498  0.3309434429 -0.0508227414  1.1164263681]]
Alpha occ 1 vir 3; Beta occ 1 vir 3
Alpha energies:  [-0.4946834005] <- HOMO
         LUMO->  [0.1217327653 1.0988069062 1.2835719611]
Beta energies:   [-0.4946834005] <- HOMO
         LUMO->  [0.1217327653 1.0988069062 1.2835719611]
e_a, e_b
 [-0.4946834005  0.1217327653  1.0988069062  1.2835719611] 
 [-0.4946834005  0.1217327653  1.0988069062  1.2835719611]
v_a, v_b
 [[ 0.7975131405 -0.5734104092  0.0903082208  0.1643706747]
 [-0.587855548  -0.7561126378 -0.1002287986  0.2695806401]
 [-0.0869530875  0.1703958879  0.7902723379  0.5821288809]
 [ 0.1041047838  0.265441939  -0.5977192026  0.7492893472]] 
 [[ 0.7975131405  0.5734104092 -0.0903082208  0.1643706747]
 [ 0.587855548  -0.7561126378 -0.1002287986 -0.2695806401]
 [-0.0869530875 -0.1703958879 -0.7902723379  0.5821288809]
 [-0.1041047838  0.265441939  -0.5977192026 -0.7492893472]]
P_a, P_b
 [[ 0.6360272092 -0.4688225242 -0.0693462299  0.083024933 ]
 [-0.4688225242  0.3455741453  0.0511158549 -0.0611985747]
 [-0.0693462299  0.0511158549  0.0075608394 -0.0090522324]
 [ 0.083024933  -0.0611985747 -0.0090522324  0.010837806 ]] 
 [[ 0.6360272092  0.4688225242 -0.0693462299 -0.083024933 ]
 [ 0.4688225242  0.3455741453 -0.0511158549 -0.0611985747]
 [-0.0693462299 -0.0511158549  0.0075608394  0.0090522324]
 [-0.083024933  -0.0611985747  0.0090522324  0.010837806 ]]
time for xg, H, S2, Yg, Feff: 0.021
 E(SUHF) =     -1.00994335, delta E = -5.9634e-06, MaxD(dm) = 0.000387691, RMSD(dm) = 0.00104996
**** Start Cycle 5 ****
dm (ortho)
[[[ 0.6360272092 -0.4688225242 -0.0693462299  0.083024933 ]
  [-0.4688225242  0.3455741453  0.0511158549 -0.0611985747]
  [-0.0693462299  0.0511158549  0.0075608394 -0.0090522324]
  [ 0.083024933  -0.0611985747 -0.0090522324  0.010837806 ]]

 [[ 0.6360272092  0.4688225242 -0.0693462299 -0.083024933 ]
  [ 0.4688225242  0.3455741453 -0.0511158549 -0.0611985747]
  [-0.0693462299 -0.0511158549  0.0075608394  0.0090522324]
  [-0.083024933  -0.0611985747  0.0090522324  0.010837806 ]]]
Fock (ortho)
 (array([[-0.2361850258,  0.3290886339,  0.2172306359,  0.0277568745],
       [ 0.3290886339,  0.0098315203,  0.0790120598,  0.3385995843],
       [ 0.2172306359,  0.0790120598,  1.1225699113,  0.051215746 ],
       [ 0.0277568745,  0.3385995843,  0.051215746 ,  1.1135764181]]), array([[-0.2361850258, -0.3290886339,  0.2172306359, -0.0277568745],
       [-0.3290886339,  0.0098315203, -0.0790120598,  0.3385995843],
       [ 0.2172306359, -0.0790120598,  1.1225699113, -0.051215746 ],
       [-0.0277568745,  0.3385995843, -0.051215746 ,  1.1135764181]]))
E(UHF) =    -1.261172
NO eigenvalue
[-1.0000000000e+00 -1.1242532952e-16 -1.9757601954e-18  1.6680914249e-18] 
 [-1.0000000000e+00 -1.1158572909e-16 -2.4659271924e-18  9.8993713208e-19]
NO vec
[[ 0.7975131405  0.           -0.5994604531 -0.0671751925 -0.0103657827  0.            0.            0.          ]
 [-0.587855548   0.           -0.7968265564  0.136310212  -0.0302129076  0.            0.            0.          ]
 [-0.0869530875  0.           -0.0651262368 -0.5761483372  0.810093098   0.            0.            0.          ]
 [ 0.1041047838  0.            0.038381994   0.8030940874  0.5854305282  0.            0.            0.          ]
 [ 0.            0.7975131405  0.            0.            0.           -0.6017440822  0.0424099123  0.0088458867]
 [ 0.            0.587855548   0.            0.            0.            0.7911595414  0.1594977379  0.0552531112]
 [ 0.           -0.0869530875  0.            0.            0.           -0.064723343   0.8306975107 -0.5460693134]
 [ 0.           -0.1041047838  0.            0.            0.           -0.0882129723  0.5316987085  0.8358690979]]
dm(NO)
[[ 1.0000000000e+00  0.0000000000e+00  1.3225768402e-16  1.6931191014e-17 -1.1272634270e-17  0.0000000000e+00  0.0000000000e+00  0.0000000000e+00]
 [ 0.0000000000e+00  1.0000000000e+00  0.0000000000e+00  0.0000000000e+00  0.0000000000e+00  4.4318665331e-17 -4.7562260887e-17 -1.5056715204e-17]
 [ 1.4732013670e-16  0.0000000000e+00 -1.5537493645e-17 -4.0115454337e-18  4.9637539171e-18  0.0000000000e+00  0.0000000000e+00  0.0000000000e+00]
 [-2.1647032556e-17  0.0000000000e+00 -2.0008077043e-19  9.0099260740e-19 -7.8413813959e-19  0.0000000000e+00  0.0000000000e+00  0.0000000000e+00]
 [-6.9914882104e-18  0.0000000000e+00  4.4551532459e-18  1.6044961175e-19 -1.4709870229e-18  0.0000000000e+00  0.0000000000e+00  0.0000000000e+00]
 [ 0.0000000000e+00  9.5042249899e-17  0.0000000000e+00  0.0000000000e+00  0.0000000000e+00  1.0102426617e-17  3.8132107412e-18  2.1763513320e-18]
 [ 0.0000000000e+00 -3.2877271295e-17  0.0000000000e+00  0.0000000000e+00  0.0000000000e+00 -4.8411425363e-18  1.2587692887e-18 -2.1798880651e-19]
 [ 0.0000000000e+00 -9.1665286221e-18  0.0000000000e+00  0.0000000000e+00  0.0000000000e+00  3.4696457148e-19 -4.3348659755e-19 -8.2930262842e-19]]
D(g) (NO)
 [[ 9.9951368521e-01  8.9550747999e-03  1.3370614508e-16 -1.9678864142e-17 -9.2160264844e-18 -2.9578586714e-02 -2.3954480829e-03  3.4012860184e-03]
 [-8.9550747999e-03  9.9951368521e-01  2.9462818579e-02  2.1673720618e-04  4.9086715560e-03  3.3239079027e-17  7.5584583506e-18  5.8274273619e-18]
 [ 1.4235223514e-16 -2.9462818579e-02  9.9951368521e-01 -6.7958516835e-17 -6.9582890715e-17 -8.3840994014e-03 -5.8065535452e-03  5.7114734245e-04]
 [-3.7095127620e-17 -2.1673720618e-04 -5.5172962404e-17  9.9951368521e-01  2.4869885565e-16  3.5770995529e-03 -1.0199601494e-03  3.0959814919e-02]
 [-1.1597111166e-17 -4.9086715560e-03 -7.3775411463e-17  1.9471786131e-16  9.9951368521e-01 -3.7962506219e-03  3.0527012963e-02  1.4099571157e-03]
 [ 2.9578586714e-02  1.0475575616e-16  8.3840994014e-03 -3.5770995529e-03  3.7962506219e-03  9.9951368521e-01 -6.4847877454e-17  1.0474030023e-17]
 [ 2.3954480829e-03 -6.9388939039e-18  5.8065535452e-03  1.0199601494e-03 -3.0527012963e-02 -6.9388939039e-17  9.9951368521e-01  1.6653345369e-16]
 [-3.4012860184e-03  0.0000000000e+00 -5.7114734245e-04 -3.0959814919e-02 -1.4099571157e-03  3.4694469520e-18  1.6653345369e-16  9.9951368521e-01]]
N(g) (NO)
 [[ 1.0004062474 -0.0089630716]
 [ 0.0089630716  1.0004062474]]
P(g) (NO)
 [[ 1.0000000000e+00  3.6459120608e-18  1.3225768402e-16  1.6931191014e-17 -1.1272634270e-17  1.7737428024e-34 -2.4074124305e-34 -7.2222372915e-35]
 [-3.0035745249e-19  1.0000000000e+00 -2.9247734934e-34 -1.0527717216e-35  9.1574916522e-36  4.4318665331e-17 -4.7562260887e-17 -1.5056715204e-17]
 [-2.6407735393e-04 -2.9474787772e-02 -3.4926259232e-20 -4.4711441219e-21  2.9768474299e-21 -1.3062832550e-18  1.4018875456e-18  4.4379348518e-19]
 [-1.9426311082e-06 -2.1682525510e-04 -2.5692789128e-22 -3.2891058364e-23  2.1898570005e-23 -9.6094059162e-21  1.0312699350e-20  3.2646761152e-21]
 [-4.3996774862e-05 -4.9106656909e-03 -5.8189115475e-21 -7.4491779919e-22  4.9595955209e-22 -2.1763414931e-19  2.3356236272e-19  7.3938494772e-20]
 [ 2.9590602937e-02 -2.6511499201e-04  3.9135846131e-18  5.0100415055e-19 -3.3356404474e-19 -1.1749542605e-20  1.2609468415e-20  3.9917609312e-21]
 [ 2.3964212274e-03 -2.1470572801e-05  3.1694512147e-19  4.0574265552e-20 -2.7013980054e-20 -9.5154713042e-22  1.0211889849e-21  3.2327629993e-22]
 [-3.4026677820e-03  3.0485970285e-05 -4.5002896033e-19 -5.7611218174e-20  3.8357029449e-20  1.3510975143e-21 -1.4499816721e-21 -4.5901857231e-22]]
time for NO, Ng: 0.013
Pg_ortho
 [[ 6.3615392647e-01 -4.6891592890e-01 -6.9360045921e-02  8.3041474304e-02  1.4143447188e-02  1.0425287655e-02 -1.5420641226e-03 -1.8462398130e-03]
 [-4.6865385954e-01  3.4544982077e-01  5.1097465355e-02 -6.1176557771e-02  1.8825380329e-02  1.3876391132e-02 -2.0525366422e-03 -2.4574042096e-03]
 [-6.9360045921e-02  5.1126038854e-02  7.5623457940e-03 -9.0540358731e-03 -1.5420641226e-03 -1.1366721172e-03  1.6813169565e-04  2.0129605883e-04]
 [ 8.2995063796e-02 -6.1176557771e-02 -9.0489757220e-03  1.0833906969e-02 -3.3338328697e-03 -2.4574042096e-03  3.6348875848e-04  4.3518775105e-04]
 [-1.4143447188e-02  1.0425287655e-02  1.5420641226e-03 -1.8462398130e-03  6.3615392647e-01  4.6891592890e-01 -6.9360045921e-02 -8.3041474304e-02]
 [ 1.8825380329e-02 -1.3876391132e-02 -2.0525366422e-03  2.4574042096e-03  4.6865385954e-01  3.4544982077e-01 -5.1097465355e-02 -6.1176557771e-02]
 [ 1.5420641226e-03 -1.1366721172e-03 -1.6813169565e-04  2.0129605883e-04 -6.9360045921e-02 -5.1126038854e-02  7.5623457940e-03  9.0540358731e-03]
 [-3.3338328697e-03  2.4574042096e-03  3.6348875848e-04 -4.3518775105e-04 -8.2995063796e-02 -6.1176557771e-02  9.0489757220e-03  1.0833906969e-02]]
G(g) (NO)
 [[ 2.7189070805e-01 -1.4703269324e-03 -4.8154015387e-02 -1.1992486920e-02 -9.8337706541e-03 -3.6733749570e-04 -5.1112118506e-04 -4.7444030779e-05]
 [ 1.4703269324e-03  2.7189070805e-01  3.8275955402e-04 -4.7779630894e-04  1.5374800356e-04 -4.8870208159e-02  6.2478432669e-03  1.1489090244e-02]
 [-4.8086061331e-02  1.9575808073e-02  9.5182296169e-01 -3.8008913576e-02 -1.8054817571e-01  1.5084856007e-03  6.1704264987e-03  3.9941261074e-04]
 [-1.1998765778e-02 -3.0518563281e-04 -3.8006433572e-02  7.3250526051e-01 -9.0901624369e-03  2.0358007615e-04 -4.3101995482e-04 -1.4599861378e-04]
 [-9.8247372597e-03 -2.2727384633e-03 -1.8054293845e-01 -9.0905438390e-03  8.2659928325e-01 -5.1412878439e-04 -3.6781756347e-03 -4.9821663511e-04]
 [-1.9472003481e-02 -4.8802330233e-02 -1.6778357277e-03  5.6926997819e-03 -1.9020021468e-03  9.3765376349e-01 -2.3807753351e-02  1.8839842397e-01]
 [ 1.6349449503e-05  6.2588362275e-03  3.5880494471e-04 -7.2289180370e-04  2.6139512529e-04 -2.3808165679e-02  7.4979586020e-01 -3.4795455571e-02]
 [-3.0514837799e-03  1.1485846492e-02 -5.9380598851e-04  3.7464807258e-03 -9.2268371591e-04  1.8839265483e-01 -3.4795976924e-02  8.2347788176e-01]]
time for Gg: 0.023
C(NO)
[[ 1.0000000000e+00  0.0000000000e+00  5.8976809129e-17 -7.4907153237e-17 -4.6833683969e-17  0.0000000000e+00  0.0000000000e+00  0.0000000000e+00]
 [ 0.0000000000e+00  1.0000000000e+00  0.0000000000e+00  0.0000000000e+00  0.0000000000e+00  2.5910016299e-16 -1.0408340856e-16  2.7755575616e-17]
 [ 1.6575008723e-16  0.0000000000e+00  9.4531844109e-01 -4.8680356738e-02 -3.2249537640e-01  0.0000000000e+00  0.0000000000e+00  0.0000000000e+00]
 [ 3.2078473256e-19  0.0000000000e+00  5.0454625013e-02 -9.5506753184e-01  2.9206222015e-01  0.0000000000e+00  0.0000000000e+00  0.0000000000e+00]
 [-3.1481536232e-18  0.0000000000e+00  3.2222255624e-01  2.9236318594e-01  9.0038680119e-01  0.0000000000e+00  0.0000000000e+00  0.0000000000e+00]
 [ 0.0000000000e+00  1.3278956261e-16  0.0000000000e+00  0.0000000000e+00  0.0000000000e+00 -9.5563887908e-01  7.8921122148e-02 -2.8377066316e-01]
 [ 0.0000000000e+00 -2.6745579175e-17  0.0000000000e+00  0.0000000000e+00  0.0000000000e+00 -9.6692273853e-02 -9.9410002232e-01  4.9150277750e-02]
 [ 0.0000000000e+00 -1.1789273965e-18  0.0000000000e+00  0.0000000000e+00  0.0000000000e+00  2.7821742750e-01 -7.4408347009e-02 -9.5763169378e-01]]
detC 0.9999999999999999
detNg [ 1.0008929964  1.023752974   1.1384635875  1.4889785718  2.4338671233  4.8997195611  9.4632472983 11.9958287287]
xg [0.9991078003 0.9767981392 0.8783767974 0.6716013373 0.4108687736 0.2040933134 0.1056719716 0.0833623106]
ciS 1.08247011085777
ciH -1.3796440702917547
0.9999999999999997 -1.576158908250802e-17 -0.028623157766970646j -9.107298248878237e-17
0.541308733826983 0.00040964258027644586 -0.00040964258027644597 0.45869126617301653
0.9999999999999999 -6.543160110950019e-17 -0.14747044998912265j -3.3393426912553537e-17
0.5432172307986837 0.010873766809997163 -0.010873766809997161 0.4567827692013162
0.9999999999999998 -1.5720931501039814e-16 -0.354208059636813j -8.803721640582296e-17
[...]
Fock (ortho)
 (array([[-0.2361262901,  0.3291863029,  0.2172238552,  0.0279229131],
       [ 0.3291863029,  0.0098994479,  0.079133596 ,  0.3385584154],
       [ 0.2172238552,  0.079133596 ,  1.1226559303,  0.0512506056],
       [ 0.0279229131,  0.3385584154,  0.0512506056,  1.1136640109]]), array([[-0.2361262901, -0.3291863029,  0.2172238552, -0.0279229131],
       [-0.3291863029,  0.0098994479, -0.079133596 ,  0.3385584154],
       [ 0.2172238552, -0.079133596 ,  1.1226559303, -0.0512506056],
       [-0.0279229131,  0.3385584154, -0.0512506056,  1.1136640109]]))
E(UHF) =    -1.261151
NO eigenvalue
[-1.0000000000e+00 -1.1156574773e-16  2.9509586967e-19  2.2206801129e-18] 
 [-1.0000000000e+00 -5.8062807356e-17 -4.2100580402e-19  4.5701796928e-18]
NO vec
[[ 0.7975617064  0.            0.601788301   0.0220084974  0.0355217005  0.            0.            0.          ]
 [-0.5878775232  0.            0.7908480721 -0.0707013518 -0.1547923236  0.            0.            0.          ]
 [-0.0868603443  0.            0.0663381359  0.96779665    0.2267689939  0.            0.            0.          ]
 [ 0.1036852097  0.           -0.0894953595  0.24059632   -0.9609127789  0.            0.            0.          ]
 [ 0.            0.7975617064  0.            0.            0.           -0.5908071897 -0.0146751064 -0.120941433 ]
 [ 0.            0.5878775232  0.            0.            0.            0.7195302512  0.1299697784  0.3460983849]
 [ 0.           -0.0868603443  0.            0.            0.           -0.2891815742 -0.3584766062  0.8833593949]
 [ 0.           -0.1036852097  0.            0.            0.           -0.2227040622  0.9243305798  0.2920021527]]
dm(NO)
[[ 1.0000000000e+00  0.0000000000e+00 -1.2103721042e-16  8.6270113011e-18  2.8012432197e-17  0.0000000000e+00  0.0000000000e+00  0.0000000000e+00]
 [ 0.0000000000e+00  1.0000000000e+00  0.0000000000e+00  0.0000000000e+00  0.0000000000e+00  2.1608154004e-16  5.7782306740e-18  2.0826344969e-17]
 [-1.2135366771e-16  0.0000000000e+00 -3.4105326267e-18  3.6716279309e-18  1.8169139865e-18  0.0000000000e+00  0.0000000000e+00  0.0000000000e+00]
 [ 1.8786745642e-17  0.0000000000e+00  3.2774038699e-18  6.3978714819e-19  1.5416746205e-18  0.0000000000e+00  0.0000000000e+00  0.0000000000e+00]
 [ 3.2312453482e-17  0.0000000000e+00 -9.4242580506e-20  7.4293346642e-19 -1.0606481508e-18  0.0000000000e+00  0.0000000000e+00  0.0000000000e+00]
 [ 0.0000000000e+00  9.3767604802e-17  0.0000000000e+00  0.0000000000e+00  0.0000000000e+00 -2.1751308003e-18 -2.4326480371e-18 -8.1893695478e-18]
 [ 0.0000000000e+00 -1.2633018537e-17  0.0000000000e+00  0.0000000000e+00  0.0000000000e+00  2.9774957198e-18  1.1500026958e-20  7.1908760085e-19]
 [ 0.0000000000e+00 -2.1883577262e-18  0.0000000000e+00  0.0000000000e+00  0.0000000000e+00  1.6418525176e-18  2.8198815349e-18  3.4304237278e-18]]
D(g) (NO)
 [[ 9.9951368521e-01  8.9589007532e-03 -2.3753665023e-16  4.1594252142e-18  1.9730734295e-17 -2.7820842429e-02  1.2119730922e-03 -1.0801065680e-02]
 [-8.9589007532e-03  9.9951368521e-01 -2.9574235579e-02  4.1479926025e-03 -5.3844156739e-04  3.5558569511e-17 -1.8262420568e-17 -1.0814933622e-17]
 [-1.8576957471e-16  2.9574235579e-02  9.9951368521e-01  6.4170172968e-18  2.3194268482e-18  6.6808631787e-03 -3.9131589296e-04  7.2780906642e-03]
 [ 1.2656031783e-17 -4.1479926025e-03  2.2403008494e-18  9.9951368521e-01  3.4876345072e-17 -1.2389880651e-02 -4.1802331716e-03  2.8003637982e-02]
 [ 2.3699003163e-17  5.3844156739e-04 -3.6509129510e-18  5.8520767452e-17  9.9951368521e-01  5.0072542795e-04 -3.0875503534e-02 -4.3076340371e-03]
 [ 2.7820842429e-02 -2.9821300704e-17 -6.6808631787e-03  1.2389880651e-02 -5.0072542795e-04  9.9951368521e-01 -3.6116601229e-17 -3.6021924357e-17]
 [-1.2119730922e-03  0.0000000000e+00  3.9131589296e-04  4.1802331716e-03  3.0875503534e-02 -1.3877787808e-17  9.9951368521e-01  0.0000000000e+00]
 [ 1.0801065680e-02 -5.5511151231e-17 -7.2780906642e-03 -2.8003637982e-02  4.3076340371e-03 -5.5511151231e-17  5.5511151231e-17  9.9951368521e-01]]
N(g) (NO)
 [[ 1.0004061787 -0.0089669004]
 [ 0.0089669004  1.0004061787]]
P(g) (NO)
 [[ 1.0000000000e+00  2.7278138366e-18 -1.2103721042e-16  8.6270113011e-18  2.8012432197e-17  8.9633091869e-34  2.4074124305e-35  9.6296497219e-35]
 [-5.1806012380e-18  1.0000000000e+00  4.5811726349e-34 -4.0425581092e-35 -8.2892020457e-35  2.1608154004e-16  5.7782306740e-18  2.0826344969e-17]
 [ 2.6518922498e-04  2.9586248005e-02 -3.2097764025e-20  2.2877904408e-21  7.4285951840e-21  6.3930420329e-18  1.7095616575e-19  6.1617340730e-19]
 [-3.7194636545e-05 -4.1496774289e-03  4.5019350500e-21 -3.2087854982e-22 -1.0419122343e-21 -8.9666868950e-19 -2.3977793407e-20 -8.6422613646e-20]
 [ 4.8281519085e-06  5.3866027091e-04 -5.8438603849e-22  4.1652521078e-23  1.3524827797e-22  1.1639454089e-19  3.1125033002e-21  1.1218324623e-20]
 [ 2.7832142664e-02 -2.4946672323e-04 -3.3687249080e-18  2.4010820929e-19  7.7964600925e-19 -5.3905153743e-20 -1.4414762723e-21 -5.1954800363e-21]
 [-1.2124653699e-03  1.0867642011e-05  1.4675342611e-19 -1.0459952449e-20 -3.3964103966e-20  2.3482968223e-21  6.2795742422e-23  2.2633326152e-22]
 [ 1.0805452843e-02 -9.6852080216e-05 -1.3078618695e-18  9.3218763792e-20  3.0268701513e-19 -2.0927946649e-20 -5.5963366074e-22 -2.0170748336e-21]]
time for NO, Ng: 0.014
Pg_ortho
 [[ 6.3623144058e-01 -4.6896203824e-01 -6.9290290093e-02  8.2711832561e-02  1.4142734155e-02  1.0424516949e-02 -1.5402479189e-03 -1.8385942360e-03]
 [-4.6869983116e-01  3.4547558345e-01  5.1044863859e-02 -6.0932263770e-02  1.8829023813e-02  1.3878750439e-02 -2.0506193799e-03 -2.4478247467e-03]
 [-6.9290290093e-02  5.1073420142e-02  7.5462229543e-03 -9.0079277866e-03 -1.5402479189e-03 -1.1353066783e-03  1.6774434319e-04  2.0023645461e-04]
 [ 8.2665586540e-02 -6.0932263770e-02 -9.0028912542e-03  1.0746753015e-02 -3.3209149950e-03 -2.4478247467e-03  3.6167210342e-04  4.3172805916e-04]
 [-1.4142734155e-02  1.0424516949e-02  1.5402479189e-03 -1.8385942360e-03  6.3623144058e-01  4.6896203824e-01 -6.9290290093e-02 -8.2711832561e-02]
 [ 1.8829023813e-02 -1.3878750439e-02 -2.0506193799e-03  2.4478247467e-03  4.6869983116e-01  3.4547558345e-01 -5.1044863859e-02 -6.0932263770e-02]
 [ 1.5402479189e-03 -1.1353066783e-03 -1.6774434319e-04  2.0023645461e-04 -6.9290290093e-02 -5.1073420142e-02  7.5462229543e-03  9.0079277866e-03]
 [-3.3209149950e-03  2.4478247467e-03  3.6167210342e-04 -4.3172805916e-04 -8.2665586540e-02 -6.0932263770e-02  9.0028912542e-03  1.0746753015e-02]]
G(g) (NO)
 [[ 2.7192295173e-01 -1.4700361256e-03  4.8875452341e-02 -4.1494089349e-03  1.2380839395e-02 -2.1704092412e-04 -1.7430893875e-04 -5.6628852838e-04]
 [ 1.4700361256e-03  2.7192295173e-01 -3.6657411017e-04  3.1810505062e-04  4.0324392713e-04 -4.8661463834e-02  9.9838962042e-03 -9.5758223803e-03]
 [ 4.8807561258e-02 -1.9477363551e-02  9.3782551477e-01  1.5296286872e-01 -1.1281893333e-01  1.7578275757e-04 -1.7378178971e-03 -5.9860583415e-03]
 [-4.1394041104e-03 -2.2077021186e-03  1.5295894986e-01  8.2302207793e-01 -3.5118809691e-02  3.3999507863e-04 -1.1394550020e-03 -3.1733724893e-03]
 [ 1.2386747368e-02  2.1287696912e-03 -1.1281465702e-01 -3.5119339811e-02  7.5034786907e-01 -4.8219038602e-04  7.8433162286e-04  1.9082222963e-03]
 [-1.8783471589e-02 -4.8599040350e-02  1.5266670288e-03 -3.8943712665e-03 -4.6499876905e-03  9.3894783951e-01  1.9180743147e-01 -1.4164421063e-02]
 [-4.0227351006e-03  9.9867480753e-03  4.5690650539e-04 -2.3007448366e-03 -3.1987776636e-03  1.9180204382e-01  8.2508640400e-01  2.6320696703e-04]
 [-4.4465826587e-03 -9.5468504086e-03 -2.3931968702e-05 -4.7835351082e-05  2.4356434358e-05 -1.4163606713e-02  2.6526496675e-04  7.4716121826e-01]]
time for Gg: 0.024
C(NO)
[[ 1.0000000000e+00  0.0000000000e+00  1.5214783868e-17  5.2627449318e-17  1.7569602188e-16  0.0000000000e+00  0.0000000000e+00  0.0000000000e+00]
 [ 0.0000000000e+00  1.0000000000e+00  0.0000000000e+00  0.0000000000e+00  0.0000000000e+00  2.7223717502e-16  4.1633363423e-17  1.3877787808e-16]
 [-1.4061189452e-16  0.0000000000e+00 -9.5543489205e-01  8.0928396878e-02  2.8389216549e-01  0.0000000000e+00  0.0000000000e+00  0.0000000000e+00]
 [ 5.2880666253e-18  0.0000000000e+00  2.6978679120e-01  6.2975221765e-01  7.2844164602e-01  0.0000000000e+00  0.0000000000e+00  0.0000000000e+00]
 [ 2.7469988037e-17  0.0000000000e+00 -1.1983010616e-01  7.7256892181e-01 -6.2352065460e-01  0.0000000000e+00  0.0000000000e+00  0.0000000000e+00]
 [ 0.0000000000e+00  1.0814987729e-16  0.0000000000e+00  0.0000000000e+00  0.0000000000e+00 -8.9258490941e-01  3.4280573764e-01 -2.9287609281e-01]
 [ 0.0000000000e+00 -7.0494329771e-18  0.0000000000e+00  0.0000000000e+00  0.0000000000e+00  1.9991670621e-01 -2.8132150851e-01 -9.3855821313e-01]
 [ 0.0000000000e+00  2.8962132469e-18  0.0000000000e+00  0.0000000000e+00  0.0000000000e+00 -4.0413548481e-01 -8.9629372144e-01  1.8257073925e-01]]
detC 1.0
detNg [ 1.0008929278  1.0237511059  1.1384514782  1.4889226435  2.4335990661  4.8982521761  9.4570988642 11.9857045198]
xg [0.9991078688 0.9767999216 0.8783861404 0.6716265646 0.4109140301 0.2041544543 0.1057406732 0.0834327259]
ciS 1.0825405947347082
ciH -1.379734255640813
0.9999999999999999 -3.2932640989247197e-18 -0.02862095699660936j 1.0321604682062002e-16
0.5413440330630679 0.00040957958970088115 -0.0004095795897008812 0.458655966936932
1.0 -2.585822181377928e-17 -0.147458852367034j 2.1684043449710089e-16
0.5432540089725796 0.01087205657070136 -0.01087205657070136 0.45674599102742053
1.0000000000000002 1.1058862159352145e-17 -0.3541770824105531j -9.237402509576498e-17
0.5534892672821244 0.06272070285242587 -0.06272070285242587 0.4465107327178758
1.0000000000000002 1.2836953722228372e-16 -0.6548555048666261j -1.1362438767648086e-16
0.591491735873926 0.21441786612706185 -0.21441786612706187 0.4085082641260742
1.0000000000000002 -2.0296264668928643e-16 -1.070341533222797j 2.1206994493816467e-16
0.74441939132128 0.5728154988708639 -0.5728154988708638 0.25558060867872034
1.0 -1.7694179454963432e-16 -1.5238670227712807j 1.3574211199518516e-16
1.4901930603722904 1.1610853515449038 -1.1610853515449036 -0.49019306037228993
1.0 -7.979727989493313e-17 -1.3621796715403331j -1.457167719820518e-16
4.191079985658411 0.927766728778865 -0.9277667287788651 -3.191079985658411
1.0000000000000002 -7.45931094670027e-17 -0.3427362948761686j -3.400058012914542e-16
6.428771765678031 0.058734083912722 -0.058734083912722 -5.4287717656780305
S2 = 0.000000
X(g)
[[ 2.0000000000e+00  6.9388939039e-18  2.6518922498e-04 -3.7194636545e-05  4.8281519085e-06 -2.7832142664e-02  1.2124653699e-03 -1.0805452843e-02]
 [-8.6736173799e-18  2.0000000000e+00 -2.9586248005e-02  4.1496774289e-03 -5.3866027091e-04 -2.4946672323e-04  1.0867642011e-05 -9.6852080215e-05]
 [ 2.6518922498e-04  2.9586248005e-02  0.0000000000e+00  0.0000000000e+00  0.0000000000e+00  0.0000000000e+00  0.0000000000e+00  0.0000000000e+00]
 [-3.7194636545e-05 -4.1496774289e-03  0.0000000000e+00  0.0000000000e+00  0.0000000000e+00  0.0000000000e+00  0.0000000000e+00  0.0000000000e+00]
 [ 4.8281519085e-06  5.3866027091e-04  0.0000000000e+00  0.0000000000e+00  0.0000000000e+00  0.0000000000e+00  0.0000000000e+00  0.0000000000e+00]
 [ 2.7832142664e-02 -2.4946672323e-04  0.0000000000e+00  0.0000000000e+00  0.0000000000e+00  0.0000000000e+00  0.0000000000e+00  0.0000000000e+00]
 [-1.2124653699e-03  1.0867642011e-05  0.0000000000e+00  0.0000000000e+00  0.0000000000e+00  0.0000000000e+00  0.0000000000e+00  0.0000000000e+00]
 [ 1.0805452843e-02 -9.6852080216e-05  0.0000000000e+00  0.0000000000e+00  0.0000000000e+00  0.0000000000e+00  0.0000000000e+00  0.0000000000e+00]]
X(g) int
[[ 2.0000000000e+00  1.0229290504e-16  2.5169941441e-01 -3.5302596622e-02  4.5825504719e-03 -6.4728424757e-01  2.8197963203e-02 -2.5129935190e-01]
 [-2.1751873037e-16  2.0000000000e+00 -6.8807897796e-01  9.6507870943e-02 -1.2527469134e-02 -2.3677669467e-01  1.0314820033e-02 -9.1925348313e-02]
 [ 2.5169941441e-01  6.8807897796e-01  0.0000000000e+00  0.0000000000e+00  0.0000000000e+00  0.0000000000e+00  0.0000000000e+00  0.0000000000e+00]
 [-3.5302596622e-02 -9.6507870943e-02  0.0000000000e+00  0.0000000000e+00  0.0000000000e+00  0.0000000000e+00  0.0000000000e+00  0.0000000000e+00]
 [ 4.5825504719e-03  1.2527469134e-02  0.0000000000e+00  0.0000000000e+00  0.0000000000e+00  0.0000000000e+00  0.0000000000e+00  0.0000000000e+00]
 [ 6.4728424757e-01 -2.3677669467e-01  0.0000000000e+00  0.0000000000e+00  0.0000000000e+00  0.0000000000e+00  0.0000000000e+00  0.0000000000e+00]
 [-2.8197963203e-02  1.0314820033e-02  0.0000000000e+00  0.0000000000e+00  0.0000000000e+00  0.0000000000e+00  0.0000000000e+00  0.0000000000e+00]
 [ 2.5129935190e-01 -9.1925348313e-02  0.0000000000e+00  0.0000000000e+00  0.0000000000e+00  0.0000000000e+00  0.0000000000e+00  0.0000000000e+00]]
Hsp + Hph =  -1.2745335023477216
Feff (mod,ortho)
[[-0.2308163172  0.3318709593  0.2236619129  0.0397983682  0.            0.            0.            0.          ]
 [ 0.3318709593  0.0030568182  0.0736695092  0.3306629314  0.            0.            0.            0.          ]
 [ 0.2236619129  0.0736695092  1.1211906459  0.0508694262  0.            0.            0.            0.          ]
 [ 0.0397983682  0.3306629314  0.0508694262  1.1166619521  0.            0.            0.            0.          ]
 [ 0.            0.            0.            0.           -0.2308163172 -0.3318709593  0.2236619129 -0.0397983682]
 [ 0.            0.            0.            0.           -0.3318709593  0.0030568182 -0.0736695092  0.3306629314]
 [ 0.            0.            0.            0.            0.2236619129 -0.0736695092  1.1211906459 -0.0508694262]
 [ 0.            0.            0.            0.           -0.0397983682  0.3306629314 -0.0508694262  1.1166619521]]
F(mod,ortho) updated with CDIIS
[[[-0.2308163171  0.3318709593  0.223661913   0.0397983681]
  [ 0.3318709593  0.0030568181  0.0736695092  0.3306629315]
  [ 0.223661913   0.0736695092  1.1211906459  0.0508694262]
  [ 0.0397983681  0.3306629315  0.0508694262  1.1166619521]]

 [[-0.2308163171 -0.3318709593  0.223661913  -0.0397983681]
  [-0.3318709593  0.0030568181 -0.0736695092  0.3306629315]
  [ 0.223661913  -0.0736695092  1.1211906459 -0.0508694262]
  [-0.0397983681  0.3306629315 -0.0508694262  1.1166619521]]]
Alpha occ 1 vir 3; Beta occ 1 vir 3
Alpha energies:  [-0.4946207656] <- HOMO
         LUMO->  [0.1219281958 1.0988253817 1.283960287 ]
Beta energies:   [-0.4946207656] <- HOMO
         LUMO->  [0.1219281958 1.0988253817 1.283960287 ]
e_a, e_b
 [-0.4946207656  0.1219281958  1.0988253817  1.283960287 ] 
 [-0.4946207656  0.1219281958  1.0988253817  1.283960287 ]
v_a, v_b
 [[ 0.7975617066 -0.5732885075  0.0900046244  0.1647263759]
 [-0.5878775229 -0.7561293528 -0.100110005   0.2695299736]
 [-0.0868603443  0.1705432304  0.7900354027  0.5824211102]
 [ 0.1036852097  0.2655629786 -0.5980979994  0.749002313 ]] 
 [[ 0.7975617066  0.5732885075 -0.0900046244  0.1647263759]
 [ 0.5878775229 -0.7561293528 -0.100110005  -0.2695299736]
 [-0.0868603443 -0.1705432304 -0.7900354027  0.5824211102]
 [-0.1036852097  0.2655629786 -0.5980979994 -0.749002313 ]]
P_a, P_b
 [[ 0.6361046759 -0.4688686005 -0.0692764845  0.0826953528]
 [-0.4688686005  0.345599982   0.0510632441 -0.0609542043]
 [-0.0692764845  0.0510632441  0.0075447194 -0.009006133 ]
 [ 0.0826953528 -0.0609542043 -0.009006133   0.0107506227]] 
 [[ 0.6361046759  0.4688686005 -0.0692764845 -0.0826953528]
 [ 0.4688686005  0.345599982  -0.0510632441 -0.0609542043]
 [-0.0692764845 -0.0510632441  0.0075447194  0.009006133 ]
 [-0.0826953528 -0.0609542043  0.009006133   0.0107506227]]
time for xg, H, S2, Yg, Feff: 0.024

***************
SUHF converged at cycle 12
Final E(SUHF) =     -1.00994490, delta E = -2.85287e-11, MaxD(dm) = 3.05115e-10, RMSD(dm) = 6.49545e-10
time for cyc: 0.723
dm_reg
 [[[1.3933181765e-01 2.6226384662e-01 1.9909043417e-03 2.0708293089e-02]
  [2.6226384662e-01 4.9365842207e-01 3.7474730446e-03 3.8979155617e-02]
  [1.9909043417e-03 3.7474730446e-03 2.8447917816e-05 2.9589961084e-04]
  [2.0708293089e-02 3.8979155617e-02 2.9589961084e-04 3.0777851744e-03]]

 [[2.8447917816e-05 2.9589961084e-04 1.9909043417e-03 3.7474730446e-03]
  [2.9589961084e-04 3.0777851744e-03 2.0708293089e-02 3.8979155618e-02]
  [1.9909043417e-03 2.0708293089e-02 1.3933181765e-01 2.6226384662e-01]
  [3.7474730446e-03 3.8979155618e-02 2.6226384662e-01 4.9365842207e-01]]]
mo_reg
 [[-0.3732717745 -0.0827862706 -1.2513972121  0.1959491265]
 [-0.7026082992 -0.2059771904  1.119703327  -0.3413827732]
 [-0.005333659   0.1698002773 -0.1610010621 -1.3022267479]
 [-0.0554777899  0.9047664758 -0.0668003056  1.0393364815]] 
 [[-0.005333659  -0.1698002773  0.1610010621 -1.3022267479]
 [-0.0554777899 -0.9047664758  0.0668003056  1.0393364815]
 [-0.3732717745  0.0827862706  1.2513972121  0.1959491265]
 [-0.7026082992  0.2059771904 -1.119703327  -0.3413827732]]
******* suhf density *****
Clebsch-Gordan coeff: < 0 0 0 0 | 0 0 > = 1
Clebsch-Gordan coeff: < 0 0 1 0 | 0 0 > = 0
xggint 0.9999999999999999
SUHF DM alpha
 [[0.0648955961 0.1245153575 0.0203317291 0.046136313 ]
 [0.1245153575 0.2397755512 0.046136313  0.1019222852]
 [0.0203317291 0.046136313  0.0648955961 0.1245153575]
 [0.046136313  0.1019222852 0.1245153575 0.2397755512]] 
SUHF DM beta
 [[0.0648955961 0.1245153575 0.0203317291 0.046136313 ]
 [0.1245153575 0.2397755512 0.046136313  0.1019222852]
 [0.0203317291 0.046136313  0.0648955961 0.1245153575]
 [0.046136313  0.1019222852 0.1245153575 0.2397755512]]
SUHF natural orbitals alpha
 [[-0.2359566186  0.3081811236  0.647415103  -1.0866365448]
 [-0.4724586982  0.5420297568 -0.414177296   1.1035426826]
 [-0.2359566186 -0.3081811236  1.0757807764  0.6652976907]
 [-0.4724586982 -0.5420297568 -0.876659113  -0.7879201002]]
SUHF natural orbitals beta
 [[-0.2359566186  0.3081811236  0.647415103  -1.0866365448]
 [-0.4724586982  0.5420297568 -0.414177296   1.1035426826]
 [-0.2359566186 -0.3081811236  1.0757807764  0.6652976907]
 [-0.4724586982 -0.5420297568 -0.876659113  -0.7879201002]]
SUHF natural orbitals, total
 [[-0.2359566186  0.3081811236  0.647415103  -1.0866365448]
 [-0.4724586982  0.5420297568 -0.414177296   1.1035426826]
 [-0.2359566186 -0.3081811236  1.0757807764  0.6652976907]
 [-0.4724586982 -0.5420297568 -0.876659113  -0.7879201002]]
SUHF NO occ alpha:  0.765393  0.234607  ...
SUHF NO occ beta:   0.765393  0.234607  ...
SUHF NO occ total:  1.530786  0.469214  ...
core 0, active 2, external 2
time for dm: 0.014
time tot: 0.743
[[-0.766531  0.       -0.05475  -0.007151  0.000385  0.        0.        0.      ]
 [ 0.       -0.766531  0.        0.        0.        0.054037  0.00721   0.008768]
 [-0.05475   0.       -0.715863  0.137128 -0.031799  0.        0.        0.      ]
 [-0.007151  0.        0.137128  0.302936 -0.017382  0.        0.        0.      ]
 [ 0.000385  0.       -0.031799 -0.017382  0.406427  0.        0.        0.      ]
 [ 0.        0.054037  0.        0.        0.       -0.602562  0.033401 -0.348129]
 [ 0.        0.00721   0.        0.        0.        0.033401  0.397774  0.046941]
 [ 0.        0.008768  0.        0.        0.       -0.348129  0.046941  0.198288]]
[[-0.495602  0.       -0.056808 -0.058859 -0.037312  0.        0.        0.      ]
 [-0.        0.191973 -0.       -0.        0.       -0.009381  0.08201   0.222633]
 [-0.056808 -0.       -0.453108  0.153138 -0.016359 -0.       -0.       -0.      ]
 [-0.058859 -0.        0.153138  1.043941 -0.013165  0.        0.       -0.      ]
 [-0.037312  0.       -0.016359 -0.013165  1.114307  0.        0.        0.      ]
 [ 0.       -0.009381 -0.        0.        0.        0.421184  0.260794 -0.389219]
 [ 0.        0.08201  -0.        0.        0.        0.260794  1.307772  0.108172]
 [ 0.        0.222633 -0.       -0.        0.       -0.389219  0.108172  1.151287]] 
 [-0.495602  0.191973 -0.453108  1.043941  1.114307  0.421184  1.307772  1.151287]
