#INFO: **** input file is /share/home/srwang/ExSCF/test/pt2/test.py ****
#import phf
from pyscf import gto, scf, lib
#import scipy
#import numpy as np
import sys

from pyphf import util, guess

lib.num_threads(4)

xyz = '''H 0.0 0.0 0.0; H 0.0 0.0 2.0''' #sys.argv[1]
fch = '../test_carlos/test_uhf.fchk' #sys.argv[2]
bas = '3-21g'


#mf = util.guess_from_fchk(xyz, bas, fch)
mf = guess.mix(xyz, bas)

mf2 = util.SUHF(mf)
mf2.cut_no = False
mf2.verbose = 6
mf2.diis_on = True
mf2.max_cycle = 15
mf2.kernel()
#INFO: ******************** input file end ********************


System: uname_result(system='Linux', node='xn01', release='3.10.0-1127.el7.x86_64', version='#1 SMP Tue Feb 18 16:39:12 EST 2020', machine='x86_64', processor='x86_64')  Threads 4
Python 3.7.4 (default, Aug 13 2019, 20:35:49) 
[GCC 7.3.0]
numpy 1.17.2  scipy 1.4.1
Date: Mon Mar 22 20:17:55 2021
PySCF version 1.7.6a1
PySCF path  /share/home/srwang/pyscf/pyscf
GIT HEAD      ref: refs/heads/master
GIT master branch  80f71dfe77ac5f9caae26788acf76446987635bd

[CONFIG] conf_file None
[INPUT] verbose = 4
[INPUT] num. atoms = 2
[INPUT] num. electrons = 2
[INPUT] charge = 0
[INPUT] spin (= nelec alpha-beta = 2S) = 0
[INPUT] symmetry False subgroup None
[INPUT] Mole.unit = angstrom
[INPUT]  1 H      0.000000000000   0.000000000000   0.000000000000 AA    0.000000000000   0.000000000000   0.000000000000 Bohr
[INPUT]  2 H      0.000000000000   0.000000000000   2.000000000000 AA    0.000000000000   0.000000000000   3.779452249130 Bohr

nuclear repulsion = 0.26458860546
number of shells = 4
number of NR pGTOs = 6
number of NR cGTOs = 4
basis = 3-21g
ecp = {}
CPU time:         1.05


******** <class 'pyscf.scf.hf.RHF'> ********
method = RHF
initial guess = minao
damping factor = 0
level_shift factor = 0
DIIS = <class 'pyscf.scf.diis.CDIIS'>
diis_start_cycle = 1
diis_space = 8
SCF conv_tol = 1e-09
SCF conv_tol_grad = None
SCF max_cycles = 8
direct_scf = True
direct_scf_tol = 1e-13
chkfile to save SCF result = /share/home/srwang/ExSCF/test/pt2/tmpnkwm5l0m
max_memory 4000 MB (current use 107 MB)
Set gradient conv threshold to 3.16228e-05
init E= -0.648815945420394
  HOMO = -0.244674774926751  LUMO = -0.0864459286574333
cycle= 1 E= -0.907663399996248  delta_E= -0.259  |g|= 0.019  |ddm|= 0.828
  HOMO = -0.369605169894072  LUMO = -0.0101025752244085
cycle= 2 E= -0.907801422494245  delta_E= -0.000138  |g|= 0.00293  |ddm|= 0.0218
  HOMO = -0.370705495656877  LUMO = -0.0112684200431648
cycle= 3 E= -0.907804773936949  delta_E= -3.35e-06  |g|= 1.06e-06  |ddm|= 0.00397
  HOMO = -0.370703571859563  LUMO = -0.0112677864667399
cycle= 4 E= -0.907804773937317  delta_E= -3.68e-13  |g|= 4.38e-07  |ddm|= 8.49e-07
  HOMO = -0.370702200369487  LUMO = -0.0112673163072341
Extra cycle  E= -0.90780477393739  delta_E= -7.31e-14  |g|= 6.76e-08  |ddm|= 5.03e-07
converged SCF energy = -0.90780477393739


******** <class 'pyscf.scf.uhf.UHF'> ********
method = UHF
initial guess = minao
damping factor = 0
level_shift factor = 0
DIIS = <class 'pyscf.scf.diis.CDIIS'>
diis_start_cycle = 1
diis_space = 8
SCF conv_tol = 1e-09
SCF conv_tol_grad = None
SCF max_cycles = 5
direct_scf = True
direct_scf_tol = 1e-13
chkfile to save SCF result = /share/home/srwang/ExSCF/test/pt2/tmpsn0mmu9n
max_memory 4000 MB (current use 112 MB)
number electrons alpha = 1  beta = 1
Set gradient conv threshold to 3.16228e-05
init E= -1.69135653601085
  alpha nocc = 1  HOMO = -0.241362634120718  LUMO = 0.900983832264798
  beta  nocc = 1  HOMO = -0.241362634120717  LUMO = 0.900983832264799
cycle= 1 E= -0.985589253562578  delta_E= 0.706  |g|= 0.0835  |ddm|= 1.15
  alpha nocc = 1  HOMO = -0.500699366970839  LUMO = 0.115721879153891
  beta  nocc = 1  HOMO = -0.500699366970839  LUMO = 0.115721879153891
cycle= 2 E= -0.995568238237131  delta_E= -0.00998  |g|= 0.0263  |ddm|= 0.145
  alpha nocc = 1  HOMO = -0.497083605632848  LUMO = 0.125003394347005
  beta  nocc = 1  HOMO = -0.497083605632848  LUMO = 0.125003394347005
cycle= 3 E= -0.996982488677195  delta_E= -0.00141  |g|= 0.00453  |ddm|= 0.0714
  alpha nocc = 1  HOMO = -0.492766860245783  LUMO = 0.11867091025892
  beta  nocc = 1  HOMO = -0.492766860245783  LUMO = 0.11867091025892
cycle= 4 E= -0.997011162805271  delta_E= -2.87e-05  |g|= 0.000416  |ddm|= 0.00998
  alpha nocc = 1  HOMO = -0.494395497422847  LUMO = 0.120246563440781
  beta  nocc = 1  HOMO = -0.494395497422846  LUMO = 0.120246563440781
cycle= 5 E= -0.997011453176462  delta_E= -2.9e-07  |g|= 3.04e-05  |ddm|= 0.00094
SCF not converged.
SCF energy = -0.997011453176462 after 5 cycles  <S^2> = 0.91053826  2S+1 = 2.1545656

******** <class 'pyphf.util.SUHF'> ********
max_cycle = 15
verbose: 6, debug
DIIS: <class 'pyscf.scf.diis.CDIIS'>
diis_start_cyc = 10
S
[[1.         0.64589894 0.00227256 0.07465634]
 [0.64589894 1.         0.07465634 0.27025724]
 [0.00227256 0.07465634 1.         0.64589894]
 [0.07465634 0.27025724 0.64589894 1.        ]]
SVD: S^(-1/2)
[[-0.3306004   0.46012676 -0.85621932  0.83453679]
 [-0.39774539  0.36468663  0.71167752 -1.05293881]
 [-0.3306004  -0.46012676 -0.85621932 -0.83453679]
 [-0.39774539 -0.36468663  0.71167752  1.05293881]]
S^(1/2)
[[-0.61794925 -0.74345483 -0.61794925 -0.74345483]
 [ 0.66740563  0.52897143 -0.66740563 -0.52897143]
 [-0.34536213  0.28706017 -0.34536213  0.28706017]
 [ 0.23115675 -0.29165151 -0.23115675  0.29165151]]
C (ortho)
 [[-0.80168437 -0.57012967 -0.09238421 -0.15401133]
 [ 0.58107309 -0.75899383  0.10125266 -0.27573598]
 [ 0.08278252  0.16888346 -0.79175753 -0.58115871]
 [-0.11315161  0.26525254  0.59525882 -0.75000316]] 
 [[-0.80168437 -0.57012967 -0.09238421 -0.15401133]
 [-0.58107309  0.75899383 -0.10125266  0.27573598]
 [ 0.08278252  0.16888346 -0.79175753 -0.58115871]
 [ 0.11315161 -0.26525254 -0.59525882  0.75000316]]
density matrix (ortho)
[[[ 0.64269783 -0.46583722 -0.06636545  0.09071188]
  [-0.46583722  0.33764594  0.0481027  -0.06574935]
  [-0.06636545  0.0481027   0.00685295 -0.00936698]
  [ 0.09071188 -0.06574935 -0.00936698  0.01280329]]

 [[ 0.64269783  0.46583722 -0.06636545 -0.09071188]
  [ 0.46583722  0.33764594 -0.0481027  -0.06574935]
  [-0.06636545 -0.0481027   0.00685295  0.00936698]
  [-0.09071188 -0.06574935  0.00936698  0.01280329]]]
grids:  [0.06237655 0.31939555 0.74529195 1.28265786 1.85893479 2.39630071
 2.8221971  3.07921611] 
weights:  [0.15900941 0.34931531 0.49276925 0.56970235 0.56970235 0.49276925
 0.34931531 0.15900941]
S = 0.0, Sz = 0.0
Wigner small d:  1
value : [1. 1. 1. 1. 1. 1. 1. 1.]
time for Preparation before cyc: 0.006
**** Start Cycle 1 ****
dm (ortho)
[[[ 0.6426978299 -0.4658372158 -0.066365453   0.0907118756]
  [-0.4658372158  0.337645938   0.0481026953 -0.0657493547]
  [-0.066365453   0.0481026953  0.0068529457 -0.0093669753]
  [ 0.0907118756 -0.0657493547 -0.0093669753  0.0128032864]]

 [[ 0.6426978299  0.4658372158 -0.066365453  -0.0907118756]
  [ 0.4658372158  0.337645938  -0.0481026953 -0.0657493547]
  [-0.066365453  -0.0481026953  0.0068529457  0.0093669753]
  [-0.0907118756 -0.0657493547  0.0093669753  0.0128032864]]]
Fock (ortho)
 (array([[-0.2388734256,  0.3264271342,  0.2163619033,  0.0245881809],
       [ 0.3264271342,  0.0110600318,  0.0780698989,  0.3396311546],
       [ 0.2163619033,  0.0780698989,  1.1220215485,  0.050655689 ],
       [ 0.0245881809,  0.3396311546,  0.050655689 ,  1.1126187083]]), array([[-0.2388734256, -0.3264271342,  0.2163619033, -0.0245881809],
       [-0.3264271342,  0.0110600318, -0.0780698989,  0.3396311546],
       [ 0.2163619033, -0.0780698989,  1.1220215485, -0.050655689 ],
       [-0.0245881809,  0.3396311546, -0.050655689 ,  1.1126187083]]))
E(UHF) =    -1.261600
NO eigenvalue
[-1.0000000000e+00 -9.6298566580e-19 -3.6462495404e-20  1.1656635448e-16] 
 [-1.0000000000e+00 -8.9978974091e-18  1.7415427993e-19  1.4007994192e-17]
NO vec
[[ 0.8016843705  0.            0.1021468916  0.0804460083  0.5834351913  0.            0.            0.          ]
 [-0.5810730918  0.           -0.0205646665 -0.0649510792  0.810994768   0.            0.            0.          ]
 [-0.0827825207  0.           -0.1985002926  0.9765001809  0.0138594642  0.            0.            0.          ]
 [ 0.113151608   0.           -0.9745464283 -0.1890957263  0.0412162473  0.            0.            0.          ]
 [ 0.            0.8016843705  0.            0.            0.            0.4623031089  0.0798350112  0.3704110914]
 [ 0.            0.5810730918  0.            0.            0.           -0.4985809174  0.0327680285 -0.6424152762]
 [ 0.           -0.0827825207  0.            0.            0.           -0.0243564959  0.9962565981 -0.0051581068]
 [ 0.           -0.113151608   0.            0.            0.            0.7328708382  0.0050416245 -0.6708737811]]
dm(NO)
[[ 1.0000000000e+00  0.0000000000e+00 -3.2700763089e-17 -5.8666581091e-18 -1.6111441567e-16  0.0000000000e+00  0.0000000000e+00  0.0000000000e+00]
 [ 0.0000000000e+00  1.0000000000e+00  0.0000000000e+00  0.0000000000e+00  0.0000000000e+00  1.1544574066e-16  9.0551864858e-18  4.2458110186e-17]
 [-4.3178361114e-17  0.0000000000e+00  1.6181070068e-18  2.0393551722e-19  1.9515254402e-18  0.0000000000e+00  0.0000000000e+00  0.0000000000e+00]
 [-1.2186188349e-17  0.0000000000e+00 -6.1680059979e-19 -5.0582759792e-19 -2.5735691989e-18  0.0000000000e+00  0.0000000000e+00  0.0000000000e+00]
 [-2.1893631967e-17  0.0000000000e+00  8.8646417823e-18  5.2662967876e-18  9.3932379991e-18  0.0000000000e+00  0.0000000000e+00  0.0000000000e+00]
 [ 0.0000000000e+00  7.9788881606e-17  0.0000000000e+00  0.0000000000e+00  0.0000000000e+00 -2.0537405763e-18  3.1231823069e-18  5.0086424384e-18]
 [ 0.0000000000e+00  5.3187187213e-18  0.0000000000e+00  0.0000000000e+00  0.0000000000e+00  5.6303840610e-18  1.4707878223e-18  3.9717994762e-18]
 [ 0.0000000000e+00  5.4305895385e-17  0.0000000000e+00  0.0000000000e+00  0.0000000000e+00  2.0081378835e-18  1.0966116471e-18  3.3856277900e-18]]
D(g) (NO)
 [[ 9.9951368521e-01  9.3269488274e-03 -3.7401005538e-17 -8.7194295851e-18 -4.2761548279e-17  2.3240070737e-02 -1.1519175303e-03  1.8546517152e-02]
 [-9.3269488274e-03  9.9951368521e-01 -6.1319877660e-03  1.0193693433e-03 -2.9099153123e-02  5.9252205741e-17 -1.3611289608e-17  4.9668751933e-18]
 [-3.7962662920e-17  6.1319877660e-03  9.9951368521e-01 -1.6117810510e-16  1.1362756687e-16 -2.0328524013e-02 -6.0866363452e-03  2.2011264621e-02]
 [-8.9204251277e-18 -1.0193693433e-03 -1.6038560661e-16  9.9951368521e-01  1.2096428317e-16 -2.8935861309e-03  3.0440604718e-02  6.0291545500e-03]
 [-7.2274011047e-18  2.9099153123e-02  1.2100948439e-16  1.2715529418e-16  9.9951368521e-01 -3.2665666436e-03  2.7181985114e-03 -1.0371754985e-02]
 [-2.3240070737e-02  7.3116902563e-17  2.0328524013e-02  2.8935861309e-03  3.2665666436e-03  9.9951368521e-01  2.7005788247e-17 -8.1447651965e-17]
 [ 1.1519175303e-03 -1.3877787808e-17  6.0866363452e-03 -3.0440604718e-02 -2.7181985114e-03  1.9081958236e-17  9.9951368521e-01  3.1225022568e-17]
 [-1.8546517152e-02  5.5511151231e-17 -2.2011264621e-02 -6.0291545500e-03  1.0371754985e-02 -1.6653345369e-16  3.1225022568e-17  9.9951368521e-01]]
N(g) (NO)
 [[ 1.00039944   -0.0093352142]
 [ 0.0093352142  1.00039944  ]]
P(g) (NO)
 [[ 1.0000000000e+00  4.8569309528e-18 -3.2700763089e-17 -5.8666581091e-18 -1.6111441567e-16  6.5021853353e-34  4.8148248610e-35  2.4074124305e-34]
 [ 3.3922170613e-18  1.0000000000e+00 -7.3819596818e-35 -1.5015013185e-35 -5.0375465250e-34  1.1544574066e-16  9.0551864858e-18  4.2458110186e-17]
 [ 5.7243419490e-05  6.1344371271e-03 -1.8719034991e-21 -3.3582757115e-22 -9.2227400822e-21  7.0819463770e-19  5.5548472171e-20  2.6045660747e-19]
 [-9.5160312055e-06 -1.0197765201e-03  3.1118148199e-22  5.5827301638e-23  1.5331698072e-21 -1.1772885568e-19 -9.2342665638e-21 -4.3297783857e-20]
 [ 2.7164682850e-04  2.9110776488e-02 -8.8830585826e-21 -1.5936590692e-21 -4.3766220043e-20  3.3607151530e-18  2.6360350985e-19  1.2359885557e-18]
 [-2.3249353750e-02  2.1695103920e-04  7.6027160895e-19  1.3639600971e-19  3.7458060442e-18  2.5046073408e-20  1.9645321182e-21  9.2113311271e-21]
 [ 1.1523776522e-03 -1.0753396928e-05 -3.7683628593e-20 -6.7606056980e-21 -1.8566465207e-19 -1.2414338730e-21 -9.7374014537e-23 -4.5656891163e-22]
 [-1.8553925372e-02  1.7313571095e-04  6.0672751796e-19  1.0884953674e-19  2.9893048448e-18  1.9987780386e-20  1.5677761500e-21  7.3510150926e-21]]
time for NO, Ng: 0.013
Pg_ortho
 [[ 6.4282896141e-01 -4.6593226194e-01 -6.6378993741e-02  9.0730383816e-02  1.4052587586e-02  1.0185530387e-02 -1.4510805820e-03 -1.9834150946e-03]
 [-4.6566104963e-01  3.3751825007e-01  4.8084504206e-02 -6.5724490179e-02  1.8878681140e-02  1.3683556800e-02 -1.9494265698e-03 -2.6645812317e-03]
 [-6.6378993741e-02  4.8112509790e-02  6.8543439617e-03 -9.3688865016e-03 -1.4510805820e-03 -1.0517653970e-03  1.4983965355e-04  2.0480890883e-04]
 [ 9.0677570996e-02 -6.5724490179e-02 -9.3634330108e-03  1.2798444553e-02 -3.6762210426e-03 -2.6645812317e-03  3.7960930236e-04  5.1887044021e-04]
 [-1.4052587586e-02  1.0185530387e-02  1.4510805820e-03 -1.9834150946e-03  6.4282896141e-01  4.6593226194e-01 -6.6378993741e-02 -9.0730383816e-02]
 [ 1.8878681140e-02 -1.3683556800e-02 -1.9494265698e-03  2.6645812317e-03  4.6566104963e-01  3.3751825007e-01 -4.8084504206e-02 -6.5724490179e-02]
 [ 1.4510805820e-03 -1.0517653970e-03 -1.4983965355e-04  2.0480890883e-04 -6.6378993741e-02 -4.8112509790e-02  6.8543439617e-03  9.3688865016e-03]
 [-3.6762210426e-03  2.6645812317e-03  3.7960930236e-04 -5.1887044021e-04 -9.0677570996e-02 -6.5724490179e-02  9.3634330108e-03  1.2798444553e-02]]
G(g) (NO)
 [[ 2.7294507097e-01 -1.5807934026e-03  1.5983350869e-02  8.4021062192e-03  5.1224652838e-02  7.6003380996e-05 -4.0240243032e-04  5.9246368655e-04]
 [ 1.5807934026e-03  2.7294507097e-01  2.4064685106e-04  4.7141945410e-04 -4.8843652720e-04  4.6053120287e-02  7.0339550400e-03  2.7922420035e-02]
 [ 1.5974764970e-02  3.3013969010e-04  7.5288052750e-01 -4.9794059752e-02 -1.4012844137e-01  9.4224438709e-04  1.8539804169e-03 -1.4650407875e-03]
 [ 8.4075080249e-03 -2.6067220411e-03 -4.9793970649e-02  7.9880922780e-01  1.0812827875e-01 -5.1968207043e-04 -1.9281811858e-03  1.7406209287e-03]
 [ 5.1154344857e-02 -1.9303325159e-02 -1.4013362123e-01  1.0812965863e-01  9.5522004749e-01 -1.0629978885e-03 -4.7103879319e-03  4.0740148975e-03]
 [ 1.2484390673e-02  4.6002030191e-02  7.6516856733e-04  2.0791598376e-03 -1.2327308307e-03  7.0861877104e-01  5.5712109223e-02  8.3452672543e-02]
 [ 3.2701230565e-03  7.0384788290e-03  1.4329942657e-03  2.7418006406e-03 -1.0748458134e-03  5.5710565605e-02  8.2430467186e-01  1.3149643616e-01]
 [ 1.4593445067e-02  2.7873272839e-02  2.5571186290e-03  5.1134673435e-03 -1.8877996285e-03  8.3447835029e-02  1.3149815626e-01  9.7398635989e-01]]
time for Gg: 0.022
C(NO)
[[-1.0000000000e+00  0.0000000000e+00 -8.2318398635e-18  6.7998512249e-17 -2.3474765790e-17  0.0000000000e+00  0.0000000000e+00  0.0000000000e+00]
 [ 0.0000000000e+00 -1.0000000000e+00  0.0000000000e+00  0.0000000000e+00  0.0000000000e+00 -1.6103269665e-16  4.9960036108e-16  1.6653345369e-16]
 [ 4.5872072362e-17  0.0000000000e+00 -3.3465285260e-01 -4.3446224459e-01  8.3621171140e-01  0.0000000000e+00  0.0000000000e+00  0.0000000000e+00]
 [ 7.6456718871e-18  0.0000000000e+00  1.1818942024e-01 -8.9972068394e-01 -4.2015943621e-01  0.0000000000e+00  0.0000000000e+00  0.0000000000e+00]
 [ 4.8948132541e-17  0.0000000000e+00 -9.3490038464e-01  4.1776176512e-02 -3.5244293422e-01  0.0000000000e+00  0.0000000000e+00  0.0000000000e+00]
 [ 0.0000000000e+00 -9.5104488699e-17  0.0000000000e+00  0.0000000000e+00  0.0000000000e+00 -8.4050181802e-01 -4.0919025749e-01  3.5513381574e-01]
 [ 0.0000000000e+00  4.8541142935e-18  0.0000000000e+00  0.0000000000e+00  0.0000000000e+00  1.4626838165e-01 -8.0248808220e-01 -5.7846213227e-01]
 [ 0.0000000000e+00 -4.7200810337e-17  0.0000000000e+00  0.0000000000e+00  0.0000000000e+00 -5.2169172356e-01  4.3425362533e-01 -7.3434428877e-01]]
detC 0.9999999999999998
detNg [ 1.0008861857  1.0235677093  1.1372636606  1.4834511689  2.4075617555  4.7583209498  8.8899320309 11.0684191068]
xg [0.9991145989 0.9769749387 0.8793035728 0.6741037528 0.4153579852 0.2101581652 0.1124867993 0.090347139 ]
ciS 1.08946173794053
ciH -1.3880614178251618
1.0 3.8624702394796095e-18 -0.028404854480000918j -6.158268339717665e-17
0.5448101838140996 0.0004034178790150141 -0.00040341787901501414 0.45518981618590054
1.0 3.789286592836838e-17 -0.1463202334250748j -3.252606517456513e-17
0.5468641223791957 0.010704805354784193 -0.01070480535478419 0.4531358776208043
1.0 7.45931094670027e-17 -0.35113848896679484j -6.028164079019405e-17
0.5578535028887407 0.061649119216941974 -0.061649119216941946 0.44214649711125925
1.0000000000000002 1.2902005852577503e-16 -0.6475270955872439j -6.722053469410127e-17
0.5984359745667819 0.20964566975982585 -0.20964566975982582 0.40156402543321823
1.0 3.699297812520541e-16 -1.0509017780052798j -1.491862189340054e-16
0.7592759336889005 0.5521972735073293 -0.5521972735073292 0.24072406631109972
1.0 1.97758476261356e-16 -1.4691664617043452j -5.160802341031001e-17
1.5127792597059315 1.0792250460984327 -1.0792250460984327 -0.5127792597059315
1.0000000000000002 1.93421667571414e-16 -1.2708264612918057j -3.972516759986888e-16
4.0351204529232945 0.807499947359727 -0.8074999473597267 -3.035120452923294
0.9999999999999994 4.7596475372113645e-17 -0.31411846674810134j 9.367506770274758e-17
5.979974352571147 0.04933520557608903 -0.04933520557608903 -4.979974352571149
S2 = -0.000000
X(g)
[[ 2.0000000000e+00  1.7347234760e-18  5.7243419490e-05 -9.5160312055e-06  2.7164682850e-04  2.3249353750e-02 -1.1523776522e-03  1.8553925372e-02]
 [ 3.4694469520e-18  2.0000000000e+00 -6.1344371271e-03  1.0197765201e-03 -2.9110776488e-02  2.1695103920e-04 -1.0753396928e-05  1.7313571095e-04]
 [ 5.7243419490e-05  6.1344371271e-03  0.0000000000e+00  0.0000000000e+00  0.0000000000e+00  0.0000000000e+00  0.0000000000e+00  0.0000000000e+00]
 [-9.5160312055e-06 -1.0197765201e-03  0.0000000000e+00  0.0000000000e+00  0.0000000000e+00  0.0000000000e+00  0.0000000000e+00  0.0000000000e+00]
 [ 2.7164682850e-04  2.9110776488e-02  0.0000000000e+00  0.0000000000e+00  0.0000000000e+00  0.0000000000e+00  0.0000000000e+00  0.0000000000e+00]
 [-2.3249353750e-02  2.1695103920e-04  0.0000000000e+00  0.0000000000e+00  0.0000000000e+00  0.0000000000e+00  0.0000000000e+00  0.0000000000e+00]
 [ 1.1523776522e-03 -1.0753396928e-05  0.0000000000e+00  0.0000000000e+00  0.0000000000e+00  0.0000000000e+00  0.0000000000e+00  0.0000000000e+00]
 [-1.8553925372e-02  1.7313571095e-04  0.0000000000e+00  0.0000000000e+00  0.0000000000e+00  0.0000000000e+00  0.0000000000e+00  0.0000000000e+00]]
X(g) int
[[ 2.0000000000e+00  2.3798523872e-17  5.3986731404e-02 -8.9746459121e-03  2.5619231866e-01  5.3727225747e-01 -2.6630440971e-02  4.2876500899e-01]
 [ 8.3062175822e-17  2.0000000000e+00 -1.4176148374e-01  2.3566144633e-02 -6.7272461716e-01  2.0460827786e-01 -1.0141615522e-02  1.6328568780e-01]
 [ 5.3986731404e-02  1.4176148374e-01  0.0000000000e+00  0.0000000000e+00  0.0000000000e+00  0.0000000000e+00  0.0000000000e+00  0.0000000000e+00]
 [-8.9746459121e-03 -2.3566144633e-02  0.0000000000e+00  0.0000000000e+00  0.0000000000e+00  0.0000000000e+00  0.0000000000e+00  0.0000000000e+00]
 [ 2.5619231866e-01  6.7272461716e-01  0.0000000000e+00  0.0000000000e+00  0.0000000000e+00  0.0000000000e+00  0.0000000000e+00  0.0000000000e+00]
 [-5.3727225747e-01  2.0460827786e-01  0.0000000000e+00  0.0000000000e+00  0.0000000000e+00  0.0000000000e+00  0.0000000000e+00  0.0000000000e+00]
 [ 2.6630440971e-02 -1.0141615522e-02  0.0000000000e+00  0.0000000000e+00  0.0000000000e+00  0.0000000000e+00  0.0000000000e+00  0.0000000000e+00]
 [-4.2876500899e-01  1.6328568780e-01  0.0000000000e+00  0.0000000000e+00  0.0000000000e+00  0.0000000000e+00  0.0000000000e+00  0.0000000000e+00]]
Hsp + Hph =  -1.2740800061956203
Feff (mod,ortho)
[[-0.2302593429  0.3297454875  0.2245050049  0.0340359206  0.            0.            0.            0.          ]
 [ 0.3297454875  0.001724175   0.071180278   0.3341328875  0.            0.            0.            0.          ]
 [ 0.2245050049  0.071180278   1.1202479731  0.0509549905  0.            0.            0.            0.          ]
 [ 0.0340359206  0.3341328875  0.0509549905  1.115114058   0.            0.            0.            0.          ]
 [ 0.            0.            0.            0.           -0.2302593429 -0.3297454875  0.2245050049 -0.0340359206]
 [ 0.            0.            0.            0.           -0.3297454875  0.001724175  -0.071180278   0.3341328875]
 [ 0.            0.            0.            0.            0.2245050049 -0.071180278   1.1202479731 -0.0509549905]
 [ 0.            0.            0.            0.           -0.0340359206  0.3341328875 -0.0509549905  1.115114058 ]]
Alpha occ 1 vir 3; Beta occ 1 vir 3
Alpha energies:  [-0.4945413536] <- HOMO
         LUMO->  [0.1202183346 1.0992021966 1.2819476854]
Beta energies:   [-0.4945413536] <- HOMO
         LUMO->  [0.1202183346 1.0992021966 1.2819476854]
e_a, e_b
 [-0.4945413536  0.1202183346  1.0992021966  1.2819476854] 
 [-0.4945413536  0.1202183346  1.0992021966  1.2819476854]
v_a, v_b
 [[ 0.7959196416 -0.5758519428  0.0931776361  0.161939471 ]
 [-0.5890947425 -0.7547791458 -0.1018707211  0.2699966326]
 [-0.0881053541  0.1695239946  0.7916327941  0.5803590106]
 [ 0.1082439607  0.264508216  -0.5951956012  0.7510398425]] 
 [[ 0.7959196416  0.5758519428 -0.0931776361  0.161939471 ]
 [ 0.5890947425 -0.7547791458 -0.1018707211 -0.2699966326]
 [-0.0881053541 -0.1695239946 -0.7916327941  0.5803590106]
 [-0.1082439607  0.264508216  -0.5951956012 -0.7510398425]]
P_a, P_b
 [[ 0.6334880759 -0.4688720763 -0.0701247819  0.0861534944]
 [-0.4688720763  0.3470326157  0.0519024009 -0.0637659482]
 [-0.0701247819  0.0519024009  0.0077625534 -0.0095368725]
 [ 0.0861534944 -0.0637659482 -0.0095368725  0.011716755 ]] 
 [[ 0.6334880759  0.4688720763 -0.0701247819 -0.0861534944]
 [ 0.4688720763  0.3470326157 -0.0519024009 -0.0637659482]
 [-0.0701247819 -0.0519024009  0.0077625534  0.0095368725]
 [-0.0861534944 -0.0637659482  0.0095368725  0.011716755 ]]
time for xg, H, S2, Yg, Feff: 0.021
 E(SUHF) =     -1.00949140
**** Start Cycle 2 ****
dm (ortho)
[[[ 0.6334880759 -0.4688720763 -0.0701247819  0.0861534944]
  [-0.4688720763  0.3470326157  0.0519024009 -0.0637659482]
  [-0.0701247819  0.0519024009  0.0077625534 -0.0095368725]
  [ 0.0861534944 -0.0637659482 -0.0095368725  0.011716755 ]]

 [[ 0.6334880759  0.4688720763 -0.0701247819 -0.0861534944]
  [ 0.4688720763  0.3470326157 -0.0519024009 -0.0637659482]
  [-0.0701247819 -0.0519024009  0.0077625534  0.0095368725]
  [-0.0861534944 -0.0637659482  0.0095368725  0.011716755 ]]]
Fock (ortho)
 (array([[-0.2363071238,  0.3284581574,  0.2173269551,  0.026191974 ],
       [ 0.3284581574,  0.0087238652,  0.0778284732,  0.3390099423],
       [ 0.2173269551,  0.0778284732,  1.1216824539,  0.050917293 ],
       [ 0.026191974 ,  0.3390099423,  0.050917293 ,  1.1127046858]]), array([[-0.2363071238, -0.3284581574,  0.2173269551, -0.026191974 ],
       [-0.3284581574,  0.0087238652, -0.0778284732,  0.3390099423],
       [ 0.2173269551, -0.0778284732,  1.1216824539, -0.050917293 ],
       [-0.026191974 ,  0.3390099423, -0.050917293 ,  1.1127046858]]))
E(UHF) =    -1.261271
NO eigenvalue
[-1.0000000000e+00 -1.9669164673e-18 -2.2453938648e-19  5.6056505005e-17] 
 [-1.0000000000e+00 -5.3627299124e-18 -3.2420630886e-19  6.8045537140e-17]
NO vec
[[ 0.7959196416  0.           -0.019572741  -0.056182615   0.602471863   0.            0.            0.          ]
 [-0.5890947425  0.            0.1922009217  0.0039876527  0.7848632293  0.            0.            0.          ]
 [-0.0881053541  0.           -0.3241944205 -0.941705784   0.0180455149  0.            0.            0.          ]
 [ 0.1082439607  0.            0.9260527476 -0.3316893557 -0.1438461852  0.            0.            0.          ]
 [ 0.            0.7959196416  0.            0.            0.            0.2492042039  0.0226733987 -0.5512668191]
 [ 0.            0.5890947425  0.            0.            0.           -0.1089977623 -0.0206761726  0.8004119989]
 [ 0.           -0.0881053541  0.            0.            0.            0.6442111982 -0.7479798857  0.1332496501]
 [ 0.           -0.1082439607  0.            0.            0.            0.7148487145  0.6630116918  0.1941392718]]
dm(NO)
[[ 1.0000000000e+00  0.0000000000e+00 -4.8660993487e-17  2.0348858252e-17 -2.8417978152e-16  0.0000000000e+00  0.0000000000e+00  0.0000000000e+00]
 [ 0.0000000000e+00  1.0000000000e+00  0.0000000000e+00  0.0000000000e+00  0.0000000000e+00  9.1073133331e-18  1.5777202245e-17  3.1643855414e-16]
 [-2.6581845336e-17  0.0000000000e+00  7.8201726211e-19  7.8176513199e-19  5.3334243389e-18  0.0000000000e+00  0.0000000000e+00  0.0000000000e+00]
 [ 9.0047785351e-18  0.0000000000e+00  4.1754110365e-19 -6.8974026296e-19  1.1132024882e-19  0.0000000000e+00  0.0000000000e+00  0.0000000000e+00]
 [-1.6086985820e-16  0.0000000000e+00 -2.9770415909e-18 -1.9204978456e-18 -4.8345907916e-18  0.0000000000e+00  0.0000000000e+00  0.0000000000e+00]
 [ 0.0000000000e+00 -1.8537506951e-17  0.0000000000e+00  0.0000000000e+00  0.0000000000e+00 -1.6064527514e-18 -3.3283880473e-18  1.5881800460e-17]
 [ 0.0000000000e+00  6.9976535189e-18  0.0000000000e+00  0.0000000000e+00  0.0000000000e+00  1.1556345886e-18  6.7182168724e-20 -5.8304911650e-19]
 [ 0.0000000000e+00  3.1298882299e-16  0.0000000000e+00  0.0000000000e+00  0.0000000000e+00  8.9114669356e-18  8.2165356747e-19 -3.9819023711e-17]]
D(g) (NO)
 [[ 9.9951368521e-01  8.8092982871e-03 -1.7891749377e-17  3.0456974328e-18 -1.6185224561e-16  8.8303429423e-03  5.2354898998e-03 -2.8096334769e-02]
 [-8.8092982871e-03  9.9951368521e-01 -8.0982412839e-04 -2.3856705117e-03 -2.9806745873e-02  2.3001864049e-17 -4.6991390119e-18  1.6141741436e-16]
 [ 2.0352674410e-18  8.0982412839e-04  9.9951368521e-01 -7.9960204666e-17  6.9628865620e-17  1.3324927644e-02  2.6569877309e-02  9.3928261297e-03]
 [-3.9298836830e-18  2.3856705117e-03 -1.0426293620e-16  9.9951368521e-01 -2.0599995961e-16 -2.6761459693e-02  1.5064823448e-02 -4.8556174210e-03]
 [-8.2755678879e-17  2.9806745873e-02  5.3230669768e-17 -2.0390153509e-16  9.9951368521e-01 -8.2987749609e-04 -3.4749725933e-03  8.4372296424e-03]
 [-8.8303429423e-03  2.3401796690e-17 -1.3324927644e-02  2.6761459693e-02  8.2987749609e-04  9.9951368521e-01  7.4157292448e-18 -2.0966489242e-17]
 [-5.2354898998e-03  1.3877787808e-17 -2.6569877309e-02 -1.5064823448e-02  3.4749725933e-03 -5.5511151231e-17  9.9951368521e-01  0.0000000000e+00]
 [ 2.8096334769e-02  1.1102230246e-16 -9.3928261297e-03  4.8556174210e-03 -8.4372296424e-03 -2.7755575616e-17  0.0000000000e+00  9.9951368521e-01]]
N(g) (NO)
 [[ 1.0004088404 -0.0088171878]
 [ 0.0088171878  1.0004088404]]
P(g) (NO)
 [[ 1.0000000000e+00  8.5765274463e-18 -4.8660993487e-17  2.0348858252e-17 -2.8417978152e-16  7.2191707983e-35  1.4444474583e-34  3.0814879110e-33]
 [-7.4108649849e-18  1.0000000000e+00  4.0796467526e-34 -1.4770214975e-34  2.2280908038e-33  9.1073133331e-18  1.5777202245e-17  3.1643855414e-16]
 [ 7.1403714353e-06  8.1015521719e-04 -3.4745756791e-22  1.4529840620e-22 -2.0291491944e-21  7.3783374114e-21  1.2781982712e-20  2.5636434556e-19]
 [ 2.1034904961e-05  2.3866458701e-03 -1.0235793733e-21  4.2803629939e-22 -5.9776946960e-21  2.1735931754e-20  3.7654594580e-20  7.5522676838e-19]
 [ 2.6281167645e-04  2.9818932074e-02 -1.2788677276e-20  5.3479175509e-21 -7.4685764793e-20  2.7157035766e-19  4.7045932207e-19  9.4358597515e-18]
 [-8.8339531430e-03  7.7858792173e-05  4.2986893636e-19 -1.7976086031e-19  2.5104308741e-18  7.0908441606e-22  1.2283939107e-21  2.4637523622e-20]
 [-5.2376303794e-03  4.6162297738e-05  2.5486829778e-19 -1.0657979817e-19  1.4884286569e-18  4.2041450968e-22  7.2831190752e-22  1.4607530752e-20]
 [ 2.8107821685e-02 -2.4773066051e-04 -1.3677545280e-18  5.7196207924e-19 -7.9876746254e-18 -2.2561607475e-21 -3.9084967332e-21 -7.8391532028e-20]]
time for NO, Ng: 0.013
Pg_ortho
 [[ 6.3361304727e-01 -4.6896457309e-01 -7.0138615758e-02  8.6170490344e-02  1.4179405991e-02  1.0494795058e-02 -1.5696076853e-03 -1.9283794301e-03]
 [-4.6870674194e-01  3.4691024449e-01  5.1884099007e-02 -6.3743462915e-02  1.8759040392e-02  1.3884381654e-02 -2.0765562384e-03 -2.5512033187e-03]
 [-7.0138615758e-02  5.1912639959e-02  7.7640847859e-03 -9.5387538782e-03 -1.5696076853e-03 -1.1617349125e-03  1.7374975279e-04  2.1346445511e-04]
 [ 8.6123114833e-02 -6.3743462915e-02 -9.5335095847e-03  1.1712623449e-02 -3.4469036719e-03 -2.5512033187e-03  3.8155946005e-04  4.6877408989e-04]
 [-1.4179405991e-02  1.0494795058e-02  1.5696076853e-03 -1.9283794301e-03  6.3361304727e-01  4.6896457309e-01 -7.0138615758e-02 -8.6170490344e-02]
 [ 1.8759040392e-02 -1.3884381654e-02 -2.0765562384e-03  2.5512033187e-03  4.6870674194e-01  3.4691024449e-01 -5.1884099007e-02 -6.3743462915e-02]
 [ 1.5696076853e-03 -1.1617349125e-03 -1.7374975279e-04  2.1346445511e-04 -7.0138615758e-02 -5.1912639959e-02  7.7640847859e-03  9.5387538782e-03]
 [-3.4469036719e-03  2.5512033187e-03  3.8155946005e-04 -4.6877408989e-04 -8.6123114833e-02 -6.3743462915e-02  9.5335095847e-03  1.1712623449e-02]]
G(g) (NO)
 [[ 2.7122561502e-01 -1.4540267350e-03 -1.0082611681e-02  2.1278982493e-03  4.8862105786e-02 -3.5103402710e-04  1.0035422552e-04 -4.9877118902e-04]
 [ 1.4540267350e-03  2.7122561502e-01 -4.4569141622e-04 -2.4373685381e-04 -3.5216482697e-04  2.4911625508e-02  1.1135217003e-02 -4.1822365404e-02]
 [-1.0091330538e-02 -2.5036096685e-03  7.5065258386e-01 -3.8533871992e-02  9.9823667263e-02 -1.8057622981e-03  2.2396720248e-04 -7.2037401305e-04]
 [ 2.1228180775e-03  3.5572861150e-03 -3.8533409881e-02  8.4938501081e-01 -1.6689439720e-01  3.4032266462e-03 -6.1677128465e-04  1.8998363895e-03]
 [ 4.8795154648e-02 -1.9179160574e-02  9.9827465162e-02 -1.6689849856e-01  9.0856674246e-01 -4.8003441202e-03  1.2597906807e-03 -3.2112361420e-03]
 [ 5.9382501205e-03  2.4897582093e-02 -1.5056007068e-03 -1.0418902219e-03 -6.9966027500e-04  7.4429003460e-01 -7.2960943158e-02 -4.7621465831e-02]
 [-2.0614612685e-03  1.1126253115e-02  3.2142022218e-03  1.7795396390e-03  4.5606147959e-04 -7.2959745193e-02  8.2028626453e-01  1.6707309280e-01]
 [-1.8634648082e-02 -4.1756739855e-02  4.9968307884e-03  3.1645374199e-03  1.3467258327e-03 -4.7619520786e-02  1.6707821534e-01  9.4402803800e-01]]
time for Gg: 0.022
C(NO)
[[ 1.0000000000e+00  0.0000000000e+00  1.1718102496e-16 -2.6207536950e-17  4.1962960675e-17  0.0000000000e+00  0.0000000000e+00  0.0000000000e+00]
 [ 0.0000000000e+00  1.0000000000e+00  0.0000000000e+00  0.0000000000e+00  0.0000000000e+00  1.6849491331e-16  2.7755575616e-17  1.1102230246e-16]
 [-3.6835654236e-17  0.0000000000e+00  5.6191580422e-02 -8.2922884493e-01  5.5607735885e-01  0.0000000000e+00  0.0000000000e+00  0.0000000000e+00]
 [ 4.2037353542e-18  0.0000000000e+00 -2.1803321516e-01 -5.5370632383e-01 -8.0366088871e-01  0.0000000000e+00  0.0000000000e+00  0.0000000000e+00]
 [-2.0837503529e-16  0.0000000000e+00 -9.7432234059e-01  7.6084358967e-02  2.1191306459e-01  0.0000000000e+00  0.0000000000e+00  0.0000000000e+00]
 [ 0.0000000000e+00  3.1440635920e-18  0.0000000000e+00  0.0000000000e+00  0.0000000000e+00  3.0564806539e-01 -9.4757009919e-01 -9.3221066565e-02]
 [ 0.0000000000e+00  1.1252718907e-17  0.0000000000e+00  0.0000000000e+00  0.0000000000e+00  3.3083504248e-01  1.9749740722e-01 -9.2279084781e-01]
 [ 0.0000000000e+00  3.3533623556e-16  0.0000000000e+00  0.0000000000e+00  0.0000000000e+00 -8.9281993413e-01 -2.5120844188e-01 -3.7385409446e-01]]
detC 0.9999999999999998
detNg [ 1.0008955907  1.0238235599  1.1389213125  1.4910948388  2.4440387958  4.9558145136  9.701563814  12.3913049506]
xg [0.9991052107 0.9767307953 0.8780237836 0.6706481533 0.4091588078 0.2017831776 0.1030761658 0.0807017505]
ciS 1.0798069611217835
ciH -1.3762057129978116
0.9999999999999999 4.512991542970912e-18 -0.028706311487434463j -1.5612511283791264e-17
0.5399749869392372 0.0004120261596068058 -0.00041202615960680587 0.4600250130607626
0.9999999999999998 -7.209944447028604e-18 -0.1479086834044374j -4.2934406030425976e-17
0.5418274141830365 0.01093848931321705 -0.010938489313217049 0.4581725858169631
1.0 4.336808689942018e-19 -0.3553789804445014j 6.678685382510707e-17
0.551760470850987 0.06314710987088662 -0.06314710987088663 0.4482395291490128
0.9999999999999998 -2.6020852139652106e-17 -0.6577649099839442j -7.025630077706069e-17
0.58871995490084 0.2163273384030931 -0.21632733840309312 0.41128004509915966
1.0 -3.387047586844716e-16 -1.0781359553460803j 1.682681771697503e-16
0.7383564833761316 0.5811885691050028 -0.5811885691050028 0.2616435166238684
0.9999999999999997 1.196959198423997e-16 -1.546368734821215j 5.160802341031001e-17
1.4800333729031216 1.195628132016283 -1.195628132016283 -0.48003337290312176
0.9999999999999996 2.8796409701215e-16 -1.401555489473788j -3.469446951953614e-18
4.255729175043635 0.9821788950370548 -0.9821788950370548 -3.255729175043637
0.9999999999999996 2.883977778811442e-17 -0.35539037533152057j 2.7755575615628914e-17
6.62695751208217 0.06315115943913951 -0.06315115943913953 -5.626957512082172
S2 = 0.000000
X(g)
[[ 2.0000000000e+00  1.5612511284e-17  7.1403714352e-06  2.1034904961e-05  2.6281167645e-04  8.8339531430e-03  5.2376303794e-03 -2.8107821685e-02]
 [-1.2143064332e-17  2.0000000000e+00 -8.1015521719e-04 -2.3866458701e-03 -2.9818932074e-02  7.7858792173e-05  4.6162297738e-05 -2.4773066051e-04]
 [ 7.1403714353e-06  8.1015521719e-04  0.0000000000e+00  0.0000000000e+00  0.0000000000e+00  0.0000000000e+00  0.0000000000e+00  0.0000000000e+00]
 [ 2.1034904961e-05  2.3866458701e-03  0.0000000000e+00  0.0000000000e+00  0.0000000000e+00  0.0000000000e+00  0.0000000000e+00  0.0000000000e+00]
 [ 2.6281167645e-04  2.9818932074e-02  0.0000000000e+00  0.0000000000e+00  0.0000000000e+00  0.0000000000e+00  0.0000000000e+00  0.0000000000e+00]
 [-8.8339531430e-03  7.7858792173e-05  0.0000000000e+00  0.0000000000e+00  0.0000000000e+00  0.0000000000e+00  0.0000000000e+00  0.0000000000e+00]
 [-5.2376303794e-03  4.6162297738e-05  0.0000000000e+00  0.0000000000e+00  0.0000000000e+00  0.0000000000e+00  0.0000000000e+00  0.0000000000e+00]
 [ 2.8107821685e-02 -2.4773066051e-04  0.0000000000e+00  0.0000000000e+00  0.0000000000e+00  0.0000000000e+00  0.0000000000e+00  0.0000000000e+00]]
X(g) int
[[ 2.0000000000e+00  3.9667292956e-16  6.7942894987e-03  2.0015378076e-02  2.5007363127e-01  2.0596830754e-01  1.2211813299e-01 -6.5534878523e-01]
 [-3.2972391930e-16  2.0000000000e+00 -1.8889199006e-02 -5.5645915548e-02 -6.9524423238e-01  7.4085105914e-02  4.3924887886e-02 -2.3572356711e-01]
 [ 6.7942894987e-03  1.8889199006e-02  0.0000000000e+00  0.0000000000e+00  0.0000000000e+00  0.0000000000e+00  0.0000000000e+00  0.0000000000e+00]
 [ 2.0015378076e-02  5.5645915548e-02  0.0000000000e+00  0.0000000000e+00  0.0000000000e+00  0.0000000000e+00  0.0000000000e+00  0.0000000000e+00]
 [ 2.5007363127e-01  6.9524423238e-01  0.0000000000e+00  0.0000000000e+00  0.0000000000e+00  0.0000000000e+00  0.0000000000e+00  0.0000000000e+00]
 [-2.0596830754e-01  7.4085105914e-02  0.0000000000e+00  0.0000000000e+00  0.0000000000e+00  0.0000000000e+00  0.0000000000e+00  0.0000000000e+00]
 [-1.2211813299e-01  4.3924887886e-02  0.0000000000e+00  0.0000000000e+00  0.0000000000e+00  0.0000000000e+00  0.0000000000e+00  0.0000000000e+00]
 [ 6.5534878523e-01 -2.3572356711e-01  0.0000000000e+00  0.0000000000e+00  0.0000000000e+00  0.0000000000e+00  0.0000000000e+00  0.0000000000e+00]]
Hsp + Hph =  -1.274492351455215
Feff (mod,ortho)
[[-0.2317660707  0.3307692724  0.2234862517  0.0367470905  0.            0.            0.            0.          ]
 [ 0.3307692724  0.0028151066  0.0726418244  0.3319690454  0.            0.            0.            0.          ]
 [ 0.2234862517  0.0726418244  1.1202631867  0.0506548999  0.            0.            0.            0.          ]
 [ 0.0367470905  0.3319690454  0.0506548999  1.1154916584  0.            0.            0.            0.          ]
 [ 0.            0.            0.            0.           -0.2317660707 -0.3307692724  0.2234862517 -0.0367470905]
 [ 0.            0.            0.            0.           -0.3307692724  0.0028151066 -0.0726418244  0.3319690454]
 [ 0.            0.            0.            0.            0.2234862517 -0.0726418244  1.1202631867 -0.0506548999]
 [ 0.            0.            0.            0.           -0.0367470905  0.3319690454 -0.0506548999  1.1154916584]]
Alpha occ 1 vir 3; Beta occ 1 vir 3
Alpha energies:  [-0.4950424038] <- HOMO
         LUMO->  [0.1210967755 1.0986657271 1.2820837821]
Beta energies:   [-0.4950424038] <- HOMO
         LUMO->  [0.1210967755 1.0986657271 1.2820837821]
e_a, e_b
 [-0.4950424038  0.1210967755  1.0986657271  1.2820837821] 
 [-0.4950424038  0.1210967755  1.0986657271  1.2820837821]
v_a, v_b
 [[ 0.7974913315 -0.5736705726  0.0914113233  0.1629528165]
 [-0.5875671982 -0.7561933834 -0.1006135913  0.269839322 ]
 [-0.0872271678  0.1698570612  0.7911442951  0.5810599833]
 [ 0.1056588142  0.2649947543 -0.5963317696  0.750334869 ]] 
 [[ 0.7974913315  0.5736705726 -0.0914113233  0.1629528165]
 [ 0.5875671982 -0.7561933834 -0.1006135913 -0.269839322 ]
 [-0.0872271678 -0.1698570612 -0.7911442951  0.5810599833]
 [-0.1056588142  0.2649947543 -0.5963317696 -0.750334869 ]]
P_a, P_b
 [[ 0.6359924237 -0.4685797472 -0.0695629102  0.0842619884]
 [-0.4685797472  0.3452352124  0.0512518226 -0.0620816534]
 [-0.0695629102  0.0512518226  0.0076085788 -0.0092163191]
 [ 0.0842619884 -0.0620816534 -0.0092163191  0.011163785 ]] 
 [[ 0.6359924237  0.4685797472 -0.0695629102 -0.0842619884]
 [ 0.4685797472  0.3452352124 -0.0512518226 -0.0620816534]
 [-0.0695629102 -0.0512518226  0.0076085788  0.0092163191]
 [-0.0842619884 -0.0620816534  0.0092163191  0.011163785 ]]
time for xg, H, S2, Yg, Feff: 0.021
 E(SUHF) =     -1.00990375, delta E = -0.000412345, MaxD(dm) = 0.00250435, RMSD(dm) = 0.00700222
**** Start Cycle 3 ****
dm (ortho)
[[[ 0.6359924237 -0.4685797472 -0.0695629102  0.0842619884]
  [-0.4685797472  0.3452352124  0.0512518226 -0.0620816534]
  [-0.0695629102  0.0512518226  0.0076085788 -0.0092163191]
  [ 0.0842619884 -0.0620816534 -0.0092163191  0.011163785 ]]

 [[ 0.6359924237  0.4685797472 -0.0695629102 -0.0842619884]
  [ 0.4685797472  0.3452352124 -0.0512518226 -0.0620816534]
  [-0.0695629102 -0.0512518226  0.0076085788  0.0092163191]
  [-0.0842619884 -0.0620816534  0.0092163191  0.011163785 ]]]
Fock (ortho)
 (array([[-0.2364624822,  0.3286848192,  0.21724534  ,  0.0271371325],
       [ 0.3286848192,  0.0096476741,  0.0785721106,  0.3387524181],
       [ 0.21724534  ,  0.0785721106,  1.1222637338,  0.0510836064],
       [ 0.0271371325,  0.3387524181,  0.0510836064,  1.1132575047]]), array([[-0.2364624822, -0.3286848192,  0.21724534  , -0.0271371325],
       [-0.3286848192,  0.0096476741, -0.0785721106,  0.3387524181],
       [ 0.21724534  , -0.0785721106,  1.1222637338, -0.0510836064],
       [-0.0271371325,  0.3387524181, -0.0510836064,  1.1132575047]]))
E(UHF) =    -1.261249
NO eigenvalue
[-1.0000000000e+00 -1.0980954200e-17 -1.4004340292e-18  1.1163928752e-17] 
 [-1.0000000000e+00 -7.0431088386e-17  5.0999787522e-19  2.1581037781e-17]
NO vec
[[ 0.7974913315  0.           -0.4281717621  0.0176404087  0.4246944012  0.            0.            0.          ]
 [-0.5875671982  0.           -0.4452839055  0.197223142   0.6462120885  0.            0.            0.          ]
 [-0.0872271678  0.           -0.7782049504  0.0198531943 -0.6216062476  0.            0.            0.          ]
 [ 0.1056588142  0.            0.1130851047  0.979998826  -0.1251010598  0.            0.            0.          ]
 [ 0.            0.7974913315  0.            0.            0.            0.551383648   0.0647174724 -0.2362102829]
 [ 0.            0.5875671982  0.            0.            0.           -0.6539433474  0.0577354398  0.4730639544]
 [ 0.           -0.0872271678  0.            0.            0.            0.0087533613  0.9961493416 -0.0011353547]
 [ 0.           -0.1056588142  0.            0.            0.            0.5179358549 -0.0128357676  0.8487720001]]
dm(NO)
[[ 1.0000000000e+00  0.0000000000e+00  1.1630915019e-16  1.1695296480e-17 -1.6280941382e-16  0.0000000000e+00  0.0000000000e+00  0.0000000000e+00]
 [ 0.0000000000e+00  1.0000000000e+00  0.0000000000e+00  0.0000000000e+00  0.0000000000e+00  1.5677137188e-16  2.3554209804e-17 -1.0577241461e-17]
 [ 1.4771287142e-16  0.0000000000e+00 -7.0441306237e-18 -2.3790028385e-18  1.1272238419e-17  0.0000000000e+00  0.0000000000e+00  0.0000000000e+00]
 [-1.9203486412e-18  0.0000000000e+00 -1.7579134201e-18  5.8213322535e-19  1.7810265579e-18  0.0000000000e+00  0.0000000000e+00  0.0000000000e+00]
 [-1.8881666890e-16  0.0000000000e+00  1.2976907517e-17  6.3744606126e-19 -1.7147023099e-17  0.0000000000e+00  0.0000000000e+00  0.0000000000e+00]
 [ 0.0000000000e+00  7.5525189351e-17  0.0000000000e+00  0.0000000000e+00  0.0000000000e+00  1.7572256883e-18 -3.6767420063e-19  1.4863647173e-19]
 [ 0.0000000000e+00  1.2022162134e-17  0.0000000000e+00  0.0000000000e+00  0.0000000000e+00 -3.2039411942e-19 -2.4920179541e-19  1.1773614491e-18]
 [ 0.0000000000e+00  5.7811217515e-18  0.0000000000e+00  0.0000000000e+00  0.0000000000e+00  2.0591094641e-17  3.1178679931e-19 -1.1840680080e-17]]
D(g) (NO)
 [[ 9.9951368521e-01  8.9558826889e-03  1.8011220963e-16 -2.8600727324e-17 -2.8477099445e-16  2.7376379877e-02 -2.2002668088e-03 -1.1742141663e-02]
 [-8.9558826889e-03  9.9951368521e-01  1.7062375044e-02 -7.6937324939e-04 -2.4504462097e-02 -2.0194022030e-17  2.6002851005e-17  9.2371490295e-17]
 [ 1.9104129327e-16 -1.7062375044e-02  9.9951368521e-01  1.6127562153e-17 -2.6315788544e-16  3.3323153953e-03 -2.5884526153e-02 -3.9422394466e-04]
 [-1.0395027589e-17  7.6937324939e-04  2.0519210229e-18  9.9951368521e-01  2.9956296032e-17  1.2114810575e-02  6.1512379459e-04  2.8716791725e-02]
 [-2.8252231933e-16  2.4504462097e-02 -3.2282849360e-16  2.3757773001e-17  9.9951368521e-01 -8.0656021739e-03 -1.7238469458e-02  3.1153883235e-03]
 [-2.7376379877e-02 -7.2032022342e-17 -3.3323153953e-03 -1.2114810575e-02  8.0656021739e-03  9.9951368521e-01 -2.2844633414e-16  1.5818368286e-16]
 [ 2.2002668088e-03  1.3877787808e-17  2.5884526153e-02 -6.1512379459e-04  1.7238469458e-02 -2.2898349883e-16  9.9951368521e-01 -4.0592529338e-16]
 [ 1.1742141663e-02  0.0000000000e+00  3.9422394466e-04 -2.8716791725e-02 -3.1153883235e-03  1.1102230246e-16 -4.1286418728e-16  9.9951368521e-01]]
N(g) (NO)
 [[ 1.0004062329 -0.0089638801]
 [ 0.0089638801  1.0004062329]]
P(g) (NO)
 [[ 1.0000000000e+00  7.5792847259e-18  1.1630915019e-16  1.1695296480e-17 -1.6280941382e-16  1.0544580859e-33  1.6851887013e-34 -7.2222372915e-35]
 [ 3.4526734611e-18  1.0000000000e+00  4.1065022794e-34  4.9921772288e-35 -5.5988927720e-34  1.5677137188e-16  2.3554209804e-17 -1.0577241461e-17]
 [-1.5294508464e-04 -1.7069306342e-02 -1.7788912820e-20 -1.7887381099e-21  2.4900899576e-20 -2.6759785723e-18 -4.0205402279e-19  1.8054617475e-19]
 [ 6.8965695831e-06  7.6968579411e-04  8.0213414744e-22  8.0657425966e-23 -1.1228264512e-21  1.2066469786e-19  1.8129340677e-20 -8.1411524931e-21]
 [ 2.1965506090e-04  2.4514416615e-02  2.5547893468e-20  2.5689310604e-21 -3.5761911707e-20  3.8431587236e-18  5.7741771217e-19 -2.5929490381e-19]
 [-2.7387501062e-02  2.4539858762e-04 -3.1854169744e-18 -3.2030494476e-19  4.4589429939e-18  3.8471473238e-20  5.7801698183e-21 -2.5956401153e-21]
 [ 2.2011606295e-03 -1.9722927929e-05  2.5601512225e-19  2.5743226161e-20 -3.5836967181e-19 -3.0919904688e-21 -4.6455798237e-22  2.0861417101e-22]
 [ 1.1746911707e-02 -1.0525515034e-04  1.3662733180e-18  1.3738361513e-19 -1.9125078092e-18 -1.6500994316e-20 -2.4792018940e-21  1.1133091401e-21]]
time for NO, Ng: 0.013
Pg_ortho
 [[ 6.3611914089e-01 -4.6867310854e-01 -6.9576770149e-02  8.4278777042e-02  1.4142159432e-02  1.0419510115e-02 -1.5468262358e-03 -1.8736802984e-03]
 [-4.6841115126e-01  3.4511099608e-01  5.1233382100e-02 -6.2059316319e-02  1.8816010157e-02  1.3863060241e-02 -2.0580377632e-03 -2.4929140202e-03]
 [-6.9576770149e-02  5.1262034188e-02  7.6100947656e-03 -9.2181554080e-03 -1.5468262358e-03 -1.1396542153e-03  1.6918713265e-04  2.0493743243e-04]
 [ 8.4231670778e-02 -6.2059316319e-02 -9.2130030685e-03  1.1159768265e-02 -3.3835743847e-03 -2.4929140202e-03  3.7008503929e-04  4.4828632381e-04]
 [-1.4142159432e-02  1.0419510115e-02  1.5468262358e-03 -1.8736802984e-03  6.3611914089e-01  4.6867310854e-01 -6.9576770149e-02 -8.4278777042e-02]
 [ 1.8816010157e-02 -1.3863060241e-02 -2.0580377632e-03  2.4929140202e-03  4.6841115126e-01  3.4511099608e-01 -5.1233382100e-02 -6.2059316319e-02]
 [ 1.5468262358e-03 -1.1396542153e-03 -1.6918713265e-04  2.0493743243e-04 -6.9576770149e-02 -5.1262034188e-02  7.6100947656e-03  9.2181554080e-03]
 [-3.3835743847e-03  2.4929140202e-03  3.7008503929e-04 -4.4828632381e-04 -8.4231670778e-02 -6.2059316319e-02  9.2130030685e-03  1.1159768265e-02]]
G(g) (NO)
 [[ 2.7182186176e-01 -1.4742259196e-03 -3.3058017374e-02 -8.8462072734e-03  3.7392300818e-02  2.0553799886e-04 -3.7932921967e-04 -4.6490239706e-04]
 [ 1.4742259196e-03  2.7182186176e-01 -7.1715608647e-05 -3.4785664074e-04 -5.2547444622e-04  4.9630750604e-02  1.8682591032e-03 -1.0127697598e-02]
 [-3.3020827651e-02  1.4104458892e-02  9.6819980136e-01 -1.4844133468e-01 -6.5828869202e-02  1.3467958303e-04  4.5652476545e-03  3.9982291475e-03]
 [-8.8547007052e-03 -4.1039652337e-03 -1.4843849619e-01  7.9528226296e-01  7.7744624153e-02 -5.4963198679e-04 -2.4683360916e-03 -2.1847164538e-03]
 [ 3.7335050005e-02 -1.3092608529e-02 -6.5831509786e-02  7.7748865924e-02  7.4642818411e-01  1.4383550660e-04 -1.9758792884e-03 -1.6228334505e-03]
 [ 1.6221736716e-02  4.9570843484e-02 -1.7659988531e-03 -2.3791660168e-03 -3.0018864167e-03  7.8091563278e-01  9.2327243150e-02 -1.4668653218e-01]
 [ 2.7756362392e-03  1.8753258724e-03 -1.4851474478e-03 -2.0006435765e-03 -1.9696605275e-03  9.2324859358e-02  8.1842678617e-01 -1.0723480567e-01]
 [-1.0786370602e-02 -1.0094620912e-02  2.5669986134e-03  3.2404167911e-03  3.0989535948e-03 -1.4668150991e-01 -1.0723626053e-01  9.1056782948e-01]]
time for Gg: 0.022
C(NO)
[[ 1.0000000000e+00  0.0000000000e+00 -1.5752568537e-16  1.1905837104e-16  1.9260984587e-16  0.0000000000e+00  0.0000000000e+00  0.0000000000e+00]
 [ 0.0000000000e+00  1.0000000000e+00  0.0000000000e+00  0.0000000000e+00  0.0000000000e+00  9.3618982103e-17 -6.9388939039e-17  1.3877787808e-16]
 [ 1.1787852128e-16  0.0000000000e+00  4.8013363668e-01 -6.7744678203e-01 -5.5725895995e-01  0.0000000000e+00  0.0000000000e+00  0.0000000000e+00]
 [ 1.1417724431e-17  0.0000000000e+00  1.0380813497e-01 -5.8692848824e-01  8.0295630068e-01  0.0000000000e+00  0.0000000000e+00  0.0000000000e+00]
 [-1.7842332759e-16  0.0000000000e+00 -8.7103132093e-01 -4.4337434207e-01 -2.1147962255e-01  0.0000000000e+00  0.0000000000e+00  0.0000000000e+00]
 [ 0.0000000000e+00  3.8561265524e-17  0.0000000000e+00  0.0000000000e+00  0.0000000000e+00  9.4658366987e-01 -3.0039389697e-01 -1.1722995606e-01]
 [ 0.0000000000e+00  9.8545540555e-18  0.0000000000e+00  0.0000000000e+00  0.0000000000e+00 -1.7913705889e-01 -7.9216837245e-01  5.8342024632e-01]
 [ 0.0000000000e+00  5.3992564398e-18  0.0000000000e+00  0.0000000000e+00  0.0000000000e+00 -2.6812174486e-01 -5.3125584830e-01 -8.0366532436e-01]]
detC 0.9999999999999999
detNg [ 1.0008929819  1.0237525796  1.1384610309  1.4889667636  2.4338105249  4.8994096868  9.4619485469 11.9936898351]
xg [0.9991078148 0.9767985155 0.87837877   0.6716066634 0.4108783283 0.2041062218 0.1056864762 0.083377177 ]
ciS 1.0824849917380868
ciH -1.3796552593517415
1.0 7.399679827213568e-18 -0.028622693130183542j -5.0306980803327406e-17
0.5413161863648843 0.0004096292810123282 -0.00040962928101232816 0.45868381363511573
1.0 3.5236570605778894e-17 -0.14746800144227504j -1.5699247457590104e-16
0.5432249955983098 0.010873405724689419 -0.010873405724689417 0.45677500440169017
0.9999999999999999 8.370040771588094e-17 -0.35420151952743606j 4.2500725161431774e-17
0.553454131598643 0.06272935821777231 -0.06272935821777233 0.44654586840135685
0.9999999999999999 1.9971004017182992e-16 -0.6549145986542217j -7.37257477290143e-17
0.5914355216288628 0.21445656576521013 -0.21445656576521013 0.40856447837113696
0.9999999999999999 2.1120258320017626e-16 -1.0704994108110275j -5.637851296924623e-17
0.7442971887206994 0.5729844942733786 -0.5729844942733785 0.25570281127930045
0.9999999999999998 1.734723475976807e-16 -1.5243195056677974j 6.071532165918825e-18
1.4899937494865776 1.161774977679659 -1.1617749776796595 -0.4899937494865782
0.9999999999999996 2.3158558404290375e-16 -1.3629608069359067j -6.002143226879753e-16
4.192377566697721 0.928831080621689 -0.9288310806216891 -3.192377566697724
0.9999999999999998 2.7972416050126014e-17 -0.34298542385711767j -5.0306980803327406e-17
6.432675120529295 0.05881950048922332 -0.05881950048922333 -5.432675120529296
S2 = 0.000000
X(g)
[[ 2.0000000000e+00  6.9388939039e-18 -1.5294508464e-04  6.8965695831e-06  2.1965506090e-04  2.7387501062e-02 -2.2011606295e-03 -1.1746911707e-02]
 [-3.4694469520e-18  2.0000000000e+00  1.7069306342e-02 -7.6968579411e-04 -2.4514416615e-02  2.4539858762e-04 -1.9722927929e-05 -1.0525515034e-04]
 [-1.5294508464e-04 -1.7069306342e-02  0.0000000000e+00  0.0000000000e+00  0.0000000000e+00  0.0000000000e+00  0.0000000000e+00  0.0000000000e+00]
 [ 6.8965695831e-06  7.6968579411e-04  0.0000000000e+00  0.0000000000e+00  0.0000000000e+00  0.0000000000e+00  0.0000000000e+00  0.0000000000e+00]
 [ 2.1965506090e-04  2.4514416615e-02  0.0000000000e+00  0.0000000000e+00  0.0000000000e+00  0.0000000000e+00  0.0000000000e+00  0.0000000000e+00]
 [-2.7387501062e-02  2.4539858762e-04  0.0000000000e+00  0.0000000000e+00  0.0000000000e+00  0.0000000000e+00  0.0000000000e+00  0.0000000000e+00]
 [ 2.2011606295e-03 -1.9722927929e-05  0.0000000000e+00  0.0000000000e+00  0.0000000000e+00  0.0000000000e+00  0.0000000000e+00  0.0000000000e+00]
 [ 1.1746911707e-02 -1.0525515034e-04  0.0000000000e+00  0.0000000000e+00  0.0000000000e+00  0.0000000000e+00  0.0000000000e+00  0.0000000000e+00]]
X(g) int
[[ 2.0000000000e+00  9.1894733343e-17 -1.4517242757e-01  6.5460864639e-03  2.0849220813e-01  6.3697602678e-01 -5.1194395169e-02 -2.7320861180e-01]
 [-8.4654285066e-17  2.0000000000e+00  3.9699638565e-01 -1.7901282701e-02 -5.7015408813e-01  2.3292745086e-01 -1.8720610296e-02 -9.9906091948e-02]
 [-1.4517242757e-01 -3.9699638565e-01  0.0000000000e+00  0.0000000000e+00  0.0000000000e+00  0.0000000000e+00  0.0000000000e+00  0.0000000000e+00]
 [ 6.5460864639e-03  1.7901282701e-02  0.0000000000e+00  0.0000000000e+00  0.0000000000e+00  0.0000000000e+00  0.0000000000e+00  0.0000000000e+00]
 [ 2.0849220813e-01  5.7015408813e-01  0.0000000000e+00  0.0000000000e+00  0.0000000000e+00  0.0000000000e+00  0.0000000000e+00  0.0000000000e+00]
 [-6.3697602678e-01  2.3292745086e-01  0.0000000000e+00  0.0000000000e+00  0.0000000000e+00  0.0000000000e+00  0.0000000000e+00  0.0000000000e+00]
 [ 5.1194395169e-02 -1.8720610296e-02  0.0000000000e+00  0.0000000000e+00  0.0000000000e+00  0.0000000000e+00  0.0000000000e+00  0.0000000000e+00]
 [ 2.7320861180e-01 -9.9906091948e-02  0.0000000000e+00  0.0000000000e+00  0.0000000000e+00  0.0000000000e+00  0.0000000000e+00  0.0000000000e+00]]
Hsp + Hph =  -1.2745259933225537
Feff (mod,ortho)
[[-0.2310737043  0.331332349   0.2236667484  0.0384641585  0.            0.            0.            0.          ]
 [ 0.331332349   0.0028212506  0.0731171769  0.3312837998  0.            0.            0.            0.          ]
 [ 0.2236667484  0.0731171769  1.120794558   0.0507735468  0.            0.            0.            0.          ]
 [ 0.0384641585  0.3312837998  0.0507735468  1.116164326   0.            0.            0.            0.          ]
 [ 0.            0.            0.            0.           -0.2310737043 -0.331332349   0.2236667484 -0.0384641585]
 [ 0.            0.            0.            0.           -0.331332349   0.0028212506 -0.0731171769  0.3312837998]
 [ 0.            0.            0.            0.            0.2236667484 -0.0731171769  1.120794558  -0.0507735468]
 [ 0.            0.            0.            0.           -0.0384641585  0.3312837998 -0.0507735468  1.116164326 ]]
Alpha occ 1 vir 3; Beta occ 1 vir 3
Alpha energies:  [-0.4947222979] <- HOMO
         LUMO->  [0.1214849193 1.0988027884 1.2831410205]
Beta energies:   [-0.4947222979] <- HOMO
         LUMO->  [0.1214849193 1.0988027884 1.2831410205]
e_a, e_b
 [-0.4947222979  0.1214849193  1.0988027884  1.2831410205] 
 [-0.4947222979  0.1214849193  1.0988027884  1.2831410205]
v_a, v_b
 [[ 0.7974157097 -0.5736010917  0.0906725114  0.1639770388]
 [-0.587880081  -0.7560563122 -0.1003875695  0.2696260357]
 [-0.0870819433  0.170223437   0.7905450217  0.581789726 ]
 [ 0.104603688   0.2653010024 -0.597276653   0.7496226026]] 
 [[ 0.7974157097  0.5736010917 -0.0906725114  0.1639770388]
 [ 0.587880081  -0.7560563122 -0.1003875695 -0.2696260357]
 [-0.0870819433 -0.170223437  -0.7905450217  0.581789726 ]
 [-0.104603688   0.2653010024 -0.597276653  -0.7496226026]]
P_a, P_b
 [[ 0.635871814  -0.468784812  -0.0694405096  0.0834126241]
 [-0.468784812   0.3456029896  0.0511937399 -0.0614944246]
 [-0.0694405096  0.0511937399  0.0075832649 -0.0091090924]
 [ 0.0834126241 -0.0614944246 -0.0091090924  0.0109419316]] 
 [[ 0.635871814   0.468784812  -0.0694405096 -0.0834126241]
 [ 0.468784812   0.3456029896 -0.0511937399 -0.0614944246]
 [-0.0694405096 -0.0511937399  0.0075832649  0.0091090924]
 [-0.0834126241 -0.0614944246  0.0091090924  0.0109419316]]
time for xg, H, S2, Yg, Feff: 0.021
 E(SUHF) =     -1.00993739, delta E = -3.36419e-05, MaxD(dm) = 0.000849364, RMSD(dm) =  0.0022253
**** Start Cycle 4 ****
dm (ortho)
[[[ 0.635871814  -0.468784812  -0.0694405096  0.0834126241]
  [-0.468784812   0.3456029896  0.0511937399 -0.0614944246]
  [-0.0694405096  0.0511937399  0.0075832649 -0.0091090924]
  [ 0.0834126241 -0.0614944246 -0.0091090924  0.0109419316]]

 [[ 0.635871814   0.468784812  -0.0694405096 -0.0834126241]
  [ 0.468784812   0.3456029896 -0.0511937399 -0.0614944246]
  [-0.0694405096 -0.0511937399  0.0075832649  0.0091090924]
  [-0.0834126241 -0.0614944246  0.0091090924  0.0109419316]]]
Fock (ortho)
 (array([[-0.2362399418,  0.3289821985,  0.2172415109,  0.0275604179],
       [ 0.3289821985,  0.0097339823,  0.0788644772,  0.3386482974],
       [ 0.2172415109,  0.0788644772,  1.1224640086,  0.0511750047],
       [ 0.0275604179,  0.3386482974,  0.0511750047,  1.1134701829]]), array([[-0.2362399418, -0.3289821985,  0.2172415109, -0.0275604179],
       [-0.3289821985,  0.0097339823, -0.0788644772,  0.3386482974],
       [ 0.2172415109, -0.0788644772,  1.1224640086, -0.0511750047],
       [-0.0275604179,  0.3386482974, -0.0511750047,  1.1134701829]]))
E(UHF) =    -1.261193
NO eigenvalue
[-1.0000000000e+00 -1.6745106609e-16 -5.9817858265e-20  2.2423372332e-18] 
 [-1.0000000000e+00 -5.8298016460e-17 -1.0950933970e-18  4.4344126754e-19]
NO vec
[[ 0.7974157097  0.           -0.6017775539  0.0411284813  0.0173323304  0.            0.            0.          ]
 [-0.587880081   0.           -0.7786315444 -0.0805950028  0.2040450294  0.            0.            0.          ]
 [-0.0870819433  0.           -0.0487291896  0.994025669  -0.0442173107  0.            0.            0.          ]
 [ 0.104603688   0.            0.1709449029  0.0610398467  0.9778087981  0.            0.            0.          ]
 [ 0.            0.7974157097  0.            0.            0.            0.588679243  -0.1087289389 -0.0759141142]
 [ 0.            0.587880081   0.            0.            0.           -0.8059819014 -0.0039977563 -0.0690956072]
 [ 0.           -0.0870819433  0.            0.            0.            0.0200304679  0.1565509104 -0.9836195036]
 [ 0.           -0.104603688   0.            0.            0.           -0.0587256659 -0.9816587229 -0.1481739396]]
dm(NO)
[[ 1.0000000000e+00  0.0000000000e+00  6.6991031403e-18  8.6122615542e-18 -2.3705013369e-17  0.0000000000e+00  0.0000000000e+00  0.0000000000e+00]
 [ 0.0000000000e+00  1.0000000000e+00  0.0000000000e+00  0.0000000000e+00  0.0000000000e+00 -7.4831270682e-17  4.0408814334e-17  4.0253811780e-17]
 [ 1.4279875841e-17  0.0000000000e+00 -6.7093528840e-18 -1.8028514913e-18  4.0376131544e-18  0.0000000000e+00  0.0000000000e+00  0.0000000000e+00]
 [ 1.5208552704e-18  0.0000000000e+00  3.3902542905e-18  6.1869528666e-19 -9.6018813146e-19  0.0000000000e+00  0.0000000000e+00  0.0000000000e+00]
 [-1.6689834043e-17  0.0000000000e+00  8.2683815209e-18  5.1265149936e-19 -4.1177140538e-20  0.0000000000e+00  0.0000000000e+00  0.0000000000e+00]
 [ 0.0000000000e+00 -1.0882520853e-17  0.0000000000e+00  0.0000000000e+00  0.0000000000e+00 -1.0069516466e-17  1.6088828002e-18  1.0144634194e-18]
 [ 0.0000000000e+00  3.3529452554e-17  0.0000000000e+00  0.0000000000e+00  0.0000000000e+00  2.6332977954e-18 -2.8176657895e-19  5.6756950795e-19]
 [ 0.0000000000e+00  4.2325074677e-17  0.0000000000e+00  0.0000000000e+00  0.0000000000e+00  3.3322752603e-18  1.6908357525e-19 -1.2513536099e-19]]
D(g) (NO)
 [[ 9.9951368521e-01  8.9467819481e-03 -3.4577100597e-17 -1.7208377205e-17  1.0209889103e-17  2.9167396447e-02 -6.2575314274e-03  1.5666692250e-03]
 [-8.9467819481e-03  9.9951368521e-01  2.9662938842e-02  3.3531432556e-03 -1.1021148252e-03 -9.8388774629e-18  6.6687351226e-17  5.9878956993e-17]
 [-1.8650384358e-17 -2.9662938842e-02  9.9951368521e-01  4.1309984391e-18 -3.4559823302e-17  8.1791726880e-03 -3.3333219635e-03  3.8069978767e-03]
 [ 2.9282763188e-18 -3.3531432556e-03  5.2660630866e-18  9.9951368521e-01 -3.7902721035e-17  3.2896982143e-03  2.8546885244e-03 -3.0694920494e-02]
 [-4.1100768577e-18  1.1021148252e-03 -2.2003789857e-17 -3.2972999886e-17  9.9951368521e-01 -6.6283541736e-03 -3.0232037531e-02 -3.6424230000e-03]
 [-2.9167396447e-02 -3.7845633237e-17 -8.1791726880e-03 -3.2896982143e-03  6.6283541736e-03  9.9951368521e-01 -3.0243379271e-17 -1.0607889845e-16]
 [ 6.2575314274e-03  6.9388939039e-17  3.3333219635e-03 -2.8546885244e-03  3.0232037531e-02 -2.7755575616e-17  9.9951368521e-01 -5.5511151231e-17]
 [-1.5666692250e-03  4.8572257327e-17 -3.8069978767e-03  3.0694920494e-02  3.6424230000e-03 -9.7144514655e-17 -5.5511151231e-17  9.9951368521e-01]]
N(g) (NO)
 [[ 1.000406396  -0.0089547727]
 [ 0.0089547727  1.000406396 ]]
P(g) (NO)
 [[ 1.0000000000e+00 -6.2331477125e-19  6.6991031403e-18  8.6122615542e-18 -2.3705013369e-17 -6.9907606886e-35  4.8148248610e-35  0.0000000000e+00]
 [-9.4426120942e-19  1.0000000000e+00 -1.4192028291e-35 -2.9288940215e-36  4.9525298062e-35 -7.4831270682e-17  4.0408814334e-17  4.0253811780e-17]
 [-2.6562487563e-04 -2.9674993742e-02 -1.7794484385e-21 -2.2876309042e-21  6.2966412279e-21  2.2206174892e-18 -1.1991313125e-18 -1.1945316127e-18]
 [-3.0026635762e-05 -3.3545059597e-03 -2.0115152992e-22 -2.5859724077e-22  7.1178180215e-22  2.5102194347e-19 -1.3555160851e-19 -1.3503165151e-19]
 [ 9.8691877741e-06  1.1025627202e-03  6.6114706809e-23  8.4996026438e-23 -2.3394922813e-22 -8.2506169363e-20  4.4553252254e-20  4.4382352216e-20]
 [-2.9179249961e-02  2.6118740611e-04 -1.9547480504e-19 -2.5129933262e-19  6.9169451042e-19 -1.9544985485e-20  1.0554273400e-20  1.0513788685e-20]
 [ 6.2600744633e-03 -5.6034771740e-05  4.1936884496e-20  5.3913398627e-20 -1.4839514884e-19  4.1931531717e-21 -2.2642986875e-21 -2.2556131547e-21]
 [-1.5673059132e-03  1.4029166843e-05 -1.0499543965e-20 -1.3498048460e-20  3.7153007626e-20 -1.0498203814e-21  5.6690199821e-22  5.6472744151e-22]]
time for NO, Ng: 0.013
Pg_ortho
 [[ 6.3599843022e-01 -4.6887815743e-01 -6.9454336777e-02  8.3429233446e-02  1.4145269072e-02  1.0428339731e-02 -1.5447369605e-03 -1.8555532522e-03]
 [-4.6861635177e-01  3.4547879542e-01  5.1175343159e-02 -6.1472326268e-02  1.8819979661e-02  1.3874684224e-02 -2.0552396727e-03 -2.4687741384e-03]
 [-6.9454336777e-02  5.1203933698e-02  7.5847748483e-03 -9.1109062562e-03 -1.5447369605e-03 -1.1388289425e-03  1.6869331116e-04  2.0263606695e-04]
 [ 8.3382649393e-02 -6.1472326268e-02 -9.1058190352e-03  1.0937999515e-02 -3.3487089380e-03 -2.4687741384e-03  3.6569643461e-04  4.3927815928e-04]
 [-1.4145269072e-02  1.0428339731e-02  1.5447369605e-03 -1.8555532522e-03  6.3599843022e-01  4.6887815743e-01 -6.9454336777e-02 -8.3429233446e-02]
 [ 1.8819979661e-02 -1.3874684224e-02 -2.0552396727e-03  2.4687741384e-03  4.6861635177e-01  3.4547879542e-01 -5.1175343159e-02 -6.1472326268e-02]
 [ 1.5447369605e-03 -1.1388289425e-03 -1.6869331116e-04  2.0263606695e-04 -6.9454336777e-02 -5.1203933698e-02  7.5847748483e-03  9.1109062562e-03]
 [-3.3487089380e-03  2.4687741384e-03  3.6569643461e-04 -4.3927815928e-04 -8.3382649393e-02 -6.1472326268e-02  9.1058190352e-03  1.0937999515e-02]]
G(g) (NO)
 [[ 2.7184001455e-01 -1.4699566045e-03 -4.9780820719e-02 -7.0353197518e-04 -8.8480084285e-03  4.2736178228e-04  1.9595586716e-04  4.2069751027e-04]
 [ 1.4699566045e-03  2.7184001455e-01  3.4471208118e-04  3.7726174423e-04 -3.6995992676e-04  4.6391005238e-02 -1.9646710086e-02 -4.3351744689e-03]
 [-4.9713356491e-02  1.9157013349e-02  9.0847224379e-01 -1.2813743953e-01 -1.4909730418e-01 -2.1605551083e-03 -2.3826090271e-03 -4.9829124663e-03]
 [-6.9410473690e-04 -2.1916486160e-03 -1.2813443945e-01  8.1365311544e-01  5.9197480984e-02  9.5926444076e-04  1.4333512338e-03  2.5543571952e-03]
 [-8.8574171018e-03 -4.0441114234e-03 -1.4909240322e-01  5.9198158720e-02  7.8848833413e-01  7.1076101651e-04  1.5991849232e-03  2.6453045570e-03]
 [ 1.9532239369e-02  4.6323041248e-02  1.2429985325e-03  4.7699052211e-03 -4.1438644949e-03  9.6431999290e-01  1.3299878933e-01 -1.1551526237e-01]
 [ 4.8982235209e-05 -1.9638668623e-02 -2.7675725101e-05  1.6377311544e-03 -1.7157119388e-03  1.3299335152e-01  7.4412519607e-01 -4.5822123099e-02]
 [-2.5765378484e-03 -4.3418863304e-03 -4.8607461784e-04 -1.9933010059e-03  1.8517848291e-03 -1.1551328868e-01 -4.5822241986e-02  8.0216850440e-01]]
time for Gg: 0.022
C(NO)
[[ 1.0000000000e+00  0.0000000000e+00  3.9711327591e-17 -5.1532337907e-17 -6.4653039400e-17  0.0000000000e+00  0.0000000000e+00  0.0000000000e+00]
 [ 0.0000000000e+00  1.0000000000e+00  0.0000000000e+00  0.0000000000e+00  0.0000000000e+00 -1.7091327957e-16 -3.4694469520e-17  5.5511151231e-17]
 [ 9.0714402301e-18  0.0000000000e+00  9.7092655982e-01 -1.1702377162e-01 -2.0882301671e-01  0.0000000000e+00  0.0000000000e+00  0.0000000000e+00]
 [-4.4184282127e-18  0.0000000000e+00  2.2274341725e-01  7.6118432784e-01  6.0908438588e-01  0.0000000000e+00  0.0000000000e+00  0.0000000000e+00]
 [-1.0135190352e-17  0.0000000000e+00  8.7675455547e-02 -6.3789015976e-01  7.6512035561e-01  0.0000000000e+00  0.0000000000e+00  0.0000000000e+00]
 [ 0.0000000000e+00  3.1265269220e-18  0.0000000000e+00  0.0000000000e+00  0.0000000000e+00  9.2804512739e-01  4.6774021263e-02  3.6951919092e-01]
 [ 0.0000000000e+00  5.3777529438e-17  0.0000000000e+00  0.0000000000e+00  0.0000000000e+00 -3.4642818638e-01  4.7282134452e-01  8.1020212777e-01]
 [ 0.0000000000e+00  4.4366464765e-17  0.0000000000e+00  0.0000000000e+00  0.0000000000e+00  1.3682014913e-01  8.7991600002e-01 -4.5500338427e-01]]
detC 0.9999999999999997
detNg [ 1.0008931452  1.0237570202  1.1384898179  1.4890997302  2.4344479537  4.9029010206  9.4765926231 12.0178171203]
xg [0.9991076518 0.9767942786 0.87835656   0.6715466934 0.4107707452 0.2039608786 0.10552316   0.0832097868]
ciS 1.082317438600955
ciH -1.3794481628127881
0.9999999999999998 1.3810025172034113e-17 -0.028627924767104067j -3.3393426912553537e-17
0.5412322735553277 0.0004097790382354853 -0.0004097790382354853 0.45876772644467195
0.9999999999999999 7.746624522408929e-17 -0.1474955712713789j -6.114900252818245e-17
0.5431375661718127 0.010877471772335211 -0.010877471772335213 0.4568624338281869
1.0 1.43982048506075e-16 -0.354275160405379j -1.968911145233676e-16
0.5533482471426237 0.06275544464012851 -0.06275544464012851 0.44665175285737624
1.0 2.5847379792054426e-16 -0.6550926920615282j -2.6020852139652106e-17
0.5912660852980028 0.2145732175962101 -0.21457321759621015 0.4087339147019969
1.0000000000000002 3.93348548177741e-16 -1.0709753224361074j 3.599551212651875e-17
0.7439286661900067 0.5734940706335621 -0.573494070633562 0.2560713338099935
0.9999999999999999 7.537373503119227e-16 -1.5256843041144732j -1.6523241108679088e-16
1.4893913392772407 1.1638562979106326 -1.1638562979106322 -0.4893913392772406
1.0 1.8474805019152996e-16 -1.3653195192039869j 2.237793284010081e-16
4.196292032474471 0.9320486947597026 -0.9320486947597029 -3.1962920324744717
1.0000000000000004 1.0191500421363742e-16 -0.3437381563118384j 1.5092094240998222e-16
6.444468561538757 0.05907796005233092 -0.05907796005233094 -5.444468561538756
S2 = -0.000000
X(g)
[[ 2.0000000000e+00  0.0000000000e+00 -2.6562487563e-04 -3.0026635762e-05  9.8691877741e-06  2.9179249961e-02 -6.2600744633e-03  1.5673059132e-03]
 [-1.7347234760e-18  2.0000000000e+00  2.9674993742e-02  3.3545059597e-03 -1.1025627202e-03  2.6118740611e-04 -5.6034771740e-05  1.4029166843e-05]
 [-2.6562487563e-04 -2.9674993742e-02  0.0000000000e+00  0.0000000000e+00  0.0000000000e+00  0.0000000000e+00  0.0000000000e+00  0.0000000000e+00]
 [-3.0026635762e-05 -3.3545059597e-03  0.0000000000e+00  0.0000000000e+00  0.0000000000e+00  0.0000000000e+00  0.0000000000e+00  0.0000000000e+00]
 [ 9.8691877741e-06  1.1025627202e-03  0.0000000000e+00  0.0000000000e+00  0.0000000000e+00  0.0000000000e+00  0.0000000000e+00  0.0000000000e+00]
 [-2.9179249961e-02  2.6118740611e-04  0.0000000000e+00  0.0000000000e+00  0.0000000000e+00  0.0000000000e+00  0.0000000000e+00  0.0000000000e+00]
 [ 6.2600744633e-03 -5.6034771740e-05  0.0000000000e+00  0.0000000000e+00  0.0000000000e+00  0.0000000000e+00  0.0000000000e+00  0.0000000000e+00]
 [-1.5673059132e-03  1.4029166843e-05  0.0000000000e+00  0.0000000000e+00  0.0000000000e+00  0.0000000000e+00  0.0000000000e+00  0.0000000000e+00]]
X(g) int
[[ 2.0000000000e+00 -9.8942248848e-18 -2.5216483090e-01 -2.8505092045e-02  9.3690851066e-03  6.7875331147e-01 -1.4561876257e-01  3.6457896625e-02]
 [-8.9279473554e-17  2.0000000000e+00  6.9028505865e-01  7.8030862052e-02 -2.5647269840e-02  2.4795222186e-01 -5.3195314283e-02  1.3318265001e-02]
 [-2.5216483090e-01 -6.9028505865e-01  0.0000000000e+00  0.0000000000e+00  0.0000000000e+00  0.0000000000e+00  0.0000000000e+00  0.0000000000e+00]
 [-2.8505092045e-02 -7.8030862052e-02  0.0000000000e+00  0.0000000000e+00  0.0000000000e+00  0.0000000000e+00  0.0000000000e+00  0.0000000000e+00]
 [ 9.3690851066e-03  2.5647269840e-02  0.0000000000e+00  0.0000000000e+00  0.0000000000e+00  0.0000000000e+00  0.0000000000e+00  0.0000000000e+00]
 [-6.7875331147e-01  2.4795222186e-01  0.0000000000e+00  0.0000000000e+00  0.0000000000e+00  0.0000000000e+00  0.0000000000e+00  0.0000000000e+00]
 [ 1.4561876257e-01 -5.3195314283e-02  0.0000000000e+00  0.0000000000e+00  0.0000000000e+00  0.0000000000e+00  0.0000000000e+00  0.0000000000e+00]
 [-3.6457896625e-02  1.3318265001e-02  0.0000000000e+00  0.0000000000e+00  0.0000000000e+00  0.0000000000e+00  0.0000000000e+00  0.0000000000e+00]]
Hsp + Hph =  -1.274531956720494
Feff (mod,ortho)
[[-0.2309658426  0.3316282443  0.2236485381  0.0391741498  0.            0.            0.            0.          ]
 [ 0.3316282443  0.002965957   0.073427437   0.3309434429  0.            0.            0.            0.          ]
 [ 0.2236485381  0.073427437   1.1210017495  0.0508227414  0.            0.            0.            0.          ]
 [ 0.0391741498  0.3309434429  0.0508227414  1.1164263681  0.            0.            0.            0.          ]
 [ 0.            0.            0.            0.           -0.2309658426 -0.3316282443  0.2236485381 -0.0391741498]
 [ 0.            0.            0.            0.           -0.3316282443  0.002965957  -0.073427437   0.3309434429]
 [ 0.            0.            0.            0.            0.2236485381 -0.073427437   1.1210017495 -0.0508227414]
 [ 0.            0.            0.            0.           -0.0391741498  0.3309434429 -0.0508227414  1.1164263681]]
Alpha occ 1 vir 3; Beta occ 1 vir 3
Alpha energies:  [-0.4946834005] <- HOMO
         LUMO->  [0.1217327653 1.0988069062 1.2835719611]
Beta energies:   [-0.4946834005] <- HOMO
         LUMO->  [0.1217327653 1.0988069062 1.2835719611]
e_a, e_b
 [-0.4946834005  0.1217327653  1.0988069062  1.2835719611] 
 [-0.4946834005  0.1217327653  1.0988069062  1.2835719611]
v_a, v_b
 [[ 0.7975131405 -0.5734104092  0.0903082208  0.1643706747]
 [-0.587855548  -0.7561126378 -0.1002287986  0.2695806401]
 [-0.0869530875  0.1703958879  0.7902723379  0.5821288809]
 [ 0.1041047838  0.265441939  -0.5977192026  0.7492893472]] 
 [[ 0.7975131405  0.5734104092 -0.0903082208  0.1643706747]
 [ 0.587855548  -0.7561126378 -0.1002287986 -0.2695806401]
 [-0.0869530875 -0.1703958879 -0.7902723379  0.5821288809]
 [-0.1041047838  0.265441939  -0.5977192026 -0.7492893472]]
P_a, P_b
 [[ 0.6360272092 -0.4688225242 -0.0693462299  0.083024933 ]
 [-0.4688225242  0.3455741453  0.0511158549 -0.0611985747]
 [-0.0693462299  0.0511158549  0.0075608394 -0.0090522324]
 [ 0.083024933  -0.0611985747 -0.0090522324  0.010837806 ]] 
 [[ 0.6360272092  0.4688225242 -0.0693462299 -0.083024933 ]
 [ 0.4688225242  0.3455741453 -0.0511158549 -0.0611985747]
 [-0.0693462299 -0.0511158549  0.0075608394  0.0090522324]
 [-0.083024933  -0.0611985747  0.0090522324  0.010837806 ]]
time for xg, H, S2, Yg, Feff: 0.021
 E(SUHF) =     -1.00994335, delta E = -5.9634e-06, MaxD(dm) = 0.000387691, RMSD(dm) = 0.00104996
**** Start Cycle 5 ****
dm (ortho)
[[[ 0.6360272092 -0.4688225242 -0.0693462299  0.083024933 ]
  [-0.4688225242  0.3455741453  0.0511158549 -0.0611985747]
  [-0.0693462299  0.0511158549  0.0075608394 -0.0090522324]
  [ 0.083024933  -0.0611985747 -0.0090522324  0.010837806 ]]

 [[ 0.6360272092  0.4688225242 -0.0693462299 -0.083024933 ]
  [ 0.4688225242  0.3455741453 -0.0511158549 -0.0611985747]
  [-0.0693462299 -0.0511158549  0.0075608394  0.0090522324]
  [-0.083024933  -0.0611985747  0.0090522324  0.010837806 ]]]
Fock (ortho)
 (array([[-0.2361850258,  0.3290886339,  0.2172306359,  0.0277568745],
       [ 0.3290886339,  0.0098315203,  0.0790120598,  0.3385995843],
       [ 0.2172306359,  0.0790120598,  1.1225699113,  0.051215746 ],
       [ 0.0277568745,  0.3385995843,  0.051215746 ,  1.1135764181]]), array([[-0.2361850258, -0.3290886339,  0.2172306359, -0.0277568745],
       [-0.3290886339,  0.0098315203, -0.0790120598,  0.3385995843],
       [ 0.2172306359, -0.0790120598,  1.1225699113, -0.051215746 ],
       [-0.0277568745,  0.3385995843, -0.051215746 ,  1.1135764181]]))
E(UHF) =    -1.261172
NO eigenvalue
[-1.0000000000e+00 -2.1971738906e-18  1.8311554422e-19  5.6589720723e-17] 
 [-1.0000000000e+00 -3.5312560984e-18  9.8711279694e-19  5.6550219963e-17]
NO vec
[[ 0.7975131405  0.            0.0639460936  0.0519421505 -0.5976501492  0.            0.            0.          ]
 [-0.587855548   0.            0.2357367617 -0.0974807954 -0.7676923397  0.            0.            0.          ]
 [-0.0869530875  0.            0.1413613669  0.9860145752 -0.015211249   0.            0.            0.          ]
 [ 0.1041047838  0.            0.9593518855 -0.1247988986  0.2307192854  0.            0.            0.          ]
 [ 0.            0.7975131405  0.            0.            0.            0.0784729669  0.0121561156  0.5980526842]
 [ 0.            0.587855548   0.            0.            0.           -0.3236760366 -0.0271937963 -0.7408914735]
 [ 0.           -0.0869530875  0.            0.            0.           -0.5624157854 -0.7960653063  0.2059312338]
 [ 0.           -0.1041047838  0.            0.            0.           -0.7568119325  0.6044772572  0.2258431722]]
dm(NO)
[[ 1.0000000000e+00  0.0000000000e+00 -1.7677824458e-17  1.5290728382e-17 -1.4548548547e-16  0.0000000000e+00  0.0000000000e+00  0.0000000000e+00]
 [ 0.0000000000e+00  1.0000000000e+00  0.0000000000e+00  0.0000000000e+00  0.0000000000e+00  7.6117628715e-17 -5.3325028052e-18  3.3652463292e-16]
 [-4.0803383557e-18  0.0000000000e+00  3.2045169515e-19 -2.7485016787e-18 -9.3440067319e-19  0.0000000000e+00  0.0000000000e+00  0.0000000000e+00]
 [-4.1406464819e-19  0.0000000000e+00 -2.0954900992e-18 -1.8851257437e-20  3.6579348692e-18  0.0000000000e+00  0.0000000000e+00  0.0000000000e+00]
 [-2.0468710586e-16  0.0000000000e+00 -2.5771984488e-18  4.2767314240e-18 -6.3476195036e-18  0.0000000000e+00  0.0000000000e+00  0.0000000000e+00]
 [ 0.0000000000e+00  1.8011855745e-17  0.0000000000e+00  0.0000000000e+00  0.0000000000e+00  8.3769679825e-19  2.9950281621e-19  2.6271910628e-18]
 [ 0.0000000000e+00  6.7029228544e-18  0.0000000000e+00  0.0000000000e+00  0.0000000000e+00 -1.5288991766e-18 -7.4901877699e-19 -2.8860691156e-20]
 [ 0.0000000000e+00  2.1863310909e-16  0.0000000000e+00  0.0000000000e+00  0.0000000000e+00  1.1969070754e-17 -1.3600130801e-18  5.2357143523e-17]]
D(g) (NO)
 [[ 9.9951368521e-01  8.9550747999e-03 -2.3327553304e-17 -1.2893516432e-17 -1.3694136258e-17  6.9530475179e-03  4.9216471588e-03  2.8629219855e-02]
 [-8.9550747999e-03  9.9951368521e-01 -2.4139579174e-03  2.7636104401e-03  2.9643464281e-02 -4.5137813896e-18 -4.0062950019e-18  2.3142078285e-16]
 [-2.1544566471e-17  2.4139579174e-03  9.9951368521e-01 -5.7567355063e-17 -1.1753573837e-16 -2.7342602909e-02  1.4398547587e-02  3.4102456596e-03]
 [-9.9151816855e-18 -2.7636104401e-03 -5.9955666326e-17  9.9951368521e-01 -1.1670546598e-16 -1.3236421986e-02 -2.6726755668e-02  8.6737071983e-03]
 [-5.4149067327e-17 -2.9643464281e-02 -1.1062768067e-16 -1.1009084155e-16  9.9951368521e-01  1.1078827196e-03  5.1510021210e-03  8.1177505007e-03]
 [-6.9530475179e-03 -6.1539739931e-18  2.7342602909e-02  1.3236421986e-02 -1.1078827196e-03  9.9951368521e-01 -2.7776106926e-16  1.0117070593e-16]
 [-4.9216471588e-03  0.0000000000e+00 -1.4398547587e-02  2.6726755668e-02 -5.1510021210e-03 -3.3306690739e-16  9.9951368521e-01  5.5511151231e-17]
 [-2.8629219855e-02  2.2204460493e-16 -3.4102456596e-03 -8.6737071983e-03 -8.1177505007e-03  6.9388939039e-17  5.5511151231e-17  9.9951368521e-01]]
N(g) (NO)
 [[ 1.0004062474 -0.0089630716]
 [ 0.0089630716  1.0004062474]]
P(g) (NO)
 [[ 1.0000000000e+00 -3.2908676625e-18 -1.7677824458e-17  1.5290728382e-17 -1.4548548547e-16 -3.3132448562e-34  2.4074124305e-35 -1.1555579666e-33]
 [ 1.0100390808e-17  1.0000000000e+00 -1.7389723994e-34  1.5124408400e-34 -1.5109102110e-33  7.6117628715e-17 -5.3325028052e-18  3.3652463292e-16]
 [ 2.1636477773e-05  2.4149385815e-03 -3.8248585597e-22  3.3083750478e-22 -3.1477934727e-21  1.8381939831e-19 -1.2877666760e-20  8.1268631966e-19]
 [-2.4770438387e-05 -2.7647331496e-03  4.3788746155e-22 -3.7875804529e-22  3.6037392540e-21 -2.1044493138e-19  1.4742947276e-20 -9.3040080830e-19]
 [-2.6569649430e-04 -2.9655506861e-02  4.6969359854e-21 -4.0626929265e-21  3.8654983461e-20 -2.2573068606e-18  1.5813807353e-19 -9.9798085604e-18]
 [-6.9558721752e-03  6.2320663087e-05  1.2296468727e-19 -1.0636035209e-19  1.0119784403e-18  4.7437010941e-21 -3.3232511074e-22  2.0972438269e-20]
 [-4.9236465650e-03  4.4113076119e-05  8.7039359670e-20 -7.5286142277e-20  7.1631911079e-19  3.3577827495e-21 -2.3523310215e-22  1.4845136748e-20]
 [-2.8640850401e-02  2.5660574884e-04  5.0630792572e-19 -4.3793946412e-19  4.1668280248e-18  1.9532221117e-20 -1.3683508756e-21  8.6354155436e-20]]
time for NO, Ng: 0.013
Pg_ortho
 [[ 6.3615392647e-01 -4.6891592890e-01 -6.9360045921e-02  8.3041474304e-02  1.4143447188e-02  1.0425287655e-02 -1.5420641226e-03 -1.8462398130e-03]
 [-4.6865385954e-01  3.4544982077e-01  5.1097465355e-02 -6.1176557771e-02  1.8825380329e-02  1.3876391132e-02 -2.0525366422e-03 -2.4574042096e-03]
 [-6.9360045921e-02  5.1126038854e-02  7.5623457940e-03 -9.0540358731e-03 -1.5420641226e-03 -1.1366721172e-03  1.6813169565e-04  2.0129605883e-04]
 [ 8.2995063796e-02 -6.1176557771e-02 -9.0489757220e-03  1.0833906969e-02 -3.3338328697e-03 -2.4574042096e-03  3.6348875848e-04  4.3518775105e-04]
 [-1.4143447188e-02  1.0425287655e-02  1.5420641226e-03 -1.8462398130e-03  6.3615392647e-01  4.6891592890e-01 -6.9360045921e-02 -8.3041474304e-02]
 [ 1.8825380329e-02 -1.3876391132e-02 -2.0525366422e-03  2.4574042096e-03  4.6865385954e-01  3.4544982077e-01 -5.1097465355e-02 -6.1176557771e-02]
 [ 1.5420641226e-03 -1.1366721172e-03 -1.6813169565e-04  2.0129605883e-04 -6.9360045921e-02 -5.1126038854e-02  7.5623457940e-03  9.0540358731e-03]
 [-3.3338328697e-03  2.4574042096e-03  3.6348875848e-04 -4.3518775105e-04 -8.2995063796e-02 -6.1176557771e-02  9.0489757220e-03  1.0833906969e-02]]
G(g) (NO)
 [[ 2.7189070805e-01 -1.4703269324e-03 -5.6078566029e-03  2.1378033064e-03 -5.0232596260e-02  5.5892919100e-04  1.4239931302e-04  2.5642393166e-04]
 [ 1.4703269324e-03  2.7189070805e-01 -3.1574529149e-04  4.3068052012e-04  3.3652910441e-04  1.0900622818e-04  1.0132733122e-02  4.9564582342e-02]
 [-5.6198128408e-03 -5.6247400878e-03  8.3321427209e-01  7.0441665070e-02 -1.7337810508e-01  3.9413614924e-03  9.0230531982e-04 -3.2598973279e-04]
 [ 2.1471554521e-03 -1.8855395376e-03  7.0440990141e-02  7.9630515831e-01 -9.6878351893e-02  2.5171458722e-03  6.2841170845e-04  2.5203355993e-05]
 [-5.0165451895e-02  1.8795685135e-02 -1.7338350737e-01 -9.6880372906e-02  8.8140807505e-01 -5.3717434148e-03 -1.6318013930e-03 -3.0751869138e-04]
 [ 4.9277249810e-03  8.6442468602e-05 -9.9765215078e-04  1.5334402993e-03  4.7245508814e-05  7.6117703687e-01 -3.2387076376e-02  8.0685509992e-02]
 [-2.2732749753e-03  1.0123831228e-02  2.0988215020e-03 -3.0992127746e-03 -2.8796753569e-04 -3.2385438343e-02  8.2599767063e-01 -1.7880578970e-01]
 [ 1.8947835958e-02  4.9500158643e-02 -3.0709042382e-03  5.1417105700e-03  1.2204781572e-03  8.0687863944e-02 -1.7881083951e-01  9.2375279795e-01]]
time for Gg: 0.022
C(NO)
[[ 1.0000000000e+00  0.0000000000e+00  2.1156466842e-16 -5.6416933585e-17  9.6334897443e-18  0.0000000000e+00  0.0000000000e+00  0.0000000000e+00]
 [ 0.0000000000e+00  1.0000000000e+00  0.0000000000e+00  0.0000000000e+00  0.0000000000e+00  3.1228811622e-17 -2.0816681712e-17 -1.2490009027e-16]
 [ 1.0077751158e-17  0.0000000000e+00  6.3828719952e-02 -4.7956182062e-01  8.7518361200e-01  0.0000000000e+00  0.0000000000e+00  0.0000000000e+00]
 [ 1.4129405746e-18  0.0000000000e+00  1.7880825893e-01  8.6827592787e-01  4.6273590700e-01  0.0000000000e+00  0.0000000000e+00  0.0000000000e+00]
 [-2.3222165927e-16  0.0000000000e+00  9.8181133679e-01 -1.2695421729e-01 -1.4117055524e-01  0.0000000000e+00  0.0000000000e+00  0.0000000000e+00]
 [ 0.0000000000e+00  4.8362053099e-17  0.0000000000e+00  0.0000000000e+00  0.0000000000e+00  1.8467646813e-01  9.2217756869e-01  3.3982809468e-01]
 [ 0.0000000000e+00 -5.3325028052e-18  0.0000000000e+00  0.0000000000e+00  0.0000000000e+00  3.2363188622e-01  2.6942853085e-01 -9.0701194534e-01]
 [ 0.0000000000e+00  1.9774675485e-16  0.0000000000e+00  0.0000000000e+00  0.0000000000e+00  9.2798545481e-01 -2.7748296988e-01  2.4868895649e-01]]
detC 1.0
detNg [ 1.0008929964  1.023752974   1.1384635875  1.4889785718  2.4338671233  4.8997195611  9.4632472983 11.9958287287]
xg [0.9991078003 0.9767981392 0.8783767974 0.6716013373 0.4108687736 0.2040933134 0.1056719716 0.0833623106]
ciS 1.0824701108577708
ciH -1.3796440702917558
0.9999999999999999 2.3052848692473038e-17 -0.028623157766970653j 1.5525775109992423e-16
0.5413087338269833 0.0004096425802764462 -0.0004096425802764462 0.45869126617301653
1.0 1.6295558652457132e-16 -0.1474704499891227j 3.8163916471489756e-17
0.543217230798684 0.010873766809997167 -0.010873766809997168 0.4567827692013161
1.0 3.5279938692678314e-16 -0.3542080596368132j 1.5048726154098802e-16
0.5534447281289332 0.0627316747558381 -0.0627316747558381 0.4465552718710669
[...]
 [ 0.1036852097  0.2655629786 -0.5980979995  0.7490023129]] 
 [[ 0.7975617064  0.5732885077 -0.0900046244  0.1647263761]
 [ 0.5878775232 -0.7561293526 -0.100110005  -0.2695299736]
 [-0.0868603443 -0.1705432304 -0.7900354027  0.5824211102]
 [-0.1036852097  0.2655629786 -0.5980979995 -0.7490023129]]
P_a, P_b
 [[ 0.6361046756 -0.4688686006 -0.0692764845  0.0826953528]
 [-0.4688686006  0.3455999823  0.0510632441 -0.0609542043]
 [-0.0692764845  0.0510632441  0.0075447194 -0.009006133 ]
 [ 0.0826953528 -0.0609542043 -0.009006133   0.0107506227]] 
 [[ 0.6361046756  0.4688686006 -0.0692764845 -0.0826953528]
 [ 0.4688686006  0.3455999823 -0.0510632441 -0.0609542043]
 [-0.0692764845 -0.0510632441  0.0075447194  0.009006133 ]
 [-0.0826953528 -0.0609542043  0.009006133   0.0107506227]]
time for xg, H, S2, Yg, Feff: 0.022
 E(SUHF) =     -1.00994490, delta E = -1.06723e-10, MaxD(dm) = 3.09339e-06, RMSD(dm) = 8.15501e-06
**** Start Cycle 12 ****
dm (ortho)
[[[ 0.6361046756 -0.4688686006 -0.0692764845  0.0826953528]
  [-0.4688686006  0.3455999823  0.0510632441 -0.0609542043]
  [-0.0692764845  0.0510632441  0.0075447194 -0.009006133 ]
  [ 0.0826953528 -0.0609542043 -0.009006133   0.0107506227]]

 [[ 0.6361046756  0.4688686006 -0.0692764845 -0.0826953528]
  [ 0.4688686006  0.3455999823 -0.0510632441 -0.0609542043]
  [-0.0692764845 -0.0510632441  0.0075447194  0.009006133 ]
  [-0.0826953528 -0.0609542043  0.009006133   0.0107506227]]]
Fock (ortho)
 (array([[-0.2361262901,  0.3291863029,  0.2172238552,  0.0279229131],
       [ 0.3291863029,  0.0098994479,  0.079133596 ,  0.3385584154],
       [ 0.2172238552,  0.079133596 ,  1.1226559303,  0.0512506056],
       [ 0.0279229131,  0.3385584154,  0.0512506056,  1.1136640109]]), array([[-0.2361262901, -0.3291863029,  0.2172238552, -0.0279229131],
       [-0.3291863029,  0.0098994479, -0.079133596 ,  0.3385584154],
       [ 0.2172238552, -0.079133596 ,  1.1226559303, -0.0512506056],
       [-0.0279229131,  0.3385584154, -0.0512506056,  1.1136640109]]))
E(UHF) =    -1.261151
NO eigenvalue
[-1.0000000000e+00 -2.2644141866e-16 -4.9321301403e-19  1.1024738513e-18] 
 [-1.0000000000e+00 -5.6094316288e-17 -4.6999614034e-18  9.6532971668e-19]
NO vec
[[ 0.7975617064  0.            0.5973744952  0.0327349779  0.0772493246  0.            0.            0.          ]
 [-0.5878775232  0.            0.8007571444 -0.0254195261 -0.1119904508  0.            0.            0.          ]
 [-0.0868603443  0.            0.0173944527  0.9246116973  0.3704671683  0.            0.            0.          ]
 [ 0.1036852097  0.           -0.0403626213  0.3786495453 -0.9188279262  0.            0.            0.          ]
 [ 0.            0.7975617064  0.            0.            0.            0.5999081978  0.0537052825  0.0334846428]
 [ 0.            0.5878775232  0.            0.            0.           -0.7917047967  0.1532501453 -0.064171065 ]
 [ 0.           -0.0868603443  0.            0.            0.            0.1105151232  0.5631547777 -0.8143085315]
 [ 0.           -0.1036852097  0.            0.            0.            0.0331674044  0.81023875    0.57590144  ]]
dm(NO)
[[ 1.0000000000e+00  0.0000000000e+00 -1.6047391198e-16  1.4018874551e-17 -1.3350117179e-17  0.0000000000e+00  0.0000000000e+00  0.0000000000e+00]
 [ 0.0000000000e+00  1.0000000000e+00  0.0000000000e+00  0.0000000000e+00  0.0000000000e+00  9.1283261044e-17 -3.4678983086e-17  1.2824377265e-17]
 [-1.3387300073e-16  0.0000000000e+00  6.4465080358e-17 -3.6790521702e-18 -2.3486522740e-18  0.0000000000e+00  0.0000000000e+00  0.0000000000e+00]
 [ 1.4752024767e-17  0.0000000000e+00 -3.3169199914e-18  7.4669737358e-20 -2.6954059238e-19  0.0000000000e+00  0.0000000000e+00  0.0000000000e+00]
 [ 8.9639739131e-18  0.0000000000e+00  3.1453195107e-18 -5.4784167369e-20 -2.0552871681e-18  0.0000000000e+00  0.0000000000e+00  0.0000000000e+00]
 [ 0.0000000000e+00  1.7613552278e-16  0.0000000000e+00  0.0000000000e+00  0.0000000000e+00  2.5472782434e-17  6.1742533656e-18 -2.5397133946e-18]
 [ 0.0000000000e+00 -4.8898151346e-17  0.0000000000e+00  0.0000000000e+00  0.0000000000e+00  3.2100410549e-18  1.0493023637e-18  1.5839944130e-18]
 [ 0.0000000000e+00  2.7738297337e-17  0.0000000000e+00  0.0000000000e+00  0.0000000000e+00 -1.0050419394e-18  1.0115342763e-18 -2.3956276469e-18]]
D(g) (NO)
 [[ 9.9951368521e-01  8.9589007532e-03 -4.3350945058e-16  8.4922274980e-18 -1.0186667410e-17  2.9241402957e-02 -3.7934641240e-04  6.0768101380e-03]
 [-8.9589007532e-03  9.9951368521e-01 -2.9619824361e-02  3.3805056369e-03 -1.8355812428e-03  9.5901297608e-17 -2.1206424431e-17  2.3917350126e-17]
 [-2.9147748505e-16  2.9619824361e-02  9.9951368521e-01  1.8206758467e-17 -2.5110584441e-17 -8.5756901491e-03  4.1127771790e-03 -2.1451531200e-03]
 [ 1.8736500737e-17 -3.3805056369e-03  1.5971790095e-17  9.9951368521e-01 -2.5894112109e-16  4.8179674558e-03  2.5737334656e-02 -1.6593433966e-02]
 [-1.6795119680e-17  1.8355812428e-03 -2.4446496168e-17 -2.5378332284e-16  9.9951368521e-01  4.5363152361e-03 -1.7115017958e-02 -2.5603158411e-02]
 [-2.9241402957e-02  1.9611684258e-16  8.5756901491e-03 -4.8179674558e-03 -4.5363152361e-03  9.9951368521e-01  5.3700612746e-17 -4.0932250603e-17]
 [ 3.7934641240e-04 -1.3877787808e-17 -4.1127771790e-03 -2.5737334656e-02  1.7115017958e-02  2.7755575616e-17  9.9951368521e-01 -1.6653345369e-16]
 [-6.0768101380e-03  2.7755575616e-17  2.1451531200e-03  1.6593433966e-02  2.5603158411e-02 -2.7755575616e-17 -1.6653345369e-16  9.9951368521e-01]]
N(g) (NO)
 [[ 1.0004061787 -0.0089669004]
 [ 0.0089669004  1.0004061787]]
P(g) (NO)
 [[ 1.0000000000e+00  4.4780386844e-18 -1.6047391198e-16  1.4018874551e-17 -1.3350117179e-17  5.5739227606e-34 -1.9259299444e-34  7.2222372915e-35]
 [ 5.2091799409e-18  1.0000000000e+00 -7.5555415979e-34  8.1696301876e-35 -6.8274600075e-35  9.1283261044e-17 -3.4678983086e-17  1.2824377265e-17]
 [ 2.6559801505e-04  2.9631855304e-02 -4.2621552490e-20  3.7233852539e-21 -3.5457646233e-21  2.7048923829e-18 -1.0276026089e-18  3.8001009147e-19]
 [-3.0312657363e-05 -3.3818787265e-03  4.8643907097e-21 -4.2494934088e-22  4.0467752780e-22 -3.0870891861e-19  1.1728011515e-19 -4.3370488651e-20]
 [ 1.6459474189e-05  1.8363268169e-03 -2.6413162123e-21  2.3074330383e-22 -2.1973590912e-22  1.6762590019e-19 -6.3681946625e-20  2.3549747881e-20]
 [-2.9253280193e-02  2.6220474800e-04  4.6943883110e-18 -4.1009806524e-19  3.9053471844e-19  2.3934904459e-20 -9.0929940212e-21  3.3626126090e-21]
 [ 3.7950049485e-04 -3.4015614988e-06 -6.0899929008e-20  5.3201698293e-21 -5.0663760756e-21 -3.1050562626e-22  1.1796269369e-22 -4.3622907950e-23]
 [-6.0792784091e-03  5.4490151285e-05  9.7556558836e-19 -8.5224641379e-20  8.1159079124e-20  4.9740387041e-21 -1.8896630348e-21  6.9880225728e-22]]
time for NO, Ng: 0.013
Pg_ortho
 [[ 6.3623144058e-01 -4.6896203824e-01 -6.9290290093e-02  8.2711832561e-02  1.4142734155e-02  1.0424516949e-02 -1.5402479189e-03 -1.8385942360e-03]
 [-4.6869983116e-01  3.4547558345e-01  5.1044863859e-02 -6.0932263770e-02  1.8829023813e-02  1.3878750439e-02 -2.0506193799e-03 -2.4478247467e-03]
 [-6.9290290093e-02  5.1073420142e-02  7.5462229543e-03 -9.0079277866e-03 -1.5402479189e-03 -1.1353066783e-03  1.6774434319e-04  2.0023645461e-04]
 [ 8.2665586540e-02 -6.0932263770e-02 -9.0028912542e-03  1.0746753015e-02 -3.3209149950e-03 -2.4478247467e-03  3.6167210342e-04  4.3172805916e-04]
 [-1.4142734155e-02  1.0424516949e-02  1.5402479189e-03 -1.8385942360e-03  6.3623144058e-01  4.6896203824e-01 -6.9290290093e-02 -8.2711832561e-02]
 [ 1.8829023813e-02 -1.3878750439e-02 -2.0506193799e-03  2.4478247467e-03  4.6869983116e-01  3.4547558345e-01 -5.1044863859e-02 -6.0932263770e-02]
 [ 1.5402479189e-03 -1.1353066783e-03 -1.6774434319e-04  2.0023645461e-04 -6.9290290093e-02 -5.1073420142e-02  7.5462229543e-03  9.0079277866e-03]
 [-3.3209149950e-03  2.4478247467e-03  3.6167210342e-04 -4.3172805916e-04 -8.2665586540e-02 -6.0932263770e-02  9.0028912542e-03  1.0746753015e-02]]
G(g) (NO)
 [[ 2.7192295173e-01 -1.4700361256e-03  4.8162976877e-02 -4.6253267818e-03  1.4773172668e-02  3.6562189066e-04 -4.8327387596e-04  1.7589786847e-04]
 [ 1.4700361256e-03  2.7192295173e-01 -4.0142763371e-04  2.4440328663e-04  4.2106526171e-04  4.7968335738e-02  1.1061312128e-02  1.1661850654e-02]
 [ 4.8094534945e-02 -1.9476872402e-02  9.3925975224e-01  1.7197453911e-01 -7.5270158006e-02  1.4533927969e-03 -5.6960826871e-03  2.0372676577e-03]
 [-4.6181544043e-03 -3.0263570084e-03  1.7197000787e-01  8.4092927661e-01 -1.4126050127e-02  6.1533064991e-04 -3.6367617702e-03  1.0339447866e-03]
 [ 1.4776081047e-02  5.1565941633e-04 -7.5266500941e-02 -1.4126188384e-02  7.3100643292e-01  9.3527370153e-05  1.1928687704e-03 -2.0853587146e-04]
 [ 1.9645820700e-02  4.7900919302e-02 -1.9549789520e-03  3.2287111273e-03  5.2929017987e-03  9.6439153072e-01 -4.5207628630e-02 -1.7470195793e-01]
 [-7.7552442114e-04  1.1069015270e-02 -1.1889907081e-04 -2.2615738031e-04 -6.0972105367e-04 -4.5205096768e-02  7.3416927572e-01 -5.5857440028e-03]
 [-1.4878141200e-03  1.1650023335e-02  6.9016341825e-04 -1.5542424348e-03 -3.0441224835e-03 -1.7469674636e-01 -5.5863394767e-03  8.1263465533e-01]]
time for Gg: 0.022
C(NO)
[[ 1.0000000000e+00  0.0000000000e+00  4.8778144252e-17 -7.2491199120e-20  7.7424312980e-17  0.0000000000e+00  0.0000000000e+00  0.0000000000e+00]
 [ 0.0000000000e+00  1.0000000000e+00  0.0000000000e+00  0.0000000000e+00  0.0000000000e+00  1.4063289008e-16 -8.3266726847e-17  2.9143354396e-16]
 [-1.5991376809e-16  0.0000000000e+00 -9.5569622587e-01  1.1485701839e-02  2.9413058752e-01  0.0000000000e+00  0.0000000000e+00  0.0000000000e+00]
 [ 1.5702950412e-17  0.0000000000e+00  2.5869543005e-01  5.0949748733e-01  8.2066374653e-01  0.0000000000e+00  0.0000000000e+00  0.0000000000e+00]
 [ 1.3278969621e-17  0.0000000000e+00 -1.4043289618e-01  8.6039548410e-01 -4.8989612431e-01  0.0000000000e+00  0.0000000000e+00  0.0000000000e+00]
 [ 0.0000000000e+00  1.9834921702e-16  0.0000000000e+00  0.0000000000e+00  0.0000000000e+00  9.3251213942e-01 -8.1885158890e-02  3.5173275451e-01]
 [ 0.0000000000e+00 -4.3289838170e-17  0.0000000000e+00  0.0000000000e+00  0.0000000000e+00  3.4038868868e-02 -9.4968998364e-01 -3.1133629790e-01]
 [ 0.0000000000e+00  2.4595476914e-17  0.0000000000e+00  0.0000000000e+00  0.0000000000e+00  3.5953089609e-01  3.0229746234e-01 -8.8281016024e-01]]
detC 1.0
detNg [ 1.0008929278  1.0237511059  1.1384514782  1.4889226435  2.4335990661  4.8982521761  9.4570988642 11.9857045198]
xg [0.9991078688 0.9767999216 0.8783861404 0.6716265646 0.4109140301 0.2041544543 0.1057406732 0.0834327259]
ciS 1.0825405947347089
ciH -1.3797342556408136
1.0 1.3877787807814457e-17 -0.028620956996609347j 9.497611030973019e-17
0.5413440330630683 0.00040957958970088066 -0.00040957958970088077 0.45865596693693167
1.0 9.627715291671279e-17 -0.14745885236703393j 1.470178145890344e-16
0.5432540089725798 0.010872056570701356 -0.010872056570701354 0.45674599102742014
1.0 1.4159680372660688e-16 -0.354177082410553j 9.367506770274758e-17
0.553489267282125 0.06272070285242581 -0.06272070285242581 0.44651073271787534
0.9999999999999998 4.482091781055075e-16 -0.6548555048666255j 1.0408340855860843e-17
0.5914917358739264 0.2144178661270615 -0.21441786612706148 0.4085082641260732
0.9999999999999999 3.712308238590367e-16 -1.0703415332227952j -1.6436504934880247e-16
0.7444193913212813 0.5728154988708622 -0.572815498870862 0.25558060867871846
0.9999999999999999 2.92300905702092e-16 -1.5238670227712754j 5.898059818321144e-17
1.490193060372293 1.1610853515448951 -1.1610853515448951 -0.49019306037229343
1.0 5.559788740505667e-16 -1.3621796715403238j -4.2847669856627135e-16
4.191079985658398 0.9277667287788521 -0.927766728778852 -3.191079985658398
0.9999999999999996 1.964574336543734e-16 -0.3427362948761656j -6.938893903907228e-16
6.4287717656779835 0.05873408391272099 -0.058734083912720975 -5.428771765677984
S2 = 0.000000
X(g)
[[ 2.0000000000e+00 -1.7347234760e-18  2.6559801505e-04 -3.0312657363e-05  1.6459474189e-05  2.9253280193e-02 -3.7950049485e-04  6.0792784091e-03]
 [ 1.7347234760e-18  2.0000000000e+00 -2.9631855304e-02  3.3818787265e-03 -1.8363268169e-03  2.6220474800e-04 -3.4015614988e-06  5.4490151285e-05]
 [ 2.6559801505e-04  2.9631855304e-02  0.0000000000e+00  0.0000000000e+00  0.0000000000e+00  0.0000000000e+00  0.0000000000e+00  0.0000000000e+00]
 [-3.0312657363e-05 -3.3818787265e-03  0.0000000000e+00  0.0000000000e+00  0.0000000000e+00  0.0000000000e+00  0.0000000000e+00  0.0000000000e+00]
 [ 1.6459474189e-05  1.8363268169e-03  0.0000000000e+00  0.0000000000e+00  0.0000000000e+00  0.0000000000e+00  0.0000000000e+00  0.0000000000e+00]
 [-2.9253280193e-02  2.6220474800e-04  0.0000000000e+00  0.0000000000e+00  0.0000000000e+00  0.0000000000e+00  0.0000000000e+00  0.0000000000e+00]
 [ 3.7950049485e-04 -3.4015614988e-06  0.0000000000e+00  0.0000000000e+00  0.0000000000e+00  0.0000000000e+00  0.0000000000e+00  0.0000000000e+00]
 [-6.0792784091e-03  5.4490151285e-05  0.0000000000e+00  0.0000000000e+00  0.0000000000e+00  0.0000000000e+00  0.0000000000e+00  0.0000000000e+00]]
X(g) int
[[ 2.0000000000e+00 -4.0880874870e-17  2.5208740989e-01 -2.8770694240e-02  1.5622203411e-02  6.8033524001e-01 -8.8259353665e-03  1.4138405362e-01]
 [-1.3347784689e-17  2.0000000000e+00 -6.8913965398e-01  7.8651394300e-02 -4.2706931923e-02  2.4886675367e-01 -3.2285287511e-03  5.1718312352e-02]
 [ 2.5208740989e-01  6.8913965398e-01  0.0000000000e+00  0.0000000000e+00  0.0000000000e+00  0.0000000000e+00  0.0000000000e+00  0.0000000000e+00]
 [-2.8770694240e-02 -7.8651394300e-02  0.0000000000e+00  0.0000000000e+00  0.0000000000e+00  0.0000000000e+00  0.0000000000e+00  0.0000000000e+00]
 [ 1.5622203411e-02  4.2706931923e-02  0.0000000000e+00  0.0000000000e+00  0.0000000000e+00  0.0000000000e+00  0.0000000000e+00  0.0000000000e+00]
 [-6.8033524001e-01  2.4886675367e-01  0.0000000000e+00  0.0000000000e+00  0.0000000000e+00  0.0000000000e+00  0.0000000000e+00  0.0000000000e+00]
 [ 8.8259353665e-03 -3.2285287511e-03  0.0000000000e+00  0.0000000000e+00  0.0000000000e+00  0.0000000000e+00  0.0000000000e+00  0.0000000000e+00]
 [-1.4138405362e-01  5.1718312352e-02  0.0000000000e+00  0.0000000000e+00  0.0000000000e+00  0.0000000000e+00  0.0000000000e+00  0.0000000000e+00]]
Hsp + Hph =  -1.2745335023477213
Feff (mod,ortho)
[[-0.2308163172  0.3318709593  0.2236619129  0.0397983682  0.            0.            0.            0.          ]
 [ 0.3318709593  0.0030568182  0.0736695092  0.3306629314  0.            0.            0.            0.          ]
 [ 0.2236619129  0.0736695092  1.1211906459  0.0508694262  0.            0.            0.            0.          ]
 [ 0.0397983682  0.3306629314  0.0508694262  1.1166619521  0.            0.            0.            0.          ]
 [ 0.            0.            0.            0.           -0.2308163172 -0.3318709593  0.2236619129 -0.0397983682]
 [ 0.            0.            0.            0.           -0.3318709593  0.0030568182 -0.0736695092  0.3306629314]
 [ 0.            0.            0.            0.            0.2236619129 -0.0736695092  1.1211906459 -0.0508694262]
 [ 0.            0.            0.            0.           -0.0397983682  0.3306629314 -0.0508694262  1.1166619521]]
F(mod,ortho) updated with CDIIS
[[[-0.2308163171  0.3318709593  0.223661913   0.0397983681]
  [ 0.3318709593  0.0030568181  0.0736695092  0.3306629315]
  [ 0.223661913   0.0736695092  1.1211906459  0.0508694262]
  [ 0.0397983681  0.3306629315  0.0508694262  1.1166619521]]

 [[-0.2308163171 -0.3318709593  0.223661913  -0.0397983681]
  [-0.3318709593  0.0030568181 -0.0736695092  0.3306629315]
  [ 0.223661913  -0.0736695092  1.1211906459 -0.0508694262]
  [-0.0397983681  0.3306629315 -0.0508694262  1.1166619521]]]
Alpha occ 1 vir 3; Beta occ 1 vir 3
Alpha energies:  [-0.4946207656] <- HOMO
         LUMO->  [0.1219281958 1.0988253817 1.283960287 ]
Beta energies:   [-0.4946207656] <- HOMO
         LUMO->  [0.1219281958 1.0988253817 1.283960287 ]
e_a, e_b
 [-0.4946207656  0.1219281958  1.0988253817  1.283960287 ] 
 [-0.4946207656  0.1219281958  1.0988253817  1.283960287 ]
v_a, v_b
 [[ 0.7975617066 -0.5732885075  0.0900046244  0.1647263759]
 [-0.5878775229 -0.7561293528 -0.100110005   0.2695299736]
 [-0.0868603443  0.1705432304  0.7900354027  0.5824211102]
 [ 0.1036852097  0.2655629786 -0.5980979994  0.749002313 ]] 
 [[ 0.7975617066  0.5732885075 -0.0900046244  0.1647263759]
 [ 0.5878775229 -0.7561293528 -0.100110005  -0.2695299736]
 [-0.0868603443 -0.1705432304 -0.7900354027  0.5824211102]
 [-0.1036852097  0.2655629786 -0.5980979994 -0.749002313 ]]
P_a, P_b
 [[ 0.6361046759 -0.4688686005 -0.0692764845  0.0826953528]
 [-0.4688686005  0.345599982   0.0510632441 -0.0609542043]
 [-0.0692764845  0.0510632441  0.0075447194 -0.009006133 ]
 [ 0.0826953528 -0.0609542043 -0.009006133   0.0107506227]] 
 [[ 0.6361046759  0.4688686005 -0.0692764845 -0.0826953528]
 [ 0.4688686005  0.345599982  -0.0510632441 -0.0609542043]
 [-0.0692764845 -0.0510632441  0.0075447194  0.009006133 ]
 [-0.0826953528 -0.0609542043  0.009006133   0.0107506227]]
time for xg, H, S2, Yg, Feff: 0.022

***************
SUHF converged at cycle 12
Final E(SUHF) =     -1.00994490, delta E = -2.85283e-11, MaxD(dm) = 3.05251e-10, RMSD(dm) = 6.50607e-10
time for cyc: 0.672
dm_reg
 [[[1.3933181765e-01 2.6226384662e-01 1.9909043425e-03 2.0708293088e-02]
  [2.6226384662e-01 4.9365842208e-01 3.7474730462e-03 3.8979155615e-02]
  [1.9909043425e-03 3.7474730462e-03 2.8447917840e-05 2.9589961095e-04]
  [2.0708293088e-02 3.8979155615e-02 2.9589961095e-04 3.0777851740e-03]]

 [[2.8447917840e-05 2.9589961095e-04 1.9909043425e-03 3.7474730462e-03]
  [2.9589961095e-04 3.0777851740e-03 2.0708293088e-02 3.8979155615e-02]
  [1.9909043425e-03 2.0708293088e-02 1.3933181765e-01 2.6226384662e-01]
  [3.7474730462e-03 3.8979155615e-02 2.6226384662e-01 4.9365842208e-01]]]
mo_reg
 [[-0.3732717745 -0.0827862706 -1.2513972121  0.1959491265]
 [-0.7026082992 -0.2059771904  1.119703327  -0.3413827732]
 [-0.005333659   0.1698002773 -0.1610010621 -1.3022267479]
 [-0.0554777899  0.9047664758 -0.0668003056  1.0393364815]] 
 [[-0.005333659  -0.1698002773  0.1610010621 -1.3022267479]
 [-0.0554777899 -0.9047664758  0.0668003056  1.0393364815]
 [-0.3732717745  0.0827862706  1.2513972121  0.1959491265]
 [-0.7026082992  0.2059771904 -1.119703327  -0.3413827732]]
******* suhf density *****
Clebsch-Gordan coeff: < 0 0 0 0 | 0 0 > = 1
Clebsch-Gordan coeff: < 0 0 1 0 | 0 0 > = 0
xggint 1.0
SUHF DM alpha
 [[0.0648955961 0.1245153575 0.0203317291 0.046136313 ]
 [0.1245153575 0.2397755512 0.046136313  0.1019222852]
 [0.0203317291 0.046136313  0.0648955961 0.1245153575]
 [0.046136313  0.1019222852 0.1245153575 0.2397755512]] 
SUHF DM beta
 [[0.0648955961 0.1245153575 0.0203317291 0.046136313 ]
 [0.1245153575 0.2397755512 0.046136313  0.1019222852]
 [0.0203317291 0.046136313  0.0648955961 0.1245153575]
 [0.046136313  0.1019222852 0.1245153575 0.2397755512]]
SUHF natural orbitals alpha
 [[-0.2359566186  0.3081811236 -1.0434866354  0.714885262 ]
 [-0.4724586982  0.5420297568  1.0751193642 -0.4831848895]
 [-0.2359566186 -0.3081811236  0.7320449954  1.031520926 ]
 [-0.4724586982 -0.5420297568 -0.8418201711 -0.825038232 ]]
SUHF natural orbitals beta
 [[-0.2359566186  0.3081811236 -1.0434866354  0.714885262 ]
 [-0.4724586982  0.5420297568  1.0751193642 -0.4831848895]
 [-0.2359566186 -0.3081811236  0.7320449954  1.031520926 ]
 [-0.4724586982 -0.5420297568 -0.8418201711 -0.825038232 ]]
SUHF natural orbitals, total
 [[-0.2359566186  0.3081811236 -1.0434866354  0.714885262 ]
 [-0.4724586982  0.5420297568  1.0751193642 -0.4831848895]
 [-0.2359566186 -0.3081811236  0.7320449954  1.031520926 ]
 [-0.4724586982 -0.5420297568 -0.8418201711 -0.825038232 ]]
SUHF NO occ alpha:  0.765393  0.234607  ...
SUHF NO occ beta:   0.765393  0.234607  ...
SUHF NO occ total:  1.530786  0.469214  ...
core 0, active 2, external 2
time for dm: 0.012
time tot: 0.691
