#INFO: **** input file is /share/home/srwang/ExSCF/test/pt2/test.py ****
#import phf
from pyscf import lib
#import scipy
#import numpy as np
#import sys

from pyphf import util, guess, pt2

lib.num_threads(4)

xyz = '''H 0.0 0.0 0.0; H 0.0 0.0 2.0''' #sys.argv[1]
#fch = '../test_carlos/test_uhf.fchk' #sys.argv[2]
bas = '3-21g'


#mf = util.guess_from_fchk(xyz, bas, fch)
mf = guess.mix(xyz, bas)

mf2 = util.SUHF(mf)
mf2.cut_no = False
mf2.verbose = 6
mf2.diis_on = True
mf2.max_cycle = 15
mf2.kernel()

mf4 = pt2.EMP2(mf2)
mf4.kernel()#INFO: ******************** input file end ********************


System: uname_result(system='Linux', node='xn01', release='3.10.0-1127.el7.x86_64', version='#1 SMP Tue Feb 18 16:39:12 EST 2020', machine='x86_64', processor='x86_64')  Threads 4
Python 3.7.4 (default, Aug 13 2019, 20:35:49) 
[GCC 7.3.0]
numpy 1.17.2  scipy 1.4.1
Date: Tue Apr 27 17:29:14 2021
PySCF version 1.7.6a1
PySCF path  /share/home/srwang/pyscf/pyscf
GIT HEAD      ref: refs/heads/master
GIT master branch  80f71dfe77ac5f9caae26788acf76446987635bd

[CONFIG] conf_file None
[INPUT] verbose = 4
[INPUT] num. atoms = 2
[INPUT] num. electrons = 2
[INPUT] charge = 0
[INPUT] spin (= nelec alpha-beta = 2S) = 0
[INPUT] symmetry False subgroup None
[INPUT] Mole.unit = angstrom
[INPUT]  1 H      0.000000000000   0.000000000000   0.000000000000 AA    0.000000000000   0.000000000000   0.000000000000 Bohr
[INPUT]  2 H      0.000000000000   0.000000000000   2.000000000000 AA    0.000000000000   0.000000000000   3.779452249130 Bohr

nuclear repulsion = 0.26458860546
number of shells = 4
number of NR pGTOs = 6
number of NR cGTOs = 4
basis = 3-21g
ecp = {}
CPU time:         1.02


******** <class 'pyscf.scf.hf.RHF'> ********
method = RHF
initial guess = minao
damping factor = 0
level_shift factor = 0
DIIS = <class 'pyscf.scf.diis.CDIIS'>
diis_start_cycle = 1
diis_space = 8
SCF conv_tol = 1e-05
SCF conv_tol_grad = None
SCF max_cycles = 50
direct_scf = True
direct_scf_tol = 1e-13
chkfile to save SCF result = /share/home/srwang/ExSCF/test/pt2/tmpybt4ukrs
max_memory 4000 MB (current use 109 MB)
Set gradient conv threshold to 0.00316228
init E= -0.648815945420394
  HOMO = -0.244674774926751  LUMO = -0.0864459286574333
cycle= 1 E= -0.907663399996247  delta_E= -0.259  |g|= 0.019  |ddm|= 0.828
  HOMO = -0.369605169894073  LUMO = -0.0101025752244096
cycle= 2 E= -0.907801422494246  delta_E= -0.000138  |g|= 0.00293  |ddm|= 0.0218
  HOMO = -0.370705495656876  LUMO = -0.011268420043164
cycle= 3 E= -0.907804773936949  delta_E= -3.35e-06  |g|= 1.06e-06  |ddm|= 0.00397
  HOMO = -0.370702164933128  LUMO = -0.0112672782402441
Extra cycle  E= -0.907804773937381  delta_E= -4.32e-13  |g|= 1.64e-07  |ddm|= 1.22e-06
converged SCF energy = -0.907804773937381


******** <class 'pyscf.scf.uhf.UHF'> ********
method = UHF
initial guess = minao
damping factor = 0
level_shift factor = 0
DIIS = <class 'pyscf.scf.diis.CDIIS'>
diis_start_cycle = 1
diis_space = 8
SCF conv_tol = 0.001
SCF conv_tol_grad = None
SCF max_cycles = 5
direct_scf = True
direct_scf_tol = 1e-13
chkfile to save SCF result = /share/home/srwang/ExSCF/test/pt2/tmpxpakwmtz
max_memory 4000 MB (current use 120 MB)
number electrons alpha = 1  beta = 1
Set gradient conv threshold to 0.0316228
init E= -1.69135654891561
  alpha nocc = 1  HOMO = -0.24136263647573  LUMO = 0.900983838942928
  beta  nocc = 1  HOMO = -0.24136263647573  LUMO = 0.900983838942928
cycle= 1 E= -0.98558925463628  delta_E= 0.706  |g|= 0.0835  |ddm|= 1.15
  alpha nocc = 1  HOMO = -0.500699367107887  LUMO = 0.115721881429081
  beta  nocc = 1  HOMO = -0.500699367107887  LUMO = 0.115721881429081
cycle= 2 E= -0.995568238270465  delta_E= -0.00998  |g|= 0.0263  |ddm|= 0.145
  alpha nocc = 1  HOMO = -0.497083605541942  LUMO = 0.125003394565144
  beta  nocc = 1  HOMO = -0.497083605541941  LUMO = 0.125003394565144
cycle= 3 E= -0.996982488678898  delta_E= -0.00141  |g|= 0.00453  |ddm|= 0.0714
  alpha nocc = 1  HOMO = -0.492766860752049  LUMO = 0.118670910813592
  beta  nocc = 1  HOMO = -0.492766860752049  LUMO = 0.118670910813592
cycle= 4 E= -0.997011162805863  delta_E= -2.87e-05  |g|= 0.000416  |ddm|= 0.00998
  alpha nocc = 1  HOMO = -0.494276181731493  LUMO = 0.120063979310052
  beta  nocc = 1  HOMO = -0.494276181731493  LUMO = 0.120063979310052
Extra cycle  E= -0.997011395695946  delta_E= -2.33e-07  |g|= 0.000167  |ddm|= 0.000476
converged SCF energy = -0.997011395695946  <S^2> = 0.9101768  2S+1 = 2.1542301
time for guess: 0.071

******** <class 'pyphf.util.SUHF'> ********
max_cycle = 15
verbose: 6, debug
chkfile0: 13044_ges.pchk # the file store hf for guess
chkfile: 13044_su.pchk # the file store suhf info
conv_tol: 1e-07
DIIS: <class 'pyscf.scf.diis.CDIIS'>
diis_start_cyc = 10
S
[[1.         0.64589894 0.00227256 0.07465634]
 [0.64589894 1.         0.07465634 0.27025724]
 [0.00227256 0.07465634 1.         0.64589894]
 [0.07465634 0.27025724 0.64589894 1.        ]]
SVD: S^(-1/2)
[[-0.3306004   0.46012676 -0.85621932  0.83453679]
 [-0.39774539  0.36468663  0.71167752 -1.05293881]
 [-0.3306004  -0.46012676 -0.85621932 -0.83453679]
 [-0.39774539 -0.36468663  0.71167752  1.05293881]]
S^(1/2)
[[-0.61794925 -0.74345483 -0.61794925 -0.74345483]
 [ 0.66740563  0.52897143 -0.66740563 -0.52897143]
 [-0.34536213  0.28706017 -0.34536213  0.28706017]
 [ 0.23115675 -0.29165151 -0.23115675  0.29165151]]
C (ortho)
 [[-0.80186126 -0.56989488 -0.09245362 -0.15391773]
 [ 0.58081413 -0.75919745  0.1013035  -0.27570234]
 [ 0.08289219  0.16875865 -0.79185923 -0.58104075]
 [-0.11314749  0.26525378  0.59510409 -0.75012612]] 
 [[-0.80186126 -0.56989488 -0.09245362 -0.15391773]
 [-0.58081413  0.75919745 -0.1013035   0.27570234]
 [ 0.08289219  0.16875865 -0.79185923 -0.58104075]
 [ 0.11314749 -0.26525378 -0.59510409  0.75012612]]
density matrix (ortho)
[[[ 0.64298148 -0.46573235 -0.06646804  0.09072859]
  [-0.46573235  0.33734505  0.04814496 -0.06571766]
  [-0.06646804  0.04814496  0.00687112 -0.00937904]
  [ 0.09072859 -0.06571766 -0.00937904  0.01280235]]

 [[ 0.64298148  0.46573235 -0.06646804 -0.09072859]
  [ 0.46573235  0.33734505 -0.04814496 -0.06571766]
  [-0.06646804 -0.04814496  0.00687112  0.00937904]
  [-0.09072859 -0.06571766  0.00937904  0.01280235]]]
grids:  [0.06237655 0.31939555 0.74529195 1.28265786 1.85893479 2.39630071
 2.8221971  3.07921611] 
weights:  [0.15900941 0.34931531 0.49276925 0.56970235 0.56970235 0.49276925
 0.34931531 0.15900941]
S = 0.0, Sz = 0.0
Wigner small d:  1
value : [1. 1. 1. 1. 1. 1. 1. 1.]
hcore (ortho)
 [[-7.96723266e-01  9.17301167e-17  1.03744072e-01  1.33062106e-16]
 [ 8.50105048e-17 -6.58935537e-01  4.05701508e-16  1.96745347e-01]
 [ 1.03744072e-01  4.21576640e-16  3.06545630e-01 -2.77570797e-16]
 [ 9.15077779e-17  1.96745347e-01 -1.99832916e-16  3.76082787e-01]]
time for Preparation before cyc: 0.096
**** Start Cycle 1 ****
dm (ortho)
[[[ 0.6429814809 -0.4657323478 -0.0664680374  0.0907285861]
  [-0.4657323478  0.3373450499  0.048144956  -0.0657176585]
  [-0.0664680374  0.048144956   0.0068711155 -0.0093790431]
  [ 0.0907285861 -0.0657176585 -0.0093790431  0.0128023537]]

 [[ 0.6429814809  0.4657323478 -0.0664680374 -0.0907285861]
  [ 0.4657323478  0.3373450499 -0.048144956  -0.0657176585]
  [-0.0664680374 -0.048144956   0.0068711155  0.0093790431]
  [-0.0907285861 -0.0657176585  0.0093790431  0.0128023537]]]
Fock (ortho)
 (array([[-0.2389659027,  0.326334801 ,  0.2163826835,  0.0245535063],
       [ 0.326334801 ,  0.0111148809,  0.0780132421,  0.3396241495],
       [ 0.2163826835,  0.0780132421,  1.1219948704,  0.0506354989],
       [ 0.0245535063,  0.3396241495,  0.0506354989,  1.1125920268]]), array([[-0.2389659027, -0.326334801 ,  0.2163826835, -0.0245535063],
       [-0.326334801 ,  0.0111148809, -0.0780132421,  0.3396241495],
       [ 0.2163826835, -0.0780132421,  1.1219948704, -0.0506354989],
       [-0.0245535063,  0.3396241495, -0.0506354989,  1.1125920268]]))
E(UHF) =    -1.261600
NO eigenvalue
[-1.0000000000e+00 -1.5952746265e-17 -4.2331615995e-20  1.7502738615e-17] 
 [-1.0000000000e+00 -2.7560364908e-17  7.0077407679e-19  2.2473143780e-17]
NO vec
[[ 0.8018612604  0.            0.4317213118 -0.0274896203 -0.4121644682  0.            0.            0.          ]
 [-0.5808141268  0.            0.4737024071  0.1533202547 -0.6440138811  0.            0.            0.          ]
 [-0.0828921918  0.            0.7646116102  0.0080738207  0.6390874615  0.            0.            0.          ]
 [ 0.1131474864  0.           -0.0677629989  0.9877611218  0.0832693737  0.            0.            0.          ]
 [ 0.            0.8018612604  0.            0.            0.            0.4003857589 -0.010756216  -0.4433892951]
 [ 0.            0.5808141268  0.            0.            0.           -0.6945187944 -0.0254761036  0.4238508728]
 [ 0.           -0.0828921918  0.            0.            0.           -0.2557140918 -0.8937321438 -0.3591407007]
 [ 0.           -0.1131474864  0.            0.            0.           -0.5403195273  0.4477478387 -0.7034019674]]
dm(NO)
[[ 1.0000000000e+00  0.0000000000e+00 -1.1343574163e-16 -2.0755549548e-17  1.8683412808e-16  0.0000000000e+00  0.0000000000e+00  0.0000000000e+00]
 [ 0.0000000000e+00  1.0000000000e+00  0.0000000000e+00  0.0000000000e+00  0.0000000000e+00  4.7799275055e-17 -2.3227197037e-17 -1.0716260974e-16]
 [-6.6354151608e-17  0.0000000000e+00  2.3812271377e-18  2.8198200628e-18 -1.0411905474e-18  0.0000000000e+00  0.0000000000e+00  0.0000000000e+00]
 [-7.9041279053e-18  0.0000000000e+00 -1.5211658349e-18  4.6529545702e-19  3.2038007781e-19  0.0000000000e+00  0.0000000000e+00  0.0000000000e+00]
 [ 9.7053883302e-17  0.0000000000e+00  6.7350203217e-18 -2.6297200104e-18 -8.6432306117e-18  0.0000000000e+00  0.0000000000e+00  0.0000000000e+00]
 [ 0.0000000000e+00  8.8013544824e-17  0.0000000000e+00  0.0000000000e+00  0.0000000000e+00 -5.5857445653e-18  9.5549623743e-19  6.0604148708e-19]
 [ 0.0000000000e+00 -1.9525382432e-17  0.0000000000e+00  0.0000000000e+00  0.0000000000e+00 -3.0161328745e-19  6.9739162116e-20 -2.8240490029e-19]
 [ 0.0000000000e+00 -1.1778097004e-16  0.0000000000e+00  0.0000000000e+00  0.0000000000e+00  6.1368555688e-18  2.8773445924e-18 -3.6660477183e-18]]
D(g) (NO)
 [[ 9.9951368521e-01  9.3457723132e-03 -3.4981812616e-17 -9.1534637549e-18  6.8113916830e-17  2.1344945714e-02  4.0824085501e-03 -2.0316910383e-02]
 [-9.3457723132e-03  9.9951368521e-01 -1.7637244409e-02  1.4164738627e-03  2.3915911567e-02  8.9803676543e-17 -4.2847925854e-18 -1.5779457363e-16]
 [-2.2307237521e-17  1.7637244409e-02  9.9951368521e-01  2.8533170661e-17  7.8935686901e-17 -9.8242244954e-03 -2.2776549395e-02 -6.7848430419e-03]
 [-4.7265781036e-18 -1.4164738627e-03  7.3641496059e-18  9.9951368521e-01 -4.5874687085e-18 -2.0370794507e-02  1.3453742258e-02 -1.9349786225e-02]
 [ 8.7018570945e-17 -2.3915911567e-02  8.2120161466e-17 -9.3932150000e-18  9.9951368521e-01  2.3025445612e-03 -1.5998519683e-02 -1.1796944738e-02]
 [-2.1344945714e-02  6.7867363660e-17  9.8242244954e-03  2.0370794507e-02 -2.3025445612e-03  9.9951368521e-01 -1.8365759332e-16 -2.9735001174e-16]
 [-4.0824085501e-03 -1.3877787808e-17  2.2776549395e-02 -1.3453742258e-02  1.5998519683e-02 -1.9428902931e-16  9.9951368521e-01 -2.2204460493e-16]
 [ 2.0316910383e-02 -2.2204460493e-16  6.7848430419e-03  1.9349786225e-02  1.1796944738e-02 -3.1918911958e-16 -1.6653345369e-16  9.9951368521e-01]]
N(g) (NO)
 [[ 1.000399088  -0.0093540511]
 [ 0.0093540511  1.000399088 ]]
P(g) (NO)
 [[ 1.0000000000e+00  7.7506959796e-18 -1.1343574163e-16 -2.0755549548e-17  1.8683412808e-16  2.8793196667e-34 -1.9259299444e-34 -7.7037197775e-34]
 [ 2.4049798580e-18  1.0000000000e+00 -2.4476191231e-34 -6.9088519404e-35  7.4242547171e-34  4.7799275055e-17 -2.3227197037e-17 -1.0716260974e-16]
 [ 1.6497968569e-04  1.7644283222e-02 -1.8714593000e-20 -3.4242440407e-21  3.0823835726e-20  8.4338394689e-19 -4.0982724299e-19 -1.8908074372e-18]
 [-1.3249768912e-05 -1.4170391605e-03  1.5029973630e-21  2.7500623515e-22 -2.4755090218e-21 -6.7733444597e-20  3.2913847791e-20  1.5185361455e-19]
 [-2.2371065920e-04 -2.3925456121e-02  2.5376784537e-20  4.6432376714e-21 -4.1796785953e-20 -1.1436194579e-18  5.5572128353e-19  2.5639143172e-18]
 [-2.1353464226e-02  1.9966171320e-04  2.4222460509e-18  4.4320288477e-19 -3.9895558701e-18  9.5436851472e-21 -4.6375819533e-21 -2.1396270253e-20]
 [-4.0840377905e-03  3.8187058240e-05  4.6327585562e-19  8.4766448717e-20 -7.6303763963e-19  1.8253137004e-21 -8.8697832601e-22 -4.0922248195e-21]
 [ 2.0325018619e-02 -1.9004541818e-04 -2.3055835608e-18 -4.2185693102e-19  3.7974071319e-18 -9.0840332163e-21  4.4142223740e-21  2.0365762982e-20]]
time for NO, Ng: 0.014
Pg_ortho
 [[ 6.4311282184e-01 -4.6582748229e-01 -6.6481614715e-02  9.0747119070e-02  1.4046676688e-02  1.0174463661e-02 -1.4520714187e-03 -1.9820712612e-03]
 [-4.6555578390e-01  3.3721715897e-01  4.8126703748e-02 -6.5692744291e-02  1.8883194788e-02  1.3677710640e-02 -1.9520451744e-03 -2.6645332944e-03]
 [-6.6481614715e-02  4.8154790496e-02  6.8725190122e-03 -9.3809589882e-03 -1.4520714187e-03 -1.0517824402e-03  1.5010749174e-04  2.0489608270e-04]
 [ 9.0694189934e-02 -6.5692744291e-02 -9.3754874531e-03  1.2797500180e-02 -3.6786054731e-03 -2.6645332944e-03  3.8027484983e-04  5.1907353973e-04]
 [-1.4046676688e-02  1.0174463661e-02  1.4520714187e-03 -1.9820712612e-03  6.4311282184e-01  4.6582748229e-01 -6.6481614715e-02 -9.0747119070e-02]
 [ 1.8883194788e-02 -1.3677710640e-02 -1.9520451744e-03  2.6645332944e-03  4.6555578390e-01  3.3721715897e-01 -4.8126703748e-02 -6.5692744291e-02]
 [ 1.4520714187e-03 -1.0517824402e-03 -1.5010749174e-04  2.0489608270e-04 -6.6481614715e-02 -4.8154790496e-02  6.8725190122e-03  9.3809589882e-03]
 [-3.6786054731e-03  2.6645332944e-03  3.8027484983e-04 -5.1907353973e-04 -9.0694189934e-02 -6.5692744291e-02  9.3754874531e-03  1.2797500180e-02]]
G(g) (NO)
 [[ 2.7300781976e-01 -1.5832303901e-03  3.8661668793e-02 -9.4592918557e-03 -3.7096246634e-02  6.8051510500e-04  2.1790515430e-04  1.0548014177e-04]
 [ 1.5832303901e-03  2.7300781976e-01  3.2495249230e-05 -3.9714701406e-04  6.0243491990e-04  3.1603081079e-02  2.2679929041e-03 -4.4231615673e-02]
 [ 3.8620895437e-02 -1.4428480368e-02  9.8291346882e-01  1.3669836586e-01 -6.8526094671e-02  4.8414547653e-03  2.5474933443e-03  2.9500981860e-03]
 [-9.4624830363e-03 -2.6984504651e-03  1.3669555911e-01  7.7495882466e-01 -7.2136041059e-02  2.0164299329e-03  1.0687587329e-03  1.7770236194e-03]
 [-3.7038007616e-02  1.2795985677e-02 -6.8528415357e-02 -7.2139988044e-02  7.4888376647e-01 -2.0055756987e-03 -1.1418305937e-03 -1.0234558754e-03]
 [ 1.4934312218e-02  3.1547525302e-02  2.2254435257e-03 -3.2537600610e-03  3.5520878894e-03  9.1553386716e-01 -1.3606031517e-01 -9.2564488697e-02]
 [-2.5774775534e-03  2.2596036129e-03 -1.6344843093e-03  2.4311676280e-03 -2.3200996273e-03 -1.3605681129e-01  8.3543270900e-01  1.0758637908e-01]
 [-1.2227953964e-02 -4.4187939492e-02 -1.1073078189e-03  1.8756418129e-03 -2.5507027995e-03 -9.2567744877e-02  1.0758882086e-01  7.5578948379e-01]]
time for Gg: 0.021
C(NO)
[[-1.0000000000e+00  0.0000000000e+00 -1.9718659126e-16 -6.4911572001e-16  1.1736303715e-16  0.0000000000e+00  0.0000000000e+00  0.0000000000e+00]
 [ 0.0000000000e+00 -1.0000000000e+00  0.0000000000e+00  0.0000000000e+00  0.0000000000e+00 -4.9606483444e-16  3.1225022568e-16  1.8041124150e-16]
 [ 5.7924590402e-17  0.0000000000e+00 -4.9460899462e-01 -6.3771728909e-01 -5.9049013677e-01  0.0000000000e+00  0.0000000000e+00  0.0000000000e+00]
 [ 6.8777617401e-18  0.0000000000e+00  1.6263574306e-01  5.9950075181e-01 -7.8367624927e-01  0.0000000000e+00  0.0000000000e+00  0.0000000000e+00]
 [-1.1744518904e-16  0.0000000000e+00  8.5376317414e-01 -4.8364812392e-01 -1.9280283895e-01  0.0000000000e+00  0.0000000000e+00  0.0000000000e+00]
 [ 0.0000000000e+00 -8.3612836262e-17  0.0000000000e+00  0.0000000000e+00  0.0000000000e+00 -6.5528686491e-01  5.5737599831e-01 -5.0983440564e-01]
 [ 0.0000000000e+00  2.1776908222e-17  0.0000000000e+00  0.0000000000e+00  0.0000000000e+00 -2.8280331773e-01  4.4482874770e-01  8.4979389778e-01]
 [ 0.0000000000e+00  1.4315043448e-16  0.0000000000e+00  0.0000000000e+00  0.0000000000e+00  7.0044372233e-01  7.0104164051e-01 -1.3386265395e-01]]
detC 0.9999999999999997
detNg [ 1.0008858336  1.023558133   1.1372016936  1.4831665196  2.4062172274  4.7512322313  8.8621744787 11.024355292 ]
xg [0.9991149504 0.9769840791 0.8793514867 0.6742331267 0.4155900758 0.2104717158 0.1128391234 0.0907082522]
ciS 1.0898232025703245
ciH -1.3885139322615223
1.0 2.1277467635028025e-18 -0.028393568358592053j -5.681219383824043e-17
0.5449912049401633 0.00040309736206701997 -0.00040309736206701997 0.45500879505983655
1.0 3.6374982886888674e-17 -0.14626077895596087j 1.8995222061946038e-16
0.5470525935311706 0.010696107730402226 -0.010696107730402228 0.45294740646882914
1.0000000000000002 8.012254054667878e-17 -0.3509799691577536j 2.42861286636753e-17
0.5580809264711976 0.06159346937498884 -0.06159346937498883 0.44191907352880305
1.0 1.8062808193608504e-16 -0.6471458406590777j 1.973247953923618e-16
0.5987957736381545 0.20939886954117207 -0.20939886954117212 0.4012042263618456
1.0 1.6696713456276768e-16 -1.0498979378472333j -1.1492543028346347e-16
0.7600328424747289 0.5511428399479362 -0.5511428399479363 0.23996715752527115
1.0 4.163336342344337e-17 -1.466395408458372j 1.951563910473908e-17
1.5138438162453367 1.075157746973898 -1.075157746973898 -0.5138438162453366
1.0 5.377642775528102e-16 -1.2663555695691953j -8.847089727481716e-17
4.027273471783518 0.8018282142894602 -0.8018282142894604 -3.027273471783519
1.0000000000000007 5.171644362755856e-17 -0.3127437466661652j 1.6132928326584306e-16
5.958394769741925 0.048904325539395284 -0.04890432553939528 -4.958394769741923
S2 = -0.000000
X(g)
[[ 2.0000000000e+00  5.2041704279e-18  1.6497968569e-04 -1.3249768912e-05 -2.2371065920e-04  2.1353464226e-02  4.0840377905e-03 -2.0325018619e-02]
 [-1.7347234760e-18  2.0000000000e+00 -1.7644283222e-02  1.4170391605e-03  2.3925456121e-02  1.9966171320e-04  3.8187058240e-05 -1.9004541818e-04]
 [ 1.6497968569e-04  1.7644283222e-02  0.0000000000e+00  0.0000000000e+00  0.0000000000e+00  0.0000000000e+00  0.0000000000e+00  0.0000000000e+00]
 [-1.3249768912e-05 -1.4170391605e-03  0.0000000000e+00  0.0000000000e+00  0.0000000000e+00  0.0000000000e+00  0.0000000000e+00  0.0000000000e+00]
 [-2.2371065920e-04 -2.3925456121e-02  0.0000000000e+00  0.0000000000e+00  0.0000000000e+00  0.0000000000e+00  0.0000000000e+00  0.0000000000e+00]
 [-2.1353464226e-02  1.9966171320e-04  0.0000000000e+00  0.0000000000e+00  0.0000000000e+00  0.0000000000e+00  0.0000000000e+00  0.0000000000e+00]
 [-4.0840377905e-03  3.8187058240e-05  0.0000000000e+00  0.0000000000e+00  0.0000000000e+00  0.0000000000e+00  0.0000000000e+00  0.0000000000e+00]
 [ 2.0325018619e-02 -1.9004541818e-04  0.0000000000e+00  0.0000000000e+00  0.0000000000e+00  0.0000000000e+00  0.0000000000e+00  0.0000000000e+00]]
X(g) int
[[ 2.0000000000e+00  2.8627157068e-17  1.5554212302e-01 -1.2491823933e-02 -2.1091342688e-01  4.9329641293e-01  9.4347276442e-02 -4.6953780761e-01]
 [-7.3907519235e-18  2.0000000000e+00 -4.0760887930e-01  3.2735687637e-02  5.5271320650e-01  1.8824018623e-01  3.6002590779e-02 -1.7917398552e-01]
 [ 1.5554212302e-01  4.0760887930e-01  0.0000000000e+00  0.0000000000e+00  0.0000000000e+00  0.0000000000e+00  0.0000000000e+00  0.0000000000e+00]
 [-1.2491823933e-02 -3.2735687637e-02  0.0000000000e+00  0.0000000000e+00  0.0000000000e+00  0.0000000000e+00  0.0000000000e+00  0.0000000000e+00]
 [-2.1091342688e-01 -5.5271320650e-01  0.0000000000e+00  0.0000000000e+00  0.0000000000e+00  0.0000000000e+00  0.0000000000e+00  0.0000000000e+00]
 [-4.9329641293e-01  1.8824018623e-01  0.0000000000e+00  0.0000000000e+00  0.0000000000e+00  0.0000000000e+00  0.0000000000e+00  0.0000000000e+00]
 [-9.4347276442e-02  3.6002590779e-02  0.0000000000e+00  0.0000000000e+00  0.0000000000e+00  0.0000000000e+00  0.0000000000e+00  0.0000000000e+00]
 [ 4.6953780761e-01 -1.7917398552e-01  0.0000000000e+00  0.0000000000e+00  0.0000000000e+00  0.0000000000e+00  0.0000000000e+00  0.0000000000e+00]]
Hsp + Hph =  -1.2740726468171555
Feff (mod,ortho)
[[-0.2302596838  0.3296853067  0.2245219868  0.0339950104  0.            0.            0.            0.          ]
 [ 0.3296853067  0.001693338   0.0711194216  0.334147981   0.            0.            0.            0.          ]
 [ 0.2245219868  0.0711194216  1.1202190363  0.0509349869  0.            0.            0.            0.          ]
 [ 0.0339950104  0.334147981   0.0509349869  1.1150831849  0.            0.            0.            0.          ]
 [ 0.            0.            0.            0.           -0.2302596838 -0.3296853067  0.2245219868 -0.0339950104]
 [ 0.            0.            0.            0.           -0.3296853067  0.001693338  -0.0711194216  0.334147981 ]
 [ 0.            0.            0.            0.            0.2245219868 -0.0711194216  1.1202190363 -0.0509349869]
 [ 0.            0.            0.            0.           -0.0339950104  0.334147981  -0.0509349869  1.1150831849]]
Alpha occ 1 vir 3; Beta occ 1 vir 3
Alpha energies:  [-0.4945137176] <- HOMO
         LUMO->  [0.1201622469 1.0992114865 1.2818758595]
Beta energies:   [-0.4945137176] <- HOMO
         LUMO->  [0.1201622469 1.0992114865 1.2818758595]
e_a, e_b
 [-0.4945137176  0.1201622469  1.0992114865  1.2818758595] 
 [-0.4945137176  0.1201622469  1.0992114865  1.2818758595]
v_a, v_b
 [[ 0.7959135195 -0.575862066   0.0932132637  0.1619130565]
 [-0.5890927636 -0.7547829651 -0.1018916579  0.2699823727]
 [-0.0881378339  0.1694916988  0.7916733171  0.5803082329]
 [ 0.1082733002  0.2644959748 -0.5951325369  0.7510898983]] 
 [[ 0.7959135195  0.575862066  -0.0932132637  0.1619130565]
 [ 0.5890927636 -0.7547829651 -0.1018916579 -0.2699823727]
 [-0.0881378339 -0.1694916988 -0.7916733171  0.5803082329]
 [-0.1082733002  0.2644959748 -0.5951325369 -0.7510898983]]
P_a, P_b
 [[ 0.6334783306 -0.4688668948 -0.0701500936  0.0861761834]
 [-0.4688668948  0.3470302841  0.0519213601 -0.0637830176]
 [-0.0701500936  0.0519213601  0.0077682778 -0.0095429741]
 [ 0.0861761834 -0.0637830176 -0.0095429741  0.0117231075]] 
 [[ 0.6334783306  0.4688668948 -0.0701500936 -0.0861761834]
 [ 0.4688668948  0.3470302841 -0.0519213601 -0.0637830176]
 [-0.0701500936 -0.0519213601  0.0077682778  0.0095429741]
 [-0.0861761834 -0.0637830176  0.0095429741  0.0117231075]]
time for xg, H, S2, Yg, Feff: 0.021
 E(SUHF) =     -1.00948404
**** Start Cycle 2 ****
dm (ortho)
[[[ 0.6334783306 -0.4688668948 -0.0701500936  0.0861761834]
  [-0.4688668948  0.3470302841  0.0519213601 -0.0637830176]
  [-0.0701500936  0.0519213601  0.0077682778 -0.0095429741]
  [ 0.0861761834 -0.0637830176 -0.0095429741  0.0117231075]]

 [[ 0.6334783306  0.4688668948 -0.0701500936 -0.0861761834]
  [ 0.4688668948  0.3470302841 -0.0519213601 -0.0637830176]
  [-0.0701500936 -0.0519213601  0.0077682778  0.0095429741]
  [-0.0861761834 -0.0637830176  0.0095429741  0.0117231075]]]
Fock (ortho)
 (array([[-0.2363136559,  0.3284460773,  0.2173318744,  0.0261765365],
       [ 0.3284460773,  0.008715277 ,  0.0778108246,  0.3390118927],
       [ 0.2173318744,  0.0778108246,  1.1216704793,  0.0509127781],
       [ 0.0261765365,  0.3390118927,  0.0509127781,  1.1126936486]]), array([[-0.2363136559, -0.3284460773,  0.2173318744, -0.0261765365],
       [-0.3284460773,  0.008715277 , -0.0778108246,  0.3390118927],
       [ 0.2173318744, -0.0778108246,  1.1216704793, -0.0509127781],
       [-0.0261765365,  0.3390118927, -0.0509127781,  1.1126936486]]))
E(UHF) =    -1.261271
NO eigenvalue
[-1.0000000000e+00 -6.1253810309e-18 -1.9893992245e-18  5.1733197320e-18] 
 [-1.0000000000e+00 -1.1129422077e-16 -2.2059930946e-19  3.2269553556e-18]
NO vec
[[ 0.7959135195  0.            0.3981250192 -0.1212192866 -0.439686278   0.            0.            0.          ]
 [-0.5890927636  0.            0.6492083641  0.0091776925 -0.4810550756  0.            0.            0.          ]
 [-0.0881378339  0.           -0.6428453959  0.0610437036 -0.75845579    0.            0.            0.          ]
 [ 0.1082733002  0.            0.0823089665  0.9907044568 -0.002608781   0.            0.            0.          ]
 [ 0.            0.7959135195  0.            0.            0.           -0.6046776876  0.0232670085 -0.0185798235]
 [ 0.            0.5890927636  0.            0.            0.            0.7664965173 -0.0283402535  0.2542629248]
 [ 0.           -0.0881378339  0.            0.            0.           -0.1643895821 -0.7666991919  0.6143127352]
 [ 0.           -0.1082733002  0.            0.            0.           -0.1407978992  0.6409585208  0.7467429401]]
dm(NO)
[[ 1.0000000000e+00  0.0000000000e+00  1.2746166429e-16  1.1085350305e-17 -1.3584011867e-16  0.0000000000e+00  0.0000000000e+00  0.0000000000e+00]
 [ 0.0000000000e+00  1.0000000000e+00  0.0000000000e+00  0.0000000000e+00  0.0000000000e+00  2.4653996245e-17  6.8364007830e-18  6.2190967244e-17]
 [ 8.5354026886e-17  0.0000000000e+00 -5.4862079530e-19  4.5076278776e-18  2.6114180387e-18  0.0000000000e+00  0.0000000000e+00  0.0000000000e+00]
 [-6.0537117353e-18  0.0000000000e+00 -1.4941204185e-18  2.2158875421e-18  4.4727063951e-18  0.0000000000e+00  0.0000000000e+00  0.0000000000e+00]
 [-7.4388287415e-17  0.0000000000e+00 -5.7060500246e-18 -2.0310598840e-18  8.6624143179e-18  0.0000000000e+00  0.0000000000e+00  0.0000000000e+00]
 [ 0.0000000000e+00 -1.5135318346e-17  0.0000000000e+00  0.0000000000e+00  0.0000000000e+00  2.2402504504e-17  4.5107572275e-18 -1.8423121311e-18]
 [ 0.0000000000e+00  2.8729199134e-18  0.0000000000e+00  0.0000000000e+00  0.0000000000e+00  9.8110620481e-18  3.0418111505e-19  2.0053352864e-18]
 [ 0.0000000000e+00  4.5324399415e-17  0.0000000000e+00  0.0000000000e+00  0.0000000000e+00 -6.2500260688e-18  1.4130606807e-18 -4.6566020556e-19]]
D(g) (NO)
 [[ 9.9951368521e-01  8.8090475131e-03  7.2336590056e-17  1.1629154391e-17 -3.1737538776e-17 -2.9111542354e-02  5.3693592386e-03 -4.2990510326e-03]
 [-8.8090475131e-03  9.9951368521e-01 -2.3295864811e-02  6.3526656470e-03  1.7656162622e-02  6.4605386488e-17 -6.7079174409e-18  2.5319707344e-17]
 [ 5.7680400397e-17  2.3295864811e-02  9.9951368521e-01  8.4304382115e-17  2.0499033382e-16  1.0944273883e-02  1.6729488516e-02 -5.4811349765e-03]
 [ 2.2348481153e-17 -6.3526656470e-03  8.9025735558e-17  9.9951368521e-01 -4.1107121544e-17 -2.1575914112e-03  1.8245855716e-02  2.4381760856e-02]
 [-3.2077996843e-17 -1.7656162622e-02  2.5942818506e-16 -4.3428340497e-17  9.9951368521e-01  6.9198625738e-04  1.8187248811e-02 -1.8149328690e-02]
 [ 2.9111542354e-02  1.0567213337e-16 -1.0944273883e-02  2.1575914112e-03 -6.9198625738e-04  9.9951368521e-01 -4.0716762036e-18  5.5438428424e-17]
 [-5.3693592386e-03 -1.3877787808e-17 -1.6729488516e-02 -1.8245855716e-02 -1.8187248811e-02 -1.3877787808e-17  9.9951368521e-01 -2.7755575616e-16]
 [ 4.2990510326e-03  4.1633363423e-17  5.4811349765e-03 -2.4381760856e-02  1.8149328690e-02  1.1102230246e-16 -3.8857805862e-16  9.9951368521e-01]]
N(g) (NO)
 [[ 1.0004088448 -0.0088169369]
 [ 0.0088169369  1.0004088448]]
P(g) (NO)
 [[ 1.0000000000e+00 -6.7796296500e-18  1.2746166429e-16  1.1085350305e-17 -1.3584011867e-16 -1.3715670118e-34 -4.8148248610e-35 -4.8148248610e-34]
 [-2.3035409334e-18  1.0000000000e+00 -1.3749482167e-34 -8.0124291323e-36  4.0549414571e-34  2.4653996245e-17  6.8364007830e-18  6.2190967244e-17]
 [ 2.0539816898e-04  2.3305389204e-02  2.6180392460e-20  2.2769106551e-21 -2.7901311648e-20  5.7457097794e-19  1.5932498101e-19  1.4493846966e-18]
 [-5.6011051859e-05 -6.3552629013e-03 -7.1392618885e-21 -6.2090213078e-22  7.6085479311e-21 -1.5668262771e-19 -4.3447124275e-20 -3.9523994692e-19]
 [-1.5567327091e-04 -1.7663381252e-02 -1.9842374195e-20 -1.7256927411e-21  2.1146675593e-20 -4.3547293507e-19 -1.2075395342e-19 -1.0985027649e-18]
 [ 2.9123444457e-02 -2.5667463063e-04  3.7121227003e-18  3.2284358388e-19 -3.9561321510e-18 -6.3280553799e-21 -1.7547306459e-21 -1.5962843546e-20]
 [-5.3715544732e-03  4.7341301349e-05 -6.8466727298e-19 -5.9545563016e-20  7.2967259706e-19  1.1671522657e-21  3.2364410961e-22  2.9442013214e-21]
 [ 4.3008086772e-03 -3.7904461482e-05  5.4818823179e-19  4.7675970780e-20 -5.8422236107e-19 -9.3449645106e-22 -2.5913009016e-22 -2.3573151224e-21]]
time for NO, Ng: 0.013
Pg_ortho
 [[ 6.3360329788e-01 -4.6895938895e-01 -7.0163932197e-02  8.6193183564e-02  1.4179346849e-02  1.0494796754e-02 -1.5701918443e-03 -1.9289089085e-03]
 [-4.6870156799e-01  3.4690791803e-01  5.1903052189e-02 -6.3760527165e-02  1.8758715541e-02  1.3884201371e-02 -2.0773017591e-03 -2.5518702592e-03]
 [-7.0163932197e-02  5.1931602754e-02  7.7698102231e-03 -9.5448567070e-03 -1.5701918443e-03 -1.1621723093e-03  1.7387983060e-04  2.1360342397e-04]
 [ 8.6145796924e-02 -6.3760527165e-02 -9.5396092075e-03  1.1718973863e-02 -3.4477898302e-03 -2.5518702592e-03  3.8180118803e-04  4.6902530766e-04]
 [-1.4179346849e-02  1.0494796754e-02  1.5701918443e-03 -1.9289089085e-03  6.3360329788e-01  4.6895938895e-01 -7.0163932197e-02 -8.6193183564e-02]
 [ 1.8758715541e-02 -1.3884201371e-02 -2.0773017591e-03  2.5518702592e-03  4.6870156799e-01  3.4690791803e-01 -5.1903052189e-02 -6.3760527165e-02]
 [ 1.5701918443e-03 -1.1621723093e-03 -1.7387983060e-04  2.1360342397e-04 -7.0163932197e-02 -5.1931602754e-02  7.7698102231e-03  9.5448567070e-03]
 [-3.4477898302e-03  2.5518702592e-03  3.8180118803e-04 -4.6902530766e-04 -8.6145796924e-02 -6.3760527165e-02  9.5396092075e-03  1.1718973863e-02]]
G(g) (NO)
 [[ 2.7122289759e-01 -1.4539198806e-03  3.2608305935e-02 -2.0027076158e-02 -3.2077235721e-02 -2.9291181885e-04  1.1632285422e-04 -5.3163758370e-04]
 [ 1.4539198806e-03  2.7122289759e-01 -5.7065080133e-04 -2.3647798321e-04 -2.0067058398e-05 -4.8516013209e-02  1.1017800595e-02  4.2589880481e-03]
 [ 3.2553365673e-02 -1.2942553869e-02  7.7028876101e-01  6.4109764616e-02 -9.2374059213e-02 -3.8182682406e-04  7.4249921469e-04 -2.7400666540e-03]
 [-2.0019135043e-02  3.6860944153e-04  6.4106004519e-02  7.3443981690e-01 -1.0778606363e-01  2.1572872329e-04  2.3564359734e-04 -2.0314939077e-03]
 [-3.2038473936e-02  1.4801338096e-02 -9.2371705509e-02 -1.0778949546e-01  1.0038403464e+00  6.7774037882e-04 -1.4339378946e-03  6.2760241727e-03]
 [-1.9343488760e-02 -4.8450919570e-02  5.0114195837e-03  3.0773454153e-03  2.2618250158e-03  9.4290264047e-01  1.8053728444e-01  5.5336266814e-02]
 [-1.9721705312e-03  1.1008346439e-02  2.5966017241e-03  2.1099182877e-03  1.5113001177e-03  1.8053221919e-01  8.1969770305e-01  1.0372671871e-02]
 [-2.9436659128e-03  4.2750319480e-03  6.5139771276e-04  6.6371946547e-04  5.4303405189e-04  5.5334169200e-02  1.0373854648e-02  7.4596858083e-01]]
time for Gg: 0.021
C(NO)
[[ 1.0000000000e+00  0.0000000000e+00 -2.5595604078e-16  5.0857947211e-17  9.7333577599e-17  0.0000000000e+00  0.0000000000e+00  0.0000000000e+00]
 [ 0.0000000000e+00  1.0000000000e+00  0.0000000000e+00  0.0000000000e+00  0.0000000000e+00  3.4604086515e-16 -8.3266726847e-17  1.6653345369e-16]
 [ 7.0808246687e-17  0.0000000000e+00 -8.0646307797e-01 -5.8694667519e-01 -7.1490589263e-02  0.0000000000e+00  0.0000000000e+00  0.0000000000e+00]
 [ 1.1214351880e-17  0.0000000000e+00  3.3526216493e-01 -5.5350816097e-01  7.6238310350e-01  0.0000000000e+00  0.0000000000e+00  0.0000000000e+00]
 [-8.0292763326e-17  0.0000000000e+00  4.8704885241e-01 -5.9086573452e-01 -6.4316490820e-01  0.0000000000e+00  0.0000000000e+00  0.0000000000e+00]
 [ 0.0000000000e+00 -9.1635137048e-18  0.0000000000e+00  0.0000000000e+00  0.0000000000e+00 -9.3612726452e-01  1.9220063646e-01 -2.9449050912e-01]
 [ 0.0000000000e+00  1.2889418823e-17  0.0000000000e+00  0.0000000000e+00  0.0000000000e+00  3.3426942544e-01  2.2623886361e-01 -9.1492072214e-01]
 [ 0.0000000000e+00  4.8493982580e-17  0.0000000000e+00  0.0000000000e+00  0.0000000000e+00 -1.0922314698e-01 -9.5492140616e-01 -2.7603516484e-01]]
detC 0.9999999999999996
detNg [ 1.0008955951  1.0238236804  1.1389220938  1.4910984545  2.4440562226  4.9559113161  9.7019806687 12.3920019652]
xg [0.9991052062 0.9767306804 0.8780231813 0.670646527  0.4091558904 0.2017792362 0.103071737  0.0806972112]
ciS 1.0798024174615248
ciH -1.3761991988140156
1.0 -2.9002408113987244e-17 -0.028706453358254225j -1.3053794156725473e-16
0.5399727113915579 0.0004120302322048126 -0.0004120302322048126 0.4600272886084421
0.9999999999999998 -9.465084965798454e-17 -0.14790943113606145j -1.3053794156725473e-16
0.5418250426574485 0.010938599909496655 -0.010938599909496652 0.4581749573425511
1.0 -2.502338614096544e-16 -0.3553809789836602j -1.2750217548429532e-16
0.5517575949720259 0.06314782011169238 -0.06314782011169237 0.4482424050279741
0.9999999999999999 -5.611830444784971e-16 -0.6577697528664048j -3.903127820947816e-17
0.5887153340454903 0.21633052389296567 -0.21633052389296567 0.4112846659545093
0.9999999999999999 -1.036063596027148e-15 -1.0781489663746093j 2.5587171270657905e-17
0.7383463119283512 0.5812025968473192 -0.581202596847319 0.2616536880716486
0.9999999999999997 -1.781561009828181e-15 -1.5464065758986867j 2.7321894746634712e-17
1.4800158609195522 1.1956866489913505 -1.1956866489913505 -0.4800158609195528
0.9999999999999999 -1.4502288259166107e-15 -1.4016226319894143j 3.625572064791527e-16
4.2558380888377485 0.9822730012524667 -0.9822730012524667 -3.255838088837748
0.9999999999999998 -3.0682921481339775e-16 -0.355412121064099j 2.949029909160572e-17
6.627297951692902 0.06315888789964089 -0.06315888789964087 -5.627297951692904
S2 = -0.000000
X(g)
[[ 2.0000000000e+00 -8.6736173799e-18  2.0539816898e-04 -5.6011051859e-05 -1.5567327091e-04 -2.9123444457e-02  5.3715544732e-03 -4.3008086772e-03]
 [ 0.0000000000e+00  2.0000000000e+00 -2.3305389204e-02  6.3552629013e-03  1.7663381252e-02 -2.5667463063e-04  4.7341301349e-05 -3.7904461482e-05]
 [ 2.0539816898e-04  2.3305389204e-02  0.0000000000e+00  0.0000000000e+00  0.0000000000e+00  0.0000000000e+00  0.0000000000e+00  0.0000000000e+00]
 [-5.6011051859e-05 -6.3552629013e-03  0.0000000000e+00  0.0000000000e+00  0.0000000000e+00  0.0000000000e+00  0.0000000000e+00  0.0000000000e+00]
 [-1.5567327091e-04 -1.7663381252e-02  0.0000000000e+00  0.0000000000e+00  0.0000000000e+00  0.0000000000e+00  0.0000000000e+00  0.0000000000e+00]
 [ 2.9123444457e-02 -2.5667463063e-04  0.0000000000e+00  0.0000000000e+00  0.0000000000e+00  0.0000000000e+00  0.0000000000e+00  0.0000000000e+00]
 [-5.3715544732e-03  4.7341301349e-05  0.0000000000e+00  0.0000000000e+00  0.0000000000e+00  0.0000000000e+00  0.0000000000e+00  0.0000000000e+00]
 [ 4.3008086772e-03 -3.7904461482e-05  0.0000000000e+00  0.0000000000e+00  0.0000000000e+00  0.0000000000e+00  0.0000000000e+00  0.0000000000e+00]]
X(g) int
[[ 2.0000000000e+00 -8.2325066427e-17  1.9544368262e-01 -5.3296513290e-02 -1.4812866883e-01 -6.7903142361e-01  1.2524117078e-01 -1.0027605914e-01]
 [ 6.2653823107e-17  2.0000000000e+00 -5.4337980635e-01  1.4817695145e-01  4.1183284261e-01 -2.4423506449e-01  4.5046936502e-02 -3.6067446836e-02]
 [ 1.9544368262e-01  5.4337980635e-01  0.0000000000e+00  0.0000000000e+00  0.0000000000e+00  0.0000000000e+00  0.0000000000e+00  0.0000000000e+00]
 [-5.3296513290e-02 -1.4817695145e-01  0.0000000000e+00  0.0000000000e+00  0.0000000000e+00  0.0000000000e+00  0.0000000000e+00  0.0000000000e+00]
 [-1.4812866883e-01 -4.1183284261e-01  0.0000000000e+00  0.0000000000e+00  0.0000000000e+00  0.0000000000e+00  0.0000000000e+00  0.0000000000e+00]
 [ 6.7903142361e-01 -2.4423506449e-01  0.0000000000e+00  0.0000000000e+00  0.0000000000e+00  0.0000000000e+00  0.0000000000e+00  0.0000000000e+00]
 [-1.2524117078e-01  4.5046936502e-02  0.0000000000e+00  0.0000000000e+00  0.0000000000e+00  0.0000000000e+00  0.0000000000e+00  0.0000000000e+00]
 [ 1.0027605914e-01 -3.6067446836e-02  0.0000000000e+00  0.0000000000e+00  0.0000000000e+00  0.0000000000e+00  0.0000000000e+00  0.0000000000e+00]]
Hsp + Hph =  -1.274491681588638
Feff (mod,ortho)
[[-0.2317764669  0.330755494   0.2234847073  0.036722541   0.            0.            0.            0.          ]
 [ 0.330755494   0.0028111129  0.072629207   0.3319773031  0.            0.            0.            0.          ]
 [ 0.2234847073  0.072629207   1.1202521359  0.0506502951  0.            0.            0.            0.          ]
 [ 0.036722541   0.3319773031  0.0506502951  1.115478967   0.            0.            0.            0.          ]
 [ 0.            0.            0.            0.           -0.2317764669 -0.330755494   0.2234847073 -0.036722541 ]
 [ 0.            0.            0.            0.           -0.330755494   0.0028111129 -0.072629207   0.3319773031]
 [ 0.            0.            0.            0.            0.2234847073 -0.072629207   1.1202521359 -0.0506502951]
 [ 0.            0.            0.            0.           -0.036722541   0.3319773031 -0.0506502951  1.115478967 ]]
Alpha occ 1 vir 3; Beta occ 1 vir 3
Alpha energies:  [-0.4950438642] <- HOMO
         LUMO->  [0.1210851883 1.0986642211 1.2820602038]
Beta energies:   [-0.4950438642] <- HOMO
         LUMO->  [0.1210851883 1.0986642211 1.2820602038]
e_a, e_b
 [-0.4950438642  0.1210851883  1.0986642211  1.2820602038] 
 [-0.4950438642  0.1210851883  1.0986642211  1.2820602038]
v_a, v_b
 [[ 0.7974926389 -0.5736712494  0.0914234858  0.1629372109]
 [-0.5875620464 -0.7561966513 -0.1006177163  0.2698398438]
 [-0.0872320857  0.1698484102  0.7911570078  0.5810444645]
 [ 0.1056735335  0.2649895086 -0.596312343   0.7503500878]] 
 [[ 0.7974926389  0.5736712494 -0.0914234858  0.1629372109]
 [ 0.5875620464 -0.7561966513 -0.1006177163 -0.2698398438]
 [-0.0872320857 -0.1698484102 -0.7911570078  0.5810444645]
 [-0.1056735335  0.2649895086 -0.596312343  -0.7503500878]]
P_a, P_b
 [[ 0.6359945091 -0.4685764069 -0.0695669463  0.0842738651]
 [-0.4685764069  0.3452291584  0.0512542628 -0.0620897576]
 [-0.0695669463  0.0512542628  0.0076094368 -0.0092181227]
 [ 0.0842738651 -0.0620897576 -0.0092181227  0.0111668957]] 
 [[ 0.6359945091  0.4685764069 -0.0695669463 -0.0842738651]
 [ 0.4685764069  0.3452291584 -0.0512542628 -0.0620897576]
 [-0.0695669463 -0.0512542628  0.0076094368  0.0092181227]
 [-0.0842738651 -0.0620897576  0.0092181227  0.0111668957]]
time for xg, H, S2, Yg, Feff: 0.021
 E =     -1.00990308, delta E = -0.000419035, MaxD(dm) = 0.00251618, RMSD(dm) = 0.00124578
**** Start Cycle 3 ****
dm (ortho)
[[[ 0.6359945091 -0.4685764069 -0.0695669463  0.0842738651]
  [-0.4685764069  0.3452291584  0.0512542628 -0.0620897576]
  [-0.0695669463  0.0512542628  0.0076094368 -0.0092181227]
  [ 0.0842738651 -0.0620897576 -0.0092181227  0.0111668957]]

 [[ 0.6359945091  0.4685764069 -0.0695669463 -0.0842738651]
  [ 0.4685764069  0.3452291584 -0.0512542628 -0.0620897576]
  [-0.0695669463 -0.0512542628  0.0076094368  0.0092181227]
  [-0.0842738651 -0.0620897576  0.0092181227  0.0111668957]]]
Fock (ortho)
 (array([[-0.2364661008,  0.3286798944,  0.2172458952,  0.0271307444],
       [ 0.3286798944,  0.0096462454,  0.0785669637,  0.3387537598],
       [ 0.2172458952,  0.0785669637,  1.1222602723,  0.0510820624],
       [ 0.0271307444,  0.3387537598,  0.0510820624,  1.1132539746]]), array([[-0.2364661008, -0.3286798944,  0.2172458952, -0.0271307444],
       [-0.3286798944,  0.0096462454, -0.0785669637,  0.3387537598],
       [ 0.2172458952, -0.0785669637,  1.1222602723, -0.0510820624],
       [-0.0271307444,  0.3387537598, -0.0510820624,  1.1132539746]]))
E(UHF) =    -1.261250
NO eigenvalue
[-1.0000000000e+00 -1.9085999241e-18 -1.1341739755e-18  1.7383046356e-16] 
 [-1.0000000000e+00 -1.5604996156e-18  2.9295179874e-19  1.6727012796e-16]
NO vec
[[ 0.7974926389  0.           -0.0613781528  0.1067573174  0.5906277071  0.            0.            0.          ]
 [-0.5875620464  0.           -0.0460844427 -0.0830850192  0.8035819469  0.            0.            0.          ]
 [-0.0872320857  0.            0.6573874947  0.7467384995  0.0511259072  0.            0.            0.          ]
 [ 0.1056735335  0.            0.7496336627 -0.6512153009  0.0529254938  0.            0.            0.          ]
 [ 0.            0.7974926389  0.            0.            0.           -0.0051711    -0.0397352719 -0.6019965604]
 [ 0.            0.5875620464  0.            0.            0.            0.1614890189 -0.1147320102  0.7845563742]
 [ 0.           -0.0872320857  0.            0.            0.           -0.1425066236 -0.9847070648 -0.0493398621]
 [ 0.           -0.1056735335  0.            0.            0.            0.9765174954 -0.1249386672 -0.1401321342]]
dm(NO)
[[ 1.0000000000e+00  0.0000000000e+00 -1.6789322901e-17 -2.5613851902e-17  3.3043449156e-17  0.0000000000e+00  0.0000000000e+00  0.0000000000e+00]
 [ 0.0000000000e+00  1.0000000000e+00  0.0000000000e+00  0.0000000000e+00  0.0000000000e+00 -8.4826128524e-18 -6.8898941759e-18 -2.2074712446e-16]
 [-1.2048220840e-17  0.0000000000e+00 -6.3367018467e-20  1.8834449540e-18  4.4068876204e-18  0.0000000000e+00  0.0000000000e+00  0.0000000000e+00]
 [ 1.3331154065e-17  0.0000000000e+00 -3.1528930901e-19  1.1847950357e-18  1.4245573757e-18  0.0000000000e+00  0.0000000000e+00  0.0000000000e+00]
 [ 9.2352841666e-18  0.0000000000e+00  1.2850600677e-18 -2.2573938900e-18  2.6618146898e-17  0.0000000000e+00  0.0000000000e+00  0.0000000000e+00]
 [ 0.0000000000e+00 -3.2255762631e-18  0.0000000000e+00  0.0000000000e+00  0.0000000000e+00 -5.4072960207e-20 -8.5891091974e-19 -3.3682189009e-18]
 [ 0.0000000000e+00 -1.4772150983e-17  0.0000000000e+00  0.0000000000e+00  0.0000000000e+00 -1.5015349583e-18  1.5618124240e-18 -7.1632769071e-19]
 [ 0.0000000000e+00 -1.3825513286e-16  0.0000000000e+00  0.0000000000e+00  0.0000000000e+00  1.3865420685e-18 -3.2576326206e-19 -3.4339663170e-17]]
D(g) (NO)
 [[ 9.9951368521e-01  8.9560662563e-03 -1.6549520220e-17  1.5239598873e-17  1.8293186454e-16  5.1809268865e-04  3.3808510654e-03 -2.9672940164e-02]
 [-8.9560662563e-03  9.9951368521e-01  6.6291721374e-03 -1.2472425222e-03 -2.9097773365e-02 -1.6052440608e-17  5.3328955099e-18 -2.3391156831e-16]
 [-4.0096193111e-18 -6.6291721374e-03  9.9951368521e-01 -4.8960150767e-16  4.3816784370e-18  1.9683582263e-02 -2.2865596615e-02 -4.2624209399e-03]
 [ 1.5716091983e-17  1.2472425222e-03 -4.9446608565e-16  9.9951368521e-01  6.8185020965e-17 -2.3584107383e-02 -2.0227500168e-02 -2.3399950273e-03]
 [ 1.8966816702e-16  2.9097773365e-02 -3.3243047142e-18  6.9194848144e-17  9.9951368521e-01  5.3358338551e-03 -5.3829034213e-03  8.2623173355e-03]
 [-5.1809268865e-04 -3.3626186254e-17 -1.9683582263e-02  2.3584107383e-02 -5.3358338551e-03  9.9951368521e-01 -5.7724013950e-17 -4.9532617880e-17]
 [-3.3808510654e-03 -6.9388939039e-18  2.2865596615e-02  2.0227500168e-02  5.3829034213e-03 -8.3266726847e-17  9.9951368521e-01  1.3877787808e-17]
 [ 2.9672940164e-02 -2.7755575616e-16  4.2624209399e-03  2.3399950273e-03 -8.2623173355e-03 -1.3877787808e-17  1.3877787808e-17  9.9951368521e-01]]
N(g) (NO)
 [[ 1.0004062296 -0.0089640638]
 [ 0.0089640638  1.0004062296]]
P(g) (NO)
 [[ 1.0000000000e+00 -1.2507674134e-18 -1.6789322901e-17 -2.5613851902e-17  3.3043449156e-17  1.1679483933e-35  1.2037062152e-35  3.8518598888e-34]
 [ 5.4524900289e-18  1.0000000000e+00 -1.0911086662e-34 -1.6007212395e-34  2.2628307310e-34 -8.4826128524e-18 -6.8898941759e-18 -2.2074712446e-16]
 [-5.9424322195e-05 -6.6318651033e-03  9.9769413351e-22  1.5220857881e-21 -1.9635845691e-21  5.6255544160e-20  4.5692848751e-20  1.4639651513e-18]
 [ 1.1180361583e-05  1.2477491890e-03 -1.8771070077e-22 -2.8637212580e-22  3.6943770952e-22 -1.0584173307e-20 -8.5968598703e-21 -2.7543704552e-19]
 [ 2.6083429783e-04  2.9109593742e-02 -4.3792312499e-21 -6.6809710754e-21  8.6188648583e-21 -2.4692541400e-19 -2.0056202039e-19 -6.4258591127e-18]
 [-5.1830315324e-04  4.6442159321e-06  8.7019590004e-21  1.3275740207e-20 -1.7126523891e-20 -3.9395085755e-23 -3.1998156302e-23 -1.0251973124e-21]
 [-3.3822244671e-03  3.0306164757e-05  5.6785258703e-20  8.6631796599e-20 -1.1176036221e-19 -2.5707546268e-22 -2.0880626806e-22 -6.6899987235e-21]
 [ 2.9684994191e-02 -2.6599012973e-04 -4.9839095279e-19 -7.6034704491e-19  9.8089459623e-19  2.2562912930e-21  1.8326438457e-21  5.8716556271e-20]]
time for NO, Ng: 0.013
Pg_ortho
 [[ 6.3612122825e-01 -4.6866976873e-01 -6.9580807170e-02  8.4290656264e-02  1.4142088962e-02  1.0419349754e-02 -1.5469032023e-03 -1.8739289095e-03]
 [-4.6840780794e-01  3.4510494112e-01  5.1235820963e-02 -6.2067416991e-02  1.8815962015e-02  1.3862880492e-02 -2.0581451562e-03 -2.4932508397e-03]
 [-6.9580807170e-02  5.1264475003e-02  7.6109529307e-03 -9.2199594028e-03 -1.5469032023e-03 -1.1396990603e-03  1.6920481294e-04  2.0497584471e-04]
 [ 8.4243542394e-02 -6.2067416991e-02 -9.2148059494e-03  1.1162877702e-02 -3.3840667615e-03 -2.4932508397e-03  3.7015915572e-04  4.4841328272e-04]
 [-1.4142088962e-02  1.0419349754e-02  1.5469032023e-03 -1.8739289095e-03  6.3612122825e-01  4.6866976873e-01 -6.9580807170e-02 -8.4290656264e-02]
 [ 1.8815962015e-02 -1.3862880492e-02 -2.0581451562e-03  2.4932508397e-03  4.6840780794e-01  3.4510494112e-01 -5.1235820963e-02 -6.2067416991e-02]
 [ 1.5469032023e-03 -1.1396990603e-03 -1.6920481294e-04  2.0497584471e-04 -6.9580807170e-02 -5.1264475003e-02  7.6109529307e-03  9.2199594028e-03]
 [-3.3840667615e-03  2.4932508397e-03  3.7015915572e-04 -4.4841328272e-04 -8.4243542394e-02 -6.2067416991e-02  9.2148059494e-03  1.1162877702e-02]]
G(g) (NO)
 [[ 2.7182173311e-01 -1.4742801844e-03 -1.4834418298e-02  1.2953976489e-02  4.6707287044e-02 -2.8493037946e-04  4.4048628559e-04 -3.5652779144e-04]
 [ 1.4742801844e-03  2.7182173311e-01  6.4034096475e-05  4.7499851848e-04 -4.1545348347e-04  1.0201647601e-02 -1.3344762785e-03 -4.9634480912e-02]
 [-1.4822852364e-02 -1.0770475727e-03  7.9627512202e-01  4.0680952948e-02  1.7231935974e-01 -1.8726993148e-03  2.7680609007e-03 -2.8412235181e-04]
 [ 1.2957107138e-02 -1.6201733878e-03  4.0680881503e-02  7.4291371718e-01  2.1074762427e-02 -3.8583627295e-04  7.6331518865e-04 -4.0657013425e-04]
 [ 4.6639541838e-02 -1.9580445624e-02  1.7232496793e-01  2.1073513228e-02  9.7070950157e-01 -3.1749829117e-03  5.5173590693e-03 -1.3786170362e-03]
 [-3.7576143914e-03  1.0206878200e-02 -7.8981636453e-05 -3.4276636349e-03  7.1421134516e-04  8.0058169658e-01  5.7065289012e-02  1.6672255354e-01]
 [-1.4554475221e-03 -1.3452062404e-03 -1.5092349094e-04 -2.3285413032e-03  7.4961211244e-04  5.7064687682e-02  7.9151671492e-01  9.9863564432e-02]
 [-1.9259824784e-02 -4.9566727731e-02 -6.7583305297e-04 -5.6358344893e-03  2.0193230112e-03  1.6672790431e-01  9.9865570674e-02  9.1779992928e-01]]
time for Gg: 0.022
C(NO)
[[ 1.0000000000e+00  0.0000000000e+00  2.1262076395e-16  3.7122062772e-17  1.2582215703e-16  0.0000000000e+00  0.0000000000e+00  0.0000000000e+00]
 [ 0.0000000000e+00  1.0000000000e+00  0.0000000000e+00  0.0000000000e+00  0.0000000000e+00  4.0876082628e-16 -1.8041124150e-16  3.0531133177e-16]
 [-2.0243518000e-17  0.0000000000e+00  3.8036105962e-01  7.2106424192e-02  9.2202284566e-01  0.0000000000e+00  0.0000000000e+00  0.0000000000e+00]
 [ 1.5376219196e-17  0.0000000000e+00 -4.4147866023e-02  9.9723506973e-01 -5.9776095697e-02  0.0000000000e+00  0.0000000000e+00  0.0000000000e+00]
 [ 6.5534452358e-17  0.0000000000e+00 -9.2378375730e-01 -1.7968841961e-02  3.8249273257e-01  0.0000000000e+00  0.0000000000e+00  0.0000000000e+00]
 [ 0.0000000000e+00 -8.4826128524e-18  0.0000000000e+00  0.0000000000e+00  0.0000000000e+00  1.5788744803e-01 -4.8534021800e-01 -8.5995140941e-01]
 [ 0.0000000000e+00 -6.8898941759e-18  0.0000000000e+00  0.0000000000e+00  0.0000000000e+00  1.9810847222e-01  8.6873717423e-01 -4.5392593598e-01]
 [ 0.0000000000e+00 -1.6697069670e-16  0.0000000000e+00  0.0000000000e+00  0.0000000000e+00 -9.6738027011e-01  9.8694452275e-02 -2.3331270454e-01]]
detC 1.0000000000000002
detNg [ 1.0008929787  1.02375249    1.13846045    1.4889640804  2.4337976644  4.8993392791  9.4616534797 11.9932039179]
xg [0.999107818  0.976798601  0.8783792182 0.6716078737 0.4108804995 0.2041091549 0.1056897721 0.0833805551]
ciS 1.0824883731395691
ciH -1.379659438499184
1.0 1.7184604433895245e-17 -0.028622587550173578j 1.7477339020466331e-16
0.5413178798145507 0.0004096262590336757 -0.0004096262590336757 0.4586821201854493
1.0 7.741203511546502e-17 -0.1474674450561039j 9.454242944073599e-17
0.5432267600019977 0.010873323675687508 -0.010873323675687508 0.45677323999800223
0.9999999999999999 2.1575623232461538e-16 -0.3542000334141067j 7.806255641895632e-18
0.553456268349249 0.0627288318352772 -0.06272883183527718 0.4465437316507508
0.9999999999999998 4.570996359198887e-16 -0.6549110048662231j 7.806255641895632e-18
0.5914389403972442 0.21445421214744295 -0.21445421214744304 0.40856105960275574
1.0000000000000004 6.665674956440881e-16 -1.0704898089710406j 2.736526283353413e-16
0.7443046215819231 0.5729742155554278 -0.5729742155554277 0.25569537841807743
1.0000000000000004 1.0304257447302234e-15 -1.5242919825845278j 1.5308934675495323e-16
1.4900058787765769 1.1617330240857355 -1.161733024085735 -0.49000587877657586
1.0000000000000007 7.945033519973776e-16 -1.362913280639994j 1.8041124150158794e-16
4.19229863594722 0.9287663052724353 -0.9287663052724355 -3.19229863594722
1.0000000000000007 2.1163626406917047e-16 -0.34297026402319875j -3.642919299551295e-17
6.432437597904574 0.05881430100207133 -0.05881430100207133 -5.432437597904572
S2 = -0.000000
X(g)
[[ 2.0000000000e+00 -3.4694469520e-18 -5.9424322195e-05  1.1180361583e-05  2.6083429783e-04  5.1830315324e-04  3.3822244671e-03 -2.9684994191e-02]
 [ 5.2041704279e-18  2.0000000000e+00  6.6318651033e-03 -1.2477491890e-03 -2.9109593742e-02  4.6442159321e-06  3.0306164757e-05 -2.6599012973e-04]
 [-5.9424322195e-05 -6.6318651033e-03  0.0000000000e+00  0.0000000000e+00  0.0000000000e+00  0.0000000000e+00  0.0000000000e+00  0.0000000000e+00]
 [ 1.1180361583e-05  1.2477491890e-03  0.0000000000e+00  0.0000000000e+00  0.0000000000e+00  0.0000000000e+00  0.0000000000e+00  0.0000000000e+00]
 [ 2.6083429783e-04  2.9109593742e-02  0.0000000000e+00  0.0000000000e+00  0.0000000000e+00  0.0000000000e+00  0.0000000000e+00  0.0000000000e+00]
 [-5.1830315324e-04  4.6442159321e-06  0.0000000000e+00  0.0000000000e+00  0.0000000000e+00  0.0000000000e+00  0.0000000000e+00  0.0000000000e+00]
 [-3.3822244671e-03  3.0306164757e-05  0.0000000000e+00  0.0000000000e+00  0.0000000000e+00  0.0000000000e+00  0.0000000000e+00  0.0000000000e+00]
 [ 2.9684994191e-02 -2.6599012973e-04  0.0000000000e+00  0.0000000000e+00  0.0000000000e+00  0.0000000000e+00  0.0000000000e+00  0.0000000000e+00]]
X(g) int
[[ 2.0000000000e+00 -1.5213140648e-16 -5.6404206848e-02  1.0612143380e-02  2.4757794695e-01  1.2054610322e-02  7.8663225796e-02 -6.9040876012e-01]
 [ 1.6519576928e-16  2.0000000000e+00  1.5424283845e-01 -2.9019947418e-02 -6.7702619020e-01  4.4081834914e-03  2.8765918106e-02 -2.5247174461e-01]
 [-5.6404206848e-02 -1.5424283845e-01  0.0000000000e+00  0.0000000000e+00  0.0000000000e+00  0.0000000000e+00  0.0000000000e+00  0.0000000000e+00]
 [ 1.0612143380e-02  2.9019947418e-02  0.0000000000e+00  0.0000000000e+00  0.0000000000e+00  0.0000000000e+00  0.0000000000e+00  0.0000000000e+00]
 [ 2.4757794695e-01  6.7702619020e-01  0.0000000000e+00  0.0000000000e+00  0.0000000000e+00  0.0000000000e+00  0.0000000000e+00  0.0000000000e+00]
 [-1.2054610322e-02  4.4081834914e-03  0.0000000000e+00  0.0000000000e+00  0.0000000000e+00  0.0000000000e+00  0.0000000000e+00  0.0000000000e+00]
 [-7.8663225796e-02  2.8765918106e-02  0.0000000000e+00  0.0000000000e+00  0.0000000000e+00  0.0000000000e+00  0.0000000000e+00  0.0000000000e+00]
 [ 6.9040876012e-01 -2.5247174461e-01  0.0000000000e+00  0.0000000000e+00  0.0000000000e+00  0.0000000000e+00  0.0000000000e+00  0.0000000000e+00]]
Hsp + Hph =  -1.274525872733138
Feff (mod,ortho)
[[-0.2310757781  0.3313274673  0.2236669128  0.0384536672  0.            0.            0.            0.          ]
 [ 0.3313274673  0.0028190215  0.0731122029  0.3312885232  0.            0.            0.            0.          ]
 [ 0.2236669128  0.0731122029  1.1207910796  0.0507724865  0.            0.            0.            0.          ]
 [ 0.0384536672  0.3312885232  0.0507724865  1.1161600685  0.            0.            0.            0.          ]
 [ 0.            0.            0.            0.           -0.2310757781 -0.3313274673  0.2236669128 -0.0384536672]
 [ 0.            0.            0.            0.           -0.3313274673  0.0028190215 -0.0731122029  0.3312885232]
 [ 0.            0.            0.            0.            0.2236669128 -0.0731122029  1.1207910796 -0.0507724865]
 [ 0.            0.            0.            0.           -0.0384536672  0.3312885232 -0.0507724865  1.1161600685]]
Alpha occ 1 vir 3; Beta occ 1 vir 3
Alpha energies:  [-0.494722727] <- HOMO
         LUMO->  [0.1214807789 1.0988026622 1.2831336775]
Beta energies:   [-0.494722727] <- HOMO
         LUMO->  [0.1214807789 1.0988026622 1.2831336775]
e_a, e_b
 [-0.494722727   0.1214807789  1.0988026622  1.2831336775] 
 [-0.494722727   0.1214807789  1.0988026622  1.2831336775]
v_a, v_b
 [[ 0.7974146077 -0.5736034805  0.0906779357  0.163971042 ]
 [-0.5878799921 -0.7560559021 -0.1003898657  0.2696265244]
 [-0.0870840073  0.1702205504  0.7905494594  0.5817842316]
 [ 0.1046108696  0.2652988584 -0.5972695699  0.7496280028]] 
 [[ 0.7974146077  0.5736034805 -0.0906779357  0.163971042 ]
 [ 0.5878799921 -0.7560559021 -0.1003898657 -0.2696265244]
 [-0.0870840073 -0.1702205504 -0.7905494594  0.5817842316]
 [-0.1046108696  0.2652988584 -0.5972695699 -0.7496280028]]
P_a, P_b
 [[ 0.6358700565 -0.4687840933 -0.0694420595  0.0834182355]
 [-0.4687840933  0.3456028851  0.0511949455 -0.0614986372]
 [-0.0694420595  0.0511949455  0.0075836243 -0.0091099337]
 [ 0.0834182355 -0.0614986372 -0.0091099337  0.010943434 ]] 
 [[ 0.6358700565  0.4687840933 -0.0694420595 -0.0834182355]
 [ 0.4687840933  0.3456028851 -0.0511949455 -0.0614986372]
 [-0.0694420595 -0.0511949455  0.0075836243  0.0091099337]
 [-0.0834182355 -0.0614986372  0.0091099337  0.010943434 ]]
time for xg, H, S2, Yg, Feff: 0.020
 E =     -1.00993727, delta E = -3.41911e-05, MaxD(dm) = 0.00085563, RMSD(dm) = 0.000396604
**** Start Cycle 4 ****
dm (ortho)
[[[ 0.6358700565 -0.4687840933 -0.0694420595  0.0834182355]
  [-0.4687840933  0.3456028851  0.0511949455 -0.0614986372]
  [-0.0694420595  0.0511949455  0.0075836243 -0.0091099337]
  [ 0.0834182355 -0.0614986372 -0.0091099337  0.010943434 ]]

 [[ 0.6358700565  0.4687840933 -0.0694420595 -0.0834182355]
  [ 0.4687840933  0.3456028851 -0.0511949455 -0.0614986372]
  [-0.0694420595 -0.0511949455  0.0075836243  0.0091099337]
  [-0.0834182355 -0.0614986372  0.0091099337  0.010943434 ]]]
Fock (ortho)
 (array([[-0.2362408941,  0.3289805078,  0.2172417065,  0.0275575273],
       [ 0.3289805078,  0.0097326681,  0.0788622494,  0.3386489872],
       [ 0.2172417065,  0.0788622494,  1.1224624302,  0.0511743824],
       [ 0.0275575273,  0.3386489872,  0.0511743824,  1.1134686004]]), array([[-0.2362408941, -0.3289805078,  0.2172417065, -0.0275575273],
       [-0.3289805078,  0.0097326681, -0.0788622494,  0.3386489872],
       [ 0.2172417065, -0.0788622494,  1.1224624302, -0.0511743824],
       [-0.0275575273,  0.3386489872, -0.0511743824,  1.1134686004]]))
E(UHF) =    -1.261193
NO eigenvalue
[-1.0000000000e+00 -1.7701043279e-19  0.0000000000e+00  1.7262574479e-18] 
 [-1.0000000000e+00 -1.1546041383e-17 -1.1047380355e-18  1.3291223747e-17]
NO vec
[[-0.7974146077  0.           -0.            0.6034318052  0.            0.            0.            0.          ]
 [ 0.5878799921  0.            0.1226823113  0.7768634156  0.1892865522  0.            0.            0.          ]
 [ 0.0870840073  0.           -0.9839407331  0.115078554  -0.1050425425  0.            0.            0.          ]
 [-0.1046108696  0.           -0.129652166  -0.1382397063  0.9762871839  0.            0.            0.          ]
 [ 0.            0.7974146077  0.            0.            0.            0.4408207415  0.0303752453  0.4109554256]
 [ 0.            0.5878799921  0.            0.            0.           -0.5140492373  0.1676452551 -0.6017022228]
 [ 0.           -0.0870840073  0.            0.            0.           -0.2603930531  0.8819536499  0.3831051983]
 [ 0.           -0.1046108696  0.            0.            0.            0.6882048484  0.4394657806 -0.5677151401]]
dm(NO)
[[ 1.0000000000e+00  0.0000000000e+00  3.5099238902e-18  6.3553559076e-17  8.7076386268e-18  0.0000000000e+00  0.0000000000e+00  0.0000000000e+00]
 [ 0.0000000000e+00  1.0000000000e+00  0.0000000000e+00  0.0000000000e+00  0.0000000000e+00  1.3921078259e-16 -4.2779056730e-18  7.9625838490e-17]
 [ 1.0811989028e-18  0.0000000000e+00  9.1919327198e-19 -2.3187144328e-18 -2.2141986771e-19  0.0000000000e+00  0.0000000000e+00  0.0000000000e+00]
 [ 3.4529490800e-17  0.0000000000e+00 -3.7918348443e-18  3.9006400539e-17 -9.1269868617e-19  0.0000000000e+00  0.0000000000e+00  0.0000000000e+00]
 [ 1.3742354271e-17  0.0000000000e+00 -7.2468673962e-19 -1.6750091081e-19 -2.0479745584e-18  0.0000000000e+00  0.0000000000e+00  0.0000000000e+00]
 [ 0.0000000000e+00  9.3802581396e-17  0.0000000000e+00  0.0000000000e+00  0.0000000000e+00 -2.6193690350e-17  5.1650757496e-18 -8.3718721070e-18]
 [ 0.0000000000e+00  9.6205563320e-18  0.0000000000e+00  0.0000000000e+00  0.0000000000e+00 -3.1282492985e-18  1.8287213784e-18 -4.1493179649e-18]
 [ 0.0000000000e+00  5.1089301599e-17  0.0000000000e+00  0.0000000000e+00  0.0000000000e+00 -8.7167404335e-19 -4.8613552110e-18  4.0998642808e-18]]
D(g) (NO)
 [[ 9.9951368521e-01 -8.9466947590e-03 -2.5901680479e-17 -6.6689180299e-17 -2.1659172855e-17 -2.3337081745e-02  3.2793764794e-03 -1.8356906961e-02]
 [ 8.9466947590e-03  9.9951368521e-01 -5.3438993508e-03 -2.9384808979e-02 -5.7049856335e-04  8.9543059238e-17  1.7309671951e-17  3.4361072554e-17]
 [-1.4364503151e-17  5.3438993508e-03  9.9951368521e-01  1.7109024398e-18 -2.4173940355e-17  3.2405392218e-03 -2.8195887518e-02 -1.1761234931e-02]
 [-2.8910426560e-17  2.9384808979e-02  1.8917961767e-18  9.9951368521e-01 -1.0671224736e-17 -8.0591056532e-03  5.9032695502e-03 -3.0213077767e-03]
 [-1.6408795066e-17  5.7049856335e-04 -2.4331608625e-17 -9.4771974679e-18  9.9951368521e-01  1.8770280020e-02  1.1479638511e-02 -2.2089864051e-02]
 [ 2.3337081745e-02  7.6884681114e-17 -3.2405392218e-03  8.0591056532e-03 -1.8770280020e-02  9.9951368521e-01  1.5983409313e-16 -1.8863576812e-16]
 [-3.2793764794e-03  1.3877787808e-17  2.8195887518e-02 -5.9032695502e-03 -1.1479638511e-02  1.6653345369e-16  9.9951368521e-01 -1.1102230246e-16]
 [ 1.8356906961e-02 -5.5511151231e-17  1.1761234931e-02  3.0213077767e-03  2.2089864051e-02 -1.9428902931e-16 -1.1102230246e-16  9.9951368521e-01]]
N(g) (NO)
 [[ 1.0004063976  0.0089546855]
 [-0.0089546855  1.0004063976]]
P(g) (NO)
 [[ 1.0000000000e+00 -6.4289414772e-19  3.5099238902e-18  6.3553559076e-17  8.7076386268e-18  1.9055969674e-34  0.0000000000e+00 -9.6296497219e-35]
 [-5.5589585401e-18  1.0000000000e+00 -1.2231400211e-35 -2.7152847796e-34 -3.1026238845e-35  1.3921078259e-16 -4.2779056730e-18  7.9625838490e-17]
 [-4.7852937871e-05  5.3460710986e-03 -1.6796016985e-22 -3.0412245139e-21 -4.1668609021e-22  7.4423074141e-19 -2.2869987881e-20  4.2568539386e-19]
 [-2.6313172201e-04  2.9396750895e-02 -9.2357231734e-22 -1.6722957439e-20 -2.2912559465e-21  4.0923446976e-18 -1.2575652742e-19  2.3407409389e-18]
 [-5.1086351959e-06  5.7073041259e-04 -1.7930920720e-23 -3.2467194872e-22 -4.4484149162e-23  7.9451827383e-20 -2.4415308698e-21  4.5444887654e-20]
 [ 2.3346565878e-02  2.0897622681e-04  8.1944669330e-20  1.4837573538e-18  2.0329345885e-19  2.9091744077e-20 -8.9398058621e-22  1.6639907285e-20]
 [-3.2807092101e-03 -2.9365784911e-05 -1.1515039633e-20 -2.0850074659e-19 -2.8567230241e-20 -4.0880338987e-21  1.2562405786e-22 -2.3382752464e-21]
 [ 1.8364367164e-02  1.6438032804e-04  6.4457531037e-20  1.1671208934e-18  1.5991027287e-19  2.2883514109e-20 -7.0320353787e-22  1.3088921452e-20]]
time for NO, Ng: 0.013
Pg_ortho
 [[ 6.3599667164e-01 -4.6887743805e-01 -6.9455886926e-02  8.3434845842e-02  1.4145285462e-02  1.0428364650e-02 -1.5447774987e-03 -1.8556853589e-03]
 [-4.6861563535e-01  3.4547869247e-01  5.1176548608e-02 -6.1476537595e-02  1.8819909948e-02  1.3874649907e-02 -2.0552836133e-03 -2.4689378975e-03]
 [-6.9455886926e-02  5.1205139542e-02  7.5851343944e-03 -9.1117477134e-03 -1.5447774987e-03 -1.1388602303e-03  1.6870196977e-04  2.0265557700e-04]
 [ 8.3388259109e-02 -6.1476537595e-02 -9.1066600722e-03  1.0939501501e-02 -3.3489269431e-03 -2.4689378975e-03  3.6572941567e-04  4.3933752439e-04]
 [-1.4145285462e-02  1.0428364650e-02  1.5447774987e-03 -1.8556853589e-03  6.3599667164e-01  4.6887743805e-01 -6.9455886926e-02 -8.3434845842e-02]
 [ 1.8819909948e-02 -1.3874649907e-02 -2.0552836133e-03  2.4689378975e-03  4.6861563535e-01  3.4547869247e-01 -5.1176548608e-02 -6.1476537595e-02]
 [ 1.5447774987e-03 -1.1388602303e-03 -1.6870196977e-04  2.0265557700e-04 -6.9455886926e-02 -5.1205139542e-02  7.5851343944e-03  9.1117477134e-03]
 [-3.3489269431e-03  2.4689378975e-03  3.6572941567e-04 -4.3933752439e-04 -8.3388259109e-02 -6.1476537595e-02  9.1066600722e-03  1.0939501501e-02]]
G(g) (NO)
 [[ 2.7183938472e-01  1.4699555563e-03 -4.6869755268e-03 -4.9342412228e-02  1.0012587075e-02 -1.8480233435e-04  5.1003962630e-04 -3.2207047174e-04]
 [-1.4699555563e-03  2.7183938472e-01 -3.7819201990e-04 -3.2866801079e-04 -3.8336646530e-04  4.3439600509e-02  4.1282883688e-03  2.5550961366e-02]
 [-4.6734302804e-03  1.0819513949e-03  8.0188418301e-01 -1.3029540453e-01 -4.4124994074e-02  1.3376828443e-04  2.7333197631e-03 -7.6483945426e-04]
 [-4.9275505879e-02 -1.9369949695e-02 -1.3029870913e-01  9.3412015087e-01  1.4125048790e-01  3.0208881430e-04 -5.9701458570e-03  1.6956728359e-03]
 [ 1.0020879995e-02 -3.4319918469e-03 -4.4125917886e-02  1.4124582934e-01  7.7460456296e-01 -3.6088455268e-04 -2.7435291581e-03  6.2655673630e-04]
 [-1.1830119716e-02  4.3389728752e-02 -1.4227890463e-03 -6.5496774198e-04 -1.0724332833e-03  6.9331386219e-01  1.9613836697e-03  6.6510425362e-02]
 [ 2.4787498448e-05  4.1407711834e-03 -7.7807900558e-04 -2.7771038956e-04 -7.6203080054e-04  1.9616929037e-03  7.5629577103e-01  5.5320250382e-02]
 [-1.5754103946e-02  2.5505291978e-02 -4.9476304950e-03 -8.5534686508e-04 -4.9654373235e-03  6.6504676991e-02  5.5320830591e-02  1.0609992636e+00]]
time for Gg: 0.021
C(NO)
[[-1.0000000000e+00  0.0000000000e+00  3.8751354357e-17  7.0781592072e-17  7.3346358293e-17  0.0000000000e+00  0.0000000000e+00  0.0000000000e+00]
 [ 0.0000000000e+00  1.0000000000e+00  0.0000000000e+00  0.0000000000e+00  0.0000000000e+00 -6.5760404915e-17 -1.2490009027e-16  2.7755575616e-16]
 [ 1.0367863918e-17  0.0000000000e+00 -2.9463819036e-01 -7.1273258199e-01 -6.3655369243e-01  0.0000000000e+00  0.0000000000e+00  0.0000000000e+00]
 [-6.5288282552e-17  0.0000000000e+00 -9.5056885567e-01  1.5027039503e-01  2.7173085767e-01  0.0000000000e+00  0.0000000000e+00  0.0000000000e+00]
 [-8.7076386268e-18  0.0000000000e+00  9.8016260976e-02 -6.8515040315e-01  7.2177679212e-01  0.0000000000e+00  0.0000000000e+00  0.0000000000e+00]
 [ 0.0000000000e+00  1.3921078259e-16  0.0000000000e+00  0.0000000000e+00  0.0000000000e+00  8.6841048090e-01 -1.9355760747e-01 -4.5650705280e-01]
 [ 0.0000000000e+00 -4.2779056730e-18  0.0000000000e+00  0.0000000000e+00  0.0000000000e+00 -1.4286270397e-01 -9.7929176808e-01  1.4344992433e-01]
 [ 0.0000000000e+00  7.9625838490e-17  0.0000000000e+00  0.0000000000e+00  0.0000000000e+00  4.7481942302e-01  5.9355585830e-02  8.7807939843e-01]]
detC -0.9999999999999999
detNg [ 1.0008931467  1.0237570628  1.1384900935  1.4891010035  2.434454059   4.902934476   9.4767330668 12.0180486208]
xg [0.9991076503 0.976794238  0.8783563473 0.6715461192 0.410769715  0.2039594869 0.1055215962 0.0832081839]
ciS 1.0823158341925159
ciH -1.3794460913289408
1.0 1.2996873542669984e-17 -0.028627974862757036j 2.419939248987646e-16
0.5412314700462647 0.0004097804723713243 -0.00040978047237132434 0.4587685299537352
1.0 6.08237418764368e-17 -0.14749583526798896j 2.1206994493816467e-16
0.543136728982238 0.010877510710700868 -0.010877510710700866 0.45686327101776203
1.0 8.521829075736065e-17 -0.35427586557309015j 3.2612801348363973e-16
0.5533472331917857 0.06275569446378113 -0.06275569446378114 0.4466527668082142
1.0000000000000002 3.3610267347050637e-16 -0.6550943975522848j 4.7704895589362195e-17
0.5912644625574072 0.21457433485219546 -0.21457433485219546 0.40873553744259306
1.0000000000000002 5.303917027799088e-16 -1.070979880742423j 1.0191500421363742e-16
0.7439251353669613 0.5734989524775274 -0.5734989524775274 0.2560748646330388
0.9999999999999999 1.0816000872715392e-15 -1.5256973821714956j 1.4311468676808659e-16
1.4893855577262078 1.1638762509824772 -1.1638762509824772 -0.48938555772620784
1.0000000000000002 7.337880303381894e-16 -1.3653421403918313j 2.42861286636753e-17
4.196329547154233 0.9320795801648734 -0.9320795801648734 -3.196329547154233
1.0 1.2641797331180982e-16 -0.34374537875543587j 7.28583859910259e-17
6.444581716480064 0.05908044270785903 -0.059080442707859046 -5.444581716480066
S2 = 0.000000
X(g)
[[ 2.0000000000e+00  1.7347234760e-18 -4.7852937871e-05 -2.6313172201e-04 -5.1086351959e-06 -2.3346565878e-02  3.2807092101e-03 -1.8364367164e-02]
 [-3.4694469520e-18  2.0000000000e+00 -5.3460710986e-03 -2.9396750895e-02 -5.7073041259e-04  2.0897622681e-04 -2.9365784911e-05  1.6438032804e-04]
 [-4.7852937871e-05  5.3460710986e-03  0.0000000000e+00  0.0000000000e+00  0.0000000000e+00  0.0000000000e+00  0.0000000000e+00  0.0000000000e+00]
 [-2.6313172201e-04  2.9396750895e-02  0.0000000000e+00  0.0000000000e+00  0.0000000000e+00  0.0000000000e+00  0.0000000000e+00  0.0000000000e+00]
 [-5.1086351959e-06  5.7073041259e-04  0.0000000000e+00  0.0000000000e+00  0.0000000000e+00  0.0000000000e+00  0.0000000000e+00  0.0000000000e+00]
 [ 2.3346565878e-02  2.0897622681e-04  0.0000000000e+00  0.0000000000e+00  0.0000000000e+00  0.0000000000e+00  0.0000000000e+00  0.0000000000e+00]
 [-3.2807092101e-03 -2.9365784911e-05  0.0000000000e+00  0.0000000000e+00  0.0000000000e+00  0.0000000000e+00  0.0000000000e+00  0.0000000000e+00]
 [ 1.8364367164e-02  1.6438032804e-04  0.0000000000e+00  0.0000000000e+00  0.0000000000e+00  0.0000000000e+00  0.0000000000e+00  0.0000000000e+00]]
X(g) int
[[ 2.0000000000e+00  3.6425590287e-17 -4.5428146843e-02 -2.4979838309e-01 -4.8497718254e-03 -5.4307709720e-01  7.6314351492e-02 -4.2718347801e-01]
 [-6.5610802656e-17  2.0000000000e+00 -1.2435785155e-01 -6.8381372346e-01 -1.3276068839e-02  1.9838704039e-01 -2.7877769860e-02  1.5605089285e-01]
 [-4.5428146843e-02  1.2435785155e-01  0.0000000000e+00  0.0000000000e+00  0.0000000000e+00  0.0000000000e+00  0.0000000000e+00  0.0000000000e+00]
 [-2.4979838309e-01  6.8381372346e-01  0.0000000000e+00  0.0000000000e+00  0.0000000000e+00  0.0000000000e+00  0.0000000000e+00  0.0000000000e+00]
 [-4.8497718254e-03  1.3276068839e-02  0.0000000000e+00  0.0000000000e+00  0.0000000000e+00  0.0000000000e+00  0.0000000000e+00  0.0000000000e+00]
 [ 5.4307709720e-01  1.9838704039e-01  0.0000000000e+00  0.0000000000e+00  0.0000000000e+00  0.0000000000e+00  0.0000000000e+00  0.0000000000e+00]
 [-7.6314351492e-02 -2.7877769860e-02  0.0000000000e+00  0.0000000000e+00  0.0000000000e+00  0.0000000000e+00  0.0000000000e+00  0.0000000000e+00]
 [ 4.2718347801e-01  1.5605089285e-01  0.0000000000e+00  0.0000000000e+00  0.0000000000e+00  0.0000000000e+00  0.0000000000e+00  0.0000000000e+00]]
Hsp + Hph =  -1.2745319321306106
Feff (mod,ortho)
[[-0.230967078   0.3316262539  0.2236484255  0.0391692063  0.            0.            0.            0.          ]
 [ 0.3316262539  0.0029652264  0.0734254675  0.3309456296  0.            0.            0.            0.          ]
 [ 0.2236484255  0.0734254675  1.1210002035  0.0508223331  0.            0.            0.            0.          ]
 [ 0.0391692063  0.3309456296  0.0508223331  1.1164244525  0.            0.            0.            0.          ]
 [ 0.            0.            0.            0.           -0.230967078  -0.3316262539  0.2236484255 -0.0391692063]
 [ 0.            0.            0.            0.           -0.3316262539  0.0029652264 -0.0734254675  0.3309456296]
 [ 0.            0.            0.            0.            0.2236484255 -0.0734254675  1.1210002035 -0.0508223331]
 [ 0.            0.            0.            0.           -0.0391692063  0.3309456296 -0.0508223331  1.1164244525]]
Alpha occ 1 vir 3; Beta occ 1 vir 3
Alpha energies:  [-0.4946838718] <- HOMO
         LUMO->  [0.1217311553 1.0988067523 1.2835687686]
Beta energies:   [-0.4946838718] <- HOMO
         LUMO->  [0.1217311553 1.0988067523 1.2835687686]
e_a, e_b
 [-0.4946838718  0.1217311553  1.0988067523  1.2835687686] 
 [-0.4946838718  0.1217311553  1.0988067523  1.2835687686]
v_a, v_b
 [[ 0.797512795  -0.5734113234  0.0903106321  0.1643678366]
 [-0.5878553197 -0.756112556  -0.1002297382  0.2695810181]
 [-0.0869538465  0.1703946783  0.7902742623  0.5821265091]
 [ 0.1041080854  0.2654409736 -0.5977161364  0.7492916764]] 
 [[ 0.797512795   0.5734113234 -0.0903106321  0.1643678366]
 [ 0.5878553197 -0.756112556  -0.1002297382 -0.2695810181]
 [-0.0869538465 -0.1703946783 -0.7902742623  0.5821265091]
 [-0.1041080854  0.2654409736 -0.5977161364 -0.7492916764]]
P_a, P_b
 [[ 0.6360266582 -0.4688221391 -0.0693468051  0.0830275302]
 [-0.4688221391  0.3455738769  0.0511162812 -0.0612004918]
 [-0.0693468051  0.0511162812  0.0075609714 -0.0090525985]
 [ 0.0830275302 -0.0612004918 -0.0090525985  0.0108384935]] 
 [[ 0.6360266582  0.4688221391 -0.0693468051 -0.0830275302]
 [ 0.4688221391  0.3455738769 -0.0511162812 -0.0612004918]
 [-0.0693468051 -0.0511162812  0.0075609714  0.0090525985]
 [-0.0830275302 -0.0612004918  0.0090525985  0.0108384935]]
time for xg, H, S2, Yg, Feff: 0.021
 E =     -1.00994333, delta E = -6.0594e-06, MaxD(dm) = 0.000390705, RMSD(dm) = 0.000187077
**** Start Cycle 5 ****
dm (ortho)
[[[ 0.6360266582 -0.4688221391 -0.0693468051  0.0830275302]
  [-0.4688221391  0.3455738769  0.0511162812 -0.0612004918]
  [-0.0693468051  0.0511162812  0.0075609714 -0.0090525985]
  [ 0.0830275302 -0.0612004918 -0.0090525985  0.0108384935]]

 [[ 0.6360266582  0.4688221391 -0.0693468051 -0.0830275302]
  [ 0.4688221391  0.3455738769 -0.0511162812 -0.0612004918]
  [-0.0693468051 -0.0511162812  0.0075609714  0.0090525985]
  [-0.0830275302 -0.0612004918  0.0090525985  0.0108384935]]]
Fock (ortho)
 (array([[-0.2361855083,  0.3290878447,  0.2172306946,  0.0277555597],
       [ 0.3290878447,  0.0098309966,  0.0790110894,  0.3385999066],
       [ 0.2172306946,  0.0790110894,  1.1225692268,  0.051215467 ],
       [ 0.0277555597,  0.3385999066,  0.051215467 ,  1.1135757212]]), array([[-0.2361855083, -0.3290878447,  0.2172306946, -0.0277555597],
       [-0.3290878447,  0.0098309966, -0.0790110894,  0.3385999066],
       [ 0.2172306946, -0.0790110894,  1.1225692268, -0.051215467 ],
       [-0.0277555597,  0.3385999066, -0.051215467 ,  1.1135757212]]))
E(UHF) =    -1.261172
NO eigenvalue
[-1.0000000000e+00 -1.5977322291e-17 -1.0034312546e-19  1.5338842910e-17] 
 [-1.0000000000e+00 -2.0781302781e-17  6.9432620744e-19  1.9157507176e-17]
NO vec
[[ 0.797512795   0.            0.4221540168  0.0112396029  0.4308514816  0.            0.            0.          ]
 [-0.5878553197  0.            0.7034516093  0.0346064349  0.3979753148  0.            0.            0.          ]
 [-0.0869538465  0.           -0.4222617136  0.7105104611  0.5561555164  0.            0.            0.          ]
 [ 0.1041080854  0.            0.3855345182  0.7027452957 -0.588790023   0.            0.            0.          ]
 [ 0.            0.797512795   0.            0.            0.           -0.4178309722 -0.0032563303  0.4351781437]
 [ 0.            0.5878553197  0.            0.            0.            0.6935177669  0.0677858233 -0.410931031 ]
 [ 0.           -0.0869538465  0.            0.            0.            0.5112415666 -0.5601109488  0.6460238496]
 [ 0.           -0.1041080854  0.            0.            0.            0.2882402579  0.8256332137  0.4737181195]]
dm(NO)
[[ 1.0000000000e+00  0.0000000000e+00 -2.1514707567e-17  8.0044725108e-18 -6.3530170474e-17  0.0000000000e+00  0.0000000000e+00  0.0000000000e+00]
 [ 0.0000000000e+00  1.0000000000e+00  0.0000000000e+00  0.0000000000e+00  0.0000000000e+00  1.3063883204e-16  9.0432388532e-18 -4.6918301541e-17]
 [ 9.4334693774e-18  0.0000000000e+00  2.1093072044e-17  6.9661335592e-19  2.2858012216e-17  0.0000000000e+00  0.0000000000e+00  0.0000000000e+00]
 [ 1.2931862867e-17  0.0000000000e+00  3.2152840223e-18 -4.0462497181e-20  2.9514671709e-18  0.0000000000e+00  0.0000000000e+00  0.0000000000e+00]
 [-6.5379822698e-17  0.0000000000e+00  1.3375031462e-17  5.9037670376e-19  1.2764940140e-17  0.0000000000e+00  0.0000000000e+00  0.0000000000e+00]
 [ 0.0000000000e+00  8.3638301712e-17  0.0000000000e+00  0.0000000000e+00  0.0000000000e+00  1.3980252136e-17 -3.4001686385e-18 -1.3494826154e-17]
 [ 0.0000000000e+00  3.6825884582e-19  0.0000000000e+00  0.0000000000e+00  0.0000000000e+00  4.2632771580e-18  1.2367534804e-19 -4.5596347456e-18]
 [ 0.0000000000e+00 -2.0006975766e-17  0.0000000000e+00  0.0000000000e+00  0.0000000000e+00 -1.6773685279e-17  2.2932967101e-19  5.4095909141e-18]]
D(g) (NO)
 [[ 9.9951368521e-01  8.9550486694e-03  1.5526451606e-17  1.7743927112e-17 -1.0824654722e-16 -2.3554553379e-02  2.8755190433e-03  1.8141515466e-02]
 [-8.9550486694e-03  9.9951368521e-01 -2.3287035230e-02  3.2940635647e-03 -1.8413671917e-02  7.0417542554e-17 -1.4671151717e-17 -3.3943442694e-17]
 [-1.2384590162e-18  2.3287035230e-02  9.9951368521e-01  1.5442919165e-16  4.8403315041e-16  6.4460699007e-03  1.8745257728e-02 -6.0967663957e-03]
 [ 1.2200236516e-17 -3.2940635647e-03  9.7877082783e-17  9.9951368521e-01 -2.2834076321e-16  1.8245484418e-02  5.7549998777e-03  2.4403370561e-02]
 [-1.0079317128e-16  1.8413671917e-02  4.6961007733e-16 -2.5622063317e-16  9.9951368521e-01  6.5670823836e-03 -2.4075293438e-02  3.2532193472e-03]
 [ 2.3554553379e-02  1.0662881396e-16 -6.4460699007e-03 -1.8245484418e-02 -6.5670823836e-03  9.9951368521e-01  3.3040313629e-17 -2.3451552267e-16]
 [-2.8755190433e-03  0.0000000000e+00 -1.8745257728e-02 -5.7549998777e-03  2.4075293438e-02  0.0000000000e+00  9.9951368521e-01  1.1102230246e-16]
 [-1.8141515466e-02  5.5511151231e-17  6.0967663957e-03 -2.4403370561e-02 -3.2532193472e-03 -1.9428902931e-16  1.1102230246e-16  9.9951368521e-01]]
N(g) (NO)
 [[ 1.0004062478 -0.0089630455]
 [ 0.0089630455  1.0004062478]]
P(g) (NO)
 [[ 1.0000000000e+00  2.8113608937e-18 -2.1514707567e-17  8.0044725108e-18 -6.3530170474e-17  2.7769878575e-34  2.4074124305e-35 -1.4444474583e-34]
 [-2.4522223579e-18  1.0000000000e+00  5.7422960843e-35 -1.2734338957e-35  1.4009258271e-34  1.3063883204e-16  9.0432388532e-18 -4.6918301541e-17]
 [ 2.0872275634e-04  2.3296495538e-02 -4.4906090652e-21  1.6707155655e-21 -1.3260192292e-20  3.0434269677e-18  2.1067577359e-19 -1.0930320025e-18]
 [-2.9524841611e-05 -3.2954017709e-03  6.3521833323e-22 -2.3633078306e-22  1.8757182208e-21 -4.3050743845e-19 -2.9801105332e-20  1.5461465399e-19]
 [ 1.6504257922e-04  1.8421152432e-02 -3.5508428281e-21  1.3210787885e-21 -1.0485183193e-20  2.4065178385e-18  1.6658688139e-19 -8.6428918454e-19]
 [ 2.3564122366e-02 -2.1112053368e-04 -5.0697520179e-19  1.8861836972e-19 -1.4970327110e-18 -2.7580539939e-20 -1.9092134128e-21  9.9054168606e-21]
 [-2.8766872167e-03  2.5773408022e-05  6.1891084231e-20 -2.3026363748e-20  1.8275642928e-19  3.3670079216e-21  2.3307508480e-22 -1.2092445293e-21]
 [-1.8148885418e-02  1.6260322856e-04  3.9046796243e-19 -1.4527225443e-19  1.1530017845e-18  2.1242295865e-20  1.4704598342e-21 -7.6290673093e-21]]
time for NO, Ng: 0.013
Pg_ortho
 [[ 6.3615337517e-01 -4.6891554349e-01 -6.9360621254e-02  8.3044071953e-02  1.4143451569e-02  1.0425291350e-02 -1.5420787278e-03 -1.8462997378e-03]
 [-4.6865347511e-01  3.4544955284e-01  5.1097891570e-02 -6.1178474291e-02  1.8825352616e-02  1.3876371325e-02 -2.0525524249e-03 -2.4574795925e-03]
 [-6.9360621254e-02  5.1126465223e-02  7.5624778057e-03 -9.0544020466e-03 -1.5420787278e-03 -1.1366829337e-03  1.6813482842e-04  2.0130443668e-04]
 [ 8.2997660128e-02 -6.1178474291e-02 -9.0493417056e-03  1.0834594185e-02 -3.3339349887e-03 -2.4574795925e-03  3.6350322275e-04  4.3521507218e-04]
 [-1.4143451569e-02  1.0425291350e-02  1.5420787278e-03 -1.8462997378e-03  6.3615337517e-01  4.6891554349e-01 -6.9360621254e-02 -8.3044071953e-02]
 [ 1.8825352616e-02 -1.3876371325e-02 -2.0525524249e-03  2.4574795925e-03  4.6865347511e-01  3.4544955284e-01 -5.1097891570e-02 -6.1178474291e-02]
 [ 1.5420787278e-03 -1.1366829337e-03 -1.6813482842e-04  2.0130443668e-04 -6.9360621254e-02 -5.1126465223e-02  7.5624778057e-03  9.0544020466e-03]
 [-3.3339349887e-03  2.4574795925e-03  3.6350322275e-04 -4.3521507218e-04 -8.2997660128e-02 -6.1178474291e-02  9.0493417056e-03  1.0834594185e-02]]
G(g) (NO)
 [[ 2.7189046682e-01 -1.4703297300e-03  3.1096808833e-02 -9.0187438943e-03  3.8871388029e-02 -6.1512431376e-04 -4.6434343559e-05 -1.3379515775e-04]
 [ 1.4703297300e-03  2.7189046682e-01 -6.1349565496e-04  5.5085771054e-05  1.3792698451e-04 -3.2092141163e-02  1.0458592057e-02  3.7683502970e-02]
 [ 3.1039218243e-02 -1.4965309328e-02  8.6330393857e-01  1.3237447949e-01  9.3218125029e-02 -3.7355185702e-03 -2.7578349878e-04 -2.7011205959e-03]
 [-9.0144797079e-03 -3.3384752101e-03  1.3236999401e-01  8.4146367006e-01  1.3851014821e-01 -3.1102621840e-03 -4.8329906617e-04 -2.6251910603e-03]
 [ 3.8833919618e-02 -1.2383956903e-02  9.3219757771e-02  1.3851345546e-01  8.0615775116e-01 -3.4824730329e-03 -1.4660356133e-04 -2.1271031307e-03]
 [-1.4418282188e-02 -3.2034417394e-02  3.2572867882e-03 -5.6877125736e-04 -2.3342520254e-03  8.2858029993e-01  1.1867629249e-01 -9.2424960827e-02]
 [-3.4208799543e-03  1.0456467600e-02  3.0213475080e-03 -3.0074325548e-04 -2.6538492526e-03  1.1867167554e-01  8.3176158652e-01 -1.5317095590e-01]
 [ 1.2995345616e-02  3.7646057085e-02 -3.9116929226e-03  6.7488297300e-04  2.5294192113e-03 -9.2425473115e-02 -1.5317444080e-01  8.5058347333e-01]]
time for Gg: 0.021
C(NO)
[[ 1.0000000000e+00  0.0000000000e+00  3.2678550563e-16 -1.2265881733e-17  8.1057627626e-17  0.0000000000e+00  0.0000000000e+00  0.0000000000e+00]
 [ 0.0000000000e+00  1.0000000000e+00  0.0000000000e+00  0.0000000000e+00  0.0000000000e+00  1.4449496589e-16  2.7755575616e-17  6.9388939039e-17]
 [-3.2215440039e-17  0.0000000000e+00 -7.4357097878e-01 -5.9652454139e-01  3.0209381164e-01  0.0000000000e+00  0.0000000000e+00  0.0000000000e+00]
 [ 1.6254947934e-17  0.0000000000e+00  2.7499332136e-01  1.3900238922e-01  9.5134484232e-01  0.0000000000e+00  0.0000000000e+00  0.0000000000e+00]
 [-9.5760221795e-17  0.0000000000e+00 -6.0949230735e-01  7.9046619619e-01  6.0682122306e-02  0.0000000000e+00  0.0000000000e+00  0.0000000000e+00]
 [ 0.0000000000e+00  6.1249893000e-17  0.0000000000e+00  0.0000000000e+00  0.0000000000e+00 -7.7456856970e-01 -6.0808343016e-01 -1.7400595623e-01]
 [ 0.0000000000e+00  9.0432388532e-18  0.0000000000e+00  0.0000000000e+00  0.0000000000e+00  2.6147588023e-01 -5.7353101838e-02 -9.6350453334e-01]
 [ 0.0000000000e+00 -5.2849381177e-18  0.0000000000e+00  0.0000000000e+00  0.0000000000e+00  5.7591136028e-01 -7.9179868886e-01  2.0342306021e-01]]
detC 1.0000000000000002
detNg [ 1.0008929969  1.0237529867  1.1384636702  1.4889789537  2.4338689539  4.8997295839  9.4632893093 11.9958979189]
xg [0.9991077998 0.9767981271 0.8783767337 0.671601165  0.4108684645 0.2040928959 0.1056715025 0.0833618297]
ciS 1.0824696295706944
ciH -1.3796434512985034
0.9999999999999999 -7.630072788866737e-18 -0.028623172794555025j -1.9905951886833861e-16
0.5413084927921644 0.0004096430104134775 -0.0004096430104134775 0.4586915072078355
[...]
D(g) (NO)
 [[ 9.9951368521e-01  8.9589007529e-03  2.4431631380e-17 -4.0573572403e-17 -1.1424363100e-17  9.4800404255e-04  2.9580126501e-03 -2.9706609055e-02]
 [-8.9589007529e-03  9.9951368521e-01  2.2876633410e-03  2.7199837160e-03 -2.9656356099e-02  2.9971553773e-17 -1.0287060510e-17 -2.5495669383e-16]
 [ 2.3597050555e-17 -2.2876633410e-03  9.9951368521e-01 -1.1057534191e-16  1.1991273284e-17  2.7299764185e-02  1.4803460345e-02  1.6553272995e-03]
 [-4.5291580216e-17 -2.7199837160e-03 -9.4084602511e-17  9.9951368521e-01 -2.2284410030e-17  1.4703092275e-02 -2.7192969207e-02 -3.0588014938e-03]
 [ 2.2585886983e-17  2.9656356099e-02  6.5190242821e-18 -1.0017198239e-17  9.9951368521e-01  3.1680145350e-03 -2.2457122318e-03  8.8212288348e-03]
 [-9.4800404255e-04  2.8576297463e-17 -2.7299764185e-02 -1.4703092275e-02 -3.1680145350e-03  9.9951368521e-01  1.3687959457e-16 -1.9894082209e-18]
 [-2.9580126501e-03 -2.7755575616e-17 -1.4803460345e-02  2.7192969207e-02  2.2457122318e-03  1.1102230246e-16  9.9951368521e-01  1.7347234760e-18]
 [ 2.9706609055e-02 -2.7755575616e-16 -1.6553272995e-03  3.0588014938e-03 -8.8212288348e-03  0.0000000000e+00  8.6736173799e-18  9.9951368521e-01]]
N(g) (NO)
 [[ 1.0004061787 -0.0089669004]
 [ 0.0089669004  1.0004061787]]
P(g) (NO)
 [[ 1.0000000000e+00  2.6831844612e-18  2.2193045856e-17 -1.4244429042e-17 -1.0571049303e-16 -1.3572141635e-35 -4.8148248610e-35 -4.8148248610e-35]
 [ 7.4133030818e-19  1.0000000000e+00  1.0228062142e-35 -3.3597223013e-35  1.8701454993e-35 -3.2451734991e-18 -1.3819596495e-17 -1.4969884999e-17]
 [-2.0513249337e-05 -2.2885925412e-03 -4.5525148319e-22  2.9219952460e-22  2.1684657010e-21  7.4268798651e-21  3.1627425460e-20  3.4259967151e-20]
 [-2.4389823083e-05 -2.7210885156e-03 -5.4128446210e-22  3.4741910424e-22  2.5782602230e-21  8.8304043397e-21  3.7604345312e-20  4.0734382150e-20]
 [ 2.6592559149e-04  2.9668401881e-02  5.9016988463e-21 -3.7879582184e-21 -2.8111125386e-20 -9.6279111545e-20 -4.1000534263e-19 -4.4413256425e-19]
 [-9.4838910165e-04  8.5006578324e-06 -2.1047642822e-20  1.3509261262e-20  1.0025467952e-19 -2.7586109523e-23 -1.1747566118e-22 -1.2725387017e-22]
 [-2.9592141319e-03  2.6524204828e-05 -6.5673974928e-20  4.2152315721e-20  3.1281998486e-19 -8.6075646593e-23 -3.6655380806e-22 -3.9706429596e-22]
 [ 2.9718675248e-02 -2.6637620475e-04  6.5954792256e-19 -4.2332556078e-19 -3.1415758126e-18  8.6443700044e-22  3.6812116654e-21  3.9876211515e-21]]
time for NO, Ng: 0.013
Pg_ortho
 [[ 6.3623144058e-01 -4.6896203824e-01 -6.9290290092e-02  8.2711832561e-02  1.4142734155e-02  1.0424516949e-02 -1.5402479189e-03 -1.8385942360e-03]
 [-4.6869983116e-01  3.4547558345e-01  5.1044863859e-02 -6.0932263770e-02  1.8829023813e-02  1.3878750439e-02 -2.0506193799e-03 -2.4478247467e-03]
 [-6.9290290092e-02  5.1073420142e-02  7.5462229542e-03 -9.0079277865e-03 -1.5402479189e-03 -1.1353066784e-03  1.6774434319e-04  2.0023645461e-04]
 [ 8.2665586540e-02 -6.0932263770e-02 -9.0028912542e-03  1.0746753015e-02 -3.3209149950e-03 -2.4478247467e-03  3.6167210342e-04  4.3172805916e-04]
 [-1.4142734155e-02  1.0424516949e-02  1.5402479189e-03 -1.8385942360e-03  6.3623144058e-01  4.6896203824e-01 -6.9290290092e-02 -8.2711832561e-02]
 [ 1.8829023813e-02 -1.3878750439e-02 -2.0506193799e-03  2.4478247467e-03  4.6869983116e-01  3.4547558345e-01 -5.1044863859e-02 -6.0932263770e-02]
 [ 1.5402479189e-03 -1.1353066784e-03 -1.6774434319e-04  2.0023645461e-04 -6.9290290092e-02 -5.1073420142e-02  7.5462229542e-03  9.0079277865e-03]
 [-3.3209149950e-03  2.4478247467e-03  3.6167210342e-04 -4.3172805916e-04 -8.2665586540e-02 -6.0932263770e-02  9.0028912542e-03  1.0746753015e-02]]
G(g) (NO)
 [[ 2.7192295173e-01 -1.4700361256e-03 -1.1393137306e-02  4.5275622957e-03  4.9081668900e-02 -4.7265769259e-04 -8.3883946023e-06 -4.1796818859e-04]
 [ 1.4700361256e-03  2.7192295173e-01 -1.4179894055e-04  4.9219339497e-04 -3.6852651005e-04  1.2211415806e-02  9.8924073295e-03 -4.8086736438e-02]
 [-1.1393333236e-02 -3.4304733823e-03  8.1741144320e-01  4.7895695660e-02  1.8380503925e-01 -3.7469458109e-03 -1.9409658713e-04 -8.1824044367e-04]
 [ 4.5384528252e-03 -6.9359045638e-04  4.7895209617e-02  7.6467279525e-01  5.6247930713e-02 -1.4295072835e-03 -5.3066049526e-06 -5.7311989891e-04]
 [ 4.9013657447e-02 -1.9404228524e-02  1.8381081375e-01  5.6248517401e-02  9.2911122332e-01 -5.7741101907e-03  1.4111803679e-04 -2.0923685454e-03]
 [ 1.7221193392e-03  1.2215119550e-02 -2.1194290743e-04  1.0121800426e-03 -4.4746528199e-04  7.4734774634e-01 -4.7244324199e-02 -2.4893292134e-02]
 [-3.4655532182e-03  9.8896685200e-03  1.2379720908e-03 -3.8664960157e-03  5.3253195443e-04 -4.7244235505e-02  8.3736104411e-01  1.8819505984e-01]
 [-1.9333844569e-02 -4.8018012491e-02  1.4020561417e-03 -5.7186576830e-03  1.4671848019e-03 -2.4892357443e-02  1.8820080822e-01  9.2648667132e-01]]
time for Gg: 0.021
C(NO)
[[ 1.0000000000e+00  0.0000000000e+00 -1.1293693071e-16 -2.6880297977e-17  5.8089342434e-17  0.0000000000e+00  0.0000000000e+00  0.0000000000e+00]
 [ 0.0000000000e+00  1.0000000000e+00  0.0000000000e+00  0.0000000000e+00  0.0000000000e+00  1.8727774421e-18 -6.9388939039e-17  2.2204460493e-16]
 [ 7.1066968942e-18  0.0000000000e+00  2.3705134921e-01 -2.4324938428e-01  9.4055111232e-01  0.0000000000e+00  0.0000000000e+00  0.0000000000e+00]
 [-2.6465055183e-17  0.0000000000e+00  1.3580878489e-01  9.6693689488e-01  2.1584488708e-01  0.0000000000e+00  0.0000000000e+00  0.0000000000e+00]
 [-3.0837479794e-17  0.0000000000e+00 -9.6195770790e-01  7.6568781985e-02  2.6224909884e-01  0.0000000000e+00  0.0000000000e+00  0.0000000000e+00]
 [ 0.0000000000e+00 -2.5619977818e-17  0.0000000000e+00  0.0000000000e+00  0.0000000000e+00  2.7155044565e-02 -9.9958483935e-01 -9.6308101134e-03]
 [ 0.0000000000e+00 -1.0803350692e-17  0.0000000000e+00  0.0000000000e+00  0.0000000000e+00  2.6556607951e-01  1.6501942782e-02 -9.6395142165e-01]
 [ 0.0000000000e+00  7.4960079595e-17  0.0000000000e+00  0.0000000000e+00  0.0000000000e+00 -9.6371015402e-01 -2.3618527329e-02 -2.6590393792e-01]]
detC 0.9999999999999994
detNg [ 1.0008929278  1.0237511059  1.1384514782  1.4889226435  2.4335990661  4.8982521762  9.4570988646 11.9857045205]
xg [0.9991078688 0.9767999216 0.8783861404 0.6716265646 0.4109140301 0.2041544543 0.1057406732 0.0834327259]
ciS 1.0825405947299886
ciH -1.3797342556347973
0.9999999999999998 -2.8053731213062427e-18 -0.02862095699675669j 6.765421556309548e-17
0.5413440330607048 0.0004095795897050981 -0.000409579589705098 0.45865596693929495
0.9999999999999998 -1.2793585635328952e-17 -0.14745885236781048j 7.19910242530375e-17
0.5432540089701173 0.010872056570815861 -0.01087205657081586 0.45674599102988217
0.9999999999999998 -8.023096076392733e-17 -0.35417708241262713j -1.1709383462843448e-17
0.5534892672791426 0.06272070285316042 -0.06272070285316043 0.446510732720857
1.0 -1.8865117801247777e-17 -0.6548555048716412j -6.852157730108388e-17
0.5914917358691559 0.2144178661303461 -0.2144178661303461 0.4085082641308443
0.9999999999999999 -2.242130092700023e-16 -1.070341533236194j -7.719519468096792e-17
0.7444193913109116 0.5728154988852033 -0.5728154988852034 0.2555806086890881
1.0 -3.660266534311063e-16 -1.5238670228096707j -1.3010426069826053e-18
1.4901930603553901 1.161085351603405 -1.161085351603405 -0.49019306035538973
1.0000000000000002 -9.194034422677078e-17 -1.3621796716065881j -3.469446951953614e-16
4.191079985768499 0.9277667288691162 -0.927766728869116 -3.1910799857684986
1.0000000000000002 -5.160802341031001e-17 -0.34273629489729585j -8.673617379884035e-18
6.428771766009057 0.058734083919963063 -0.058734083919963063 -5.4287717660090555
S2 = -0.000000
X(g)
[[ 2.0000000000e+00  6.9388939039e-18 -2.0513249337e-05 -2.4389823083e-05  2.6592559149e-04  9.4838910165e-04  2.9592141319e-03 -2.9718675248e-02]
 [-1.7347234760e-18  2.0000000000e+00  2.2885925412e-03  2.7210885156e-03 -2.9668401881e-02  8.5006578325e-06  2.6524204828e-05 -2.6637620475e-04]
 [-2.0513249337e-05 -2.2885925412e-03  0.0000000000e+00  0.0000000000e+00  0.0000000000e+00  0.0000000000e+00  0.0000000000e+00  0.0000000000e+00]
 [-2.4389823083e-05 -2.7210885156e-03  0.0000000000e+00  0.0000000000e+00  0.0000000000e+00  0.0000000000e+00  0.0000000000e+00  0.0000000000e+00]
 [ 2.6592559149e-04  2.9668401881e-02  0.0000000000e+00  0.0000000000e+00  0.0000000000e+00  0.0000000000e+00  0.0000000000e+00  0.0000000000e+00]
 [-9.4838910165e-04  8.5006578324e-06  0.0000000000e+00  0.0000000000e+00  0.0000000000e+00  0.0000000000e+00  0.0000000000e+00  0.0000000000e+00]
 [-2.9592141319e-03  2.6524204828e-05  0.0000000000e+00  0.0000000000e+00  0.0000000000e+00  0.0000000000e+00  0.0000000000e+00  0.0000000000e+00]
 [ 2.9718675248e-02 -2.6637620475e-04  0.0000000000e+00  0.0000000000e+00  0.0000000000e+00  0.0000000000e+00  0.0000000000e+00  0.0000000000e+00]]
X(g) int
[[ 2.0000000000e+00  1.3158728599e-16 -1.9469768601e-02 -2.3149146381e-02  2.5239832298e-01  2.2056416334e-02  6.8821603710e-02 -6.9115880080e-01]
 [ 2.7721095247e-17  2.0000000000e+00  5.3225147591e-02  6.3283583794e-02 -6.8998960734e-01  8.0682410786e-03  2.5174955067e-02 -2.5282601416e-01]
 [-1.9469768601e-02 -5.3225147591e-02  0.0000000000e+00  0.0000000000e+00  0.0000000000e+00  0.0000000000e+00  0.0000000000e+00  0.0000000000e+00]
 [-2.3149146381e-02 -6.3283583794e-02  0.0000000000e+00  0.0000000000e+00  0.0000000000e+00  0.0000000000e+00  0.0000000000e+00  0.0000000000e+00]
 [ 2.5239832298e-01  6.8998960734e-01  0.0000000000e+00  0.0000000000e+00  0.0000000000e+00  0.0000000000e+00  0.0000000000e+00  0.0000000000e+00]
 [-2.2056416334e-02  8.0682410786e-03  0.0000000000e+00  0.0000000000e+00  0.0000000000e+00  0.0000000000e+00  0.0000000000e+00  0.0000000000e+00]
 [-6.8821603710e-02  2.5174955067e-02  0.0000000000e+00  0.0000000000e+00  0.0000000000e+00  0.0000000000e+00  0.0000000000e+00  0.0000000000e+00]
 [ 6.9115880080e-01 -2.5282601416e-01  0.0000000000e+00  0.0000000000e+00  0.0000000000e+00  0.0000000000e+00  0.0000000000e+00  0.0000000000e+00]]
Hsp + Hph =  -1.2745335023477211
Feff (mod,ortho)
[[-0.2308163172  0.3318709593  0.2236619129  0.0397983682  0.            0.            0.            0.          ]
 [ 0.3318709593  0.0030568182  0.0736695092  0.3306629314  0.            0.            0.            0.          ]
 [ 0.2236619129  0.0736695092  1.1211906459  0.0508694262  0.            0.            0.            0.          ]
 [ 0.0397983682  0.3306629314  0.0508694262  1.1166619521  0.            0.            0.            0.          ]
 [ 0.            0.            0.            0.           -0.2308163172 -0.3318709593  0.2236619129 -0.0397983682]
 [ 0.            0.            0.            0.           -0.3318709593  0.0030568182 -0.0736695092  0.3306629314]
 [ 0.            0.            0.            0.            0.2236619129 -0.0736695092  1.1211906459 -0.0508694262]
 [ 0.            0.            0.            0.           -0.0397983682  0.3306629314 -0.0508694262  1.1166619521]]
F(mod,ortho) updated with CDIIS
[[[-0.2308163171  0.3318709593  0.223661913   0.0397983681]
  [ 0.3318709593  0.0030568181  0.0736695092  0.3306629315]
  [ 0.223661913   0.0736695092  1.1211906459  0.0508694262]
  [ 0.0397983681  0.3306629315  0.0508694262  1.1166619521]]

 [[-0.2308163171 -0.3318709593  0.223661913  -0.0397983681]
  [-0.3318709593  0.0030568181 -0.0736695092  0.3306629315]
  [ 0.223661913  -0.0736695092  1.1211906459 -0.0508694262]
  [-0.0397983681  0.3306629315 -0.0508694262  1.1166619521]]]
Alpha occ 1 vir 3; Beta occ 1 vir 3
Alpha energies:  [-0.4946207656] <- HOMO
         LUMO->  [0.1219281958 1.0988253817 1.283960287 ]
Beta energies:   [-0.4946207656] <- HOMO
         LUMO->  [0.1219281958 1.0988253817 1.283960287 ]
e_a, e_b
 [-0.4946207656  0.1219281958  1.0988253817  1.283960287 ] 
 [-0.4946207656  0.1219281958  1.0988253817  1.283960287 ]
v_a, v_b
 [[ 0.7975617066 -0.5732885075  0.0900046244  0.1647263759]
 [-0.5878775229 -0.7561293528 -0.100110005   0.2695299736]
 [-0.0868603443  0.1705432304  0.7900354027  0.5824211102]
 [ 0.1036852097  0.2655629786 -0.5980979994  0.749002313 ]] 
 [[ 0.7975617066  0.5732885075 -0.0900046244  0.1647263759]
 [ 0.5878775229 -0.7561293528 -0.100110005  -0.2695299736]
 [-0.0868603443 -0.1705432304 -0.7900354027  0.5824211102]
 [-0.1036852097  0.2655629786 -0.5980979994 -0.749002313 ]]
P_a, P_b
 [[ 0.6361046759 -0.4688686005 -0.0692764845  0.0826953528]
 [-0.4688686005  0.345599982   0.0510632441 -0.0609542043]
 [-0.0692764845  0.0510632441  0.0075447194 -0.009006133 ]
 [ 0.0826953528 -0.0609542043 -0.009006133   0.0107506227]] 
 [[ 0.6361046759  0.4688686005 -0.0692764845 -0.0826953528]
 [ 0.4688686005  0.345599982  -0.0510632441 -0.0609542043]
 [-0.0692764845 -0.0510632441  0.0075447194  0.009006133 ]
 [-0.0826953528 -0.0609542043  0.009006133   0.0107506227]]
time for xg, H, S2, Yg, Feff: 0.022

***************
SUHF converged at cycle 12
Final E(SUHF) =     -1.00994490, delta E = -2.8981e-11, MaxD(dm) = 3.09018e-10, RMSD(dm) = 1.16447e-10
dm_reg
 [[[1.3933181765e-01 2.6226384662e-01 1.9909043427e-03 2.0708293087e-02]
  [2.6226384662e-01 4.9365842208e-01 3.7474730467e-03 3.8979155614e-02]
  [1.9909043427e-03 3.7474730467e-03 2.8447917847e-05 2.9589961097e-04]
  [2.0708293087e-02 3.8979155614e-02 2.9589961097e-04 3.0777851739e-03]]

 [[2.8447917847e-05 2.9589961097e-04 1.9909043427e-03 3.7474730467e-03]
  [2.9589961097e-04 3.0777851739e-03 2.0708293087e-02 3.8979155614e-02]
  [1.9909043427e-03 2.0708293087e-02 1.3933181765e-01 2.6226384662e-01]
  [3.7474730467e-03 3.8979155614e-02 2.6226384662e-01 4.9365842208e-01]]]
mo_reg
 [[-0.3732717745 -0.0827862706 -1.2513972121  0.1959491265]
 [-0.7026082992 -0.2059771904  1.119703327  -0.3413827732]
 [-0.005333659   0.1698002773 -0.1610010621 -1.3022267479]
 [-0.0554777899  0.9047664758 -0.0668003056  1.0393364815]] 
 [[-0.005333659  -0.1698002773  0.1610010621 -1.3022267479]
 [-0.0554777899 -0.9047664758  0.0668003056  1.0393364815]
 [-0.3732717745  0.0827862706  1.2513972121  0.1959491265]
 [-0.7026082992  0.2059771904 -1.119703327  -0.3413827732]]
time for cyc: 0.664
******* suhf density *****
time for Ngg: 0.002
time for Pgg: 0.004
time for xgg: 0.000
Clebsch-Gordan coeff: < 0 0 0 0 | 0 0 > = 1
Clebsch-Gordan coeff: < 0 0 1 0 | 0 0 > = 0
xggint 1.0
SUHF DM alpha
 [[0.0648955961 0.1245153575 0.0203317291 0.046136313 ]
 [0.1245153575 0.2397755512 0.046136313  0.1019222851]
 [0.0203317291 0.046136313  0.0648955961 0.1245153575]
 [0.046136313  0.1019222851 0.1245153575 0.2397755512]] 
SUHF DM beta
 [[0.0648955961 0.1245153575 0.0203317291 0.046136313 ]
 [0.1245153575 0.2397755512 0.046136313  0.1019222851]
 [0.0203317291 0.046136313  0.0648955961 0.1245153575]
 [0.046136313  0.1019222851 0.1245153575 0.2397755512]]
time for 1pdm: 0.016
SUHF natural orbitals alpha
 [[-0.2359566186  0.3081811236  1.0622193797 -0.6867425177]
 [-0.4724586982  0.5420297568 -1.0876485686  0.4542795132]
 [-0.2359566186 -0.3081811236 -0.7042159081 -1.0507165417]
 [-0.4724586982 -0.5420297568  0.8194701675  0.8472413643]]
SUHF natural orbitals beta
 [[-0.2359566186  0.3081811236  1.0622193797 -0.6867425177]
 [-0.4724586982  0.5420297568 -1.0876485686  0.4542795132]
 [-0.2359566186 -0.3081811236 -0.7042159081 -1.0507165417]
 [-0.4724586982 -0.5420297568  0.8194701675  0.8472413643]]
SUHF natural orbitals, total
 [[-0.2359566186  0.3081811236  1.0622193797 -0.6867425177]
 [-0.4724586982  0.5420297568 -1.0876485686  0.4542795132]
 [-0.2359566186 -0.3081811236 -0.7042159081 -1.0507165417]
 [-0.4724586982 -0.5420297568  0.8194701675  0.8472413643]]
SUHF NO occ alpha:  0.765393  0.234607  ...
SUHF NO occ beta:   0.765393  0.234607  ...
SUHF NO occ total:  1.530786  0.469214  ...
core 0, active 2, external 2
time for natorb: 0.002
time tot: 0.777
F0 (array([[-0.236126,  0.329186,  0.217224,  0.027923],
       [ 0.329186,  0.009899,  0.079134,  0.338558],
       [ 0.217224,  0.079134,  1.122656,  0.051251],
       [ 0.027923,  0.338558,  0.051251,  1.113664]]), array([[-0.236126, -0.329186,  0.217224, -0.027923],
       [-0.329186,  0.009899, -0.079134,  0.338558],
       [ 0.217224, -0.079134,  1.122656, -0.051251],
       [-0.027923,  0.338558, -0.051251,  1.113664]]))
[array([[ 0.797562, -0.573289,  0.090005,  0.164726],
       [-0.587878, -0.756129, -0.10011 ,  0.26953 ],
       [-0.08686 ,  0.170543,  0.790035,  0.582421],
       [ 0.103685,  0.265563, -0.598098,  0.749002]]), array([[ 0.797562,  0.573289, -0.090005,  0.164726],
       [ 0.587878, -0.756129, -0.10011 , -0.26953 ],
       [-0.08686 , -0.170543, -0.790035,  0.582421],
       [-0.103685,  0.265563, -0.598098, -0.749002]])]
ca,cb [[ 1.        0.        0.        0.      ]
 [ 0.        0.961874 -0.090421  0.258114]
 [ 0.       -0.051464  0.867066  0.495528]
 [ 0.       -0.268608 -0.489919  0.829355]] [[ 1.        0.        0.        0.      ]
 [ 0.        0.961874 -0.090421 -0.258114]
 [ 0.        0.051464 -0.867066  0.495528]
 [ 0.       -0.268608 -0.489919 -0.829355]]
ca,cb (sc) [[ 1.        0.        0.        0.      ]
 [ 0.        0.961874 -0.051464 -0.268608]
 [ 0.       -0.090421  0.867066 -0.489919]
 [ 0.        0.258114  0.495528  0.829355]] [[ 1.        0.        0.        0.      ]
 [ 0.        0.961874  0.051464 -0.268608]
 [ 0.       -0.090421 -0.867066 -0.489919]
 [ 0.       -0.258114  0.495528 -0.829355]]
[-0.236126 -0.088879  1.085445  1.249653] [-0.236126 -0.088879  1.085445  1.249653]
(array([[-0.236126,  0.297956,  0.144902,  0.215766],
       [ 0.297956, -0.088879, -0.      , -0.      ],
       [ 0.144902,  0.      ,  1.085445,  0.      ],
       [ 0.215766, -0.      ,  0.      ,  1.249653]]), array([[-0.236126, -0.297956, -0.144902,  0.215766],
       [-0.297956, -0.088879, -0.      , -0.      ],
       [-0.144902,  0.      ,  1.085445, -0.      ],
       [ 0.215766, -0.      , -0.      ,  1.249653]]))
NO eigenvalue
[-1. -0.  0.  0.] 
 [-1. -0.  0.  0.]
NO vec
[[ 0.797562  0.       -0.15813   0.008274 -0.582084  0.        0.        0.      ]
 [-0.587878  0.        0.0125    0.01951  -0.808618  0.        0.        0.      ]
 [-0.08686   0.       -0.660099  0.742767  0.070866  0.        0.        0.      ]
 [ 0.103685  0.        0.73424   0.669215 -0.047885  0.        0.        0.      ]
 [ 0.        0.797562  0.        0.        0.       -0.014615  0.026111 -0.602495]
 [ 0.        0.587878  0.        0.        0.        0.239332 -0.07371   0.769212]
 [ 0.       -0.08686   0.        0.        0.        0.47479  -0.860351 -0.163785]
 [ 0.       -0.103685  0.        0.        0.        0.846806  0.503667 -0.135968]]
dm(NO)
[[ 1.  0.  0.  0.  0.  0.  0.  0.]
 [ 0.  1.  0.  0.  0. -0. -0.  0.]
 [ 0.  0. -0.  0.  0.  0.  0.  0.]
 [ 0.  0.  0.  0.  0.  0.  0.  0.]
 [ 0.  0.  0.  0.  0.  0.  0.  0.]
 [ 0.  0.  0.  0.  0. -0. -0.  0.]
 [ 0. -0.  0.  0.  0.  0. -0. -0.]
 [ 0.  0.  0.  0.  0.  0. -0.  0.]]
C(NO)
[[ 1.        0.       -0.        0.       -0.        0.        0.        0.      ]
 [ 0.        1.        0.        0.        0.        0.        0.        0.      ]
 [ 0.        0.        0.163614 -0.976133  0.142813  0.        0.        0.      ]
 [ 0.        0.        0.284898  0.185348  0.940468  0.        0.        0.      ]
 [ 0.        0.        0.944491  0.113187 -0.308423  0.        0.        0.      ]
 [ 0.       -0.        0.        0.        0.       -0.045436 -0.904218 -0.424647]
 [ 0.       -0.        0.        0.        0.        0.351186  0.383495 -0.854167]
 [ 0.        0.        0.        0.        0.       -0.935203  0.18794  -0.300124]]
detC 0.9999999999999997
detNg [ 1.000893  1.023751  1.138451  1.488923  2.433599  4.898252  9.457099 11.985704]
xg [0.999108 0.9768   0.878386 0.671627 0.410914 0.204154 0.105741 0.083433]
ciS 1.0825405950685425
[0.9991078688282827, 0.9767999215870778, 0.8783861404846081, 0.6716265647161074, 0.4109140303524377, 0.20415445458393702, 0.10574067348146726, 0.08343272624026243]
(3, 3)
emp2 -0.0006084771859948112
