#INFO: **** input file is /share/home/srwang/ExSCF/test/pt2/test.py ****
#import phf
from pyscf import lib
#import scipy
#import numpy as np
#import sys

from pyphf import util, guess, pt2

lib.num_threads(4)

xyz = '''H 0.0 0.0 0.0; H 0.0 0.0 0.7''' #sys.argv[1]
#fch = '../test_carlos/test_uhf.fchk' #sys.argv[2]
bas = '3-21g'


#mf = util.guess_from_fchk(xyz, bas, fch)
mf = guess.mix(xyz, bas, cycle=2)

mf2 = util.SUHF(mf)
mf2.cut_no = False
mf2.verbose = 6
mf2.diis_on = True
mf2.max_cycle = 30
mf2.kernel()

mf4 = pt2.EMP2(mf2)
mf4.kernel()#INFO: ******************** input file end ********************


System: uname_result(system='Linux', node='xn01', release='3.10.0-1127.el7.x86_64', version='#1 SMP Tue Feb 18 16:39:12 EST 2020', machine='x86_64', processor='x86_64')  Threads 4
Python 3.7.4 (default, Aug 13 2019, 20:35:49) 
[GCC 7.3.0]
numpy 1.17.2  scipy 1.4.1
Date: Tue Apr 27 17:38:17 2021
PySCF version 1.7.6a1
PySCF path  /share/home/srwang/pyscf/pyscf
GIT HEAD      ref: refs/heads/master
GIT master branch  80f71dfe77ac5f9caae26788acf76446987635bd

[CONFIG] conf_file None
[INPUT] verbose = 4
[INPUT] num. atoms = 2
[INPUT] num. electrons = 2
[INPUT] charge = 0
[INPUT] spin (= nelec alpha-beta = 2S) = 0
[INPUT] symmetry False subgroup None
[INPUT] Mole.unit = angstrom
[INPUT]  1 H      0.000000000000   0.000000000000   0.000000000000 AA    0.000000000000   0.000000000000   0.000000000000 Bohr
[INPUT]  2 H      0.000000000000   0.000000000000   0.700000000000 AA    0.000000000000   0.000000000000   1.322808287196 Bohr

nuclear repulsion = 0.755967444171429
number of shells = 4
number of NR pGTOs = 6
number of NR cGTOs = 4
basis = 3-21g
ecp = {}
CPU time:         1.08


******** <class 'pyscf.scf.hf.RHF'> ********
method = RHF
initial guess = minao
damping factor = 0
level_shift factor = 0
DIIS = <class 'pyscf.scf.diis.CDIIS'>
diis_start_cycle = 1
diis_space = 8
SCF conv_tol = 1e-05
SCF conv_tol_grad = None
SCF max_cycles = 50
direct_scf = True
direct_scf_tol = 1e-13
chkfile to save SCF result = /share/home/srwang/ExSCF/test/pt2/tmp168jxe3d
max_memory 4000 MB (current use 107 MB)
Set gradient conv threshold to 0.00316228
init E= -0.809492387824341
  HOMO = -0.571271212298006  LUMO = 0.221928104537945
cycle= 1 E= -1.12131636578182  delta_E= -0.312  |g|= 0.0419  |ddm|= 0.61
  HOMO = -0.610785709199711  LUMO = 0.271712959833097
cycle= 2 E= -1.12198122031277  delta_E= -0.000665  |g|= 0.00595  |ddm|= 0.0337
  HOMO = -0.60529297342371  LUMO = 0.275825863732264
cycle= 3 E= -1.12199495321398  delta_E= -1.37e-05  |g|= 3.66e-06  |ddm|= 0.0056
  HOMO = -0.605284797752085  LUMO = 0.275825289722973
cycle= 4 E= -1.12199495321826  delta_E= -4.28e-12  |g|= 1.53e-06  |ddm|= 2e-06
  HOMO = -0.605279096156691  LUMO = 0.275824724832419
Extra cycle  E= -1.12199495321916  delta_E= -8.95e-13  |g|= 2.19e-07  |ddm|= 1.24e-06
converged SCF energy = -1.12199495321916


******** <class 'pyscf.scf.uhf.UHF'> ********
method = UHF
initial guess = minao
damping factor = 0
level_shift factor = 0
DIIS = <class 'pyscf.scf.diis.CDIIS'>
diis_start_cycle = 1
diis_space = 8
SCF conv_tol = 0.001
SCF conv_tol_grad = None
SCF max_cycles = 2
direct_scf = True
direct_scf_tol = 1e-13
chkfile to save SCF result = /share/home/srwang/ExSCF/test/pt2/tmpd9ol5cba
max_memory 4000 MB (current use 117 MB)
number electrons alpha = 1  beta = 1
Set gradient conv threshold to 0.0316228
init E= -1.24050338709601
  alpha nocc = 1  HOMO = -0.148783276988405  LUMO = 1.00853567111445
  beta  nocc = 1  HOMO = -0.148783276988404  LUMO = 1.00853567111445
cycle= 1 E= -0.887716109460425  delta_E= 0.353  |g|= 0.324  |ddm|= 6.58
  alpha nocc = 1  HOMO = -0.649148382562616  LUMO = 0.230572314791481
  beta  nocc = 1  HOMO = -0.649148382562617  LUMO = 0.230572314791483
cycle= 2 E= -1.05787242230028  delta_E= -0.17  |g|= 0.15  |ddm|= 1.61
SCF not converged.
SCF energy = -1.05787242230028 after 2 cycles  <S^2> = 0.35694949  2S+1 = 1.5581393
time for guess: 0.062

******** <class 'pyphf.util.SUHF'> ********
max_cycle = 30
verbose: 6, debug
chkfile0: 20421_ges.pchk # the file store hf for guess
chkfile: 20421_su.pchk # the file store suhf info
conv_tol: 1e-07
DIIS: <class 'pyscf.scf.diis.CDIIS'>
diis_start_cyc = 10
S
[[1.         0.64589894 0.44291081 0.49569927]
 [0.64589894 1.         0.49569927 0.85190806]
 [0.44291081 0.49569927 1.         0.64589894]
 [0.49569927 0.85190806 0.64589894 1.        ]]
SVD: S^(-1/2)
[[-0.27083973  0.86292491 -0.77657705  0.70048955]
 [-0.32366739  0.28285148  0.64982734 -2.13705753]
 [-0.27083973 -0.86292491 -0.77657705 -0.70048955]
 [-0.32366739 -0.28285148  0.64982734  2.13705753]]
S^(1/2)
[[-0.76029568 -0.90859239 -0.76029568 -0.90859239]
 [ 0.52321034  0.17149907 -0.52321034 -0.17149907]
 [-0.37868969  0.31688152 -0.37868969  0.31688152]
 [ 0.06924981 -0.2112677  -0.06924981  0.2112677 ]]
C (ortho)
 [[-0.94853175 -0.30886346  0.03581831  0.06006611]
 [-0.26530273  0.67614191 -0.04509395 -0.68586669]
 [-0.035209    0.00998778 -0.99536721  0.0889083 ]
 [ 0.16929947 -0.66883162 -0.07699155 -0.71977375]] 
 [[-0.94853175 -0.30886346  0.03581831  0.06006611]
 [ 0.26530273 -0.67614191  0.04509395  0.68586669]
 [-0.035209    0.00998778 -0.99536721  0.0889083 ]
 [-0.16929947  0.66883162  0.07699155  0.71977375]]
density matrix (ortho)
[[[ 0.89971248  0.25164806  0.03339686 -0.16058593]
  [ 0.25164806  0.07038554  0.00934104 -0.04491561]
  [ 0.03339686  0.00934104  0.00123967 -0.00596087]
  [-0.16058593 -0.04491561 -0.00596087  0.02866231]]

 [[ 0.89971248 -0.25164806  0.03339686  0.16058593]
  [-0.25164806  0.07038554 -0.00934104 -0.04491561]
  [ 0.03339686 -0.00934104  0.00123967  0.00596087]
  [ 0.16058593 -0.04491561  0.00596087  0.02866231]]]
grids:  [0.06237655 0.31939555 0.74529195 1.28265786 1.85893479 2.39630071
 2.8221971  3.07921611] 
weights:  [0.15900941 0.34931531 0.49276925 0.56970235 0.56970235 0.49276925
 0.34931531 0.15900941]
S = 0.0, Sz = 0.0
Wigner small d:  1
value : [1. 1. 1. 1. 1. 1. 1. 1.]
hcore (ortho)
 [[-1.26019167e+00 -2.93865973e-16 -2.09809237e-01 -7.03504179e-16]
 [-2.69347545e-16 -3.02546201e-01  7.26025704e-16  4.50565619e-01]
 [-2.09809237e-01  6.83014188e-16 -1.28580828e-01 -9.60477094e-16]
 [-4.69033207e-16  4.50565619e-01 -1.09554287e-15  9.97565712e-02]]
time for Preparation before cyc: 0.096
**** Start Cycle 1 ****
dm (ortho)
[[[ 0.8997124764  0.251648061   0.0333968556 -0.1605859262]
  [ 0.251648061   0.0703855379  0.0093410441 -0.0449156125]
  [ 0.0333968556  0.0093410441  0.0012396738 -0.0059608654]
  [-0.1605859262 -0.0449156125 -0.0059608654  0.028662312 ]]

 [[ 0.8997124764 -0.251648061   0.0333968556  0.1605859262]
  [-0.251648061   0.0703855379 -0.0093410441 -0.0449156125]
  [ 0.0333968556 -0.0093410441  0.0012396738  0.0059608654]
  [ 0.1605859262 -0.0449156125  0.0059608654  0.028662312 ]]]
Fock (ortho)
 (array([[-0.5757340058, -0.204423494 , -0.0482227936,  0.0390800234],
       [-0.204423494 ,  0.8863436788, -0.0578214985,  0.6549032618],
       [-0.0482227936, -0.0578214985,  0.8852498626, -0.0197519139],
       [ 0.0390800234,  0.6549032618, -0.0197519139,  0.9036060791]]), array([[-0.5757340058,  0.204423494 , -0.0482227936, -0.0390800234],
       [ 0.204423494 ,  0.8863436788,  0.0578214985,  0.6549032618],
       [-0.0482227936,  0.0578214985,  0.8852498626,  0.0197519139],
       [-0.0390800234,  0.6549032618,  0.0197519139,  0.9036060791]]))
E(UHF) =    -1.813840
NO eigenvalue
[-1.0000000000e+00 -2.9613154359e-17 -1.9261524470e-19  1.4526399172e-18] 
 [-1.0000000000e+00 -1.6080288996e-19  3.4048107297e-18  8.3808048479e-17]
NO vec
[[ 0.9485317477  0.            0.3070489902  0.0148952054 -0.0760695348  0.            0.            0.          ]
 [ 0.2653027288  0.           -0.8761868487  0.3709558125 -0.1558937247  0.            0.            0.          ]
 [ 0.0352090014  0.           -0.2158456009 -0.7808989066 -0.5851221245  0.            0.            0.          ]
 [-0.1692994742  0.            0.3023709648  0.5023612403 -0.7921759097  0.            0.            0.          ]
 [ 0.            0.9485317477  0.            0.            0.            0.0054476257 -0.0253811267 -0.3156162946]
 [ 0.           -0.2653027288  0.            0.            0.            0.0055893426  0.4805267815 -0.8358691486]
 [ 0.            0.0352090014  0.            0.            0.            0.9744612622  0.1942519197  0.1070129262]
 [ 0.            0.1692994742  0.            0.            0.           -0.2244199882  0.8548192805  0.4361850005]]
dm(NO)
[[ 1.0000000000e+00  0.0000000000e+00  3.7676154941e-18  1.7162123908e-17  2.9993454348e-17  0.0000000000e+00  0.0000000000e+00  0.0000000000e+00]
 [ 0.0000000000e+00  1.0000000000e+00  0.0000000000e+00  0.0000000000e+00  0.0000000000e+00 -1.7855853814e-18 -2.3050335120e-17 -5.3213537015e-17]
 [-1.8554484509e-17  0.0000000000e+00 -4.4350542213e-18 -3.2293977231e-18  5.2752094693e-18  0.0000000000e+00  0.0000000000e+00  0.0000000000e+00]
 [-1.7915651559e-18  0.0000000000e+00 -4.5593036338e-18  9.1677499664e-19  1.0995520598e-18  0.0000000000e+00  0.0000000000e+00  0.0000000000e+00]
 [ 2.8963527849e-17  0.0000000000e+00  2.3453172419e-18 -4.6495448182e-19 -5.2990986287e-19  0.0000000000e+00  0.0000000000e+00  0.0000000000e+00]
 [ 0.0000000000e+00  2.2874906236e-18  0.0000000000e+00  0.0000000000e+00  0.0000000000e+00  2.0226466971e-19 -9.6912317947e-19 -2.8615771306e-18]
 [ 0.0000000000e+00  3.2720386754e-18  0.0000000000e+00  0.0000000000e+00  0.0000000000e+00 -8.0976222313e-19  5.7866811780e-19 -8.3216108223e-19]
 [ 0.0000000000e+00 -7.2366660305e-17  0.0000000000e+00  0.0000000000e+00  0.0000000000e+00 -5.9856646553e-19 -6.0579119565e-18  7.8359856247e-18]]
D(g) (NO)
 [[ 9.9951368521e-01  2.5005956481e-02 -3.1176755471e-17  1.0940678273e-17  3.4961540000e-17  2.4620431395e-03 -1.0749097390e-03 -1.8435783895e-02]
 [-2.5005956481e-02  9.9951368521e-01 -1.7689990464e-02  8.3359573281e-04  5.7848570192e-03  2.3511541925e-18  6.3059204534e-17 -4.9211480751e-17]
 [-4.8334599246e-18  1.7689990464e-02  9.9951368521e-01 -9.6238290732e-17 -1.5555823684e-16 -8.7754528617e-03 -6.6195855684e-03  2.3208399904e-02]
 [-1.2823930504e-17 -8.3359573281e-04 -8.2770955183e-17  9.9951368521e-01 -9.3973433134e-17 -2.7177455824e-02  1.4207482792e-02 -5.5885168477e-03]
 [ 3.2539032349e-17 -5.7848570192e-03 -1.1686777656e-16  1.4987827057e-17  9.9951368521e-01 -1.2276348819e-02 -2.6936335375e-02 -7.9154027224e-03]
 [-2.4620431395e-03 -3.7541682757e-19  8.7754528617e-03  2.7177455824e-02  1.2276348819e-02  9.9951368521e-01 -6.3227597397e-18  3.9092222099e-17]
 [ 1.0749097390e-03  5.2041704279e-17  6.6195855684e-03 -1.4207482792e-02  2.6936335375e-02  0.0000000000e+00  9.9951368521e-01  1.3183898417e-16]
 [ 1.8435783895e-02 -5.5511151231e-17 -2.3208399904e-02  5.5885168477e-03  7.9154027224e-03  5.5511151231e-17  1.3183898417e-16  9.9951368521e-01]]
N(g) (NO)
 [[ 0.9998607321 -0.0250146389]
 [ 0.0250146389  0.9998607321]]
P(g) (NO)
 [[ 1.0000000000e+00  2.0969583783e-18  3.7676154941e-18  1.7162123908e-17  2.9993454348e-17 -7.6947986119e-36 -9.6296497219e-35  0.0000000000e+00]
 [-1.7850462911e-18  1.0000000000e+00  1.2806478719e-36  2.6453930240e-35  2.6197252567e-36 -1.7855853814e-18 -2.3050335120e-17 -5.3213537015e-17]
 [ 4.4250872436e-04  1.7687526816e-02  1.6672027262e-21  7.5943895577e-21  1.3272365223e-20 -3.1582589316e-20 -4.0770342056e-19 -9.4121586294e-19]
 [-2.0852096281e-05 -8.3347963967e-04 -7.8562681030e-23 -3.5786626010e-22 -6.2542639784e-22  1.4882490603e-21  1.9211985011e-20  4.4352399657e-20]
 [-1.4470610967e-04 -5.7840513743e-03 -5.4519698089e-22 -2.4834641844e-21 -4.3402360943e-21  1.0327917579e-20  1.3332432253e-19  3.0778983190e-19]
 [-2.4617002559e-03  6.1587120197e-05 -9.2747400260e-21 -4.2248004816e-20 -7.3834894244e-20 -1.0996906151e-22 -1.4196037596e-21 -3.2772685003e-21]
 [ 1.0747600386e-03 -2.6888479018e-05  4.0492825739e-21  1.8445164954e-20  3.2235766153e-20  4.8011675062e-23  6.1978845225e-22  1.4308310735e-21]
 [ 1.8433216382e-02 -4.6116447777e-04  6.9449271647e-20  3.1635314357e-19  5.5287583404e-19  8.2344854991e-22  1.0629995758e-20  2.4540193008e-20]]
time for NO, Ng: 0.014
Pg_ortho
 [[ 8.9985150170e-01  2.5168694613e-01  3.3402016161e-02 -1.6061074021e-01  5.5569850951e-03 -1.5542793512e-03  2.0627237450e-04  9.9184308497e-04]
 [ 2.5129435656e-01  7.0286607359e-02  9.3279148206e-03 -4.4852481262e-02 -1.4137927531e-02  3.9543544665e-03 -5.2479246075e-04 -2.5234196993e-03]
 [ 3.3402016161e-02  9.3424875395e-03  1.2398653350e-03 -5.9617865060e-03  2.0627237450e-04 -5.7694034971e-05  7.6567224410e-06  3.6816695523e-05]
 [-1.6036021430e-01 -4.4852481262e-02 -5.9524871156e-03  2.8622025602e-02  9.0219339573e-03 -2.5234196993e-03  3.3488946040e-04  1.6102873511e-03]
 [-5.5569850951e-03 -1.5542793512e-03 -2.0627237450e-04  9.9184308497e-04  8.9985150170e-01 -2.5168694613e-01  3.3402016161e-02  1.6061074021e-01]
 [-1.4137927531e-02 -3.9543544665e-03 -5.2479246075e-04  2.5234196993e-03 -2.5129435656e-01  7.0286607359e-02 -9.3279148206e-03 -4.4852481262e-02]
 [-2.0627237450e-04 -5.7694034971e-05 -7.6567224410e-06  3.6816695523e-05  3.3402016161e-02 -9.3424875395e-03  1.2398653350e-03  5.9617865060e-03]
 [ 9.0219339573e-03  2.5234196993e-03  3.3488946040e-04 -1.6102873511e-03  1.6036021430e-01 -4.4852481262e-02  5.9524871156e-03  2.8622025602e-02]]
G(g) (NO)
 [[ 5.9999366513e-01 -1.8208141572e-03  5.6035658024e-02 -1.2070677241e-01 -1.2594403870e-01 -5.2649306709e-04  1.1115090402e-03 -1.4546608117e-03]
 [ 1.8208141572e-03  5.9999366513e-01 -1.6287589990e-03  5.0603996473e-04 -8.4838260843e-04  1.6501240994e-01  1.7382031375e-02 -7.7722521263e-02]
 [ 5.5848749414e-02 -1.0766166594e-02  1.0662387569e+00 -2.3910212319e-01  1.4205626832e-01 -2.0555720658e-03  1.0608923787e-03 -1.0790862791e-03]
 [-1.2066199941e-01  3.4145982177e-03 -2.3912929369e-01  1.1045711843e+00  9.3283499220e-03  2.1322430134e-03 -1.1750428412e-03  4.0134403724e-04]
 [-1.2591021028e-01  1.4667576618e-03  1.4202334427e-01  9.3474234255e-03  9.2029921309e-01 -2.6134250298e-04 -2.1766560603e-04  2.1075472643e-04]
 [ 1.8534268080e-03  1.6498341319e-01 -4.7977163526e-04  2.4851579755e-06 -1.1345753542e-03  9.9657630687e-01  5.8730619442e-02 -3.3757424114e-02]
 [ 2.8698330340e-03  1.7348586767e-02 -6.6008218808e-04 -6.4884966060e-04 -2.0169493755e-03  5.8707135224e-02  1.0809614043e+00 -2.8339689595e-01]
 [-1.0865084886e-02 -7.7532456907e-02  1.4751059780e-03  4.6134497292e-04  1.9830862031e-03 -3.3717163640e-02 -2.8340058561e-01  1.0135714432e+00]]
time for Gg: 0.021
C(NO)
[[-1.0000000000e+00  0.0000000000e+00  4.2928578685e-16  3.8288120358e-16 -2.6865606744e-16  0.0000000000e+00  0.0000000000e+00  0.0000000000e+00]
 [ 0.0000000000e+00 -1.0000000000e+00  0.0000000000e+00  0.0000000000e+00  0.0000000000e+00 -2.7086315607e-16  1.0581813203e-16 -1.0408340856e-16]
 [-5.2212017665e-18  0.0000000000e+00 -8.9165393832e-01  2.4207432555e-01  3.8256146589e-01  0.0000000000e+00  0.0000000000e+00  0.0000000000e+00]
 [-3.3498736833e-18  0.0000000000e+00 -9.7576340514e-02  7.2240925414e-01 -6.8454636608e-01  0.0000000000e+00  0.0000000000e+00  0.0000000000e+00]
 [-8.0061559843e-18  0.0000000000e+00  4.4207704311e-01  6.4770741114e-01  6.2051832971e-01  0.0000000000e+00  0.0000000000e+00  0.0000000000e+00]
 [ 0.0000000000e+00  3.2055612854e-18  0.0000000000e+00  0.0000000000e+00  0.0000000000e+00 -1.4582824101e-01 -9.8677806188e-01 -7.0733165551e-02]
 [ 0.0000000000e+00  1.4991186244e-17  0.0000000000e+00  0.0000000000e+00  0.0000000000e+00  2.5660531486e-01 -1.0677838776e-01  9.6059985858e-01]
 [ 0.0000000000e+00  6.3548880733e-17  0.0000000000e+00  0.0000000000e+00  0.0000000000e+00  9.5545164007e-01 -1.2193208147e-01 -2.6878379973e-01]]
detC 1.0000000000000007
detNg [1.0003472157 1.0091085078 1.0496653914 1.146470751  1.2973391681 1.4485071123 1.5335616943 1.5542488763]
xg [0.9996529048 0.9909737083 0.952684549  0.8722420516 0.7708084552 0.6903659578 0.6520767985 0.643397602 ]
ciS 1.6430505068211079
ciH -3.1060677675373616
0.9999999999999999 -7.716470149486676e-19 -0.01112928363505622j 4.434386885465713e-17
0.8217485694257589 6.19304771147651e-05 -6.19304771147651e-05 0.17825143057424098
1.0 3.2559946492455305e-18 -0.05655021310344042j -6.613633252161577e-17
0.8274091592629794 0.001598963301022262 -0.0015989633010222624 0.17259084073702075
1.0 1.0001765041178778e-17 -0.1270506003308919j -1.9114484300919443e-16
0.8542556991371132 0.008070927522220014 -0.008070927522220016 0.14574430086288706
1.0000000000000002 -2.0830234238877754e-17 -0.19618068193740076j 1.3335686721571705e-16
0.9226112442866871 0.0192434299827118 -0.0192434299827118 0.0773887557133135
1.0000000000000002 -1.539702610200977e-16 -0.22199683896270112j -6.483528991463317e-17
1.0411555905376735 0.02464129825471573 -0.024641298254715727 -0.04115559053767349
0.9999999999999996 6.701724678676024e-18 -0.17532606077326407j -1.0744443529331349e-16
1.1746155587154674 0.01536961379313514 -0.015369613793135143 -0.17461555871546797
1.0 2.0227146780432692e-18 -0.08594045135229113j -1.3032110113275763e-16
1.2561667789586557 0.003692880589317759 -0.0036928805893177595 -0.25616677895865564
1.0000000000000002 -5.289720755603106e-18 -0.017291672643396018j -1.597029800071148e-16
1.276705201020773 0.00014950097140318516 -0.00014950097140318513 -0.27670520102077256
S2 = -0.000000
X(g)
[[ 2.0000000000e+00  3.4694469520e-18  4.4250872436e-04 -2.0852096281e-05 -1.4470610967e-04  2.4617002559e-03 -1.0747600386e-03 -1.8433216382e-02]
 [-3.4694469520e-18  2.0000000000e+00 -1.7687526816e-02  8.3347963967e-04  5.7840513743e-03  6.1587120197e-05 -2.6888479018e-05 -4.6116447777e-04]
 [ 4.4250872436e-04  1.7687526816e-02  0.0000000000e+00  0.0000000000e+00  0.0000000000e+00  0.0000000000e+00  0.0000000000e+00  0.0000000000e+00]
 [-2.0852096281e-05 -8.3347963967e-04  0.0000000000e+00  0.0000000000e+00  0.0000000000e+00  0.0000000000e+00  0.0000000000e+00  0.0000000000e+00]
 [-1.4470610967e-04 -5.7840513743e-03  0.0000000000e+00  0.0000000000e+00  0.0000000000e+00  0.0000000000e+00  0.0000000000e+00  0.0000000000e+00]
 [-2.4617002559e-03  6.1587120197e-05  0.0000000000e+00  0.0000000000e+00  0.0000000000e+00  0.0000000000e+00  0.0000000000e+00  0.0000000000e+00]
 [ 1.0747600386e-03 -2.6888479018e-05  0.0000000000e+00  0.0000000000e+00  0.0000000000e+00  0.0000000000e+00  0.0000000000e+00  0.0000000000e+00]
 [ 1.8433216382e-02 -4.6116447777e-04  0.0000000000e+00  0.0000000000e+00  0.0000000000e+00  0.0000000000e+00  0.0000000000e+00  0.0000000000e+00]]
X(g) int
[[ 2.0000000000e+00 -2.9320181832e-18  2.7687152891e-01 -1.3046865430e-02 -9.0540591906e-02  3.7741025559e-02 -1.6477451302e-02 -2.8260487398e-01]
 [-7.8244849421e-18  2.0000000000e+00 -2.7117249553e-01  1.2778313001e-02  8.8676933849e-02  3.8534201003e-02 -1.6823745806e-02 -2.8854417327e-01]
 [ 2.7687152891e-01  2.7117249553e-01  0.0000000000e+00  0.0000000000e+00  0.0000000000e+00  0.0000000000e+00  0.0000000000e+00  0.0000000000e+00]
 [-1.3046865430e-02 -1.2778313001e-02  0.0000000000e+00  0.0000000000e+00  0.0000000000e+00  0.0000000000e+00  0.0000000000e+00  0.0000000000e+00]
 [-9.0540591906e-02 -8.8676933849e-02  0.0000000000e+00  0.0000000000e+00  0.0000000000e+00  0.0000000000e+00  0.0000000000e+00  0.0000000000e+00]
 [-3.7741025559e-02  3.8534201003e-02  0.0000000000e+00  0.0000000000e+00  0.0000000000e+00  0.0000000000e+00  0.0000000000e+00  0.0000000000e+00]
 [ 1.6477451302e-02 -1.6823745806e-02  0.0000000000e+00  0.0000000000e+00  0.0000000000e+00  0.0000000000e+00  0.0000000000e+00  0.0000000000e+00]
 [ 2.8260487398e-01 -2.8854417327e-01  0.0000000000e+00  0.0000000000e+00  0.0000000000e+00  0.0000000000e+00  0.0000000000e+00  0.0000000000e+00]]
Hsp + Hph =  -1.8904274425177754
Feff (mod,ortho)
[[-0.5153323642 -0.2909157249 -0.03766716    0.0560815912  0.            0.            0.            0.          ]
 [-0.2909157249  0.8332349271 -0.0587067571  0.678111591   0.            0.            0.            0.          ]
 [-0.03766716   -0.0587067571  0.885950277  -0.0206046766  0.            0.            0.            0.          ]
 [ 0.0560815912  0.678111591  -0.0206046766  0.8956127747  0.            0.            0.            0.          ]
 [ 0.            0.            0.            0.           -0.5153323642  0.2909157249 -0.03766716   -0.0560815912]
 [ 0.            0.            0.            0.            0.2909157249  0.8332349271  0.0587067571  0.678111591 ]
 [ 0.            0.            0.            0.           -0.03766716    0.0587067571  0.885950277   0.0206046766]
 [ 0.            0.            0.            0.           -0.0560815912  0.678111591   0.0206046766  0.8956127747]]
Alpha occ 1 vir 3; Beta occ 1 vir 3
Alpha energies:  [-0.6072833909] <- HOMO
         LUMO->  [0.2629938713 0.8836807879 1.5600743463]
Beta energies:   [-0.6072833909] <- HOMO
         LUMO->  [0.2629938713 0.8836807879 1.5600743463]
e_a, e_b
 [-0.6072833909  0.2629938713  0.8836807879  1.5600743463] 
 [-0.6072833909  0.2629938713  0.8836807879  1.5600743463]
v_a, v_b
 [[ 0.950733077   0.2986953567  0.0303313974  0.0772509327]
 [ 0.2663935255 -0.6642816401 -0.0314481444 -0.697692917 ]
 [ 0.0323137724 -0.0218883958 -0.9961827771  0.0780806823]
 [-0.1552318461  0.6848590254 -0.0755704655 -0.7079267575]] 
 [[ 0.950733077  -0.2986953567  0.0303313974 -0.0772509327]
 [-0.2663935255 -0.6642816401  0.0314481444 -0.697692917 ]
 [ 0.0323137724  0.0218883958 -0.9961827771 -0.0780806823]
 [ 0.1552318461  0.6848590254  0.0755704655 -0.7079267575]]
P_a, P_b
 [[ 0.9038933836  0.2532691362  0.0307217723 -0.1475840507]
 [ 0.2532691362  0.0709655104  0.0086081798 -0.0413527588]
 [ 0.0307217723  0.0086081798  0.0010441799 -0.0050161266]
 [-0.1475840507 -0.0413527588 -0.0050161266  0.0240969261]] 
 [[ 0.9038933836 -0.2532691362  0.0307217723  0.1475840507]
 [-0.2532691362  0.0709655104 -0.0086081798 -0.0413527588]
 [ 0.0307217723 -0.0086081798  0.0010441799  0.0050161266]
 [ 0.1475840507 -0.0413527588  0.0050161266  0.0240969261]]
time for xg, H, S2, Yg, Feff: 0.021
 E(SUHF) =     -1.13446000
**** Start Cycle 2 ****
dm (ortho)
[[[ 0.9038933836  0.2532691362  0.0307217723 -0.1475840507]
  [ 0.2532691362  0.0709655104  0.0086081798 -0.0413527588]
  [ 0.0307217723  0.0086081798  0.0010441799 -0.0050161266]
  [-0.1475840507 -0.0413527588 -0.0050161266  0.0240969261]]

 [[ 0.9038933836 -0.2532691362  0.0307217723  0.1475840507]
  [-0.2532691362  0.0709655104 -0.0086081798 -0.0413527588]
  [ 0.0307217723 -0.0086081798  0.0010441799  0.0050161266]
  [ 0.1475840507 -0.0413527588  0.0050161266  0.0240969261]]]
Fock (ortho)
 (array([[-0.5757308705, -0.2073709461, -0.0467331873,  0.0331117453],
       [-0.2073709461,  0.8871683966, -0.0603000702,  0.6541861951],
       [-0.0467331873, -0.0603000702,  0.8870334769, -0.0209085017],
       [ 0.0331117453,  0.6541861951, -0.0209085017,  0.9052682241]]), array([[-0.5757308705,  0.2073709461, -0.0467331873, -0.0331117453],
       [ 0.2073709461,  0.8871683966,  0.0603000702,  0.6541861951],
       [-0.0467331873,  0.0603000702,  0.8870334769,  0.0209085017],
       [-0.0331117453,  0.6541861951,  0.0209085017,  0.9052682241]]))
E(UHF) =    -1.815755
NO eigenvalue
[-1.0000000000e+00 -1.9781142921e-19  1.9815828139e-19  5.8699213819e-17] 
 [-1.0000000000e+00 -1.7795882411e-18  3.8453782461e-19  2.8139192951e-17]
NO vec
[[ 0.950733077   0.           -0.0436479013 -0.057614007   0.3014665873  0.            0.            0.          ]
 [ 0.2663935255  0.           -0.152837744  -0.2673480312 -0.9133455774  0.            0.            0.          ]
 [ 0.0323137724  0.           -0.7168769746  0.6925780641 -0.0733406328  0.            0.            0.          ]
 [-0.1552318461  0.           -0.6788393683 -0.6674887875  0.2637023028  0.            0.            0.          ]
 [ 0.            0.950733077   0.            0.            0.            0.0237562973 -0.026832681  -0.3079322359]
 [ 0.           -0.2663935255  0.            0.            0.            0.4963580622  0.2001327139 -0.801629628 ]
 [ 0.            0.0323137724  0.            0.            0.            0.6542449962 -0.7248302549  0.2134019836]
 [ 0.            0.1552318461  0.            0.            0.            0.5701120919  0.6586713943  0.4658618582]]
dm(NO)
[[ 1.0000000000e+00  0.0000000000e+00  3.4195197197e-17  1.1627202023e-17  1.2674857926e-16  0.0000000000e+00  0.0000000000e+00  0.0000000000e+00]
 [ 0.0000000000e+00  1.0000000000e+00  0.0000000000e+00  0.0000000000e+00  0.0000000000e+00  1.5245326216e-17 -8.8438052302e-19  4.7472767260e-17]
 [ 1.7333113551e-17  0.0000000000e+00  1.6048885975e-18  1.6561906867e-18 -9.3010749632e-19  0.0000000000e+00  0.0000000000e+00  0.0000000000e+00]
 [ 1.4317825686e-17  0.0000000000e+00 -2.8685206343e-19 -5.1677017629e-19  4.6636995564e-18  0.0000000000e+00  0.0000000000e+00  0.0000000000e+00]
 [ 1.5374524960e-16  0.0000000000e+00  9.8207468378e-20 -1.4240606603e-18 -8.9013015797e-18  0.0000000000e+00  0.0000000000e+00  0.0000000000e+00]
 [ 0.0000000000e+00  2.8534585116e-17  0.0000000000e+00  0.0000000000e+00  0.0000000000e+00 -2.8336641474e-18 -2.6362801126e-19  5.5034437371e-18]
 [ 0.0000000000e+00 -2.8149651071e-18  0.0000000000e+00  0.0000000000e+00  0.0000000000e+00 -4.6181001182e-19 -1.0587432681e-19  3.5146767263e-18]
 [ 0.0000000000e+00  1.1719393814e-16  0.0000000000e+00  0.0000000000e+00  0.0000000000e+00  6.6699311824e-18  9.3813000722e-19 -1.8750132108e-17]]
D(g) (NO)
 [[ 9.9951368521e-01  2.5254512509e-02  2.3715377534e-17  4.5685837582e-18  1.4514845359e-16  2.7270984758e-03 -3.0517591669e-03 -1.7828414752e-02]
 [-2.5254512509e-02  9.9951368521e-01  4.0327698290e-03  2.0204063495e-03 -1.7727306574e-02  7.4956337763e-17  2.3820565302e-17 -3.0973323690e-17]
 [ 3.4207676486e-17 -4.0327698290e-03  9.9951368521e-01  1.6617810616e-17  2.2232522705e-17 -2.9091661655e-02  1.3429178986e-03 -1.0392383554e-02]
 [ 6.5394468406e-18 -2.0204063495e-03  3.9793952569e-17  9.9951368521e-01  8.9947556315e-17 -1.9176663086e-03 -3.0984158329e-02  2.1483764793e-03]
 [ 1.5546469191e-16  1.7727306574e-02  3.1250731129e-17  8.0062415999e-17  9.9951368521e-01 -1.0721650374e-02  1.1217597289e-03  2.3279251379e-02]
 [-2.7270984758e-03  7.1343894749e-17  2.9091661655e-02  1.9176663086e-03  1.0721650374e-02  9.9951368521e-01 -1.2910459230e-17  1.2431185654e-16]
 [ 3.0517591669e-03  6.9388939039e-18 -1.3429178986e-03  3.0984158329e-02 -1.1217597289e-03  0.0000000000e+00  9.9951368521e-01 -2.7755575616e-17]
 [ 1.7828414752e-02  0.0000000000e+00  1.0392383554e-02 -2.1483764793e-03 -2.3279251379e-02  1.9428902931e-16  2.7755575616e-17  9.9951368521e-01]]
N(g) (NO)
 [[ 0.9998482371 -0.0252629656]
 [ 0.0252629656  0.9998482371]]
P(g) (NO)
 [[ 1.0000000000e+00 -1.7504057341e-18  3.4195197197e-17  1.1627202023e-17  1.2674857926e-16  1.3600163418e-35  3.0092655381e-36  0.0000000000e+00]
 [ 1.3337680903e-18  1.0000000000e+00  9.5886593694e-36  3.1992278642e-35  3.1238061364e-34  1.5245326216e-17 -8.8438052302e-19  4.7472767260e-17]
 [-1.0187972532e-04 -4.0321578042e-03 -3.4837972977e-21 -1.1845761483e-21 -1.2913110439e-20 -6.1471561078e-20  3.5659618278e-21 -1.9141768899e-19]
 [-5.1041456033e-05 -2.0200997268e-03 -1.7453726543e-21 -5.9346932082e-22 -6.4694320354e-21 -3.0797079323e-20  1.7865368529e-21 -9.5899724170e-20]
 [ 4.4784433554e-04  1.7724616227e-02  1.5314125367e-20  5.2071765640e-21  5.6763633258e-20  2.7021755643e-19 -1.5675305369e-20  8.4143658091e-19]
 [-2.7266846035e-03  6.8894594886e-05 -9.3239517709e-20 -3.1703712736e-20 -3.4560339957e-19  1.0503205735e-21 -6.0929037858e-23  3.2706170685e-21]
 [ 3.0512960231e-03 -7.7096486745e-05  1.0433966922e-19  3.5478035291e-20  3.8674743582e-19 -1.1753610905e-21  6.8182631270e-23 -3.6599835718e-21]
 [ 1.7825709061e-02 -4.5039862796e-04  6.0955363650e-19  2.0726312044e-19  2.2593832977e-18 -6.8664740104e-21  3.9832377416e-22 -2.1381669239e-20]]
time for NO, Ng: 0.014
Pg_ortho
 [[ 9.0402876579e-01  2.5330706997e-01  3.0726373695e-02 -1.4760615538e-01  5.3581042360e-03 -1.5013301965e-03  1.8211269296e-04  8.7484955826e-04]
 [ 2.5290802896e-01  7.0864328894e-02  8.5959063500e-03 -4.1293798641e-02 -1.4291765923e-02  4.0045245102e-03 -4.8575239762e-04 -2.3335016553e-03]
 [ 3.0726373695e-02  8.6094690634e-03  1.0443362824e-03 -5.0168778489e-03  1.8211269296e-04 -5.1027615939e-05  6.1896953619e-06  2.9734622914e-05]
 [-1.4737362769e-01 -4.1293798641e-02 -5.0089746350e-03  2.4062569036e-02  8.3280447786e-03 -2.3335016553e-03  2.8305583373e-04  1.3597694212e-03]
 [-5.3581042360e-03 -1.5013301965e-03 -1.8211269296e-04  8.7484955826e-04  9.0402876579e-01 -2.5330706997e-01  3.0726373695e-02  1.4760615538e-01]
 [-1.4291765923e-02 -4.0045245102e-03 -4.8575239762e-04  2.3335016553e-03 -2.5290802896e-01  7.0864328894e-02 -8.5959063500e-03 -4.1293798641e-02]
 [-1.8211269296e-04 -5.1027615939e-05 -6.1896953619e-06  2.9734622914e-05  3.0726373695e-02 -8.6094690634e-03  1.0443362824e-03  5.0168778489e-03]
 [ 8.3280447786e-03  2.3335016553e-03  2.8305583373e-04 -1.3597694212e-03  1.4737362769e-01 -4.1293798641e-02  5.0089746350e-03  2.4062569036e-02]]
G(g) (NO)
 [[ 6.0115937939e-01 -1.7439120441e-03 -1.3753162492e-01  9.0546995021e-02  7.7385232806e-02  8.5516611406e-04  9.2110469282e-04 -1.4772108559e-03]
 [ 1.7439120441e-03  6.0115937939e-01 -8.3355267232e-04 -4.3120982670e-04 -1.6973929652e-03  1.0865286571e-01 -1.3379479556e-01 -5.8272531028e-02]
 [-1.3751007801e-01  9.7731484459e-04  9.4035669785e-01 -3.6724997780e-02  1.0649027094e-01 -3.9165375830e-04 -6.8080211965e-05  1.9864700273e-04]
 [ 9.0528277492e-02 -1.9424981210e-03 -3.6708574888e-02  1.0308220235e+00  2.6052067176e-01 -9.7702481078e-05  2.1122137360e-03 -4.0559173574e-04]
 [ 7.7190057256e-02 -1.1225232016e-02  1.0652950011e-01  2.6050074921e-01  1.1230268715e+00 -1.0370326437e-04  2.5967688176e-03 -1.2999412004e-03]
 [ 4.8245971404e-03  1.0858347669e-01 -2.6766249783e-03  3.2669464220e-04 -8.2306418010e-04  1.1690852193e+00  7.5519026426e-03 -2.4717410131e-01]
 [-3.8198102500e-04 -1.3378371649e-01 -6.7121185758e-05  3.4820994336e-04  2.2683200751e-04  7.5247145827e-03  9.5274799517e-01 -1.1591264422e-01]
 [-1.0359132686e-02 -5.8088220070e-02  1.8866577217e-03 -3.6878264417e-04  1.2064923582e-03 -2.4715538429e-01 -1.1594605125e-01  9.7237237834e-01]]
time for Gg: 0.022
C(NO)
[[ 1.0000000000e+00  0.0000000000e+00  1.1425631398e-16  3.2119141897e-17  1.0634708493e-16  0.0000000000e+00  0.0000000000e+00  0.0000000000e+00]
 [ 0.0000000000e+00  1.0000000000e+00  0.0000000000e+00  0.0000000000e+00  0.0000000000e+00  1.1325226473e-16 -2.9490299092e-17  1.1102230246e-16]
 [ 2.0317409389e-17  0.0000000000e+00 -3.6072809941e-01  7.6892326407e-01  5.2785627994e-01  0.0000000000e+00  0.0000000000e+00  0.0000000000e+00]
 [ 1.1627202023e-17  0.0000000000e+00 -3.1190979100e-01 -6.3283181472e-01  7.0868623280e-01  0.0000000000e+00  0.0000000000e+00  0.0000000000e+00]
 [ 1.2674857926e-16  0.0000000000e+00  8.7896957887e-01  9.0999495878e-02  4.6811491236e-01  0.0000000000e+00  0.0000000000e+00  0.0000000000e+00]
 [ 0.0000000000e+00  3.1069115493e-17  0.0000000000e+00  0.0000000000e+00  0.0000000000e+00  6.7949341756e-02 -5.9233385933e-01 -8.0282220077e-01]
 [ 0.0000000000e+00  1.7397423166e-17  0.0000000000e+00  0.0000000000e+00  0.0000000000e+00  3.1030198745e-01  7.7731944988e-01 -5.4725419086e-01]
 [ 0.0000000000e+00  6.0403031292e-17  0.0000000000e+00  0.0000000000e+00  0.0000000000e+00  9.4820649836e-01 -2.1193176243e-01  2.3662071874e-01]]
detC 1.0
detNg [1.0003347147 1.0087777996 1.0477924192 1.140458562  1.283602391  1.4254960034 1.5046664031 1.5238505683]
xg [0.9996653973 0.9912985797 0.9543875119 0.8768402758 0.7790574457 0.7015102095 0.6645991417 0.6562323241]
ciS 1.6558977214236392
ciH -3.1323630085004637
1.0 1.401839527705867e-19 -0.010728587862776296j -2.677979366039196e-17
0.8281684360420146 5.7551298764655436e-05 -5.755129876465542e-05 0.1718315639579854
1.0000000000000002 8.483881999699072e-18 -0.054497009721340216j -2.4069288229178198e-17
0.8337314678339016 0.0014849620342839251 -0.0014849620342839254 0.1662685321660984
0.9999999999999999 3.50807165434841e-17 -0.12225929130456373j 7.15573433840433e-18
0.8600448726053773 0.007473667155147086 -0.007473667155147086 0.1399551273946228
1.0 -8.470329472543003e-19 -0.18812804796531235j -1.3010426069826053e-18
0.9265452858752762 0.017696081215619434 -0.017696081215619434 0.07345471412472426
0.9999999999999999 -1.9095510762900947e-17 -0.2117408034254719j -7.535205098774256e-17
1.0403400533501541 0.022417083917632176 -0.022417083917632176 -0.04034005335015417
1.0 7.598224350049976e-17 -0.16633078073316804j 1.829049064983046e-16
1.1664048276746655 0.013832964309652609 -0.01383296430965261 -0.16640482767466586
1.0 1.7028750371600454e-17 -0.08128630470584282j 2.1239520558991032e-16
1.2424831025240275 0.0033037316663655615 -0.003303731666365562 -0.2424831025240277
0.9999999999999999 1.7135476522954496e-18 -0.016343294371200114j 1.1123914289701275e-16
1.2615367902696772 0.00013355163545185068 -0.00013355163545185068 -0.2615367902696776
S2 = -0.000000
X(g)
[[ 2.0000000000e+00  3.4694469520e-18 -1.0187972532e-04 -5.1041456033e-05  4.4784433554e-04  2.7266846035e-03 -3.0512960231e-03 -1.7825709061e-02]
 [ 0.0000000000e+00  2.0000000000e+00  4.0321578042e-03  2.0200997268e-03 -1.7724616227e-02  6.8894594886e-05 -7.7096486745e-05 -4.5039862796e-04]
 [-1.0187972532e-04 -4.0321578042e-03  0.0000000000e+00  0.0000000000e+00  0.0000000000e+00  0.0000000000e+00  0.0000000000e+00  0.0000000000e+00]
 [-5.1041456033e-05 -2.0200997268e-03  0.0000000000e+00  0.0000000000e+00  0.0000000000e+00  0.0000000000e+00  0.0000000000e+00  0.0000000000e+00]
 [ 4.4784433554e-04  1.7724616227e-02  0.0000000000e+00  0.0000000000e+00  0.0000000000e+00  0.0000000000e+00  0.0000000000e+00  0.0000000000e+00]
 [-2.7266846035e-03  6.8894594886e-05  0.0000000000e+00  0.0000000000e+00  0.0000000000e+00  0.0000000000e+00  0.0000000000e+00  0.0000000000e+00]
 [ 3.0512960231e-03 -7.7096486745e-05  0.0000000000e+00  0.0000000000e+00  0.0000000000e+00  0.0000000000e+00  0.0000000000e+00  0.0000000000e+00]
 [ 1.7825709061e-02 -4.5039862796e-04  0.0000000000e+00  0.0000000000e+00  0.0000000000e+00  0.0000000000e+00  0.0000000000e+00  0.0000000000e+00]]
X(g) int
[[ 2.0000000000e+00 -7.9733476347e-17 -6.3250950938e-02 -3.1688548641e-02  2.7803942351e-01  4.1479762858e-02 -4.6417922809e-02 -2.7117407846e-01]
 [ 1.1743282368e-16  2.0000000000e+00  6.1339309031e-02  3.0730821419e-02 -2.6963620101e-01  4.2772481250e-02 -4.7864539144e-02 -2.7962522896e-01]
 [-6.3250950938e-02 -6.1339309031e-02  0.0000000000e+00  0.0000000000e+00  0.0000000000e+00  0.0000000000e+00  0.0000000000e+00  0.0000000000e+00]
 [-3.1688548641e-02 -3.0730821419e-02  0.0000000000e+00  0.0000000000e+00  0.0000000000e+00  0.0000000000e+00  0.0000000000e+00  0.0000000000e+00]
 [ 2.7803942351e-01  2.6963620101e-01  0.0000000000e+00  0.0000000000e+00  0.0000000000e+00  0.0000000000e+00  0.0000000000e+00  0.0000000000e+00]
 [-4.1479762858e-02  4.2772481250e-02  0.0000000000e+00  0.0000000000e+00  0.0000000000e+00  0.0000000000e+00  0.0000000000e+00  0.0000000000e+00]
 [ 4.6417922809e-02 -4.7864539144e-02  0.0000000000e+00  0.0000000000e+00  0.0000000000e+00  0.0000000000e+00  0.0000000000e+00  0.0000000000e+00]
 [ 2.7117407846e-01 -2.7962522896e-01  0.0000000000e+00  0.0000000000e+00  0.0000000000e+00  0.0000000000e+00  0.0000000000e+00  0.0000000000e+00]]
Hsp + Hph =  -1.891640388156009
Feff (mod,ortho)
[[-0.5147837517 -0.3023160448 -0.0372793674  0.0389383439  0.            0.            0.            0.          ]
 [-0.3023160448  0.8291765244 -0.0614585748  0.6741093538  0.            0.            0.            0.          ]
 [-0.0372793674 -0.0614585748  0.8876057086 -0.0219158231  0.            0.            0.            0.          ]
 [ 0.0389383439  0.6741093538 -0.0219158231  0.9017407458  0.            0.            0.            0.          ]
 [ 0.            0.            0.            0.           -0.5147837517  0.3023160448 -0.0372793674 -0.0389383439]
 [ 0.            0.            0.            0.            0.3023160448  0.8291765244  0.0614585748  0.6741093538]
 [ 0.            0.            0.            0.           -0.0372793674  0.0614585748  0.8876057086  0.0219158231]
 [ 0.            0.            0.            0.           -0.0389383439  0.6741093538  0.0219158231  0.9017407458]]
Alpha occ 1 vir 3; Beta occ 1 vir 3
Alpha energies:  [-0.6075530069] <- HOMO
         LUMO->  [0.2652585461 0.8850399456 1.5609937422]
Beta energies:   [-0.6075530069] <- HOMO
         LUMO->  [0.2652585461 0.8850399456 1.5609937422]
e_a, e_b
 [-0.6075530069  0.2652585461  0.8850399456  1.5609937422] 
 [-0.6075530069  0.2652585461  0.8850399456  1.5609937422]
v_a, v_b
 [[ 0.9515874515  0.2932889099  0.0312677302  0.086517435 ]
 [ 0.2693782018 -0.6654347875 -0.0322132591 -0.6954094003]
 [ 0.0326826486 -0.0239877147 -0.9958285239  0.0817434093]
 [-0.1443902735  0.6860049187 -0.0794366787 -0.7086878823]] 
 [[ 0.9515874515 -0.2932889099  0.0312677302 -0.086517435 ]
 [-0.2693782018 -0.6654347875  0.0322132591 -0.6954094003]
 [ 0.0326826486  0.0239877147 -0.9958285239 -0.0817434093]
 [ 0.1443902735  0.6860049187  0.0794366787 -0.7086878823]]
P_a, P_b
 [[ 0.9055186778  0.2563369165  0.0311003983 -0.1373999724]
 [ 0.2563369165  0.0725646156  0.0088039931 -0.0388955922]
 [ 0.0311003983  0.0088039931  0.0010681555 -0.0047190566]
 [-0.1373999724 -0.0388955922 -0.0047190566  0.0208485511]] 
 [[ 0.9055186778 -0.2563369165  0.0311003983  0.1373999724]
 [-0.2563369165  0.0725646156 -0.0088039931 -0.0388955922]
 [ 0.0311003983 -0.0088039931  0.0010681555  0.0047190566]
 [ 0.1373999724 -0.0388955922  0.0047190566  0.0208485511]]
time for xg, H, S2, Yg, Feff: 0.022
 E =     -1.13567294, delta E = -0.00121295, MaxD(dm) =  0.0101841, RMSD(dm) =  0.0039892
**** Start Cycle 3 ****
dm (ortho)
[[[ 0.9055186778  0.2563369165  0.0311003983 -0.1373999724]
  [ 0.2563369165  0.0725646156  0.0088039931 -0.0388955922]
  [ 0.0311003983  0.0088039931  0.0010681555 -0.0047190566]
  [-0.1373999724 -0.0388955922 -0.0047190566  0.0208485511]]

 [[ 0.9055186778 -0.2563369165  0.0311003983  0.1373999724]
  [-0.2563369165  0.0725646156 -0.0088039931 -0.0388955922]
  [ 0.0311003983 -0.0088039931  0.0010681555  0.0047190566]
  [ 0.1373999724 -0.0388955922  0.0047190566  0.0208485511]]]
Fock (ortho)
 (array([[-0.5742521731, -0.2114651843, -0.0460013994,  0.0280927162],
       [-0.2114651843,  0.8886730603, -0.0633036762,  0.6540094776],
       [-0.0460013994, -0.0633036762,  0.8889996051, -0.0219244943],
       [ 0.0280927162,  0.6540094776, -0.0219244943,  0.9070040394]]), array([[-0.5742521731,  0.2114651843, -0.0460013994, -0.0280927162],
       [ 0.2114651843,  0.8886730603,  0.0633036762,  0.6540094776],
       [-0.0460013994,  0.0633036762,  0.8889996051,  0.0219244943],
       [-0.0280927162,  0.6540094776,  0.0219244943,  0.9070040394]]))
E(UHF) =    -1.815667
NO eigenvalue
[-1.0000000000e+00 -1.7318515975e-17 -3.4223223050e-19  1.0719959115e-17] 
 [-1.0000000000e+00 -1.2380686794e-18  1.1791887255e-19  4.2653922226e-17]
NO vec
[[ 0.9515874515  0.           -0.1898739664  0.0134102117 -0.2413490529  0.            0.            0.          ]
 [ 0.2693782018  0.            0.893867697  -0.0261434907  0.357424737   0.            0.            0.          ]
 [ 0.0326826486  0.           -0.079641153   0.9656502381  0.2451708565  0.            0.            0.          ]
 [-0.1443902735  0.            0.3982533163  0.2581788174 -0.868268071   0.            0.            0.          ]
 [ 0.            0.9515874515  0.            0.            0.           -0.0441914128  0.0158662411 -0.3037708077]
 [ 0.           -0.2693782018  0.            0.            0.            0.353534708  -0.0089847121 -0.8957498923]
 [ 0.            0.0326826486  0.            0.            0.            0.3163373167  0.9421872965  0.1055729361]
 [ 0.            0.1443902735  0.            0.            0.            0.8791990851 -0.3345902504  0.3069361203]]
dm(NO)
[[ 1.0000000000e+00  0.0000000000e+00  2.9322247492e-17 -7.6567285253e-18 -6.6150954000e-17  0.0000000000e+00  0.0000000000e+00  0.0000000000e+00]
 [ 0.0000000000e+00  1.0000000000e+00  0.0000000000e+00  0.0000000000e+00  0.0000000000e+00 -8.5816827234e-18 -4.3498473793e-20  1.2565945972e-16]
 [ 2.3656005511e-17  0.0000000000e+00 -4.0486338601e-19  2.4632799612e-19 -4.2778437834e-20  0.0000000000e+00  0.0000000000e+00  0.0000000000e+00]
 [ 3.8315830481e-19  0.0000000000e+00 -4.4061101092e-19  3.2024908433e-19 -5.9738949943e-19  0.0000000000e+00  0.0000000000e+00  0.0000000000e+00]
 [-7.6325368819e-17  0.0000000000e+00 -6.7174985544e-19 -1.2978679864e-19 -2.7604567281e-19  0.0000000000e+00  0.0000000000e+00  0.0000000000e+00]
 [ 0.0000000000e+00  1.3537732560e-17  0.0000000000e+00  0.0000000000e+00  0.0000000000e+00 -1.6067820853e-18  7.2587671705e-19 -3.8005498751e-18]
 [ 0.0000000000e+00 -5.5044781311e-18  0.0000000000e+00  0.0000000000e+00  0.0000000000e+00  9.6266413021e-19 -1.0109435020e-19 -2.7825172025e-19]
 [ 0.0000000000e+00  1.1992403238e-16  0.0000000000e+00  0.0000000000e+00  0.0000000000e+00  4.7920116355e-18 -3.2684092840e-18 -5.8836094386e-18]]
D(g) (NO)
 [[ 9.9951368521e-01  2.5357371587e-02 -1.7158407889e-17  2.7922332202e-18 -1.2345993031e-16 -1.9778425222e-03  2.8620763223e-03 -1.7812732498e-02]
 [-2.5357371587e-02  9.9951368521e-01  1.1430805193e-02 -2.7641425827e-03  1.3823638789e-02 -1.7248860434e-18  2.8566340976e-18  7.9181653217e-17]
 [-1.9215536483e-17 -1.1430805193e-02  9.9951368521e-01 -1.0548916505e-16 -2.5483376164e-16  2.0248963974e-02 -6.8394865617e-03 -1.9619649562e-02]
 [-2.8165287880e-18  2.7641425827e-03 -7.9819717040e-17  9.9951368521e-01  1.3800936026e-16  1.6297177175e-02  2.5691445719e-02  6.2533369919e-03]
 [-1.1966028622e-16 -1.3823638789e-02 -2.5294361897e-16  1.6494276275e-16  9.9951368521e-01 -1.7113231366e-02  1.6042837478e-02 -1.5200814559e-02]
 [ 1.9778425222e-03  1.5160822817e-17 -2.0248963974e-02 -1.6297177175e-02  1.7113231366e-02  9.9951368521e-01 -2.1484668171e-17  8.5733012090e-17]
 [-2.8620763223e-03  0.0000000000e+00  6.8394865617e-03 -2.5691445719e-02 -1.6042837478e-02  0.0000000000e+00  9.9951368521e-01 -2.7755575616e-17]
 [ 1.7812732498e-02  5.5511151231e-17  1.9619649562e-02 -6.2533369919e-03  1.5200814559e-02  6.9388939039e-17 -1.3877787808e-17  9.9951368521e-01]]
N(g) (NO)
 [[ 0.9998430303 -0.025365727 ]
 [ 0.025365727   0.9998430303]]
P(g) (NO)
 [[ 1.0000000000e+00  2.4506405894e-18  2.9322247492e-17 -7.6567285253e-18 -6.6150954000e-17  4.3664661611e-36  0.0000000000e+00  0.0000000000e+00]
 [-6.6652443581e-18  1.0000000000e+00 -1.5441377849e-34  5.9095699992e-35  5.2850926680e-34 -8.5816827234e-18 -4.3498473793e-20  1.2565945972e-16]
 [-2.8995068364e-04 -1.1429010903e-02 -8.5020057063e-21  2.2200736704e-21  1.9180514336e-20  9.8080145412e-20  4.9714453124e-22 -1.4361633352e-18]
 [ 7.0114486075e-05  2.7637086960e-03  2.0559143135e-21 -5.3684758556e-22 -4.6381401431e-21 -2.3717271169e-20 -1.2021711029e-22  3.4728614156e-19]
 [-3.5064664734e-04 -1.3821468897e-02 -1.0281747776e-20  2.6848061869e-21  2.3195610238e-20  1.1861146084e-19  6.0121280257e-22 -1.7367983140e-18]
 [ 1.9775320609e-03 -5.0169413420e-05  5.7985684512e-20 -1.5141426140e-20 -1.3081563239e-19  4.3053798839e-22  2.1822929148e-24 -6.3042613846e-21]
 [-2.8616270630e-03  7.2598646574e-05 -8.3909336971e-20  2.1910701562e-20  1.8929936021e-19 -6.2301855105e-22 -3.1579303254e-24  9.1227067046e-21]
 [ 1.7809936438e-02 -4.5183290923e-04  5.2222736407e-19 -1.3636584836e-19 -1.1781442861e-18  3.8774866710e-21  1.9654041961e-23 -5.6777079255e-20]]
time for NO, Ng: 0.014
Pg_ortho
 [[ 9.0565249247e-01  2.5637479716e-01  3.1104994170e-02 -1.3742027695e-01  5.2745845147e-03 -1.4931450488e-03  1.8115769784e-04  8.0034546455e-04]
 [ 2.5596927986e-01  7.2460543917e-02  8.7913664720e-03 -3.8839808449e-02 -1.4491165320e-02  4.1022021144e-03 -4.9770482224e-04 -2.1988345067e-03]
 [ 3.1104994170e-02  8.8052941247e-03  1.0683133656e-03 -4.7197539331e-03  1.8115769784e-04 -5.1282659103e-05  6.2219330061e-06  2.7488182515e-05]
 [-1.3720291432e-01 -3.8839808449e-02 -4.7122885272e-03  2.0818650245e-02  7.7674559808e-03 -2.1988345067e-03  2.6677635738e-04  1.1786043333e-03]
 [-5.2745845147e-03 -1.4931450488e-03 -1.8115769784e-04  8.0034546455e-04  9.0565249247e-01 -2.5637479716e-01  3.1104994170e-02  1.3742027695e-01]
 [-1.4491165320e-02 -4.1022021144e-03 -4.9770482224e-04  2.1988345067e-03 -2.5596927986e-01  7.2460543917e-02 -8.7913664720e-03 -3.8839808449e-02]
 [-1.8115769784e-04 -5.1282659103e-05 -6.2219330061e-06  2.7488182515e-05  3.1104994170e-02 -8.8052941247e-03  1.0683133656e-03  4.7197539331e-03]
 [ 7.7674559808e-03  2.1988345067e-03  2.6677635738e-04 -1.1786043333e-03  1.3720291432e-01 -3.8839808449e-02  4.7122885272e-03  2.0818650245e-02]]
G(g) (NO)
 [[ 6.0285416475e-01 -1.7077261902e-03 -6.2656205487e-02  1.6571257522e-01 -3.8560034518e-02  8.4770281358e-04 -5.2431714786e-04 -1.7057745844e-03]
 [ 1.7077261902e-03  6.0285416475e-01  1.8534170158e-03  4.4028632396e-04  5.2361128968e-04  2.9265011085e-02  1.6343729473e-01 -7.2836417752e-02]
 [-6.2497690676e-02  9.6234091960e-03  1.3387410313e+00 -7.7718291417e-02  2.5758765893e-02 -8.2195301635e-04  3.0881615502e-03  1.2526061626e-03]
 [ 1.6568101284e-01 -2.0777671228e-03 -7.7763083856e-02  9.9774017946e-01  2.3478598126e-02  6.9323932743e-04 -9.6005692390e-04 -5.7352619414e-04]
 [-3.8442079156e-02  6.1220316573e-03  2.5760985490e-02  2.3493617496e-02  7.6270642878e-01 -9.7947339819e-05  2.2581939007e-04  6.4914161523e-04]
 [ 2.3134930700e-03  2.9239547807e-02  8.2073704311e-04  1.9711605247e-03 -2.2329956362e-04  1.0198751126e+00  6.7061348962e-02 -2.8872034520e-01]
 [ 1.8294698491e-03  1.6340878291e-01  8.7569976124e-04  7.1304372858e-04 -1.4970239523e-04  6.7081130059e-02  9.8544980518e-01 -1.4926305387e-02]
 [-1.1211921435e-02 -7.2640011809e-02 -1.5981797994e-03 -2.3328255316e-03 -3.0277767402e-04 -2.8871891301e-01 -1.4883369066e-02  1.0938627218e+00]]
time for Gg: 0.021
C(NO)
[[ 1.0000000000e+00  0.0000000000e+00  1.1033634817e-16 -3.5675060173e-17 -7.1647603357e-17  0.0000000000e+00  0.0000000000e+00  0.0000000000e+00]
 [ 0.0000000000e+00  1.0000000000e+00  0.0000000000e+00  0.0000000000e+00  0.0000000000e+00  3.1629681728e-17  6.9388939039e-18 -1.3877787808e-17]
 [ 4.0375997527e-17  0.0000000000e+00 -3.7538444644e-01  1.2941691417e-02 -9.2677884632e-01  0.0000000000e+00  0.0000000000e+00  0.0000000000e+00]
 [-4.9082683540e-19  0.0000000000e+00  1.7527805079e-01 -9.8086944507e-01 -8.4692010461e-02  0.0000000000e+00  0.0000000000e+00  0.0000000000e+00]
 [-9.0250234101e-17  0.0000000000e+00 -9.1014511056e-01 -1.9423605316e-01  3.6593473923e-01  0.0000000000e+00  0.0000000000e+00  0.0000000000e+00]
 [ 0.0000000000e+00 -5.2287837969e-18  0.0000000000e+00  0.0000000000e+00  0.0000000000e+00  3.8842966426e-01 -2.3517032800e-01 -8.9096426008e-01]
 [ 0.0000000000e+00  2.3043526175e-18  0.0000000000e+00  0.0000000000e+00  0.0000000000e+00 -2.0560428998e-01 -9.6462904845e-01  1.6497780100e-01]
 [ 0.0000000000e+00  6.8568013693e-17  0.0000000000e+00  0.0000000000e+00  0.0000000000e+00  8.9824788999e-01 -1.1910380224e-01  4.2304256574e-01]]
detC 1.0000000000000002
detNg [1.0003295053 1.0086400508 1.0470138859 1.1379717359 1.2779634953 1.4161212114 1.4929440807 1.5115311487]
xg [0.9996706032 0.9914339602 0.9550971706 0.8787564475 0.7824949646 0.7061542415 0.6698174519 0.6615808089]
ciS 1.6612514120977004
ciH -3.1439528384290822
1.0 -6.1295539228057444e-18 -0.010561612895334374j -1.1015494072452725e-16
0.8308436278035745 5.577383347544669e-05 -5.577383347544668e-05 0.16915637219642546
1.0000000000000002 -1.7804632551285393e-17 -0.05364179610198192j -2.5131806358213993e-16
0.8363636332384898 0.0014387211445233013 -0.001438721144523301 0.16363636676151022
1.0000000000000002 -7.840136959785804e-18 -0.12026770082310898j -2.1694885471434944e-16
0.8624444883250915 0.007232159930638427 -0.007232159930638425 0.1375555116749088
1.0 -1.1171348134747516e-16 -0.1847972311294085j -1.2175590397012215e-16
0.9281535682587878 0.017075008316548002 -0.01707500831654801 0.07184643174121227
1.0000000000000002 -1.0562839665440027e-16 -0.20753073909906528j -1.9038590148845458e-16
1.0399748267716684 0.02153450383550216 -0.021534503835502154 -0.03997482677166813
0.9999999999999998 -1.1451207820520337e-16 -0.16266607776089764j -5.930585883495709e-17
1.1630365546835615 0.013230126427057197 -0.013230126427057197 -0.16303655468356193
0.9999999999999999 -3.7777669447541795e-17 -0.0793981975051021j -2.512096433648914e-16
1.2369256942400981 0.0031520368835295997 -0.0031520368835295997 -0.23692569424009832
1.0 -5.919913268360305e-18 -0.015958948313419742j 9.877081791342945e-17
1.2553892835853264 0.0001273440156352014 -0.00012734401563520143 -0.2553892835853262
S2 = -0.000000
X(g)
[[ 2.0000000000e+00  6.9388939039e-18 -2.8995068364e-04  7.0114486075e-05 -3.5064664734e-04 -1.9775320609e-03  2.8616270630e-03 -1.7809936438e-02]
 [-6.9388939039e-18  2.0000000000e+00  1.1429010903e-02 -2.7637086960e-03  1.3821468897e-02 -5.0169413420e-05  7.2598646574e-05 -4.5183290923e-04]
 [-2.8995068364e-04 -1.1429010903e-02  0.0000000000e+00  0.0000000000e+00  0.0000000000e+00  0.0000000000e+00  0.0000000000e+00  0.0000000000e+00]
 [ 7.0114486075e-05  2.7637086960e-03  0.0000000000e+00  0.0000000000e+00  0.0000000000e+00  0.0000000000e+00  0.0000000000e+00  0.0000000000e+00]
 [-3.5064664734e-04 -1.3821468897e-02  0.0000000000e+00  0.0000000000e+00  0.0000000000e+00  0.0000000000e+00  0.0000000000e+00  0.0000000000e+00]
 [ 1.9775320609e-03 -5.0169413420e-05  0.0000000000e+00  0.0000000000e+00  0.0000000000e+00  0.0000000000e+00  0.0000000000e+00  0.0000000000e+00]
 [-2.8616270630e-03  7.2598646574e-05  0.0000000000e+00  0.0000000000e+00  0.0000000000e+00  0.0000000000e+00  0.0000000000e+00  0.0000000000e+00]
 [ 1.7809936438e-02 -4.5183290923e-04  0.0000000000e+00  0.0000000000e+00  0.0000000000e+00  0.0000000000e+00  0.0000000000e+00  0.0000000000e+00]]
X(g) int
[[ 2.0000000000e+00 -5.9812032431e-17 -1.7943362787e-01  4.3389780788e-02 -2.1699483251e-01 -2.9986466933e-02  4.3392512817e-02 -2.7006240791e-01]
 [ 2.2885633496e-19  2.0000000000e+00  1.7330472881e-01 -4.1907719761e-02  2.0958295859e-01 -3.1046934413e-02  4.4927083357e-02 -2.7961312964e-01]
 [-1.7943362787e-01 -1.7330472881e-01  0.0000000000e+00  0.0000000000e+00  0.0000000000e+00  0.0000000000e+00  0.0000000000e+00  0.0000000000e+00]
 [ 4.3389780788e-02  4.1907719761e-02  0.0000000000e+00  0.0000000000e+00  0.0000000000e+00  0.0000000000e+00  0.0000000000e+00  0.0000000000e+00]
 [-2.1699483251e-01 -2.0958295859e-01  0.0000000000e+00  0.0000000000e+00  0.0000000000e+00  0.0000000000e+00  0.0000000000e+00  0.0000000000e+00]
 [ 2.9986466933e-02 -3.1046934413e-02  0.0000000000e+00  0.0000000000e+00  0.0000000000e+00  0.0000000000e+00  0.0000000000e+00  0.0000000000e+00]
 [-4.3392512817e-02  4.4927083357e-02  0.0000000000e+00  0.0000000000e+00  0.0000000000e+00  0.0000000000e+00  0.0000000000e+00  0.0000000000e+00]
 [ 2.7006240791e-01 -2.7961312964e-01  0.0000000000e+00  0.0000000000e+00  0.0000000000e+00  0.0000000000e+00  0.0000000000e+00  0.0000000000e+00]]
Hsp + Hph =  -1.892520792177471
Feff (mod,ortho)
[[-0.5120726805 -0.3133503634 -0.0367792456  0.0236154636  0.            0.            0.            0.          ]
 [-0.3133503634  0.8260063284 -0.0647968746  0.6708725686  0.            0.            0.            0.          ]
 [-0.0367792456 -0.0647968746  0.8895597349 -0.0231535573  0.            0.            0.            0.          ]
 [ 0.0236154636  0.6708725686 -0.0231535573  0.9069311491  0.            0.            0.            0.          ]
 [ 0.            0.            0.            0.           -0.5120726805  0.3133503634 -0.0367792456 -0.0236154636]
 [ 0.            0.            0.            0.            0.3133503634  0.8260063284  0.0647968746  0.6708725686]
 [ 0.            0.            0.            0.           -0.0367792456  0.0647968746  0.8895597349  0.0231535573]
 [ 0.            0.            0.            0.           -0.0236154636  0.6708725686  0.0231535573  0.9069311491]]
Alpha occ 1 vir 3; Beta occ 1 vir 3
Alpha energies:  [-0.6066148809] <- HOMO
         LUMO->  [0.2675624756 0.8866462115 1.5628307255]
Beta energies:   [-0.6066148809] <- HOMO
         LUMO->  [0.2675624756 0.8866462115 1.5628307255]
e_a, e_b
 [-0.6066148809  0.2675624756  0.8866462115  1.5628307255] 
 [-0.6066148809  0.2675624756  0.8866462115  1.5628307255]
v_a, v_b
 [[ 0.9518369038  0.2896930755  0.0321335282  0.0951412998]
 [ 0.2730902977 -0.6658684421 -0.0329415528 -0.6935097412]
 [ 0.0331301363 -0.0266636506 -0.9953933131  0.0859278538]
 [-0.1353905165  0.6870125105 -0.0841097065 -0.7089490643]] 
 [[ 0.9518369038 -0.2896930755  0.0321335282 -0.0951412998]
 [-0.2730902977 -0.6658684421  0.0329415528 -0.6935097412]
 [ 0.0331301363  0.0266636506 -0.9953933131 -0.0859278538]
 [ 0.1353905165  0.6870125105  0.0841097065 -0.7089490643]]
P_a, P_b
 [[ 0.9059934914  0.2599374234  0.0315344863 -0.12886969  ]
 [ 0.2599374234  0.0745783107  0.0090475188 -0.0369738364]
 [ 0.0315344863  0.0090475188  0.0010976059 -0.0044855063]
 [-0.12886969   -0.0369738364 -0.0044855063  0.0183305919]] 
 [[ 0.9059934914 -0.2599374234  0.0315344863  0.12886969  ]
 [-0.2599374234  0.0745783107 -0.0090475188 -0.0369738364]
 [ 0.0315344863 -0.0090475188  0.0010976059  0.0044855063]
 [ 0.12886969   -0.0369738364  0.0044855063  0.0183305919]]
time for xg, H, S2, Yg, Feff: 0.024
 E =     -1.13655335, delta E = -0.000880404, MaxD(dm) = 0.00853028, RMSD(dm) = 0.00344666
**** Start Cycle 4 ****
dm (ortho)
[[[ 0.9059934914  0.2599374234  0.0315344863 -0.12886969  ]
  [ 0.2599374234  0.0745783107  0.0090475188 -0.0369738364]
  [ 0.0315344863  0.0090475188  0.0010976059 -0.0044855063]
  [-0.12886969   -0.0369738364 -0.0044855063  0.0183305919]]

 [[ 0.9059934914 -0.2599374234  0.0315344863  0.12886969  ]
  [-0.2599374234  0.0745783107 -0.0090475188 -0.0369738364]
  [ 0.0315344863 -0.0090475188  0.0010976059  0.0044855063]
  [ 0.12886969   -0.0369738364  0.0044855063  0.0183305919]]]
Fock (ortho)
 (array([[-0.572603704 , -0.2158293933, -0.0453503856,  0.0237449748],
       [-0.2158293933,  0.8896273339, -0.0662056001,  0.6538516292],
       [-0.0453503856, -0.0662056001,  0.8906588023, -0.0228986791],
       [ 0.0237449748,  0.6538516292, -0.0228986791,  0.9084161109]]), array([[-0.572603704 ,  0.2158293933, -0.0453503856, -0.0237449748],
       [ 0.2158293933,  0.8896273339,  0.0662056001,  0.6538516292],
       [-0.0453503856,  0.0662056001,  0.8906588023,  0.0228986791],
       [-0.0237449748,  0.6538516292,  0.0228986791,  0.9084161109]]))
E(UHF) =    -1.814479
NO eigenvalue
[-1.0000000000e+00 -4.1633363423e-17 -4.3379088584e-18 -4.6548968062e-20] 
 [-1.0000000000e+00 -4.5186940017e-17 -2.7305082919e-19  7.5325361907e-18]
NO vec
[[-0.9518369038  0.           -0.3066048085  0.           -0.            0.            0.            0.          ]
 [-0.2730902977  0.            0.8477930425  0.4533727687  0.0334929691  0.            0.            0.          ]
 [-0.0331301363  0.            0.1028505929 -0.1395682284 -0.9842991716  0.            0.            0.          ]
 [ 0.1353905165  0.           -0.4203120318  0.8803259863 -0.1733013612  0.            0.            0.          ]
 [ 0.            0.9518369038  0.            0.            0.           -0.2960759358 -0.0077982721  0.0792763254]
 [ 0.           -0.2730902977  0.            0.            0.           -0.704385583   0.0509470308  0.6531975503]
 [ 0.            0.0331301363  0.            0.            0.            0.08890063    0.9949712262  0.0321143445]
 [ 0.            0.1353905165  0.            0.            0.            0.638965311  -0.0858827461  0.7523409422]]
dm(NO)
[[ 1.0000000000e+00  0.0000000000e+00 -6.1717193847e-17  2.5947603496e-18  8.1128792785e-18  0.0000000000e+00  0.0000000000e+00  0.0000000000e+00]
 [ 0.0000000000e+00  1.0000000000e+00  0.0000000000e+00  0.0000000000e+00  0.0000000000e+00  1.2331999495e-16  3.5206509765e-18 -3.4553497049e-17]
 [-5.6826671585e-17  0.0000000000e+00  6.1860398301e-18 -5.1388128721e-18  1.5389054135e-18  0.0000000000e+00  0.0000000000e+00  0.0000000000e+00]
 [ 9.8483623760e-18  0.0000000000e+00 -4.9682058412e-18  2.6726254757e-18 -2.9650620451e-19  0.0000000000e+00  0.0000000000e+00  0.0000000000e+00]
 [ 3.4950020752e-18  0.0000000000e+00  5.9093814855e-19  7.3549768848e-20  1.3073968644e-21  0.0000000000e+00  0.0000000000e+00  0.0000000000e+00]
 [ 0.0000000000e+00  1.2710759251e-16  0.0000000000e+00  0.0000000000e+00  0.0000000000e+00 -1.3950554580e-17  2.6062741885e-19  7.4499854252e-18]
 [ 0.0000000000e+00  5.2341435329e-18  0.0000000000e+00  0.0000000000e+00  0.0000000000e+00 -1.0895984208e-18  1.4102163389e-19 -4.3394849189e-22]
 [ 0.0000000000e+00 -3.0952694014e-17  0.0000000000e+00  0.0000000000e+00  0.0000000000e+00  5.9931014641e-18 -4.6479004574e-19  2.7329674660e-18]]
D(g) (NO)
 [[ 9.9951368521e-01 -2.5388820738e-02 -1.2082991138e-16 -4.2744099898e-17  1.3851241375e-18  1.7392172324e-02 -1.5928917262e-03 -4.7724096761e-03]
 [ 2.5388820738e-02  9.9951368521e-01  1.7988370839e-02  2.8837706171e-04  2.0337673279e-03  1.9316736390e-16 -4.5242872953e-18 -4.6487236038e-17]
 [-1.1327228578e-16 -1.7988370839e-02  9.9951368521e-01  1.3573041529e-16 -1.0749456006e-17 -2.3880613904e-02  5.7381629297e-03  6.7528775396e-03]
 [-4.7959980581e-17 -2.8837706171e-04  1.4586498322e-16  9.9951368521e-01  1.3916325272e-17  7.1952413211e-03 -5.9676318124e-03  2.9747702202e-02]
 [ 4.2604616279e-18 -2.0337673279e-03 -1.0001930522e-17  8.1720202218e-18  9.9951368521e-01 -6.9173837899e-03 -3.0021935771e-02 -4.3692149485e-03]
 [-1.7392172324e-02  1.7942115167e-16  2.3880613904e-02 -7.1952413211e-03  6.9173837899e-03  9.9951368521e-01  6.2242531770e-18 -2.3191827526e-16]
 [ 1.5928917262e-03 -6.9388939039e-18 -5.7381629297e-03  5.9676318124e-03  3.0021935771e-02  0.0000000000e+00  9.9951368521e-01 -2.7755575616e-17]
 [ 4.7724096761e-03 -4.1633363423e-17 -6.7528775396e-03 -2.9747702202e-02  4.3692149485e-03 -2.1510571102e-16 -2.7755575616e-17  9.9951368521e-01]]
N(g) (NO)
 [[ 0.9998414341  0.0253971459]
 [-0.0253971459  0.9998414341]]
P(g) (NO)
 [[ 1.0000000000e+00  5.8924555294e-19 -6.1717193847e-17  2.5947603496e-18  8.1128792785e-18 -4.7344677661e-34  1.2037062152e-35 -1.9259299444e-34]
 [ 5.9740843357e-18  1.0000000000e+00 -4.9249466152e-34  2.1548853105e-35  3.1725904582e-35  1.2331999495e-16  3.5206509765e-18 -3.4553497049e-17]
 [ 4.5685327948e-04 -1.7985518496e-02 -2.8195702409e-20  1.1854247752e-21  3.7063955044e-21 -2.2179740500e-18 -6.3320733257e-20  6.2146256028e-19]
 [ 7.3239543230e-06 -2.8833133494e-04 -4.5201390868e-22  1.9003906280e-23  5.9418357264e-23 -3.5557018767e-20 -1.0151139959e-21  9.9628559308e-21]
 [ 5.1651885643e-05 -2.0334448418e-03 -3.1878094388e-21  1.3402426485e-22  4.1904551273e-22 -2.5076440761e-19 -7.1590495679e-21  7.0262630339e-20]
 [-1.7389414518e-02 -4.4171153878e-04  1.0732258667e-18 -4.5121363294e-20 -1.4107822071e-19 -5.4471864730e-20 -1.5551121603e-21  1.5262678352e-20]
 [ 1.5926391479e-03  4.0454903644e-05 -9.8293219020e-20  4.1325169122e-21  1.2920889141e-20  4.9888985129e-21  1.4242759602e-22 -1.3978583937e-21]
 [ 4.7716529346e-03  1.2120558505e-04 -2.9449302914e-19  1.2381295837e-20  3.8711844218e-20  1.4947072135e-20  4.2672256136e-22 -4.1880768252e-21]]
time for NO, Ng: 0.014
Pg_ortho
 [[ 9.0612681847e-01  2.5997567611e-01  3.1539126990e-02 -1.2888865461e-01  5.2488536387e-03 -1.5059418237e-03  1.8269436252e-04  7.4660375341e-04]
 [ 2.5956395356e-01  7.4471158943e-02  9.0345195910e-03 -3.6920713611e-02 -1.4702858203e-02  4.2183780726e-03 -5.1175542157e-04 -2.0913536318e-03]
 [ 3.1539126990e-02  9.0488502226e-03  1.0977674548e-03 -4.4861663538e-03  1.8269436252e-04 -5.2416603779e-05  6.3589561443e-06  2.5986683221e-05]
 [-1.2868453411e-01 -3.6920713611e-02 -4.4790616282e-03  1.8304255135e-02  7.2892650615e-03 -2.0913536318e-03  2.5371399649e-04  1.0368345222e-03]
 [-5.2488536387e-03 -1.5059418237e-03 -1.8269436252e-04  7.4660375341e-04  9.0612681847e-01 -2.5997567611e-01  3.1539126990e-02  1.2888865461e-01]
 [-1.4702858203e-02 -4.2183780726e-03 -5.1175542157e-04  2.0913536318e-03 -2.5956395356e-01  7.4471158943e-02 -9.0345195910e-03 -3.6920713611e-02]
 [-1.8269436252e-04 -5.2416603779e-05 -6.3589561443e-06  2.5986683221e-05  3.1539126990e-02 -9.0488502226e-03  1.0977674548e-03  4.4861663538e-03]
 [ 7.2892650615e-03  2.0913536318e-03  2.5371399649e-04 -1.0368345222e-03  1.2868453411e-01 -3.6920713611e-02  4.4790616282e-03  1.8304255135e-02]]
G(g) (NO)
 [[ 6.0386816766e-01  1.6872562873e-03  7.5043366751e-02  1.1728916089e-02  1.6398690844e-01  1.2432544254e-03  3.3481429733e-04 -1.5400648514e-03]
 [-1.6872562873e-03  6.0386816766e-01  1.6072786830e-03  1.1363379065e-03 -3.9366651378e-04 -7.7146947281e-02  1.6242523981e-01  1.8087855181e-02]
 [ 7.4848682021e-02  1.1033809404e-02  1.0286482586e+00  2.8933579074e-01  5.5855523760e-02  7.3933788444e-04  2.0561886620e-03 -1.5595119446e-03]
 [ 1.1678186385e-02  3.6647912953e-03  2.8932929347e-01  1.0678769263e+00  7.3872587438e-02  3.7596340199e-05  2.0389753607e-03 -1.1694703717e-03]
 [ 1.6395916148e-01  1.9827662838e-03  5.5895208747e-02  7.3898159308e-02  1.0073153671e+00  1.8300775099e-04  8.5794845059e-04 -1.1390246867e-03]
 [ 9.8111803763e-03 -7.6970613224e-02 -1.0525955690e-03 -9.0156630883e-04  1.5621056860e-03  8.9164473809e-01 -5.9297640435e-02 -2.4166024112e-01]
 [-2.0105676629e-03  1.6239817619e-01  4.9503334119e-04  1.0243185665e-03 -1.0584187049e-03 -5.9328742763e-02  1.0163886384e+00  8.9152299359e-02]
 [-6.2293952065e-03  1.7990801578e-02  6.4053722711e-04  1.1240342350e-03 -2.5200830135e-03 -2.4164969265e-01  8.9117768094e-02  1.1958071756e+00]]
time for Gg: 0.021
C(NO)
[[-1.0000000000e+00  0.0000000000e+00 -1.4293857382e-16 -4.9003768948e-17  1.0334262536e-16  0.0000000000e+00  0.0000000000e+00  0.0000000000e+00]
 [ 0.0000000000e+00  1.0000000000e+00  0.0000000000e+00  0.0000000000e+00  0.0000000000e+00  1.0292747721e-18 -2.9490299092e-17 -6.9388939039e-17]
 [ 7.3383196227e-17  0.0000000000e+00 -9.4484191878e-01 -1.0480438434e-01 -3.1030596118e-01  0.0000000000e+00  0.0000000000e+00  0.0000000000e+00]
 [-2.7028714830e-17  0.0000000000e+00  3.0662974517e-01  4.9946517977e-02 -9.5051751416e-01  0.0000000000e+00  0.0000000000e+00  0.0000000000e+00]
 [-3.3028002435e-18  0.0000000000e+00 -1.1511710514e-01  9.9323782971e-01  1.5055422220e-02  0.0000000000e+00  0.0000000000e+00  0.0000000000e+00]
 [ 0.0000000000e+00  1.2331999495e-16  0.0000000000e+00  0.0000000000e+00  0.0000000000e+00  9.9614685698e-01 -6.7465427206e-02  5.6034413116e-02]
 [ 0.0000000000e+00  3.5206509765e-18  0.0000000000e+00  0.0000000000e+00  0.0000000000e+00 -6.4137870443e-02 -9.9618358951e-01 -5.9199574013e-02]
 [ 0.0000000000e+00 -3.4553497049e-17  0.0000000000e+00  0.0000000000e+00  0.0000000000e+00  5.9814487345e-02  5.5377541659e-02 -9.9667224050e-01]]
detC -1.0
detNg [1.0003279083 1.00859783   1.0467754495 1.1372115419 1.2762447372 1.4132719086 1.489386963  1.5077942854]
xg [0.9996721991 0.9914754626 0.9553147244 0.8793438715 0.7835487747 0.7075779218 0.6714171836 0.663220447 ]
ciS 1.6628926461780815
ciH -3.14824179183167
1.0 -2.5317814793431037e-18 -0.010510425189655169j -1.6263032587282567e-17
0.831663726757919 5.5234518833668946e-05 -5.523451883366895e-05 0.168336273242081
1.0 -5.031375706690544e-18 -0.05337966752280443j -3.3176586478056436e-17
0.8371702627418517 0.0014246944524225708 -0.0014246944524225708 0.1628297372581486
1.0 1.1993986533120893e-18 -0.11965774894906255j 2.1467203015212988e-17
0.863178610111366 0.00715898844177844 -0.00715898844177844 0.13682138988863404
1.0 -5.211624317866259e-17 -0.18377903896243242j -8.326672684688674e-17
0.9286429875110832 0.016887367580977627 -0.016887367580977624 0.07135701248891696
1.0000000000000002 -4.899238566918873e-17 -0.20624749454440408j 6.418476861114186e-17
1.0398599796109405 0.021269014502921995 -0.021269014502922 -0.03985997961094048
1.0000000000000002 2.4706257005513432e-17 -0.16155225585593808j -1.6946079955948434e-16
1.1620101662361368 0.01304956568607124 -0.013049565686071239 -0.16201016623613687
1.0 -1.2569968937253817e-17 -0.07882525476033152j -7.762887554996212e-17
1.2352386036401761 0.003106710394015583 -0.003106710394015583 -0.23523860364017624
1.0 -1.1765287637362232e-18 -0.015842364194680977j -1.9938477952008427e-16
1.2535245243202615 0.00012549025163845494 -0.00012549025163845489 -0.253524524320261
S2 = 0.000000
X(g)
[[ 2.0000000000e+00 -6.9388939039e-18  4.5685327948e-04  7.3239543230e-06  5.1651885643e-05  1.7389414518e-02 -1.5926391479e-03 -4.7716529346e-03]
 [ 6.9388939039e-18  2.0000000000e+00  1.7985518496e-02  2.8833133494e-04  2.0334448418e-03 -4.4171153878e-04  4.0454903644e-05  1.2120558505e-04]
 [ 4.5685327948e-04 -1.7985518496e-02  0.0000000000e+00  0.0000000000e+00  0.0000000000e+00  0.0000000000e+00  0.0000000000e+00  0.0000000000e+00]
 [ 7.3239543230e-06 -2.8833133494e-04  0.0000000000e+00  0.0000000000e+00  0.0000000000e+00  0.0000000000e+00  0.0000000000e+00  0.0000000000e+00]
 [ 5.1651885643e-05 -2.0334448418e-03  0.0000000000e+00  0.0000000000e+00  0.0000000000e+00  0.0000000000e+00  0.0000000000e+00  0.0000000000e+00]
 [-1.7389414518e-02 -4.4171153878e-04  0.0000000000e+00  0.0000000000e+00  0.0000000000e+00  0.0000000000e+00  0.0000000000e+00  0.0000000000e+00]
 [ 1.5926391479e-03  4.0454903644e-05  0.0000000000e+00  0.0000000000e+00  0.0000000000e+00  0.0000000000e+00  0.0000000000e+00  0.0000000000e+00]
 [ 4.7716529346e-03  1.2120558505e-04  0.0000000000e+00  0.0000000000e+00  0.0000000000e+00  0.0000000000e+00  0.0000000000e+00  0.0000000000e+00]]
X(g) int
[[ 2.0000000000e+00 -5.8936794761e-17  2.8244135831e-01  4.5279035965e-03  3.1932853272e-02  2.6342595902e-01 -2.4126315148e-02 -7.2284046660e-02]
 [ 4.4207979950e-17  2.0000000000e+00  2.7245612286e-01  4.3678272401e-03  3.0803921374e-02 -2.7308024830e-01  2.5010519676e-02  7.4933182301e-02]
 [ 2.8244135831e-01 -2.7245612286e-01  0.0000000000e+00  0.0000000000e+00  0.0000000000e+00  0.0000000000e+00  0.0000000000e+00  0.0000000000e+00]
 [ 4.5279035965e-03 -4.3678272401e-03  0.0000000000e+00  0.0000000000e+00  0.0000000000e+00  0.0000000000e+00  0.0000000000e+00  0.0000000000e+00]
 [ 3.1932853272e-02 -3.0803921374e-02  0.0000000000e+00  0.0000000000e+00  0.0000000000e+00  0.0000000000e+00  0.0000000000e+00  0.0000000000e+00]
 [-2.6342595902e-01 -2.7308024830e-01  0.0000000000e+00  0.0000000000e+00  0.0000000000e+00  0.0000000000e+00  0.0000000000e+00  0.0000000000e+00]
 [ 2.4126315148e-02  2.5010519676e-02  0.0000000000e+00  0.0000000000e+00  0.0000000000e+00  0.0000000000e+00  0.0000000000e+00  0.0000000000e+00]
 [ 7.2284046660e-02  7.4933182301e-02  0.0000000000e+00  0.0000000000e+00  0.0000000000e+00  0.0000000000e+00  0.0000000000e+00  0.0000000000e+00]]
Hsp + Hph =  -1.8932321332152435
Feff (mod,ortho)
[[-0.5087058923 -0.3236261962 -0.036219722   0.0098518962  0.            0.            0.            0.          ]
 [-0.3236261962  0.8225117996 -0.0679760679  0.6678064279  0.            0.            0.            0.          ]
 [-0.036219722  -0.0679760679  0.8912170038 -0.0243646531  0.            0.            0.            0.          ]
 [ 0.0098518962  0.6678064279 -0.0243646531  0.911075632   0.            0.            0.            0.          ]
 [ 0.            0.            0.            0.           -0.5087058923  0.3236261962 -0.036219722  -0.0098518962]
 [ 0.            0.            0.            0.            0.3236261962  0.8225117996  0.0679760679  0.6678064279]
 [ 0.            0.            0.            0.           -0.036219722   0.0679760679  0.8912170038  0.0243646531]
 [ 0.            0.            0.            0.           -0.0098518962  0.6678064279  0.0243646531  0.911075632 ]]
Alpha occ 1 vir 3; Beta occ 1 vir 3
Alpha energies:  [-0.6054805768] <- HOMO
         LUMO->  [0.2694690636 0.8879448154 1.5641652408]
Beta energies:   [-0.6054805768] <- HOMO
         LUMO->  [0.2694690636 0.8879448154 1.5641652408]
e_a, e_b
 [-0.6054805768  0.2694690636  0.8879448154  1.5641652408] 
 [-0.6054805768  0.2694690636  0.8879448154  1.5641652408]
v_a, v_b
 [[ 0.9517757631  0.2870805305  0.0329905019  0.1030499516]
 [ 0.2769738575 -0.6660991679 -0.0337184911 -0.6917083519]
 [ 0.0335348464 -0.0291487953 -0.9949502957  0.0899981713]
 [-0.1276079663  0.6877841342 -0.08859232   -0.7090984364]] 
 [[ 0.9517757631 -0.2870805305  0.0329905019 -0.1030499516]
 [-0.2769738575 -0.6660991679  0.0337184911 -0.6917083519]
 [ 0.0335348464  0.0291487953 -0.9949502957 -0.0899981713]
 [ 0.1276079663  0.6877841342  0.08859232   -0.7090984364]]
P_a, P_b
 [[ 0.9058771033  0.2636170046  0.031917654  -0.1214541695]
 [ 0.2636170046  0.0767145178  0.0092882758 -0.0353440707]
 [ 0.031917654   0.0092882758  0.0011245859 -0.0042793135]
 [-0.1214541695 -0.0353440707 -0.0042793135  0.0162837931]] 
 [[ 0.9058771033 -0.2636170046  0.031917654   0.1214541695]
 [-0.2636170046  0.0767145178 -0.0092882758 -0.0353440707]
 [ 0.031917654  -0.0092882758  0.0011245859  0.0042793135]
 [ 0.1214541695 -0.0353440707  0.0042793135  0.0162837931]]
time for xg, H, S2, Yg, Feff: 0.020
 E =     -1.13726469, delta E = -0.000711341, MaxD(dm) = 0.00741552, RMSD(dm) = 0.00307848
**** Start Cycle 5 ****
dm (ortho)
[[[ 0.9058771033  0.2636170046  0.031917654  -0.1214541695]
  [ 0.2636170046  0.0767145178  0.0092882758 -0.0353440707]
  [ 0.031917654   0.0092882758  0.0011245859 -0.0042793135]
  [-0.1214541695 -0.0353440707 -0.0042793135  0.0162837931]]

 [[ 0.9058771033 -0.2636170046  0.031917654   0.1214541695]
  [-0.2636170046  0.0767145178 -0.0092882758 -0.0353440707]
  [ 0.031917654  -0.0092882758  0.0011245859  0.0042793135]
  [ 0.1214541695 -0.0353440707  0.0042793135  0.0162837931]]]
Fock (ortho)
 (array([[-0.5709394573, -0.2201186705, -0.0447448984,  0.0198906234],
       [-0.2201186705,  0.8902453788, -0.068926276 ,  0.6536841156],
       [-0.0447448984, -0.068926276 ,  0.8920948678, -0.0238146355],
       [ 0.0198906234,  0.6536841156, -0.0238146355,  0.909596947 ]]), array([[-0.5709394573,  0.2201186705, -0.0447448984, -0.0198906234],
       [ 0.2201186705,  0.8902453788,  0.068926276 ,  0.6536841156],
       [-0.0447448984,  0.068926276 ,  0.8920948678,  0.0238146355],
       [-0.0198906234,  0.6536841156,  0.0238146355,  0.909596947 ]]))
E(UHF) =    -1.812669
NO eigenvalue
[-1.0000000000e+00 -1.0430506192e-18  1.3561506211e-18  1.7750962120e-17] 
 [-1.0000000000e+00 -4.9035069656e-19  1.8815521773e-18  3.0298551813e-17]
NO vec
[[ 0.9517757631  0.           -0.1121179981 -0.0884645023  0.2715262107  0.            0.            0.          ]
 [ 0.2769738575  0.            0.0531855972 -0.0307023809 -0.9589129983  0.            0.            0.          ]
 [ 0.0335348464  0.            0.8601201899 -0.503650423   0.0735181909  0.            0.            0.          ]
 [-0.1276079663  0.           -0.4947667184 -0.8588175866 -0.0368029107  0.            0.            0.          ]
 [ 0.            0.9517757631  0.            0.            0.            0.0550766817 -0.0716674286 -0.2931778224]
 [ 0.           -0.2769738575  0.            0.            0.            0.0341571994  0.194646975  -0.9403357502]
 [ 0.            0.0335348464  0.            0.            0.           -0.9950634095 -0.0709782063 -0.0607150671]
 [ 0.            0.1276079663  0.            0.            0.           -0.0751575407  0.9756733209  0.1616450493]]
dm(NO)
[[ 1.0000000000e+00  0.0000000000e+00 -2.0609316537e-17 -2.4205713995e-17  4.3804828408e-17  0.0000000000e+00  0.0000000000e+00  0.0000000000e+00]
 [ 0.0000000000e+00  1.0000000000e+00  0.0000000000e+00  0.0000000000e+00  0.0000000000e+00  4.1555024706e-18  4.0047574879e-17  1.2220791727e-16]
 [-4.1019125589e-18  0.0000000000e+00 -6.1201768817e-19 -1.6993522932e-18 -9.9712010355e-19  0.0000000000e+00  0.0000000000e+00  0.0000000000e+00]
 [-9.7286808866e-18  0.0000000000e+00 -5.3938626392e-19 -2.3928100907e-18 -1.0241743246e-18  0.0000000000e+00  0.0000000000e+00  0.0000000000e+00]
 [ 4.9804120407e-17  0.0000000000e+00  1.1914960945e-18 -1.2749226785e-19  9.4951933816e-19  0.0000000000e+00  0.0000000000e+00  0.0000000000e+00]
 [ 0.0000000000e+00  1.1477673186e-17  0.0000000000e+00  0.0000000000e+00  0.0000000000e+00  2.1260606601e-19  6.9516176663e-19  2.5667331975e-19]
 [ 0.0000000000e+00  3.5122891406e-17  0.0000000000e+00  0.0000000000e+00  0.0000000000e+00  3.8430920048e-19 -1.0068828351e-18 -7.6794029490e-21]
 [ 0.0000000000e+00  1.1086080976e-16  0.0000000000e+00  0.0000000000e+00  0.0000000000e+00  3.5466753856e-18 -3.5906285940e-18 -2.1268753137e-17]]
D(g) (NO)
 [[ 9.9951368521e-01  2.5383244668e-02 -3.6325798517e-17 -3.4383663669e-17  1.0121195672e-16  1.1881649312e-03 -4.4025442821e-03 -1.7529684332e-02]
 [-2.5383244668e-02  9.9951368521e-01  4.8562993931e-03  6.3045112709e-03 -1.6271246378e-02  1.0791500633e-17  2.4948960496e-17  1.4479586297e-16]
 [-4.2980452184e-17 -4.8562993931e-03  9.9951368521e-01 -2.3209395823e-16  8.8310536724e-17 -2.5665256862e-02 -1.6383439732e-02 -4.6569221310e-03]
 [-4.3297223848e-17 -6.3045112709e-03 -2.7737846985e-16  9.9951368521e-01  6.2477525239e-17  1.7456043730e-02 -2.5003118964e-02 -1.6663708326e-03]
 [ 1.2332562656e-16  1.6271246378e-02  8.5063127211e-17  6.2102236362e-17  9.9951368521e-01 -2.7499938845e-03 -7.7095799640e-03  2.5310857877e-02]
 [-1.1881649312e-03  5.4583227312e-18  2.5665256862e-02 -1.7456043730e-02  2.7499938845e-03  9.9951368521e-01  7.8116091553e-17 -3.9037496540e-17]
 [ 4.4025442821e-03  1.3877787808e-17  1.6383439732e-02  2.5003118964e-02  7.7095799640e-03  6.9388939039e-17  9.9951368521e-01  5.8980598183e-17]
 [ 1.7529684332e-02  1.1102230246e-16  4.6569221310e-03  1.6663708326e-03 -2.5310857877e-02 -3.4694469520e-17  8.3266726847e-17  9.9951368521e-01]]
N(g) (NO)
 [[ 0.9998417172 -0.0253915752]
 [ 0.0253915752  0.9998417172]]
P(g) (NO)
 [[ 1.0000000000e+00 -1.7388630872e-18 -2.0609316537e-17 -2.4205713995e-17  4.3804828408e-17  9.0139304370e-36  0.0000000000e+00 -3.8518598888e-34]
 [-3.6415240462e-18  1.0000000000e+00  8.6988045250e-35  3.4064254825e-35 -1.5817014163e-34  4.1555024706e-18  4.0047574879e-17  1.2220791727e-16]
 [-1.2330909141e-04 -4.8555307246e-03  2.5413160968e-21  2.9847845996e-21 -5.4015335904e-21 -2.0177169922e-20 -1.9445223027e-19 -5.9338429711e-19]
 [-1.6008147227e-04 -6.3035133755e-03  3.2991697337e-21  3.8748863335e-21 -7.0123414240e-21 -2.6194265406e-20 -2.5244042391e-19 -7.7033924112e-19]
 [ 4.1315257661e-04  1.6268670920e-02 -8.5147922294e-21 -1.0000653105e-20  1.8098077725e-20  6.7604502204e-20  6.5152081687e-19  1.9881603900e-18]
 [-1.1879768652e-03  3.0169379244e-05  2.4483391253e-20  2.8755828230e-20 -5.2039122730e-20  1.2536892999e-22  1.2082104743e-21  3.6869370028e-21]
 [ 4.4018474353e-03 -1.1178753437e-04 -9.0719067141e-20 -1.0654986007e-19  1.9282217158e-19 -4.6453337528e-22 -4.4768196534e-21 -1.3661321753e-20]
 [ 1.7526909686e-02 -4.4510629861e-04 -3.6121762963e-19 -4.2425136306e-19  7.6776327130e-19 -1.8496403236e-21 -1.7825427823e-20 -5.4395513718e-20]]
time for NO, Ng: 0.013
Pg_ortho
 [[ 9.0601051219e-01  2.6365582761e-01  3.1922354547e-02 -1.2147205612e-01  5.2532312666e-03 -1.5287295441e-03  1.8509223541e-04  7.0431942528e-04]
 [ 2.6323836846e-01  7.6604331806e-02  9.2749349099e-03 -3.5293305582e-02 -1.4909521114e-02  4.3387820293e-03 -5.2532174045e-04 -1.9989725960e-03]
 [ 3.1922354547e-02  9.2896436567e-03  1.1247515411e-03 -4.2799437655e-03  1.8509223541e-04 -5.3863223280e-05  6.5215357694e-06  2.4815975207e-05]
 [-1.2127972348e-01 -3.5293305582e-02 -4.2731671214e-03  1.6260404465e-02  6.8691452867e-03 -1.9989725960e-03  2.4202731461e-04  9.2097077303e-04]
 [-5.2532312666e-03 -1.5287295441e-03 -1.8509223541e-04  7.0431942528e-04  9.0601051219e-01 -2.6365582761e-01  3.1922354547e-02  1.2147205612e-01]
 [-1.4909521114e-02 -4.3387820293e-03 -5.2532174045e-04  1.9989725960e-03 -2.6323836846e-01  7.6604331806e-02 -9.2749349099e-03 -3.5293305582e-02]
 [-1.8509223541e-04 -5.3863223280e-05 -6.5215357694e-06  2.4815975207e-05  3.1922354547e-02 -9.2896436567e-03  1.1247515411e-03  4.2799437655e-03]
 [ 6.8691452867e-03  1.9989725960e-03  2.4202731461e-04 -9.2097077303e-04  1.2127972348e-01 -3.5293305582e-02  4.2731671214e-03  1.6260404465e-02]]
G(g) (NO)
 [[ 6.0447649756e-01 -1.6748238858e-03  1.0296931655e-01 -1.1918031817e-01  8.7455777346e-02  4.4723886656e-04  7.4007510563e-04 -1.8418360156e-03]
 [ 1.6748238858e-03  6.0447649756e-01  2.9640006422e-04 -5.4265432664e-04 -1.9384960556e-03 -1.4682851741e-01 -4.5105255604e-02 -9.4138428789e-02]
 [ 1.0299216590e-01  5.4856820179e-04  9.4165196943e-01 -8.4209010153e-02  1.5938925742e-01  8.9286630321e-04  9.8816392951e-04 -3.0294966518e-04]
 [-1.1914168021e-01  1.9626390965e-03 -8.4212525436e-02  8.6727426726e-01  9.6756881438e-02  2.2962418960e-04 -1.3836150254e-04  5.2197110740e-04]
 [ 8.7254676792e-02 -1.1834093741e-02  1.5935768142e-01  9.6792868570e-02  1.2991990136e+00  2.8868326955e-03  1.8259372740e-03 -1.3227952603e-03]
 [-6.8900217406e-04 -1.4682670997e-01 -3.4796449526e-04  1.1387382907e-03  7.0141894766e-04  9.9942369998e-01 -3.0123061678e-03  1.1186084574e-01]
 [ 3.7279514263e-04 -4.5101234230e-02  7.5337257738e-04 -1.0882616229e-03 -2.4646061093e-05 -2.9996239122e-03  8.9507364617e-01 -2.3723851857e-01]
 [-1.1982693927e-02 -9.3932426413e-02 -1.8604524592e-03  2.4489088809e-03  1.5832552305e-03  1.1181847364e-01 -2.3725717974e-01  1.2136279042e+00]]
time for Gg: 0.021
C(NO)
[[ 1.0000000000e+00  0.0000000000e+00  2.0650471470e-16  5.3826295182e-17 -5.1316004478e-18  0.0000000000e+00  0.0000000000e+00  0.0000000000e+00]
 [ 0.0000000000e+00  1.0000000000e+00  0.0000000000e+00  0.0000000000e+00  0.0000000000e+00  1.1364203251e-16  3.4694469520e-17  5.5511151231e-17]
 [-6.8767814716e-18  0.0000000000e+00 -4.3297794283e-01 -8.1743647296e-01  3.7990487454e-01  0.0000000000e+00  0.0000000000e+00  0.0000000000e+00]
 [-3.6873752990e-19  0.0000000000e+00 -5.8094591303e-01  5.7530852943e-01  5.7577942139e-01  0.0000000000e+00  0.0000000000e+00  0.0000000000e+00]
 [ 4.4826314378e-17  0.0000000000e+00  6.8922561412e-01 -2.8595605189e-02  7.2398228170e-01  0.0000000000e+00  0.0000000000e+00  0.0000000000e+00]
 [ 0.0000000000e+00  6.2415432745e-18  0.0000000000e+00  0.0000000000e+00  0.0000000000e+00 -1.1926058879e-01  9.8634898925e-01  1.1354551228e-01]
 [ 0.0000000000e+00  2.6844988054e-17  0.0000000000e+00  0.0000000000e+00  0.0000000000e+00  5.5990383640e-01  1.6125580828e-01 -8.1271413073e-01]
 [ 0.0000000000e+00  6.5679661605e-17  0.0000000000e+00  0.0000000000e+00  0.0000000000e+00  8.1992963476e-01  3.3350197817e-02  5.7149204575e-01]]
detC 1.0000000000000002
detNg [1.0003281916 1.0086053195 1.0468177389 1.1373463222 1.2765492984 1.4137765229 1.4900167395 1.5084558364]
xg [0.999671916  0.9914681003 0.9552761315 0.8792396656 0.7833618343 0.7073253685 0.6711333997 0.6629295839]
ciS 1.6626014999748213
ciH -3.148666841859634
0.9999999999999999 -9.053935173201216e-18 -0.01051950560467261j -1.1861171766991419e-16
0.831518245944193 5.532999908336922e-05 -5.5329999083369216e-05 0.16848175405580668
1.0 -5.23737411946279e-17 -0.05342616613844387j -1.684850176042474e-16
0.837027180895368 0.0014271776141263034 -0.0014271776141263032 0.16297281910463204
1.0 -8.321251673826247e-17 -0.11976593089928364j -1.2045486136313954e-16
0.8630484323464033 0.007171939102085993 -0.007171939102085992 0.13695156765359687
0.9999999999999998 -1.7589824995861703e-16 -0.18395956157419346j -5.898059818321144e-17
0.928556290461261 0.01692056014728474 -0.016920560147284745 0.07144370953873849
[...]
 [ 0.0000000000e+00 -7.9364244091e-17  0.0000000000e+00  0.0000000000e+00  0.0000000000e+00  4.9187864347e-19  1.2922694351e-19 -1.2434700716e-17]]
D(g) (NO)
 [[ 9.9951368521e-01  2.5287916866e-02  2.1597708468e-19 -5.3268953608e-18 -1.2930870739e-16  1.6904022997e-03  4.5160198490e-04 -1.8161853734e-02]
 [-2.5287916866e-02  9.9951368521e-01 -9.0802924890e-04 -7.9950913888e-04  1.8205784887e-02 -3.4109832993e-18  2.4442336185e-17 -1.9753415648e-16]
 [ 2.6680739605e-19  9.0802924890e-04  9.9951368521e-01 -8.5214936009e-18 -2.5343020948e-17  1.6474648776e-02  2.6234556488e-02  3.4500074188e-03]
 [-5.0334152902e-18  7.9950913888e-04  4.3032777236e-17  9.9951368521e-01  1.8697587024e-17  2.6067362472e-02 -1.6807821286e-02  3.1214767768e-03]
 [-7.5839268378e-17 -1.8205784887e-02 -2.2007990484e-17  1.4055617561e-17  9.9951368521e-01  4.3144149396e-03  1.1976309446e-03 -2.4917744185e-02]
 [-1.6904022997e-03  3.8663056676e-18 -1.6474648776e-02 -2.6067362472e-02 -4.3144149396e-03  9.9951368521e-01  8.7119285595e-17 -3.5808813366e-18]
 [-4.5160198490e-04  1.5612511284e-17 -2.6234556488e-02  1.6807821286e-02 -1.1976309446e-03  1.1102230246e-16  9.9951368521e-01  4.8572257327e-17]
 [ 1.8161853734e-02 -1.1102230246e-16 -3.4500074188e-03 -3.1214767768e-03  2.4917744185e-02  0.0000000000e+00  4.8572257327e-17  9.9951368521e-01]]
N(g) (NO)
 [[ 0.9998465485 -0.0252963384]
 [ 0.0252963384  0.9998465485]]
P(g) (NO)
 [[ 1.0000000000e+00 -9.3059991874e-19  5.3087309861e-18  3.1625992470e-18 -4.6339873982e-17 -7.9823185346e-36  0.0000000000e+00  4.8148248610e-35]
 [ 5.3491526660e-18  1.0000000000e+00  2.2123470383e-35  5.5137579879e-36 -2.6898251314e-34 -8.7907387936e-18 -1.2078987290e-17 -1.0251568315e-17]
 [ 2.2969815139e-05  9.0788991042e-04  1.2194056937e-22  7.2644320063e-23 -1.0644183389e-21 -7.9810230558e-21 -1.0966390689e-20 -9.3072954387e-21]
 [ 2.0224653715e-05  7.9938645297e-04  1.0736724586e-22  6.3962474609e-23 -9.3720790446e-22 -7.0271975032e-21 -9.6557788052e-21 -8.1949648323e-21]
 [-4.6053969497e-04 -1.8202991181e-02 -2.4448813490e-21 -1.4565024925e-21  2.1341351428e-20  1.6001774074e-19  2.1987369912e-19  1.8660920762e-19]
 [-1.6901429049e-03  4.2760988572e-05 -8.9725140102e-21 -5.3452446784e-21  7.8321009225e-20 -3.7590068109e-22 -5.1650943747e-22 -4.3836719554e-22]
 [-4.5153268588e-04  1.1423876623e-05 -2.3970655608e-21 -1.4280169324e-21  2.0923967763e-20 -1.0042431540e-22 -1.3798886053e-22 -1.1711265162e-22]
 [ 1.8159066769e-02 -4.5942839765e-04  9.6401600436e-20  5.7429850891e-20 -8.4148886571e-19  4.0387150381e-21  5.5494297758e-21  4.7098616041e-21]]
time for NO, Ng: 0.013
Pg_ortho
 [[ 9.0424309071e-01  2.8696776922e-01  3.5134033060e-02 -5.6013142314e-02  5.3291724177e-03 -1.6912495502e-03  2.0706303629e-04  3.3011443064e-04]
 [ 2.8651510418e-01  9.0927540547e-02  1.1132439104e-02 -1.7748116044e-02 -1.6200492836e-02  5.1413379181e-03 -6.2946419690e-04 -1.0035360183e-03]
 [ 3.5134033060e-02  1.1150027237e-02  1.3651199459e-03 -2.1763700647e-03  2.0706303629e-04 -6.5712879889e-05  8.0453581975e-06  1.2826474914e-05]
 [-5.5924786779e-02 -1.7748116044e-02 -2.1729370428e-03  3.4642487987e-03  3.1621687456e-03 -1.0035360183e-03  1.2286490479e-04  1.9587985774e-04]
 [-5.3291724177e-03 -1.6912495502e-03 -2.0706303629e-04  3.3011443064e-04  9.0424309071e-01 -2.8696776922e-01  3.5134033060e-02  5.6013142314e-02]
 [-1.6200492836e-02 -5.1413379181e-03 -6.2946419690e-04  1.0035360183e-03 -2.8651510418e-01  9.0927540547e-02 -1.1132439104e-02 -1.7748116044e-02]
 [-2.0706303629e-04 -6.5712879889e-05 -8.0453581975e-06  1.2826474914e-05  3.5134033060e-02 -1.1150027237e-02  1.3651199459e-03  2.1763700647e-03]
 [ 3.1621687456e-03  1.0035360183e-03  1.2286490479e-04 -1.9587985774e-04  5.5924786779e-02 -1.7748116044e-02  2.1729370428e-03  3.4642487987e-03]]
G(g) (NO)
 [[ 6.1045210189e-01 -1.5399389744e-03  1.2893830737e-01  9.0625262790e-02 -7.4135743443e-02 -3.3966008588e-04  6.6903262200e-04 -2.0616398013e-03]
 [ 1.5399389744e-03  6.1045210189e-01  6.5146056258e-04 -3.9858355568e-04  2.0567115933e-03  1.5811344447e-01  2.2529307850e-02 -6.9474475787e-02]
 [ 1.2894845391e-01  4.7659207391e-05  9.1507000281e-01  7.0158577210e-02  7.3388186722e-02  2.3996376318e-04  4.2593225586e-04 -6.4880086471e-04]
 [ 9.0571632172e-02 -3.9460443612e-03  7.0137002281e-02  1.0272277389e+00 -2.8459710654e-01 -2.2750212424e-03  7.9166914459e-04 -1.2061163086e-03]
 [-7.3911809017e-02  1.3143890972e-02  7.3428768835e-02 -2.8457868317e-01  1.1994402101e+00  3.2703224527e-03 -5.7442504360e-04  1.9316209598e-03]
 [ 2.1286140290e-03  1.5809167751e-01  1.1845205141e-03 -2.3169682514e-04  1.1613337340e-03  9.9906101659e-01  9.5246947634e-02 -6.9215301364e-02]
 [ 3.6450427686e-03  2.2475056655e-02  2.1757669346e-03  5.4195769897e-04  7.3663210997e-04  9.5224946631e-02  9.5188246223e-01 -2.8626536882e-01]
 [-1.3058256886e-02 -6.9251521016e-02 -3.1627219596e-03 -1.0198888089e-03 -1.8040221313e-03 -6.9170966277e-02 -2.8626683917e-01  1.1907944729e+00]]
time for Gg: 0.021
C(NO)
[[ 1.0000000000e+00  0.0000000000e+00  1.3934064132e-16  6.2999812643e-17  1.2979261631e-16  0.0000000000e+00  0.0000000000e+00  0.0000000000e+00]
 [ 0.0000000000e+00  1.0000000000e+00  0.0000000000e+00  0.0000000000e+00  0.0000000000e+00 -1.1786194618e-16 -1.0408340856e-17 -1.3877787808e-16]
 [ 1.4604197985e-17  0.0000000000e+00  3.7056103839e-01 -8.1895388288e-01 -4.3817696715e-01  0.0000000000e+00  0.0000000000e+00  0.0000000000e+00]
 [-6.7984638828e-18  0.0000000000e+00 -4.1312024133e-01 -5.6785428592e-01  7.1195026243e-01  0.0000000000e+00  0.0000000000e+00  0.0000000000e+00]
 [ 4.9272980023e-18  0.0000000000e+00 -8.3187510062e-01 -8.2801254110e-02 -5.4875109957e-01  0.0000000000e+00  0.0000000000e+00  0.0000000000e+00]
 [ 0.0000000000e+00  5.1852108972e-20  0.0000000000e+00  0.0000000000e+00  0.0000000000e+00 -1.6531967720e-01 -9.8496616306e-01  5.0110497485e-02]
 [ 0.0000000000e+00 -4.7417675979e-18  0.0000000000e+00  0.0000000000e+00  0.0000000000e+00  5.2955745738e-01 -1.3151691179e-01 -8.3801682635e-01]
 [ 0.0000000000e+00 -1.1732593239e-16  0.0000000000e+00  0.0000000000e+00  0.0000000000e+00  8.3200859591e-01 -1.1200428359e-01  5.4333851032e-01]]
detC 1.0
detNg [1.0003330252 1.0087331218 1.0475398041 1.1396508624 1.2817681804 1.4224420677 1.5008445856 1.5198332782]
xg [0.9996670857 0.9913424854 0.9546176633 0.8774617148 0.7801722771 0.7030163286 0.6662915065 0.6579669062]
ciS 1.6576339918765006
ciH -3.1432523900230036
1.0 2.8155375166732943e-18 -0.010674435551760559j -1.951563910473908e-17
0.8290360411003886 5.697178717434489e-05 -5.697178717434488e-05 0.17096395889961125
0.9999999999999999 -1.315950386854281e-17 -0.05421962739872861j -2.5370330836160804e-17
0.8345852716950585 0.0014698839976284809 -0.001469883997628481 0.16541472830494144
0.9999999999999999 -1.146543797403421e-17 -0.12161306856757308j -8.012254054667878e-17
0.8608239243251686 0.007394869223210614 -0.007394869223210615 0.13917607567483142
0.9999999999999999 7.703256435509509e-17 -0.187046227485061j -1.693523793422358e-16
0.927068858578997 0.017493145608196595 -0.017493145608196592 0.07293114142100296
1.0000000000000002 5.763889799476063e-17 -0.21037136071383722j 5.074066167232161e-17
1.0402231980913244 0.0221280547042957 -0.022128054704295706 -0.04022319809132422
1.0000000000000002 -5.476576223767404e-17 -0.16513696570948472j -2.7863995832877464e-17
1.1653090526851282 0.013635108721867765 -0.013635108721867763 -0.16530905268512783
0.9999999999999998 -2.0643886990481808e-17 -0.08067072693315695j -1.3769367590565906e-16
1.2406716177226063 0.0032538830919619875 -0.0032538830919619866 -0.24067161772260653
0.9999999999999998 4.064064080926133e-18 -0.016217961387420248j -1.5612511283791264e-17
1.25953214080998 0.00013151113578192708 -0.00013151113578192708 -0.25953214080998016
S2 = -0.000000
X(g)
[[ 2.0000000000e+00 -3.4694469520e-18  2.2969815139e-05  2.0224653715e-05 -4.6053969497e-04  1.6901429049e-03  4.5153268588e-04 -1.8159066769e-02]
 [ 3.4694469520e-18  2.0000000000e+00 -9.0788991042e-04 -7.9938645297e-04  1.8202991181e-02  4.2760988572e-05  1.1423876623e-05 -4.5942839765e-04]
 [ 2.2969815139e-05  9.0788991042e-04  0.0000000000e+00  0.0000000000e+00  0.0000000000e+00  0.0000000000e+00  0.0000000000e+00  0.0000000000e+00]
 [ 2.0224653715e-05  7.9938645297e-04  0.0000000000e+00  0.0000000000e+00  0.0000000000e+00  0.0000000000e+00  0.0000000000e+00  0.0000000000e+00]
 [-4.6053969497e-04 -1.8202991181e-02  0.0000000000e+00  0.0000000000e+00  0.0000000000e+00  0.0000000000e+00  0.0000000000e+00  0.0000000000e+00]
 [-1.6901429049e-03  4.2760988572e-05  0.0000000000e+00  0.0000000000e+00  0.0000000000e+00  0.0000000000e+00  0.0000000000e+00  0.0000000000e+00]
 [-4.5153268588e-04  1.1423876623e-05  0.0000000000e+00  0.0000000000e+00  0.0000000000e+00  0.0000000000e+00  0.0000000000e+00  0.0000000000e+00]
 [ 1.8159066769e-02 -4.5942839765e-04  0.0000000000e+00  0.0000000000e+00  0.0000000000e+00  0.0000000000e+00  0.0000000000e+00  0.0000000000e+00]]
X(g) int
[[ 2.0000000000e+00 -1.5515149318e-17  1.4245654001e-02  1.2543131817e-02 -2.8562220063e-01  2.5684456707e-02  6.8617699065e-03 -2.7595640755e-01]
 [-2.0122602572e-17  2.0000000000e+00 -1.3796856486e-02 -1.2147970852e-02  2.7662391007e-01  2.6519945600e-02  7.0849762061e-03 -2.8493298494e-01]
 [ 1.4245654001e-02  1.3796856486e-02  0.0000000000e+00  0.0000000000e+00  0.0000000000e+00  0.0000000000e+00  0.0000000000e+00  0.0000000000e+00]
 [ 1.2543131817e-02  1.2147970852e-02  0.0000000000e+00  0.0000000000e+00  0.0000000000e+00  0.0000000000e+00  0.0000000000e+00  0.0000000000e+00]
 [-2.8562220063e-01 -2.7662391007e-01  0.0000000000e+00  0.0000000000e+00  0.0000000000e+00  0.0000000000e+00  0.0000000000e+00  0.0000000000e+00]
 [-2.5684456707e-02  2.6519945600e-02  0.0000000000e+00  0.0000000000e+00  0.0000000000e+00  0.0000000000e+00  0.0000000000e+00  0.0000000000e+00]
 [-6.8617699065e-03  7.0849762061e-03  0.0000000000e+00  0.0000000000e+00  0.0000000000e+00  0.0000000000e+00  0.0000000000e+00  0.0000000000e+00]
 [ 2.7595640755e-01 -2.8493298494e-01  0.0000000000e+00  0.0000000000e+00  0.0000000000e+00  0.0000000000e+00  0.0000000000e+00  0.0000000000e+00]]
Hsp + Hph =  -1.8962282418356602
Feff (mod,ortho)
[[-0.4668340159 -0.3957182032 -0.0303783607 -0.1053548898  0.            0.            0.            0.          ]
 [-0.3957182032  0.7946954885 -0.0936439464  0.6321239727  0.            0.            0.            0.          ]
 [-0.0303783607 -0.0936439464  0.9040079478 -0.0348946067  0.            0.            0.            0.          ]
 [-0.1053548898  0.6321239727 -0.0348946067  0.9287660098  0.            0.            0.            0.          ]
 [ 0.            0.            0.            0.           -0.4668340159  0.3957182032 -0.0303783607  0.1053548898]
 [ 0.            0.            0.            0.            0.3957182032  0.7946954885  0.0936439464  0.6321239727]
 [ 0.            0.            0.            0.           -0.0303783607  0.0936439464  0.9040079478  0.0348946067]
 [ 0.            0.            0.            0.            0.1053548898  0.6321239727  0.0348946067  0.9287660098]]
F(mod,ortho) updated with CDIIS
[[[-0.4668339614 -0.3957182366 -0.0303783489 -0.1053549793]
  [-0.3957182366  0.7946954718 -0.0936439792  0.6321238904]
  [-0.0303783489 -0.0936439792  0.9040079921 -0.0348946171]
  [-0.1053549793  0.6321238904 -0.0348946171  0.9287660852]]

 [[-0.4668339614  0.3957182366 -0.0303783489  0.1053549793]
  [ 0.3957182366  0.7946954718  0.0936439792  0.6321238904]
  [-0.0303783489  0.0936439792  0.9040079921  0.0348946171]
  [ 0.1053549793  0.6321238904  0.0348946171  0.9287660852]]]
Alpha occ 1 vir 3; Beta occ 1 vir 3
Alpha energies:  [-0.587072032] <- HOMO
         LUMO->  [0.2835238559 0.8970267137 1.5671570499]
Beta energies:   [-0.587072032] <- HOMO
         LUMO->  [0.2835238559 0.8970267137 1.5671570499]
e_a, e_b
 [-0.587072032   0.2835238559  0.8970267137  1.5671570499] 
 [-0.587072032   0.2835238559  0.8970267137  1.5671570499]
v_a, v_b
 [[ 0.9508460812  0.2574123764  0.043699209   0.1664961788]
 [ 0.3017575556 -0.6693894198 -0.0410533078 -0.6776243858]
 [ 0.036944781  -0.0493288816 -0.9902188821  0.1251731204]
 [-0.0588998362  0.6951426721 -0.1259824215 -0.7052913612]] 
 [[ 0.9508460812 -0.2574123764  0.043699209  -0.1664961788]
 [-0.3017575556 -0.6693894198  0.0410533078 -0.6776243858]
 [ 0.036944781   0.0493288816 -0.9902188821 -0.1251731204]
 [ 0.0588998362  0.6951426721  0.1259824215 -0.7052913612]]
P_a, P_b
 [[ 0.9041082701  0.2869249892  0.0351288003 -0.0560046784]
 [ 0.2869249892  0.0910576224  0.0111483668 -0.0177734706]
 [ 0.0351288003  0.0111483668  0.0013649168 -0.0021760416]
 [-0.0560046784 -0.0177734706 -0.0021760416  0.0034691907]] 
 [[ 0.9041082701 -0.2869249892  0.0351288003  0.0560046784]
 [-0.2869249892  0.0910576224 -0.0111483668 -0.0177734706]
 [ 0.0351288003 -0.0111483668  0.0013649168  0.0021760416]
 [ 0.0560046784 -0.0177734706  0.0021760416  0.0034691907]]
time for xg, H, S2, Yg, Feff: 0.021

***************
SUHF converged at cycle 17
Final E(SUHF) =     -1.14026080, delta E = -1.35447e-13, MaxD(dm) = 1.11919e-07, RMSD(dm) = 4.18965e-08
dm_reg
 [[[0.0044999908 0.0048651352 0.0339000589 0.0332039017]
  [0.0048651352 0.0052599087 0.0366508239 0.0358981782]
  [0.0339000589 0.0366508239 0.2553814084 0.2501370041]
  [0.0332039017 0.0358981782 0.2501370041 0.2450002967]]

 [[0.2553814084 0.2501370041 0.0339000589 0.0366508239]
  [0.2501370041 0.2450002967 0.0332039017 0.0358981782]
  [0.0339000589 0.0332039017 0.0044999908 0.0048651352]
  [0.0366508239 0.0358981782 0.0048651352 0.0052599087]]]
mo_reg
 [[-0.0670819709 -0.1221024515  0.6334704817 -1.2210885429]
 [-0.0725252281 -1.7902689157 -0.3999956168  1.3430326874]
 [-0.5053527564  0.0592828095  0.8808210649  0.9364878387]
 [-0.4949750466  1.5595264217 -0.9152350043 -1.2881296218]] 
 [[-0.5053527564 -0.0592828095  0.8808210649 -0.9364878387]
 [-0.4949750466 -1.5595264217 -0.9152350043  1.2881296218]
 [-0.0670819709  0.1221024515  0.6334704817  1.2210885429]
 [-0.0725252281  1.7902689157 -0.3999956168 -1.3430326874]]
time for cyc: 0.945
******* suhf density *****
time for Ngg: 0.002
time for Pgg: 0.004
time for xgg: 0.000
Clebsch-Gordan coeff: < 0 0 0 0 | 0 0 > = 1
Clebsch-Gordan coeff: < 0 0 1 0 | 0 0 > = 0
xggint 1.0
SUHF DM alpha
 [[0.0949738097 0.0940046434 0.0840203553 0.0834465767]
 [0.0940046434 0.0930492635 0.0834465767 0.0828723121]
 [0.0840203553 0.0834465767 0.0949738097 0.0940046434]
 [0.0834465767 0.0828723121 0.0940046434 0.0930492635]] 
SUHF DM beta
 [[0.0949738097 0.0940046434 0.0840203553 0.0834465767]
 [0.0940046434 0.0930492635 0.0834465767 0.0828723121]
 [0.0840203553 0.0834465767 0.0949738097 0.0940046434]
 [0.0834465767 0.0828723121 0.0940046434 0.0930492635]]
time for 1pdm: 0.018
SUHF natural orbitals alpha
 [[-0.3007863843  0.7127460515  0.8173928595 -0.8032064559]
 [-0.2981935801  0.6870180019 -0.7885925987  1.9978149462]
 [-0.3007863843 -0.7127460515  0.7105529273  0.8991030169]
 [-0.2981935801 -0.6870180019 -0.5326155602 -2.0807362906]]
SUHF natural orbitals beta
 [[-0.3007863843  0.7127460515  0.8173928595 -0.8032064559]
 [-0.2981935801  0.6870180019 -0.7885925987  1.9978149462]
 [-0.3007863843 -0.7127460515  0.7105529273  0.8991030169]
 [-0.2981935801 -0.6870180019 -0.5326155602 -2.0807362906]]
SUHF natural orbitals, total
 [[-0.3007863843  0.7127460515  0.8173928595 -0.8032064559]
 [-0.2981935801  0.6870180019 -0.7885925987  1.9978149462]
 [-0.3007863843 -0.7127460515  0.7105529273  0.8991030169]
 [-0.2981935801 -0.6870180019 -0.5326155602 -2.0807362906]]
SUHF NO occ alpha:  0.989219  0.010781  ...
SUHF NO occ beta:   0.989219  0.010781  ...
SUHF NO occ total:  1.978438  0.021562  ...
core 0, active 2, external 2
time for natorb: 0.002
time tot: 1.060
F0 (array([[-0.5568  , -0.249821, -0.03976 , -0.012936],
       [-0.249821,  0.896359, -0.089843,  0.650648],
       [-0.03976 , -0.089843,  0.903415, -0.030939],
       [-0.012936,  0.650648, -0.030939,  0.917662]]), array([[-0.5568  ,  0.249821, -0.03976 ,  0.012936],
       [ 0.249821,  0.896359,  0.089843,  0.650648],
       [-0.03976 ,  0.089843,  0.903415,  0.030939],
       [ 0.012936,  0.650648,  0.030939,  0.917662]]))
[array([[ 0.950846,  0.257412,  0.043699,  0.166496],
       [ 0.301758, -0.669389, -0.041053, -0.677624],
       [ 0.036945, -0.049329, -0.990219,  0.125173],
       [-0.0589  ,  0.695143, -0.125982, -0.705291]]), array([[ 0.950846, -0.257412,  0.043699, -0.166496],
       [-0.301758, -0.669389,  0.041053, -0.677624],
       [ 0.036945,  0.049329, -0.990219, -0.125173],
       [ 0.0589  ,  0.695143,  0.125982, -0.705291]])]
ca,cb [[ 1.        0.        0.        0.      ]
 [ 0.        0.714329  0.042368 -0.698527]
 [ 0.        0.065579  0.989721  0.127092]
 [ 0.       -0.696731  0.136594 -0.704207]] [[ 1.        0.        0.        0.      ]
 [ 0.       -0.714329  0.042368 -0.698527]
 [ 0.        0.065579 -0.989721 -0.127092]
 [ 0.        0.696731  0.136594 -0.704207]]
ca,cb (sc) [[ 1.        0.        0.        0.      ]
 [ 0.        0.714329  0.065579 -0.696731]
 [ 0.        0.042368  0.989721  0.136594]
 [ 0.       -0.698527  0.127092 -0.704207]] [[ 1.        0.        0.        0.      ]
 [ 0.       -0.714329  0.065579  0.696731]
 [ 0.        0.042368 -0.989721  0.136594]
 [ 0.       -0.698527 -0.127092 -0.704207]]
[-0.5568    0.253492  0.895299  1.568644] [-0.5568    0.253492  0.895299  1.568644]
(array([[-0.5568  , -0.172049, -0.051702,  0.178564],
       [-0.172049,  0.253492, -0.      , -0.      ],
       [-0.051702, -0.      ,  0.895299, -0.      ],
       [ 0.178564, -0.      , -0.      ,  1.568644]]), array([[-0.5568  , -0.172049,  0.051702, -0.178564],
       [-0.172049,  0.253492,  0.      ,  0.      ],
       [ 0.051702, -0.      ,  0.895299, -0.      ],
       [-0.178564, -0.      ,  0.      ,  1.568644]]))
NO eigenvalue
[-1. -0.  0.  0.] 
 [-1. -0. -0.  0.]
NO vec
[[ 0.950846  0.        0.302039  0.01107  -0.067394  0.        0.        0.      ]
 [ 0.301758  0.       -0.930358  0.172813  0.116243  0.        0.        0.      ]
 [ 0.036945  0.        0.108291 -0.142812  0.983114  0.        0.        0.      ]
 [-0.0589    0.        0.177427  0.974483  0.124228  0.        0.        0.      ]
 [ 0.        0.950846  0.        0.        0.       -0.307436  0.034058  0.014658]
 [ 0.       -0.301758  0.        0.        0.       -0.9447   -0.052667 -0.117089]
 [ 0.        0.036945  0.        0.        0.        0.09462   0.238366 -0.965849]
 [ 0.        0.0589    0.        0.        0.        0.063806 -0.969148 -0.230676]]
dm(NO)
[[ 1.  0.  0. -0. -0.  0.  0.  0.]
 [ 0.  1.  0.  0.  0.  0.  0.  0.]
 [ 0.  0.  0. -0. -0.  0.  0.  0.]
 [ 0.  0.  0. -0. -0.  0.  0.  0.]
 [-0.  0.  0.  0. -0.  0.  0.  0.]
 [ 0.  0.  0.  0.  0. -0. -0.  0.]
 [ 0. -0.  0.  0.  0.  0. -0.  0.]
 [ 0.  0.  0.  0.  0.  0.  0.  0.]]
C(NO)
[[ 1.        0.       -0.        0.       -0.        0.        0.        0.      ]
 [ 0.        1.        0.        0.        0.        0.        0.        0.      ]
 [ 0.        0.        0.818515 -0.078191  0.569139  0.        0.        0.      ]
 [ 0.        0.        0.57162   0.012037 -0.82043   0.        0.        0.      ]
 [-0.        0.       -0.0573   -0.996866 -0.054548  0.        0.        0.      ]
 [ 0.        0.        0.        0.        0.        0.760532 -0.137874  0.634493]
 [ 0.       -0.        0.        0.        0.       -0.63545  -0.358804  0.683712]
 [ 0.        0.        0.        0.        0.       -0.133392  0.923174  0.360494]]
detC 1.0
detNg [1.000333 1.008733 1.04754  1.139651 1.281768 1.422442 1.500845 1.519833]
xg [0.999667 0.991342 0.954618 0.877462 0.780172 0.703016 0.666292 0.657967]
ciS 1.657634021230801
[0.9996670856932158, 0.9913424860972949, 0.9546176672002211, 0.8774617253161497, 0.7801722959146556, 0.7030163540305837, 0.6662915351335104, 0.6579669355375889]
(3, 3)
emp2 -0.009548751507451471
