#INFO: **** input file is /share/home/srwang/ExSCF/test/pt2/test.py ****
#import phf
from pyscf import lib
#import scipy
#import numpy as np
#import sys

from pyphf import suscf, guess, pt2

lib.num_threads(4)

xyz = '''H 0.0 0.0 0.0; H 0.0 0.0 0.7''' #sys.argv[1]
#fch = '../test_carlos/test_uhf.fchk' #sys.argv[2]
bas = '3-21g'


#mf = util.guess_from_fchk(xyz, bas, fch)
mf = guess.mix(xyz, bas, cycle=2)

mf2 = suscf.SUHF(mf)
mf2.cut_no = False
mf2.verbose = 6
mf2.diis_on = True
mf2.max_cycle = 30
mf2.kernel()

mf4 = pt2.EMP2(mf2)
mf4.kernel()#INFO: ******************** input file end ********************


System: uname_result(system='Linux', node='xn01', release='3.10.0-1127.el7.x86_64', version='#1 SMP Tue Feb 18 16:39:12 EST 2020', machine='x86_64', processor='x86_64')  Threads 4
Python 3.7.4 (default, Aug 13 2019, 20:35:49) 
[GCC 7.3.0]
numpy 1.17.2  scipy 1.4.1
Date: Tue Jun 29 21:16:09 2021
PySCF version 1.7.6a1
PySCF path  /share/home/srwang/pyscf/pyscf
GIT HEAD      ref: refs/heads/master
GIT master branch  80f71dfe77ac5f9caae26788acf76446987635bd

[CONFIG] conf_file /share/home/srwang/.pyscf_conf.py
[INPUT] verbose = 4
[INPUT] num. atoms = 2
[INPUT] num. electrons = 2
[INPUT] charge = 0
[INPUT] spin (= nelec alpha-beta = 2S) = 0
[INPUT] symmetry False subgroup None
[INPUT] Mole.unit = angstrom
[INPUT]  1 H      0.000000000000   0.000000000000   0.000000000000 AA    0.000000000000   0.000000000000   0.000000000000 Bohr
[INPUT]  2 H      0.000000000000   0.000000000000   0.700000000000 AA    0.000000000000   0.000000000000   1.322808287196 Bohr

nuclear repulsion = 0.755967444171429
number of shells = 4
number of NR pGTOs = 6
number of NR cGTOs = 4
basis = 3-21g
ecp = {}
CPU time:         1.06


******** <class 'pyscf.scf.hf.RHF'> ********
method = RHF
initial guess = minao
damping factor = 0
level_shift factor = 0
DIIS = <class 'pyscf.scf.diis.CDIIS'>
diis_start_cycle = 1
diis_space = 8
SCF conv_tol = 1e-05
SCF conv_tol_grad = None
SCF max_cycles = 50
direct_scf = True
direct_scf_tol = 1e-13
chkfile to save SCF result = /share/home/srwang/ExSCF/test/pt2/tmpms4rircx
max_memory 4000 MB (current use 103 MB)
Set gradient conv threshold to 0.00316228
init E= -0.809492387824341
  HOMO = -0.571271212298006  LUMO = 0.221928104537945
cycle= 1 E= -1.12131636578182  delta_E= -0.312  |g|= 0.0419  |ddm|= 0.61
  HOMO = -0.610785709199711  LUMO = 0.271712959833096
cycle= 2 E= -1.12198122031277  delta_E= -0.000665  |g|= 0.00595  |ddm|= 0.0337
  HOMO = -0.60529297342371  LUMO = 0.275825863732262
cycle= 3 E= -1.12199495321398  delta_E= -1.37e-05  |g|= 3.66e-06  |ddm|= 0.0056
  HOMO = -0.605284797752085  LUMO = 0.275825289722972
cycle= 4 E= -1.12199495321826  delta_E= -4.28e-12  |g|= 1.53e-06  |ddm|= 2e-06
  HOMO = -0.605279096156691  LUMO = 0.275824724832419
Extra cycle  E= -1.12199495321916  delta_E= -8.93e-13  |g|= 2.19e-07  |ddm|= 1.24e-06
converged SCF energy = -1.12199495321916
**** generating mix guess ****
rotating angle: 0.25 pi


******** <class 'pyscf.scf.uhf.UHF'> ********
method = UHF
initial guess = minao
damping factor = 0
level_shift factor = 0
DIIS = <class 'pyscf.scf.diis.CDIIS'>
diis_start_cycle = 1
diis_space = 8
SCF conv_tol = 0.001
SCF conv_tol_grad = None
SCF max_cycles = 2
direct_scf = True
direct_scf_tol = 1e-13
chkfile to save SCF result = /share/home/srwang/ExSCF/test/pt2/tmp53kgv5om
max_memory 4000 MB (current use 115 MB)
number electrons alpha = 1  beta = 1
Set gradient conv threshold to 0.0316228
init E= -1.24050338709601
  alpha nocc = 1  HOMO = -0.148783276988405  LUMO = 1.00853567111445
  beta  nocc = 1  HOMO = -0.148783276988406  LUMO = 1.00853567111445
cycle= 1 E= -0.887716109460425  delta_E= 0.353  |g|= 0.324  |ddm|= 6.58
  alpha nocc = 1  HOMO = -0.649148382562616  LUMO = 0.230572314791482
  beta  nocc = 1  HOMO = -0.649148382562616  LUMO = 0.230572314791483
cycle= 2 E= -1.05787242230028  delta_E= -0.17  |g|= 0.15  |ddm|= 1.61
SCF not converged.
SCF energy = -1.05787242230028 after 2 cycles  <S^2> = 0.35694949  2S+1 = 1.5581393
time for guess: 0.071

******** <class 'pyphf.suscf.SUHF'> ********
Date: Tue Jun 29 21:16:09 2021
pyphf version 0.4.0
pyphf path  /share/home/srwang/ExSCF
GIT ORIG_HEAD 198e48480b188f02e90f0e6e8cbbe5568091e1c6
GIT HEAD (branch main) 920a77f5e310fde7a62df6d54d83e28771900f5b
max_cycle: 30
verbose: 6                # debug
conv_tol: 1e-07           # 1e-07 for RMSD(dm), 1e-05 for MaxD(dm), 1e-09 for dE
chkfile0: 32243_ges.pchk # the file store hf for guess
chkfile:  32243_su.pchk  # the file store suhf info
DIIS: <class 'pyscf.scf.diis.CDIIS'>
diis_start_cyc = 10
S
 [[1.         0.64589894 0.44291081 0.49569927]
 [0.64589894 1.         0.49569927 0.85190806]
 [0.44291081 0.49569927 1.         0.64589894]
 [0.49569927 0.85190806 0.64589894 1.        ]]
SVD: S^(-1/2)
 [[-0.27083973  0.86292491 -0.77657705  0.70048955]
 [-0.32366739  0.28285148  0.64982734 -2.13705753]
 [-0.27083973 -0.86292491 -0.77657705 -0.70048955]
 [-0.32366739 -0.28285148  0.64982734  2.13705753]]
S^(1/2)
 [[-0.76029568 -0.90859239 -0.76029568 -0.90859239]
 [ 0.52321034  0.17149907 -0.52321034 -0.17149907]
 [-0.37868969  0.31688152 -0.37868969  0.31688152]
 [ 0.06924981 -0.2112677  -0.06924981  0.2112677 ]]
C (ortho)
 [[-0.94853175 -0.30886346  0.03581831  0.06006611]
 [-0.26530273  0.67614191 -0.04509395 -0.68586669]
 [-0.035209    0.00998778 -0.99536721  0.0889083 ]
 [ 0.16929947 -0.66883162 -0.07699155 -0.71977375]] 
 [[-0.94853175 -0.30886346  0.03581831  0.06006611]
 [ 0.26530273 -0.67614191  0.04509395  0.68586669]
 [-0.035209    0.00998778 -0.99536721  0.0889083 ]
 [-0.16929947  0.66883162  0.07699155  0.71977375]]
density matrix (ortho)
[[[ 0.89971248  0.25164806  0.03339686 -0.16058593]
  [ 0.25164806  0.07038554  0.00934104 -0.04491561]
  [ 0.03339686  0.00934104  0.00123967 -0.00596087]
  [-0.16058593 -0.04491561 -0.00596087  0.02866231]]

 [[ 0.89971248 -0.25164806  0.03339686  0.16058593]
  [-0.25164806  0.07038554 -0.00934104 -0.04491561]
  [ 0.03339686 -0.00934104  0.00123967  0.00596087]
  [ 0.16058593 -0.04491561  0.00596087  0.02866231]]]
grids:  [0.06237655 0.31939555 0.74529195 1.28265786 1.85893479 2.39630071
 2.8221971  3.07921611] 
weights:  [0.15900941 0.34931531 0.49276925 0.56970235 0.56970235 0.49276925
 0.34931531 0.15900941]
S = 0.0, Sz = 0.0
Wigner small d:  1
value : [1. 1. 1. 1. 1. 1. 1. 1.]
hcore (ortho)
 [[-1.26019167e+00 -2.93865973e-16 -2.09809237e-01 -7.03504179e-16]
 [-2.69347545e-16 -3.02546201e-01  7.26025704e-16  4.50565619e-01]
 [-2.09809237e-01  6.83014188e-16 -1.28580828e-01 -9.60477094e-16]
 [-4.69033207e-16  4.50565619e-01 -1.09554287e-15  9.97565712e-02]]
time for Preparation before cyc: 0.100
**** Start Cycle 1 ****
dm (ortho)
[[[ 0.8997124764  0.251648061   0.0333968556 -0.1605859262]
  [ 0.251648061   0.0703855379  0.0093410441 -0.0449156125]
  [ 0.0333968556  0.0093410441  0.0012396738 -0.0059608654]
  [-0.1605859262 -0.0449156125 -0.0059608654  0.028662312 ]]

 [[ 0.8997124764 -0.251648061   0.0333968556  0.1605859262]
  [-0.251648061   0.0703855379 -0.0093410441 -0.0449156125]
  [ 0.0333968556 -0.0093410441  0.0012396738  0.0059608654]
  [ 0.1605859262 -0.0449156125  0.0059608654  0.028662312 ]]]
Fock (ortho)
 (array([[-0.5757340058, -0.204423494 , -0.0482227936,  0.0390800234],
       [-0.204423494 ,  0.8863436788, -0.0578214985,  0.6549032618],
       [-0.0482227936, -0.0578214985,  0.8852498626, -0.0197519139],
       [ 0.0390800234,  0.6549032618, -0.0197519139,  0.9036060791]]), array([[-0.5757340058,  0.204423494 , -0.0482227936, -0.0390800234],
       [ 0.204423494 ,  0.8863436788,  0.0578214985,  0.6549032618],
       [-0.0482227936,  0.0578214985,  0.8852498626,  0.0197519139],
       [-0.0390800234,  0.6549032618,  0.0197519139,  0.9036060791]]))
NO eigenvalue
[-1.0000000000e+00 -7.0986244768e-18  6.2024025563e-20  5.8324447460e-17] 
 [-1.0000000000e+00 -1.8272376536e-17 -3.4294520180e-18  9.0940043746e-20]
NO vec
[[ 0.9485317477  0.            0.0654182284  0.0060853689  0.3097917806  0.            0.            0.          ]
 [ 0.2653027288  0.            0.3701094977 -0.0154173596 -0.8901661232  0.            0.            0.          ]
 [ 0.0352090014  0.           -0.1923103862  0.9768904144 -0.0863837941  0.            0.            0.          ]
 [-0.1692994742  0.            0.906507656   0.2130971413  0.3227555824  0.            0.            0.          ]
 [ 0.            0.9485317477  0.            0.            0.            0.2657741688 -0.1716960943  0.0131173954]
 [ 0.           -0.2653027288  0.            0.            0.            0.9637589257  0.0267927081  0.0080836879]
 [ 0.            0.0352090014  0.            0.            0.            0.0140783504  0.1407206012 -0.9893229193]
 [ 0.            0.1692994742  0.            0.            0.            0.0182927408  0.9746795958  0.144923253 ]]
dm(NO)
[[ 1.0000000000e+00  0.0000000000e+00 -5.4116118143e-17 -3.0651941103e-19  1.0577880683e-16  0.0000000000e+00  0.0000000000e+00  0.0000000000e+00]
 [ 0.0000000000e+00  1.0000000000e+00  0.0000000000e+00  0.0000000000e+00  0.0000000000e+00  9.0712489370e-17  1.5712769641e-17  3.5366652340e-18]
 [-3.9170929809e-17  0.0000000000e+00  1.1803626635e-18 -3.0106696376e-19  6.3558121693e-18  0.0000000000e+00  0.0000000000e+00  0.0000000000e+00]
 [-1.6697390709e-19  0.0000000000e+00 -2.8156561050e-19 -1.8612181710e-19  4.2023641210e-19  0.0000000000e+00  0.0000000000e+00  0.0000000000e+00]
 [ 7.6733314580e-17  0.0000000000e+00  5.6938754560e-18  7.9434266946e-19 -3.4962649872e-18  0.0000000000e+00  0.0000000000e+00  0.0000000000e+00]
 [ 0.0000000000e+00  5.0242177197e-17  0.0000000000e+00  0.0000000000e+00  0.0000000000e+00 -5.7247597633e-18  5.7645702798e-18 -9.8033859806e-19]
 [ 0.0000000000e+00  4.6048138525e-17  0.0000000000e+00  0.0000000000e+00  0.0000000000e+00  7.0837798416e-18 -9.8926467163e-19 -1.5454659437e-19]
 [ 0.0000000000e+00  2.6787168324e-18  0.0000000000e+00  0.0000000000e+00  0.0000000000e+00  4.0697445696e-19  1.2969870000e-18  6.6426066052e-20]]
D(g) (NO)
 [[ 9.9951368521e-01  2.5005956481e-02  2.6277884521e-18 -3.6308618841e-18  2.7005252046e-18  1.5753195456e-02 -9.8479448656e-03 -1.3964347678e-03]
 [-2.5005956481e-02  9.9951368521e-01 -3.4476296517e-03 -2.5051039017e-03 -1.8136524458e-02  1.0832740145e-16 -1.1397895420e-17  2.1594419999e-18]
 [-8.8359708276e-18  3.4476296517e-03  9.9951368521e-01 -2.0876936146e-16  1.0115861510e-16  1.2097775826e-02  2.6667160204e-02  1.0149547343e-02]
 [-2.2714714216e-18  2.5051039017e-03 -2.3047759304e-16  9.9951368521e-01  1.1619853114e-17  1.3751338243e-04  1.0718050382e-02 -2.9175709336e-02]
 [ 5.4311902298e-18  1.8136524458e-02  1.0183669987e-16  3.3386102540e-17  9.9951368521e-01 -2.4038610979e-02  7.0283013130e-03  4.0258810403e-03]
 [-1.5753195456e-02  1.4228857202e-16 -1.2097775826e-02 -1.3751338243e-04  2.4038610979e-02  9.9951368521e-01  1.4414712163e-16 -6.4822906665e-17]
 [ 9.8479448656e-03  0.0000000000e+00 -2.6667160204e-02 -1.0718050382e-02 -7.0283013130e-03  1.5265566589e-16  9.9951368521e-01 -1.3877787808e-16]
 [ 1.3964347678e-03  0.0000000000e+00 -1.0149547343e-02  2.9175709336e-02 -4.0258810403e-03 -6.4184768611e-17 -1.3877787808e-16  9.9951368521e-01]]
N(g) (NO)
 [[ 0.9998607321 -0.0250146389]
 [ 0.0250146389  0.9998607321]]
P(g) (NO)
 [[ 1.0000000000e+00 -2.0609606026e-18 -5.4116118143e-17 -3.0651941103e-19  1.0577880683e-16 -6.3051802848e-34 -9.6296497219e-35 -1.2037062152e-35]
 [-1.1093446123e-18  1.0000000000e+00  9.9927958350e-36 -1.5013831483e-36 -1.2396408382e-34  9.0712489370e-17  1.5712769641e-17  3.5366652340e-18]
 [ 8.6241210947e-05  3.4471495076e-03 -4.6670395604e-21 -2.6434605186e-23  9.1224923933e-21  3.1269951306e-19  5.4164266130e-20  1.2191413820e-20]
 [ 6.2664269616e-05  2.5047550211e-03 -3.3911470179e-21 -1.9207815015e-23  6.6285516707e-21  2.2721256323e-19  3.9356638654e-20  8.8584800029e-21]
 [ 4.5367861100e-04  1.8133998622e-02 -2.4551325312e-20 -1.3906130064e-22  4.7989582155e-20  1.6449801573e-18  2.8493534302e-19  6.4133882481e-20]
 [-1.5751001541e-02  3.9406049652e-04  8.5238306026e-19  4.8279877155e-21 -1.6661221493e-18  3.5746208601e-20  6.1917818064e-21  1.3936600581e-21]
 [ 9.8465733629e-03 -2.4634278514e-04 -5.3285832741e-19 -3.0181658679e-21  1.0415587817e-18 -2.2346367279e-20 -3.8707274356e-21 -8.7123196386e-22]
 [ 1.3962402892e-03 -3.4931311523e-05 -7.5559104446e-20 -4.2797475111e-22  1.4769263184e-19 -3.1687062252e-21 -5.4886765121e-22 -1.2354035504e-22]]
time for NO, Ng: 0.014
Pg_ortho
 [[ 8.9985150170e-01  2.5168694613e-01  3.3402016161e-02 -1.6061074021e-01  5.5569850951e-03 -1.5542793512e-03  2.0627237450e-04  9.9184308497e-04]
 [ 2.5129435656e-01  7.0286607359e-02  9.3279148206e-03 -4.4852481262e-02 -1.4137927531e-02  3.9543544665e-03 -5.2479246075e-04 -2.5234196993e-03]
 [ 3.3402016161e-02  9.3424875395e-03  1.2398653350e-03 -5.9617865060e-03  2.0627237450e-04 -5.7694034971e-05  7.6567224410e-06  3.6816695523e-05]
 [-1.6036021430e-01 -4.4852481262e-02 -5.9524871156e-03  2.8622025602e-02  9.0219339573e-03 -2.5234196993e-03  3.3488946040e-04  1.6102873511e-03]
 [-5.5569850951e-03 -1.5542793512e-03 -2.0627237450e-04  9.9184308497e-04  8.9985150170e-01 -2.5168694613e-01  3.3402016161e-02  1.6061074021e-01]
 [-1.4137927531e-02 -3.9543544665e-03 -5.2479246075e-04  2.5234196993e-03 -2.5129435656e-01  7.0286607359e-02 -9.3279148206e-03 -4.4852481262e-02]
 [-2.0627237450e-04 -5.7694034971e-05 -7.6567224410e-06  3.6816695523e-05  3.3402016161e-02 -9.3424875395e-03  1.2398653350e-03  5.9617865060e-03]
 [ 9.0219339573e-03  2.5234196993e-03  3.3488946040e-04 -1.6102873511e-03  1.6036021430e-01 -4.4852481262e-02  5.9524871156e-03  2.8622025602e-02]]
G(g) (NO)
 [[ 5.9999366513e-01 -1.8208141572e-03 -4.9830907927e-03  1.6550165771e-01  7.8462671788e-02  1.7990786592e-03  3.3240817575e-04  5.3057153707e-04]
 [ 1.8208141572e-03  5.9999366513e-01  9.2476589626e-04  5.0523797033e-04 -1.5868925621e-03  7.9359816961e-02 -3.5024074583e-02 -1.6139192797e-01]
 [-4.9745262893e-03  1.4368600152e-03  1.0067653695e+00 -5.5517114065e-02 -2.8182781318e-01 -4.3949521762e-04 -7.0340448783e-04 -1.6924852657e-03]
 [ 1.6547155589e-01 -1.9308080450e-03 -5.5535304493e-02  9.9858387804e-01  4.5449984684e-02  6.0980320250e-04  6.4734544148e-04  9.0786143987e-04]
 [ 7.8270046911e-02 -1.1132323017e-02 -2.8183202502e-01  4.5407119819e-02  1.0857599068e+00  1.5175172569e-03  6.9009567307e-04  2.1947655215e-03]
 [ 1.0953890420e-02  7.9176211007e-02  1.2689538445e-03  2.6940011240e-03 -1.2919816478e-03  1.2674321318e+00  1.7934300151e-01 -6.8103675502e-02]
 [-2.7620004869e-03 -3.4961331795e-02  2.3506897628e-04  7.5942420797e-04  2.5544755844e-04  1.7933546062e-01  8.2468783342e-01 -1.8568370926e-02]
 [-1.4508067183e-03 -1.6137104713e-01 -7.5573662601e-04 -9.2059613827e-04  3.3268831439e-04 -6.8149794241e-02 -1.8569862546e-02  9.9898918914e-01]]
time for Gg: 0.022
C(NO)
[[-1.0000000000e+00  0.0000000000e+00 -5.7105917061e-17  6.3000123027e-16 -5.8829982527e-16  0.0000000000e+00  0.0000000000e+00  0.0000000000e+00]
 [ 0.0000000000e+00 -1.0000000000e+00  0.0000000000e+00  0.0000000000e+00  0.0000000000e+00 -3.4462951980e-16 -5.0306980803e-17 -6.9388939039e-17]
 [ 5.6711051965e-17  0.0000000000e+00 -3.7818049344e-01  1.0727949346e-01 -9.1949476598e-01  0.0000000000e+00  0.0000000000e+00  0.0000000000e+00]
 [ 1.3307794966e-18  0.0000000000e+00 -1.4507301090e-01 -9.8785816977e-01 -5.5588289469e-02  0.0000000000e+00  0.0000000000e+00  0.0000000000e+00]
 [-1.0779817990e-16  0.0000000000e+00 -9.1429390017e-01  1.1237146747e-01  3.8915204922e-01  0.0000000000e+00  0.0000000000e+00  0.0000000000e+00]
 [ 0.0000000000e+00 -3.4693612588e-17  0.0000000000e+00  0.0000000000e+00  0.0000000000e+00 -7.2135035120e-01  4.0374536003e-02  6.9139248453e-01]
 [ 0.0000000000e+00 -4.4171127651e-17  0.0000000000e+00  0.0000000000e+00  0.0000000000e+00  6.8821699246e-01 -6.9968253156e-02  7.2212312997e-01]
 [ 0.0000000000e+00 -2.9836838779e-18  0.0000000000e+00  0.0000000000e+00  0.0000000000e+00  7.7530910698e-02  9.9673182973e-01  2.2685182247e-02]]
detC 1.0000000000000004
detNg [1.0003472157 1.0091085078 1.0496653914 1.146470751  1.2973391681 1.4485071123 1.5335616943 1.5542488763]
xg [0.9996529048 0.9909737083 0.952684549  0.8722420516 0.7708084552 0.6903659578 0.6520767985 0.643397602 ]
ciS 1.6430505068211074
ciH -3.1060677675373594
0.9999999999999999 -2.348822362736175e-18 -0.011129283635056211j 7.958043946043603e-17
0.8217485694257589 6.193047711476496e-05 -6.193047711476499e-05 0.17825143057424092
1.0 5.0212113113234924e-18 -0.056550213103440404j 6.797947621484113e-17
0.8274091592629792 0.0015989633010222606 -0.0015989633010222615 0.17259084073702066
0.9999999999999998 -4.2317766044824845e-17 -0.12705060033089183j 1.4821043697876846e-16
0.8542556991371129 0.008070927522220005 -0.008070927522220005 0.14574430086288698
0.9999999999999998 3.348829460264602e-17 -0.19618068193740057j -1.3552527156068805e-17
0.9226112442866863 0.01924342998271175 -0.019243429982711755 0.07738875571331351
1.0000000000000002 5.458957938464515e-17 -0.2219968389627008j -9.194034422677078e-17
1.041155590537673 0.02464129825471566 -0.02464129825471566 -0.04115559053767323
0.9999999999999999 -2.245653749760601e-17 -0.17532606077326396j -2.4936649967166602e-17
1.1746155587154676 0.015369613793135126 -0.015369613793135128 -0.17461555871546766
0.9999999999999998 -5.248216141187645e-18 -0.08594045135229106j -1.1275702593849246e-17
1.2561667789586553 0.0036928805893177534 -0.0036928805893177534 -0.25616677895865514
1.0 -1.6983010592448722e-18 -0.017291672643396j -1.207801220148852e-16
1.276705201020772 0.00014950097140318486 -0.00014950097140318483 -0.27670520102077206
S2 = 0.000000
X(g)
[[ 2.0000000000e+00 -3.4694469520e-18  8.6241210947e-05  6.2664269616e-05  4.5367861100e-04  1.5751001541e-02 -9.8465733629e-03 -1.3962402892e-03]
 [ 0.0000000000e+00  2.0000000000e+00 -3.4471495076e-03 -2.5047550211e-03 -1.8133998622e-02  3.9406049652e-04 -2.4634278514e-04 -3.4931311523e-05]
 [ 8.6241210947e-05  3.4471495076e-03  0.0000000000e+00  0.0000000000e+00  0.0000000000e+00  0.0000000000e+00  0.0000000000e+00  0.0000000000e+00]
 [ 6.2664269616e-05  2.5047550211e-03  0.0000000000e+00  0.0000000000e+00  0.0000000000e+00  0.0000000000e+00  0.0000000000e+00  0.0000000000e+00]
 [ 4.5367861100e-04  1.8133998622e-02  0.0000000000e+00  0.0000000000e+00  0.0000000000e+00  0.0000000000e+00  0.0000000000e+00  0.0000000000e+00]
 [-1.5751001541e-02  3.9406049652e-04  0.0000000000e+00  0.0000000000e+00  0.0000000000e+00  0.0000000000e+00  0.0000000000e+00  0.0000000000e+00]
 [ 9.8465733629e-03 -2.4634278514e-04  0.0000000000e+00  0.0000000000e+00  0.0000000000e+00  0.0000000000e+00  0.0000000000e+00  0.0000000000e+00]
 [ 1.3962402892e-03 -3.4931311523e-05  0.0000000000e+00  0.0000000000e+00  0.0000000000e+00  0.0000000000e+00  0.0000000000e+00  0.0000000000e+00]]
X(g) int
[[ 2.0000000000e+00 -3.0654178066e-17  5.3959921274e-02  3.9208158351e-02  2.8386037098e-01  2.4148307671e-01 -1.5096061190e-01 -2.1406156300e-02]
 [ 2.3605006615e-17  2.0000000000e+00 -5.2849227828e-02 -3.8401110389e-02 -2.7801748155e-01  2.4655814936e-01 -1.5413324033e-01 -2.1856033781e-02]
 [ 5.3959921274e-02  5.2849227828e-02  0.0000000000e+00  0.0000000000e+00  0.0000000000e+00  0.0000000000e+00  0.0000000000e+00  0.0000000000e+00]
 [ 3.9208158351e-02  3.8401110389e-02  0.0000000000e+00  0.0000000000e+00  0.0000000000e+00  0.0000000000e+00  0.0000000000e+00  0.0000000000e+00]
 [ 2.8386037098e-01  2.7801748155e-01  0.0000000000e+00  0.0000000000e+00  0.0000000000e+00  0.0000000000e+00  0.0000000000e+00  0.0000000000e+00]
 [-2.4148307671e-01  2.4655814936e-01  0.0000000000e+00  0.0000000000e+00  0.0000000000e+00  0.0000000000e+00  0.0000000000e+00  0.0000000000e+00]
 [ 1.5096061190e-01 -1.5413324033e-01  0.0000000000e+00  0.0000000000e+00  0.0000000000e+00  0.0000000000e+00  0.0000000000e+00  0.0000000000e+00]
 [ 2.1406156300e-02 -2.1856033781e-02  0.0000000000e+00  0.0000000000e+00  0.0000000000e+00  0.0000000000e+00  0.0000000000e+00  0.0000000000e+00]]
Hsp + Hph =  -1.8904274425177743
Feff (mod,ortho)
[[-0.5153323642 -0.2909157249 -0.03766716    0.0560815912  0.            0.            0.            0.          ]
 [-0.2909157249  0.8332349271 -0.0587067571  0.678111591   0.            0.            0.            0.          ]
 [-0.03766716   -0.0587067571  0.885950277  -0.0206046766  0.            0.            0.            0.          ]
 [ 0.0560815912  0.678111591  -0.0206046766  0.8956127747  0.            0.            0.            0.          ]
 [ 0.            0.            0.            0.           -0.5153323642  0.2909157249 -0.03766716   -0.0560815912]
 [ 0.            0.            0.            0.            0.2909157249  0.8332349271  0.0587067571  0.678111591 ]
 [ 0.            0.            0.            0.           -0.03766716    0.0587067571  0.885950277   0.0206046766]
 [ 0.            0.            0.            0.           -0.0560815912  0.678111591   0.0206046766  0.8956127747]]
Alpha occ 1 vir 3; Beta occ 1 vir 3
Alpha energies:  [-0.6072833909] <- HOMO
         LUMO->  [0.2629938713 0.8836807879 1.5600743463]
Beta energies:   [-0.6072833909] <- HOMO
         LUMO->  [0.2629938713 0.8836807879 1.5600743463]
v_a, v_b
 [[ 0.950733077   0.2986953567  0.0303313974  0.0772509327]
 [ 0.2663935255 -0.6642816401 -0.0314481444 -0.697692917 ]
 [ 0.0323137724 -0.0218883958 -0.9961827771  0.0780806823]
 [-0.1552318461  0.6848590254 -0.0755704655 -0.7079267575]] 
 [[ 0.950733077  -0.2986953567  0.0303313974 -0.0772509327]
 [-0.2663935255 -0.6642816401  0.0314481444 -0.697692917 ]
 [ 0.0323137724  0.0218883958 -0.9961827771 -0.0780806823]
 [ 0.1552318461  0.6848590254  0.0755704655 -0.7079267575]]
P_a, P_b
 [[ 0.9038933836  0.2532691362  0.0307217723 -0.1475840507]
 [ 0.2532691362  0.0709655104  0.0086081798 -0.0413527588]
 [ 0.0307217723  0.0086081798  0.0010441799 -0.0050161266]
 [-0.1475840507 -0.0413527588 -0.0050161266  0.0240969261]] 
 [[ 0.9038933836 -0.2532691362  0.0307217723  0.1475840507]
 [-0.2532691362  0.0709655104 -0.0086081798 -0.0413527588]
 [ 0.0307217723 -0.0086081798  0.0010441799  0.0050161266]
 [ 0.1475840507 -0.0413527588  0.0050161266  0.0240969261]]
dm_reg
 [[[ 0.0260664573 -0.0194332666  0.0651826112  0.1120167268]
  [-0.0194332666  0.0144880391 -0.0485954439 -0.0835115757]
  [ 0.0651826112 -0.0485954439  0.1629977083  0.2801125857]
  [ 0.1120167268 -0.0835115757  0.2801125857  0.4813752382]]

 [[ 0.1629977083  0.2801125857  0.0651826112 -0.0485954439]
  [ 0.2801125857  0.4813752382  0.1120167268 -0.0835115757]
  [ 0.0651826112  0.1120167268  0.0260664573 -0.0194332666]
  [-0.0485954439 -0.0835115757 -0.0194332666  0.0144880391]]]
mo_reg
 [[-0.1614510987 -0.1573891308  0.6853240232 -1.1795101813]
 [ 0.1203662706 -1.7623778045 -0.5045608097  1.3412720889]
 [-0.4037297466  0.0295880435  0.8454714402  1.0163936066]
 [-0.6938121058  1.5405745576 -0.809767366  -1.2898013798]] 
 [[-0.4037297466 -0.0295880435  0.8454714402 -1.0163936066]
 [-0.6938121058 -1.5405745576 -0.809767366   1.2898013798]
 [-0.1614510987  0.1573891308  0.6853240232  1.1795101813]
 [ 0.1203662706  1.7623778045 -0.5045608097 -1.3412720889]]
time for xg, H, S2, Yg, Feff: 0.023
 E =     -1.13446000
**** Start Cycle 2 ****
dm (ortho)
[[[ 0.9038933836  0.2532691362  0.0307217723 -0.1475840507]
  [ 0.2532691362  0.0709655104  0.0086081798 -0.0413527588]
  [ 0.0307217723  0.0086081798  0.0010441799 -0.0050161266]
  [-0.1475840507 -0.0413527588 -0.0050161266  0.0240969261]]

 [[ 0.9038933836 -0.2532691362  0.0307217723  0.1475840507]
  [-0.2532691362  0.0709655104 -0.0086081798 -0.0413527588]
  [ 0.0307217723 -0.0086081798  0.0010441799  0.0050161266]
  [ 0.1475840507 -0.0413527588  0.0050161266  0.0240969261]]]
Fock (ortho)
 (array([[-0.5757308705, -0.2073709461, -0.0467331873,  0.0331117453],
       [-0.2073709461,  0.8871683966, -0.0603000702,  0.6541861951],
       [-0.0467331873, -0.0603000702,  0.8870334769, -0.0209085017],
       [ 0.0331117453,  0.6541861951, -0.0209085017,  0.9052682241]]), array([[-0.5757308705,  0.2073709461, -0.0467331873, -0.0331117453],
       [ 0.2073709461,  0.8871683966,  0.0603000702,  0.6541861951],
       [-0.0467331873,  0.0603000702,  0.8870334769,  0.0209085017],
       [-0.0331117453,  0.6541861951,  0.0209085017,  0.9052682241]]))
NO eigenvalue
[-1.0000000000e+00 -1.0027540150e-17 -3.2414602469e-20  1.7405412858e-17] 
 [-1.0000000000e+00 -5.8684526191e-18 -1.4669094357e-19  1.6089275024e-17]
NO vec
[[ 0.950733077   0.            0.2466153958 -0.0157512494  0.1871880366  0.            0.            0.          ]
 [ 0.2663935255  0.           -0.3513948224 -0.0626530969 -0.8953383482  0.            0.            0.          ]
 [ 0.0323137724  0.           -0.0215527231  0.9979040568 -0.0517570643  0.            0.            0.          ]
 [-0.1552318461  0.            0.9029053137  0.0037391259 -0.400813033   0.            0.            0.          ]
 [ 0.            0.950733077   0.            0.            0.           -0.0978083707  0.0123602163 -0.2939172741]
 [ 0.           -0.2663935255  0.            0.            0.           -0.7403179092 -0.0287617442 -0.6165522241]
 [ 0.            0.0323137724  0.            0.            0.           -0.0347121198 -0.9961160826  0.0741865138]
 [ 0.            0.1552318461  0.            0.            0.           -0.6641972483  0.0822966409  0.7266170602]]
dm(NO)
[[ 1.0000000000e+00  0.0000000000e+00 -7.1397225093e-17  1.7593198932e-17 -9.4340089267e-17  0.0000000000e+00  0.0000000000e+00  0.0000000000e+00]
 [ 0.0000000000e+00  1.0000000000e+00  0.0000000000e+00  0.0000000000e+00  0.0000000000e+00 -7.5021287217e-18  1.6784782265e-18  5.7820633237e-17]
 [ 9.9173893313e-18  0.0000000000e+00  9.6593738783e-18 -2.8174465892e-19  8.3862253996e-18  0.0000000000e+00  0.0000000000e+00  0.0000000000e+00]
 [ 8.1462214290e-18  0.0000000000e+00 -4.7169651722e-19  4.6129310711e-20 -2.6994117116e-19  0.0000000000e+00  0.0000000000e+00  0.0000000000e+00]
 [-6.5498076665e-17  0.0000000000e+00  1.2273294814e-17  5.0559837867e-19  1.1514308698e-17  0.0000000000e+00  0.0000000000e+00  0.0000000000e+00]
 [ 0.0000000000e+00  1.3496601116e-17  0.0000000000e+00  0.0000000000e+00  0.0000000000e+00  6.4167477717e-18  9.3767605365e-22  2.9820477064e-18]
 [ 0.0000000000e+00  1.2756188269e-19  0.0000000000e+00  0.0000000000e+00  0.0000000000e+00  1.3384086742e-18  4.6194790445e-20  1.1909492129e-18]
 [ 0.0000000000e+00  8.9113055161e-17  0.0000000000e+00  0.0000000000e+00  0.0000000000e+00  2.2229664300e-18  1.2174916691e-18  1.9554955815e-18]]
D(g) (NO)
 [[ 9.9951368521e-01  2.5254512509e-02  6.8411618890e-17  1.9431606233e-18  3.8737774310e-18 -5.8693883795e-03 -1.2745829662e-03 -1.7277974158e-02]
 [-2.5254512509e-02  9.9951368521e-01 -1.4579337076e-02 -1.0771189087e-03 -1.0994790493e-02 -6.7808815714e-18  4.0155488595e-18  3.5424138611e-17]
 [ 6.6082885363e-17  1.4579337076e-02  9.9951368521e-01 -5.0463881662e-17 -5.4554737538e-17 -1.1317520270e-02  3.3967890462e-03  2.4904047147e-02]
 [ 5.7097793520e-18  1.0771189087e-03 -4.7320829818e-17  9.9951368521e-01  9.2989651372e-18  3.3680779855e-04 -3.0937283247e-02  3.7421859086e-03]
 [ 7.7000911618e-18  1.0994790493e-02 -7.0797617554e-17  5.1593573456e-18  9.9951368521e-01  2.8455994979e-02  1.4542497890e-03  6.2967582182e-03]
 [ 5.8693883795e-03 -1.8421530015e-17  1.1317520270e-02 -3.3680779855e-04 -2.8455994979e-02  9.9951368521e-01 -7.7073733033e-17  9.7490686394e-17]
 [ 1.2745829662e-03  3.4694469520e-18 -3.3967890462e-03  3.0937283247e-02 -1.4542497890e-03 -7.6327832943e-17  9.9951368521e-01 -2.7755575616e-17]
 [ 1.7277974158e-02  5.5511151231e-17 -2.4904047147e-02 -3.7421859086e-03 -6.2967582182e-03  1.9428902931e-16 -2.7755575616e-17  9.9951368521e-01]]
N(g) (NO)
 [[ 0.9998482371 -0.0252629656]
 [ 0.0252629656  0.9998482371]]
P(g) (NO)
 [[ 1.0000000000e+00 -3.4605262973e-18 -7.1397225093e-17  1.7593198932e-17 -9.4340089267e-17  1.8407284127e-35 -6.0185310762e-36 -1.9259299444e-34]
 [ 6.4834134980e-18  1.0000000000e+00 -5.4990724516e-34  6.7497038494e-35 -6.3190630848e-34 -7.5021287217e-18  1.6784782265e-18  5.7820633237e-17]
 [ 3.6831729049e-04  1.4577124473e-02 -2.6296832495e-20  6.4798793619e-21 -3.4747086064e-20 -1.0935946419e-19  2.4467386033e-20  8.4285856781e-19]
 [ 2.7211217899e-05  1.0769554420e-03 -1.9428054494e-21  4.7873236969e-22 -2.5671087256e-21 -8.0794583534e-21  1.8076462603e-21  6.2270245624e-20]
 [ 2.7776101362e-04  1.0993121892e-02 -1.9831365611e-20  4.8867047682e-21 -2.6203998819e-20 -8.2471815486e-20  1.8451715737e-20  6.3562926904e-19]
 [ 5.8684976241e-03 -1.4827815652e-04 -4.1899444582e-19  1.0324564613e-19 -5.5363458972e-19  1.1124018168e-21 -2.4888165718e-22 -8.5735369049e-21]
 [ 1.2743895318e-03 -3.2199745585e-05 -9.0987876261e-20  2.2420588551e-20 -1.2022602219e-19  2.4156663619e-22 -5.4046571864e-23 -1.8618096798e-21]
 [ 1.7275352003e-02 -4.3649286618e-04 -1.2334121955e-18  3.0392870441e-19 -1.6297582500e-18  3.2746256682e-21 -7.3264377190e-22 -2.5238293926e-20]]
time for NO, Ng: 0.013
Pg_ortho
 [[ 9.0402876579e-01  2.5330706997e-01  3.0726373695e-02 -1.4760615538e-01  5.3581042360e-03 -1.5013301965e-03  1.8211269296e-04  8.7484955826e-04]
 [ 2.5290802896e-01  7.0864328894e-02  8.5959063500e-03 -4.1293798641e-02 -1.4291765923e-02  4.0045245102e-03 -4.8575239762e-04 -2.3335016553e-03]
 [ 3.0726373695e-02  8.6094690634e-03  1.0443362824e-03 -5.0168778489e-03  1.8211269296e-04 -5.1027615939e-05  6.1896953619e-06  2.9734622914e-05]
 [-1.4737362769e-01 -4.1293798641e-02 -5.0089746350e-03  2.4062569036e-02  8.3280447786e-03 -2.3335016553e-03  2.8305583373e-04  1.3597694212e-03]
 [-5.3581042360e-03 -1.5013301965e-03 -1.8211269296e-04  8.7484955826e-04  9.0402876579e-01 -2.5330706997e-01  3.0726373695e-02  1.4760615538e-01]
 [-1.4291765923e-02 -4.0045245102e-03 -4.8575239762e-04  2.3335016553e-03 -2.5290802896e-01  7.0864328894e-02 -8.5959063500e-03 -4.1293798641e-02]
 [-1.8211269296e-04 -5.1027615939e-05 -6.1896953619e-06  2.9734622914e-05  3.0726373695e-02 -8.6094690634e-03  1.0443362824e-03  5.0168778489e-03]
 [ 8.3280447786e-03  2.3335016553e-03  2.8305583373e-04 -1.3597694212e-03  1.4737362769e-01 -4.1293798641e-02  5.0089746350e-03  2.4062569036e-02]]
G(g) (NO)
 [[ 6.0115937939e-01 -1.7439120441e-03  7.6700888616e-02  1.5975000327e-01  4.1220026167e-02 -1.6264551128e-03  4.0916844214e-04 -9.7422779813e-04]
 [ 1.7439120441e-03  6.0115937939e-01 -3.8362498268e-04  3.1878645426e-04 -1.8743270579e-03 -2.7024666474e-02 -1.6123949485e-01 -7.9835287432e-02]
 [ 7.6575077057e-02 -6.6248306902e-03  7.6532389630e-01  3.6645295899e-02  3.7129752082e-02 -6.8441917589e-04  4.0900938532e-04 -4.7289632820e-04]
 [ 1.5972538557e-01 -1.8421373170e-03  3.6659392275e-02  1.0179729022e+00  1.0785537394e-01 -1.1157614635e-03  1.0787136809e-03  1.1505325269e-04]
 [ 4.1070114424e-02 -9.1352299100e-03  3.7115819206e-02  1.0781279796e-01  1.3109087943e+00 -1.7543399717e-03  2.6247661060e-03 -1.6898557433e-04]
 [-6.6850953983e-03 -2.6920799929e-02 -6.2780429540e-04 -2.3090633783e-03  1.5944290699e-03  1.2463460672e+00  8.0366505299e-02  1.9560474519e-01]
 [-1.6739823610e-03 -1.6121659205e-01 -4.7829282193e-04 -8.5132412102e-04  1.0150381913e-03  8.0402830470e-02  1.0091332361e+00  4.7609201939e-02]
 [-9.1236812553e-03 -7.9669169061e-02  3.9054555442e-05 -1.1106527055e-03  1.3378285817e-03  1.9561521552e-01  4.7581337959e-02  8.3872628943e-01]]
time for Gg: 0.021
C(NO)
[[ 1.0000000000e+00  0.0000000000e+00  1.2524315038e-17 -3.6063817326e-18 -1.1204732679e-16  0.0000000000e+00  0.0000000000e+00  0.0000000000e+00]
 [ 0.0000000000e+00  1.0000000000e+00  0.0000000000e+00  0.0000000000e+00  0.0000000000e+00  1.5915240256e-17 -1.7347234760e-17 -6.9388939039e-17]
 [-4.6336568385e-17  0.0000000000e+00  9.2592261023e-01 -2.8231618618e-02 -3.7665673440e-01  0.0000000000e+00  0.0000000000e+00  0.0000000000e+00]
 [ 1.0758086619e-17  0.0000000000e+00  1.7632732041e-02 -9.9288483576e-01  1.1776582559e-01  0.0000000000e+00  0.0000000000e+00  0.0000000000e+00]
 [-1.0546488571e-16  0.0000000000e+00  3.7730147975e-01  1.1568352790e-01  9.1883671822e-01  0.0000000000e+00  0.0000000000e+00  0.0000000000e+00]
 [ 0.0000000000e+00  2.0459067275e-17  0.0000000000e+00  0.0000000000e+00  0.0000000000e+00  6.5353228291e-02 -4.1862368421e-02  9.9698369980e-01]
 [ 0.0000000000e+00  1.5921562441e-18  0.0000000000e+00  0.0000000000e+00  0.0000000000e+00  4.9972173629e-02  9.9800328004e-01  3.8629456160e-02]
 [ 0.0000000000e+00  1.0444586970e-16  0.0000000000e+00  0.0000000000e+00  0.0000000000e+00  9.9661012307e-01 -4.7296882885e-02 -6.7314689739e-02]]
detC 0.9999999999999998
detNg [1.0003347147 1.0087777996 1.0477924192 1.140458562  1.283602391  1.4254960034 1.5046664031 1.5238505683]
xg [0.9996653973 0.9912985797 0.9543875119 0.8768402758 0.7790574457 0.7015102095 0.6645991417 0.6562323241]
ciS 1.6558977214236372
ciH -3.132363008500459
1.0 -1.0363448109656365e-18 -0.010728587862776298j -7.589415207398531e-18
0.8281684360420144 5.755129876465545e-05 -5.7551298764655456e-05 0.17183156395798543
1.0 -2.3530575274724463e-17 -0.05449700972134027j 6.548581121812447e-17
0.8337314678339014 0.0014849620342839275 -0.001484962034283928 0.1662685321660985
0.9999999999999999 -4.427610621887679e-17 -0.12225929130456373j -2.233456475320139e-17
0.8600448726053771 0.007473667155147085 -0.007473667155147085 0.13995512739462282
1.0 -1.141258311812554e-16 -0.18812804796531257j -2.667137344314341e-17
0.9265452858752757 0.017696081215619473 -0.017696081215619476 0.07345471412472428
0.9999999999999999 -2.4761822366853314e-16 -0.21174080342547208j -6.179952383167375e-17
1.0403400533501541 0.022417083917632207 -0.02241708391763221 -0.04034005335015416
0.9999999999999997 -1.2300951273205851e-16 -0.16633078073316798j -1.089623183347932e-16
1.1664048276746655 0.013832964309652609 -0.013832964309652607 -0.1664048276746659
1.0 -5.294294733518279e-17 -0.0812863047058428j 3.426078865054194e-17
1.2424831025240275 0.0033037316663655607 -0.003303731666365561 -0.24248310252402772
0.9999999999999998 -1.162298610222351e-17 -0.016343294371200117j -7.209944447028604e-17
1.2615367902696772 0.0001335516354518507 -0.00013355163545185073 -0.2615367902696776
S2 = 0.000000
X(g)
[[ 2.0000000000e+00 -6.9388939039e-18  3.6831729049e-04  2.7211217899e-05  2.7776101362e-04 -5.8684976241e-03 -1.2743895318e-03 -1.7275352003e-02]
 [ 6.9388939039e-18  2.0000000000e+00 -1.4577124473e-02 -1.0769554420e-03 -1.0993121892e-02 -1.4827815652e-04 -3.2199745585e-05 -4.3649286618e-04]
 [ 3.6831729049e-04  1.4577124473e-02  0.0000000000e+00  0.0000000000e+00  0.0000000000e+00  0.0000000000e+00  0.0000000000e+00  0.0000000000e+00]
 [ 2.7211217899e-05  1.0769554420e-03  0.0000000000e+00  0.0000000000e+00  0.0000000000e+00  0.0000000000e+00  0.0000000000e+00  0.0000000000e+00]
 [ 2.7776101362e-04  1.0993121892e-02  0.0000000000e+00  0.0000000000e+00  0.0000000000e+00  0.0000000000e+00  0.0000000000e+00  0.0000000000e+00]
 [ 5.8684976241e-03 -1.4827815652e-04  0.0000000000e+00  0.0000000000e+00  0.0000000000e+00  0.0000000000e+00  0.0000000000e+00  0.0000000000e+00]
 [ 1.2743895318e-03 -3.2199745585e-05  0.0000000000e+00  0.0000000000e+00  0.0000000000e+00  0.0000000000e+00  0.0000000000e+00  0.0000000000e+00]
 [ 1.7275352003e-02 -4.3649286618e-04  0.0000000000e+00  0.0000000000e+00  0.0000000000e+00  0.0000000000e+00  0.0000000000e+00  0.0000000000e+00]]
X(g) int
[[ 2.0000000000e+00 -7.7630527362e-17  2.2866589792e-01  1.6893797101e-02  1.7244499030e-01 -8.9274677925e-02 -1.9386685025e-02 -2.6280175692e-01]
 [-5.4767831567e-17  2.0000000000e+00 -2.2175489806e-01 -1.6383213623e-02 -1.6723316241e-01 -9.2056926669e-02 -1.9990871803e-02 -2.7099198370e-01]
 [ 2.2866589792e-01  2.2175489806e-01  0.0000000000e+00  0.0000000000e+00  0.0000000000e+00  0.0000000000e+00  0.0000000000e+00  0.0000000000e+00]
 [ 1.6893797101e-02  1.6383213623e-02  0.0000000000e+00  0.0000000000e+00  0.0000000000e+00  0.0000000000e+00  0.0000000000e+00  0.0000000000e+00]
 [ 1.7244499030e-01  1.6723316241e-01  0.0000000000e+00  0.0000000000e+00  0.0000000000e+00  0.0000000000e+00  0.0000000000e+00  0.0000000000e+00]
 [ 8.9274677925e-02 -9.2056926669e-02  0.0000000000e+00  0.0000000000e+00  0.0000000000e+00  0.0000000000e+00  0.0000000000e+00  0.0000000000e+00]
 [ 1.9386685025e-02 -1.9990871803e-02  0.0000000000e+00  0.0000000000e+00  0.0000000000e+00  0.0000000000e+00  0.0000000000e+00  0.0000000000e+00]
 [ 2.6280175692e-01 -2.7099198370e-01  0.0000000000e+00  0.0000000000e+00  0.0000000000e+00  0.0000000000e+00  0.0000000000e+00  0.0000000000e+00]]
Hsp + Hph =  -1.8916403881560087
Feff (mod,ortho)
[[-0.5147837517 -0.3023160448 -0.0372793674  0.0389383439  0.            0.            0.            0.          ]
 [-0.3023160448  0.8291765244 -0.0614585748  0.6741093538  0.            0.            0.            0.          ]
 [-0.0372793674 -0.0614585748  0.8876057086 -0.0219158231  0.            0.            0.            0.          ]
 [ 0.0389383439  0.6741093538 -0.0219158231  0.9017407458  0.            0.            0.            0.          ]
 [ 0.            0.            0.            0.           -0.5147837517  0.3023160448 -0.0372793674 -0.0389383439]
 [ 0.            0.            0.            0.            0.3023160448  0.8291765244  0.0614585748  0.6741093538]
 [ 0.            0.            0.            0.           -0.0372793674  0.0614585748  0.8876057086  0.0219158231]
 [ 0.            0.            0.            0.           -0.0389383439  0.6741093538  0.0219158231  0.9017407458]]
Alpha occ 1 vir 3; Beta occ 1 vir 3
Alpha energies:  [-0.6075530069] <- HOMO
         LUMO->  [0.2652585461 0.8850399456 1.5609937422]
Beta energies:   [-0.6075530069] <- HOMO
         LUMO->  [0.2652585461 0.8850399456 1.5609937422]
v_a, v_b
 [[ 0.9515874515  0.2932889099  0.0312677302  0.086517435 ]
 [ 0.2693782018 -0.6654347875 -0.0322132591 -0.6954094003]
 [ 0.0326826486 -0.0239877147 -0.9958285239  0.0817434093]
 [-0.1443902735  0.6860049187 -0.0794366787 -0.7086878823]] 
 [[ 0.9515874515 -0.2932889099  0.0312677302 -0.086517435 ]
 [-0.2693782018 -0.6654347875  0.0322132591 -0.6954094003]
 [ 0.0326826486  0.0239877147 -0.9958285239 -0.0817434093]
 [ 0.1443902735  0.6860049187  0.0794366787 -0.7086878823]]
P_a, P_b
 [[ 0.9055186778  0.2563369165  0.0311003983 -0.1373999724]
 [ 0.2563369165  0.0725646156  0.0088039931 -0.0388955922]
 [ 0.0311003983  0.0088039931  0.0010681555 -0.0047190566]
 [-0.1373999724 -0.0388955922 -0.0047190566  0.0208485511]] 
 [[ 0.9055186778 -0.2563369165  0.0311003983  0.1373999724]
 [-0.2563369165  0.0725646156 -0.0088039931 -0.0388955922]
 [ 0.0311003983 -0.0088039931  0.0010681555  0.0047190566]
 [ 0.1373999724 -0.0388955922  0.0047190566  0.0208485511]]
dm_reg
 [[[ 0.0230429358 -0.0148769999  0.0629081713  0.1019366839]
  [-0.0148769999  0.0096049014 -0.0406148274 -0.0658124491]
  [ 0.0629081713 -0.0406148274  0.1717419188  0.2782913783]
  [ 0.1019366839 -0.0658124491  0.2782913783  0.450944602 ]]

 [[ 0.1717419188  0.2782913783  0.0629081713 -0.0406148274]
  [ 0.2782913783  0.450944602   0.1019366839 -0.0658124491]
  [ 0.0629081713  0.1019366839  0.0230429358 -0.0148769999]
  [-0.0406148274 -0.0658124491 -0.0148769999  0.0096049014]]]
mo_reg
 [[-0.1517989981 -0.1544869606  0.6814268438 -1.1834269644]
 [ 0.098004599  -1.7647671183 -0.4965877606  1.342925428 ]
 [-0.4144175658  0.0328750003  0.8483112176  1.0096021365]
 [-0.6715240889  1.5437352626 -0.8178861292 -1.2926929678]] 
 [[-0.4144175658 -0.0328750003  0.8483112176 -1.0096021365]
 [-0.6715240889 -1.5437352626 -0.8178861292  1.2926929678]
 [-0.1517989981  0.1544869606  0.6814268438  1.1834269644]
 [ 0.098004599   1.7647671183 -0.4965877606 -1.342925428 ]]
time for xg, H, S2, Yg, Feff: 0.022
 E =     -1.13567294, delta E = -0.00121295, MaxD(dm) =  0.0101841, RMSD(dm) =  0.0039892
**** Start Cycle 3 ****
dm (ortho)
[[[ 0.9055186778  0.2563369165  0.0311003983 -0.1373999724]
  [ 0.2563369165  0.0725646156  0.0088039931 -0.0388955922]
  [ 0.0311003983  0.0088039931  0.0010681555 -0.0047190566]
  [-0.1373999724 -0.0388955922 -0.0047190566  0.0208485511]]

 [[ 0.9055186778 -0.2563369165  0.0311003983  0.1373999724]
  [-0.2563369165  0.0725646156 -0.0088039931 -0.0388955922]
  [ 0.0311003983 -0.0088039931  0.0010681555  0.0047190566]
  [ 0.1373999724 -0.0388955922  0.0047190566  0.0208485511]]]
Fock (ortho)
 (array([[-0.5742521731, -0.2114651843, -0.0460013994,  0.0280927162],
       [-0.2114651843,  0.8886730603, -0.0633036762,  0.6540094776],
       [-0.0460013994, -0.0633036762,  0.8889996051, -0.0219244943],
       [ 0.0280927162,  0.6540094776, -0.0219244943,  0.9070040394]]), array([[-0.5742521731,  0.2114651843, -0.0460013994, -0.0280927162],
       [ 0.2114651843,  0.8886730603,  0.0633036762,  0.6540094776],
       [-0.0460013994,  0.0633036762,  0.8889996051,  0.0219244943],
       [-0.0280927162,  0.6540094776,  0.0219244943,  0.9070040394]]))
NO eigenvalue
[-1.0000000000e+00 -4.2747850181e-17 -2.5134815847e-18 -1.1508638213e-20] 
 [-1.0000000000e+00 -3.1324219780e-18 -2.9949096655e-18  3.5066145371e-18]
NO vec
[[ 9.5158745147e-01  0.0000000000e+00  3.0309112826e-01 -5.1152769307e-02  6.9596154443e-04  0.0000000000e+00  0.0000000000e+00  0.0000000000e+00]
 [ 2.6937820178e-01  0.0000000000e+00 -9.0048119738e-01 -3.2282908695e-01  1.1113225540e-01  0.0000000000e+00  0.0000000000e+00  0.0000000000e+00]
 [ 3.2682648561e-02  0.0000000000e+00 -1.0434058928e-01 -2.3769968889e-02 -9.9372021942e-01  0.0000000000e+00  0.0000000000e+00  0.0000000000e+00]
 [-1.4439027354e-01  0.0000000000e+00  2.9390886778e-01 -9.4477498030e-01 -1.3010109769e-02  0.0000000000e+00  0.0000000000e+00  0.0000000000e+00]
 [ 0.0000000000e+00  9.5158745147e-01  0.0000000000e+00  0.0000000000e+00  0.0000000000e+00 -2.0289766350e-01 -9.4448764034e-02 -2.1069715546e-01]
 [ 0.0000000000e+00 -2.6937820178e-01  0.0000000000e+00  0.0000000000e+00  0.0000000000e+00 -6.7873017307e-01  2.0080500622e-01 -6.5302227071e-01]
 [ 0.0000000000e+00  3.2682648561e-02  0.0000000000e+00  0.0000000000e+00  0.0000000000e+00  7.0034504118e-01  2.8392935653e-01 -6.5408928157e-01]
 [ 0.0000000000e+00  1.4439027354e-01  0.0000000000e+00  0.0000000000e+00  0.0000000000e+00 -8.7605442752e-02  9.3281343309e-01  3.1833289864e-01]]
dm(NO)
[[ 1.0000000000e+00  0.0000000000e+00  8.3266193246e-17  6.9541416345e-18 -1.0619438836e-17  0.0000000000e+00  0.0000000000e+00  0.0000000000e+00]
 [ 0.0000000000e+00  1.0000000000e+00  0.0000000000e+00  0.0000000000e+00  0.0000000000e+00 -6.5570207032e-18  6.2316303380e-17 -5.5640176045e-17]
 [ 5.3993410352e-17  0.0000000000e+00 -1.0906361495e-17 -6.8454290205e-19  1.1690997087e-18  0.0000000000e+00  0.0000000000e+00  0.0000000000e+00]
 [-2.3438670865e-17  0.0000000000e+00 -4.9807601659e-18  3.9901390548e-18  4.2445159905e-19  0.0000000000e+00  0.0000000000e+00  0.0000000000e+00]
 [ 5.1198057044e-18  0.0000000000e+00  1.4355094928e-18 -1.5095090863e-19 -4.0500355034e-20  0.0000000000e+00  0.0000000000e+00  0.0000000000e+00]
 [ 0.0000000000e+00 -4.1034849733e-17  0.0000000000e+00  0.0000000000e+00  0.0000000000e+00 -3.9870019301e-18 -6.6616884203e-18 -6.5589364556e-18]
 [ 0.0000000000e+00  4.5794498818e-17  0.0000000000e+00  0.0000000000e+00  0.0000000000e+00 -4.5370486623e-18 -3.7674053336e-18 -5.5311298219e-18]
 [ 0.0000000000e+00 -9.4208270328e-17  0.0000000000e+00  0.0000000000e+00  0.0000000000e+00 -3.9791239044e-18 -5.9722775987e-18 -6.2560167003e-18]]
D(g) (NO)
 [[ 9.9951368521e-01  2.5357371587e-02 -1.2364721274e-16 -2.7018401233e-17  1.4700578329e-17 -1.0613877986e-02 -5.0265286123e-03 -1.3837499238e-02]
 [-2.5357371587e-02  9.9951368521e-01 -1.7774907373e-02  3.0842197495e-03  1.9841969090e-03 -6.7871164680e-17  2.6774590360e-17 -1.4087731789e-16]
 [-1.2426317862e-16  1.7774907373e-02  9.9951368521e-01 -1.1209194163e-16 -1.7328561995e-17  1.4059416721e-02  1.0941900728e-03  2.1391149856e-02]
 [-2.4791232733e-17 -3.0842197495e-03 -1.1259499086e-16  9.9951368521e-01  5.5870078503e-17  9.2181605222e-03 -2.9563005376e-02 -1.9836564701e-03]
 [ 1.7612934870e-17 -1.9841969090e-03 -2.7437901302e-17  5.4546016084e-17  9.9951368521e-01 -2.4022843023e-02 -8.4828383258e-03  1.7871779554e-02]
 [ 1.0613877986e-02 -9.1543213031e-17 -1.4059416721e-02 -9.2181605222e-03  2.4022843023e-02  9.9951368521e-01  4.7132151322e-17 -3.1211358595e-17]
 [ 5.0265286123e-03  2.7755575616e-17 -1.0941900728e-03  2.9563005376e-02  8.4828383258e-03  5.5511151231e-17  9.9951368521e-01 -2.7755575616e-17]
 [ 1.3837499238e-02 -1.3877787808e-16 -2.1391149856e-02  1.9836564701e-03 -1.7871779554e-02 -5.5511151231e-17 -2.7755575616e-17  9.9951368521e-01]]
N(g) (NO)
 [[ 0.9998430303 -0.025365727 ]
 [ 0.025365727   0.9998430303]]
P(g) (NO)
 [[ 1.0000000000e+00  1.5416993959e-18  8.3266193246e-17  6.9541416345e-18 -1.0619438836e-17 -1.8393521814e-35  1.9259299444e-34  0.0000000000e+00]
 [-5.7782097350e-18  1.0000000000e+00 -4.7544037347e-34 -4.2347716304e-35  2.3676795541e-35 -6.5570207032e-18  6.2316303380e-17 -5.5640176045e-17]
 [ 4.5087344744e-04  1.7772117251e-02  3.7542515604e-20  3.1354378127e-21 -4.7880229978e-21 -1.1653214075e-19  1.1074926503e-18 -9.8884373254e-19]
 [-7.8233476098e-05 -3.0837356204e-03 -6.5142037390e-21 -5.4404667334e-22  8.3079561433e-22  2.0220118306e-20 -1.9216700446e-19  1.7157959280e-19]
 [-5.0330597059e-05 -1.9838854502e-03 -4.1908372209e-21 -3.5000610049e-22  5.3448269703e-22  1.3008377969e-20 -1.2362840758e-19  1.1038373570e-19]
 [ 1.0612211929e-02 -2.6922873115e-04  8.8363848922e-19  7.3798824807e-20 -1.1269573549e-19  1.7653383640e-21 -1.6777339289e-20  1.4979933998e-20]
 [ 5.0257395995e-03 -1.2750155241e-04  4.1847420470e-19  3.4949704993e-20 -5.3370534281e-20  8.3603031886e-22 -7.9454254216e-21  7.0942088224e-21]
 [ 1.3835327170e-02 -3.5099822770e-04  1.1520150257e-18  9.6212824697e-20 -1.4692341065e-19  2.3015026458e-21 -2.1872912043e-20  1.9529603181e-20]]
time for NO, Ng: 0.013
Pg_ortho
 [[ 9.0565249247e-01  2.5637479716e-01  3.1104994170e-02 -1.3742027695e-01  5.2745845147e-03 -1.4931450488e-03  1.8115769784e-04  8.0034546455e-04]
 [ 2.5596927986e-01  7.2460543917e-02  8.7913664720e-03 -3.8839808449e-02 -1.4491165320e-02  4.1022021144e-03 -4.9770482224e-04 -2.1988345067e-03]
 [ 3.1104994170e-02  8.8052941247e-03  1.0683133656e-03 -4.7197539331e-03  1.8115769784e-04 -5.1282659103e-05  6.2219330061e-06  2.7488182515e-05]
 [-1.3720291432e-01 -3.8839808449e-02 -4.7122885272e-03  2.0818650245e-02  7.7674559808e-03 -2.1988345067e-03  2.6677635738e-04  1.1786043333e-03]
 [-5.2745845147e-03 -1.4931450488e-03 -1.8115769784e-04  8.0034546455e-04  9.0565249247e-01 -2.5637479716e-01  3.1104994170e-02  1.3742027695e-01]
 [-1.4491165320e-02 -4.1022021144e-03 -4.9770482224e-04  2.1988345067e-03 -2.5596927986e-01  7.2460543917e-02 -8.7913664720e-03 -3.8839808449e-02]
 [-1.8115769784e-04 -5.1282659103e-05 -6.2219330061e-06  2.7488182515e-05  3.1104994170e-02 -8.8052941247e-03  1.0683133656e-03  4.7197539331e-03]
 [ 7.7674559808e-03  2.1988345067e-03  2.6677635738e-04 -1.1786043333e-03  1.3720291432e-01 -3.8839808449e-02  4.7122885272e-03  2.0818650245e-02]]
G(g) (NO)
 [[ 6.0285416475e-01 -1.7077261902e-03  7.2694444769e-02 -2.9444683530e-02 -1.6346823008e-01 -1.6586013843e-03  5.7855683563e-04 -9.0415092787e-04]
 [ 1.7077261902e-03  6.0285416475e-01 -1.7187966755e-03 -9.5225476151e-04 -2.0524210523e-04  5.8377298012e-02  8.9749641167e-03 -1.7142017101e-01]
 [ 7.2497805648e-02 -1.1236224695e-02  1.1015664830e+00  2.6450585897e-01 -1.1354356768e-01 -2.7181789641e-03  5.5524425083e-04  7.2724527912e-04]
 [-2.9456131010e-02 -1.3923051301e-03  2.6449247921e-01  9.6536021283e-01 -6.0433454583e-02 -1.2864656897e-03  3.2602259748e-04  9.7452204466e-04]
 [-1.6343303622e-01  2.4930169304e-03 -1.1358467103e-01 -6.0452647485e-02  1.0322609437e+00  1.5129748204e-03 -7.4253586856e-04 -4.6632284280e-04]
 [-6.9690388661e-03  5.8500523504e-02  6.4975573536e-04  5.3380832495e-04  1.2551368753e-03  1.0543578623e+00 -1.4499838076e-01  9.8710759818e-02]
 [ 3.4022974759e-04  8.9836740268e-03 -1.8879025699e-04 -9.0984699549e-04 -1.3327700560e-03 -1.4500643612e-01  9.2179830739e-01 -2.2340222269e-01]
 [-9.2586788142e-03 -1.7126276640e-01  1.3898703500e-03  1.7719893681e-03  2.0001595748e-03  9.8756391522e-02 -2.2341169525e-01  1.1230314698e+00]]
time for Gg: 0.021
C(NO)
[[ 1.0000000000e+00  0.0000000000e+00 -2.4875213308e-16 -7.9223527732e-18 -1.2127682172e-16  0.0000000000e+00  0.0000000000e+00  0.0000000000e+00]
 [ 0.0000000000e+00  1.0000000000e+00  0.0000000000e+00  0.0000000000e+00  0.0000000000e+00 -6.5834159421e-17 -3.4694469520e-18 -1.1102230246e-16]
 [ 3.4693935918e-17  0.0000000000e+00  8.9223060204e-01  1.1904259647e-01  4.3560694783e-01  0.0000000000e+00  0.0000000000e+00  0.0000000000e+00]
 [ 6.9541416345e-18  0.0000000000e+00 -4.4773093142e-01  1.0752054558e-01  8.8768031708e-01  0.0000000000e+00  0.0000000000e+00  0.0000000000e+00]
 [ 3.2583489720e-18  0.0000000000e+00 -5.8835073092e-02  9.8705024822e-01 -1.4923217371e-01  0.0000000000e+00  0.0000000000e+00  0.0000000000e+00]
 [ 0.0000000000e+00 -5.0621923617e-17  0.0000000000e+00  0.0000000000e+00  0.0000000000e+00  4.6786021544e-01 -7.3259091433e-01  4.9438585239e-01]
 [ 0.0000000000e+00  3.2695925926e-17  0.0000000000e+00  0.0000000000e+00  0.0000000000e+00  5.4080355816e-01 -2.0512996586e-01 -8.1575315420e-01]
 [ 0.0000000000e+00 -1.0231581444e-16  0.0000000000e+00  0.0000000000e+00  0.0000000000e+00  6.9902670213e-01  6.4902407455e-01  3.0021562313e-01]]
detC 0.9999999999999996
detNg [1.0003295053 1.0086400508 1.0470138859 1.1379717359 1.2779634953 1.4161212114 1.4929440807 1.5115311487]
xg [0.9996706032 0.9914339602 0.9550971706 0.8787564475 0.7824949646 0.7061542415 0.6698174519 0.6615808089]
ciS 1.6612514120976987
ciH -3.143952838429079
1.0 3.1632445415211846e-18 -0.010561612895334364j 2.7159264420761886e-16
0.8308436278035749 5.577383347544657e-05 -5.5773833475446574e-05 0.16915637219642538
1.0000000000000002 3.593113762252742e-17 -0.053641796101981866j 2.905661822261152e-17
0.8363636332384903 0.0014387211445232983 -0.0014387211445232983 0.16363636676151003
1.0 4.031199202572666e-17 -0.12026770082310885j 1.981921571303502e-16
0.8624444883250915 0.0072321599306384085 -0.0072321599306384085 0.13755551167490868
1.0 1.1387510942886814e-16 -0.1847972311294082j 2.426444462022559e-16
0.928153568258788 0.017075008316547954 -0.017075008316547957 0.07184643174121218
1.0000000000000002 1.4643505592132344e-16 -0.20753073909906505j 1.8745855562274372e-16
1.0399748267716684 0.0215345038355021 -0.0215345038355021 -0.039974826771668054
1.0 1.2301628899563655e-16 -0.16266607776089745j 1.682681771697503e-16
1.163036554683562 0.013230126427057167 -0.013230126427057166 -0.16303655468356174
1.0 4.9229554894419936e-17 -0.07939819750510196j 2.5326962749261384e-16
1.2369256942400981 0.0031520368835295898 -0.0031520368835295898 -0.2369256942400979
1.0000000000000002 1.4531697243094777e-17 -0.015958948313419707j 2.314771638256552e-16
1.2553892835853264 0.00012734401563520086 -0.00012734401563520086 -0.2553892835853258
S2 = -0.000000
X(g)
[[ 2.0000000000e+00  3.4694469520e-18  4.5087344744e-04 -7.8233476098e-05 -5.0330597059e-05 -1.0612211929e-02 -5.0257395995e-03 -1.3835327170e-02]
 [-3.4694469520e-18  2.0000000000e+00 -1.7772117251e-02  3.0837356204e-03  1.9838854502e-03 -2.6922873115e-04 -1.2750155241e-04 -3.5099822770e-04]
 [ 4.5087344744e-04  1.7772117251e-02  0.0000000000e+00  0.0000000000e+00  0.0000000000e+00  0.0000000000e+00  0.0000000000e+00  0.0000000000e+00]
 [-7.8233476098e-05 -3.0837356204e-03  0.0000000000e+00  0.0000000000e+00  0.0000000000e+00  0.0000000000e+00  0.0000000000e+00  0.0000000000e+00]
 [-5.0330597059e-05 -1.9838854502e-03  0.0000000000e+00  0.0000000000e+00  0.0000000000e+00  0.0000000000e+00  0.0000000000e+00  0.0000000000e+00]
 [ 1.0612211929e-02 -2.6922873115e-04  0.0000000000e+00  0.0000000000e+00  0.0000000000e+00  0.0000000000e+00  0.0000000000e+00  0.0000000000e+00]
 [ 5.0257395995e-03 -1.2750155241e-04  0.0000000000e+00  0.0000000000e+00  0.0000000000e+00  0.0000000000e+00  0.0000000000e+00  0.0000000000e+00]
 [ 1.3835327170e-02 -3.5099822770e-04  0.0000000000e+00  0.0000000000e+00  0.0000000000e+00  0.0000000000e+00  0.0000000000e+00  0.0000000000e+00]]
X(g) int
[[ 2.0000000000e+00 -9.3327584643e-18  2.7901937450e-01 -4.8414151885e-02 -3.1146681600e-02 -1.6091913167e-01 -7.6208207845e-02 -2.0979309964e-01]
 [ 1.1078576550e-17  2.0000000000e+00 -2.6948893361e-01  4.6760473845e-02  3.0082807064e-02 -1.6661001571e-01 -7.8903301145e-02 -2.1721240516e-01]
 [ 2.7901937450e-01  2.6948893361e-01  0.0000000000e+00  0.0000000000e+00  0.0000000000e+00  0.0000000000e+00  0.0000000000e+00  0.0000000000e+00]
 [-4.8414151885e-02 -4.6760473845e-02  0.0000000000e+00  0.0000000000e+00  0.0000000000e+00  0.0000000000e+00  0.0000000000e+00  0.0000000000e+00]
 [-3.1146681600e-02 -3.0082807064e-02  0.0000000000e+00  0.0000000000e+00  0.0000000000e+00  0.0000000000e+00  0.0000000000e+00  0.0000000000e+00]
 [ 1.6091913167e-01 -1.6661001571e-01  0.0000000000e+00  0.0000000000e+00  0.0000000000e+00  0.0000000000e+00  0.0000000000e+00  0.0000000000e+00]
 [ 7.6208207845e-02 -7.8903301145e-02  0.0000000000e+00  0.0000000000e+00  0.0000000000e+00  0.0000000000e+00  0.0000000000e+00  0.0000000000e+00]
 [ 2.0979309964e-01 -2.1721240516e-01  0.0000000000e+00  0.0000000000e+00  0.0000000000e+00  0.0000000000e+00  0.0000000000e+00  0.0000000000e+00]]
Hsp + Hph =  -1.892520792177471
Feff (mod,ortho)
[[-0.5120726805 -0.3133503634 -0.0367792456  0.0236154636  0.            0.            0.            0.          ]
 [-0.3133503634  0.8260063284 -0.0647968746  0.6708725686  0.            0.            0.            0.          ]
 [-0.0367792456 -0.0647968746  0.8895597349 -0.0231535573  0.            0.            0.            0.          ]
 [ 0.0236154636  0.6708725686 -0.0231535573  0.9069311491  0.            0.            0.            0.          ]
 [ 0.            0.            0.            0.           -0.5120726805  0.3133503634 -0.0367792456 -0.0236154636]
 [ 0.            0.            0.            0.            0.3133503634  0.8260063284  0.0647968746  0.6708725686]
 [ 0.            0.            0.            0.           -0.0367792456  0.0647968746  0.8895597349  0.0231535573]
 [ 0.            0.            0.            0.           -0.0236154636  0.6708725686  0.0231535573  0.9069311491]]
Alpha occ 1 vir 3; Beta occ 1 vir 3
Alpha energies:  [-0.6066148809] <- HOMO
         LUMO->  [0.2675624756 0.8866462115 1.5628307255]
Beta energies:   [-0.6066148809] <- HOMO
         LUMO->  [0.2675624756 0.8866462115 1.5628307255]
v_a, v_b
 [[ 0.9518369038  0.2896930755  0.0321335282  0.0951412998]
 [ 0.2730902977 -0.6658684421 -0.0329415528 -0.6935097412]
 [ 0.0331301363 -0.0266636506 -0.9953933131  0.0859278538]
 [-0.1353905165  0.6870125105 -0.0841097065 -0.7089490643]] 
 [[ 0.9518369038 -0.2896930755  0.0321335282 -0.0951412998]
 [-0.2730902977 -0.6658684421  0.0329415528 -0.6935097412]
 [ 0.0331301363  0.0266636506 -0.9953933131 -0.0859278538]
 [ 0.1353905165  0.6870125105  0.0841097065 -0.7089490643]]
P_a, P_b
 [[ 0.9059934914  0.2599374234  0.0315344863 -0.12886969  ]
 [ 0.2599374234  0.0745783107  0.0090475188 -0.0369738364]
 [ 0.0315344863  0.0090475188  0.0010976059 -0.0044855063]
 [-0.12886969   -0.0369738364 -0.0044855063  0.0183305919]] 
 [[ 0.9059934914 -0.2599374234  0.0315344863  0.12886969  ]
 [-0.2599374234  0.0745783107 -0.0090475188 -0.0369738364]
 [ 0.0315344863 -0.0090475188  0.0010976059  0.0044855063]
 [ 0.12886969   -0.0369738364  0.0044855063  0.0183305919]]
dm_reg
 [[[ 0.0203651659 -0.0114210385  0.0605561258  0.0932060882]
  [-0.0114210385  0.0064050606 -0.0339606292 -0.0522711345]
  [ 0.0605561258 -0.0339606292  0.1800645475  0.2771496997]
  [ 0.0932060882 -0.0522711345  0.2771496997  0.4265801188]]

 [[ 0.1800645475  0.2771496997  0.0605561258 -0.0339606292]
  [ 0.2771496997  0.4265801188  0.0932060882 -0.0522711345]
  [ 0.0605561258  0.0932060882  0.0203651659 -0.0114210385]
  [-0.0339606292 -0.0522711345 -0.0114210385  0.0064050606]]]
mo_reg
 [[-0.1427065726 -0.1511033993  0.6769525066 -1.1875558854]
 [ 0.0800316224 -1.7676181016 -0.486804649   1.3439488131]
 [-0.4243401319  0.0355953694  0.8516406203  1.0025605999]
 [-0.6531310119  1.545436162  -0.8276640782 -1.2938605475]] 
 [[-0.4243401319 -0.0355953694  0.8516406203 -1.0025605999]
 [-0.6531310119 -1.545436162  -0.8276640782  1.2938605475]
 [-0.1427065726  0.1511033993  0.6769525066  1.1875558854]
 [ 0.0800316224  1.7676181016 -0.486804649  -1.3439488131]]
time for xg, H, S2, Yg, Feff: 0.022
 E =     -1.13655335, delta E = -0.000880404, MaxD(dm) = 0.00853028, RMSD(dm) = 0.00344666
**** Start Cycle 4 ****
dm (ortho)
[[[ 0.9059934914  0.2599374234  0.0315344863 -0.12886969  ]
  [ 0.2599374234  0.0745783107  0.0090475188 -0.0369738364]
  [ 0.0315344863  0.0090475188  0.0010976059 -0.0044855063]
  [-0.12886969   -0.0369738364 -0.0044855063  0.0183305919]]

 [[ 0.9059934914 -0.2599374234  0.0315344863  0.12886969  ]
  [-0.2599374234  0.0745783107 -0.0090475188 -0.0369738364]
  [ 0.0315344863 -0.0090475188  0.0010976059  0.0044855063]
  [ 0.12886969   -0.0369738364  0.0044855063  0.0183305919]]]
Fock (ortho)
 (array([[-0.572603704 , -0.2158293933, -0.0453503856,  0.0237449748],
       [-0.2158293933,  0.8896273339, -0.0662056001,  0.6538516292],
       [-0.0453503856, -0.0662056001,  0.8906588023, -0.0228986791],
       [ 0.0237449748,  0.6538516292, -0.0228986791,  0.9084161109]]), array([[-0.572603704 ,  0.2158293933, -0.0453503856, -0.0237449748],
       [ 0.2158293933,  0.8896273339,  0.0662056001,  0.6538516292],
       [-0.0453503856,  0.0662056001,  0.8906588023,  0.0228986791],
       [-0.0237449748,  0.6538516292,  0.0228986791,  0.9084161109]]))
NO eigenvalue
[-1.0000000000e+00 -5.6247282947e-17 -1.1072997480e-19  3.9222155737e-18] 
 [-1.0000000000e+00 -9.0876954390e-19  9.4439488751e-21  5.6731279256e-17]
NO vec
[[ 0.9518369038  0.            0.3047176076 -0.0073127362 -0.0331694447  0.            0.            0.          ]
 [ 0.2730902977  0.           -0.8913182093  0.0377167733 -0.3599319159  0.            0.            0.          ]
 [ 0.0331301363  0.           -0.1065788088 -0.9760402285  0.1867855024  0.            0.            0.          ]
 [-0.1353905165  0.            0.3183394209 -0.2141715229 -0.9134878105  0.            0.            0.          ]
 [ 0.            0.9518369038  0.            0.            0.            0.0279616777  0.0350376429  0.3033101   ]
 [ 0.           -0.2730902977  0.            0.            0.           -0.321900449  -0.1118829179  0.8996021359]
 [ 0.            0.0331301363  0.            0.            0.            0.2608502393 -0.9646681716 -0.0165790646]
 [ 0.            0.1353905165  0.            0.            0.           -0.909700719  -0.2359446862 -0.3137580516]]
dm(NO)
[[ 1.0000000000e+00  0.0000000000e+00 -4.0378132003e-17  9.5405139162e-18  2.5405076299e-17  0.0000000000e+00  0.0000000000e+00  0.0000000000e+00]
 [ 0.0000000000e+00  1.0000000000e+00  0.0000000000e+00  0.0000000000e+00  0.0000000000e+00  3.2862436562e-17  1.6425505910e-17  5.4728556583e-17]
 [-4.6177893702e-17  0.0000000000e+00  1.0198779783e-17  6.2082799085e-19  8.1109814957e-18  0.0000000000e+00  0.0000000000e+00  0.0000000000e+00]
 [ 6.5674041772e-18  0.0000000000e+00  1.4354980123e-18 -6.8564435984e-20 -1.4829755232e-19  0.0000000000e+00  0.0000000000e+00  0.0000000000e+00]
 [ 1.1695465677e-17  0.0000000000e+00  4.0654695748e-18  1.3406458444e-19 -2.2732467585e-18  0.0000000000e+00  0.0000000000e+00  0.0000000000e+00]
 [ 0.0000000000e+00  2.1880386454e-17  0.0000000000e+00  0.0000000000e+00  0.0000000000e+00  2.9202134679e-19  3.8058287707e-19  1.5499433109e-20]
 [ 0.0000000000e+00  2.2485630609e-17  0.0000000000e+00  0.0000000000e+00  0.0000000000e+00  1.7273636030e-18  7.6649223415e-19  1.3537364852e-18]
 [ 0.0000000000e+00  1.1105766779e-16  0.0000000000e+00  0.0000000000e+00  0.0000000000e+00 -1.6424217226e-18 -1.8134258261e-18 -1.2297839952e-17]]
D(g) (NO)
 [[ 9.9951368521e-01  2.5388820738e-02 -5.0183722503e-17  1.6073667473e-17  7.5318480630e-18  2.1988509741e-03  8.6722622445e-05  1.7971043094e-02]
 [-2.5388820738e-02  9.9951368521e-01 -1.7868638278e-02  2.4508062101e-03  1.5830891702e-03  1.1653929615e-18  1.1393573856e-17  8.3485665946e-17]
 [-9.8152500223e-17  1.7868638278e-02  9.9951368521e-01  5.7667045669e-18  7.1638366454e-18 -6.8473857838e-04  4.3064821672e-03 -2.5181147418e-02]
 [ 1.0522301216e-17 -2.4508062101e-03 -1.5147060796e-17  9.9951368521e-01 -7.4115114196e-17 -2.2487422507e-03  3.0796904287e-02  3.5889369348e-03]
 [-9.6816008742e-18 -1.5830891702e-03 -3.2515671366e-18 -8.7297888826e-17  9.9951368521e-01  3.1016647474e-02  2.3217346193e-03 -1.5697233113e-03]
 [-2.1988509741e-03  1.8634389279e-17  6.8473857838e-04  2.2487422507e-03 -3.1016647474e-02  9.9951368521e-01 -2.3353909272e-16  1.7546324113e-17]
 [-8.6722622445e-05  3.4694469520e-18 -4.3064821672e-03 -3.0796904287e-02 -2.3217346193e-03 -2.7755575616e-16  9.9951368521e-01 -2.0816681712e-17]
 [-1.7971043094e-02  1.1102230246e-16  2.5181147418e-02 -3.5889369348e-03  1.5697233113e-03  2.8622937354e-17 -3.4694469520e-17  9.9951368521e-01]]
N(g) (NO)
 [[ 0.9998414341 -0.0253971459]
 [ 0.0253971459  0.9998414341]]
P(g) (NO)
 [[ 1.0000000000e+00 -5.9089596099e-19 -4.0378132003e-17  9.5405139162e-18  2.5405076299e-17 -1.3387234203e-35  0.0000000000e+00  0.0000000000e+00]
 [ 3.1163774818e-19  1.0000000000e+00 -6.3935322524e-35  4.3616164874e-35  6.6131621468e-35  3.2862436562e-17  1.6425505910e-17  5.4728556583e-17]
 [ 4.5381241416e-04  1.7865804921e-02 -1.8324097563e-20  4.3296036526e-21  1.1529139007e-20  5.8711388085e-19  2.9345488432e-19  9.7776971551e-19]
 [-6.2243482999e-05 -2.4504175958e-03  2.5132755728e-21 -5.9383481574e-22 -1.5813004347e-21 -8.0526692794e-20 -4.0249348702e-20 -1.3410781804e-19]
 [-4.0205946697e-05 -1.5828381462e-03  1.6234410230e-21 -3.8358539398e-22 -1.0214351435e-21 -5.2015918168e-20 -2.5998917325e-20 -8.6626447046e-20]
 [-2.1985023113e-03  5.5844539097e-05  8.8771416533e-20 -2.0974841896e-20 -5.5853118961e-20  1.8351876235e-21  9.1727480699e-22  3.0562910179e-21]
 [-8.6708871194e-05  2.2025070989e-06  3.5011422469e-21 -8.2724719228e-22 -2.2028454884e-21  7.2379749816e-23  3.6177293370e-23  1.2054003439e-22]
 [-1.7968193499e-02  4.5641320422e-04  7.2552208896e-19 -1.7142580013e-19 -4.5648332679e-19  1.4998849970e-20  7.4968177833e-21  2.4978835872e-20]]
time for NO, Ng: 0.013
Pg_ortho
 [[ 9.0612681847e-01  2.5997567611e-01  3.1539126990e-02 -1.2888865461e-01  5.2488536387e-03 -1.5059418237e-03  1.8269436252e-04  7.4660375341e-04]
 [ 2.5956395356e-01  7.4471158943e-02  9.0345195910e-03 -3.6920713611e-02 -1.4702858203e-02  4.2183780726e-03 -5.1175542157e-04 -2.0913536318e-03]
 [ 3.1539126990e-02  9.0488502226e-03  1.0977674548e-03 -4.4861663538e-03  1.8269436252e-04 -5.2416603779e-05  6.3589561443e-06  2.5986683221e-05]
 [-1.2868453411e-01 -3.6920713611e-02 -4.4790616282e-03  1.8304255135e-02  7.2892650615e-03 -2.0913536318e-03  2.5371399649e-04  1.0368345222e-03]
 [-5.2488536387e-03 -1.5059418237e-03 -1.8269436252e-04  7.4660375341e-04  9.0612681847e-01 -2.5997567611e-01  3.1539126990e-02  1.2888865461e-01]
 [-1.4702858203e-02 -4.2183780726e-03 -5.1175542157e-04  2.0913536318e-03 -2.5956395356e-01  7.4471158943e-02 -9.0345195910e-03 -3.6920713611e-02]
 [-1.8269436252e-04 -5.2416603779e-05 -6.3589561443e-06  2.5986683221e-05  3.1539126990e-02 -9.0488502226e-03  1.0977674548e-03  4.4861663538e-03]
 [ 7.2892650615e-03  2.0913536318e-03  2.5371399649e-04 -1.0368345222e-03  1.2868453411e-01 -3.6920713611e-02  4.4790616282e-03  1.8304255135e-02]]
G(g) (NO)
 [[ 6.0386816766e-01 -1.6872562873e-03  7.2599006042e-02 -1.6521528999e-01  9.6991124847e-03 -1.0467989514e-03  9.6186878932e-05  1.7101292250e-03]
 [ 1.6872562873e-03  6.0386816766e-01 -1.7290535410e-03 -3.9499373822e-04 -9.4017856050e-04  6.2355484137e-02 -1.4565295988e-01  8.6935547286e-02]
 [ 7.2400542724e-02 -1.1325865482e-02  1.0892530322e+00 -5.4428747538e-02  2.8756495895e-01 -1.9351306479e-03  1.7884497976e-03  1.1798175990e-03]
 [-1.6518471130e-01  2.1150737487e-03 -5.4471182121e-02  1.0043801831e+00 -7.3040243606e-02  1.2027961480e-03 -5.0627483975e-04 -5.6465057407e-04]
 [ 9.6687349190e-03 -2.5215553676e-03  2.8756047504e-01 -7.3019024890e-02  1.0102073368e+00 -1.5171895619e-03  1.4405834973e-03  2.5649267817e-04]
 [-1.5297532908e-03  6.2372712619e-02  1.1565640554e-04  1.3678418984e-03  2.9988922402e-04  9.5945703895e-01  2.8986870863e-02 -2.4042123552e-01]
 [-1.9886530667e-03 -1.4562995163e-01  6.1866531990e-04  1.4680823538e-03  1.0179291370e-03  2.9006592386e-02  1.0323015422e+00 -1.6960971734e-01]
 [ 1.1524414137e-02  8.6734501668e-02 -1.4249672187e-03 -2.4622644400e-03 -1.0762332184e-03 -2.4044568473e-01 -1.6957387978e-01  1.1120819709e+00]]
time for Gg: 0.021
C(NO)
[[ 1.0000000000e+00  0.0000000000e+00 -1.5988837455e-17  2.2977947186e-17 -6.1592535411e-17  0.0000000000e+00  0.0000000000e+00  0.0000000000e+00]
 [ 0.0000000000e+00  1.0000000000e+00  0.0000000000e+00  0.0000000000e+00  0.0000000000e+00 -2.5392935613e-17 -9.8879238131e-17 -1.2490009027e-16]
 [-4.0378132003e-17  0.0000000000e+00  9.0332019324e-01  1.1846545599e-01  4.1228456704e-01  0.0000000000e+00  0.0000000000e+00  0.0000000000e+00]
 [ 6.0710669642e-18  0.0000000000e+00 -1.4834657804e-01  9.8808038761e-01  4.1114965791e-02  0.0000000000e+00  0.0000000000e+00  0.0000000000e+00]
 [-2.3504993170e-18  0.0000000000e+00 -4.0249959163e-01 -9.8300983544e-02  9.1012691168e-01  0.0000000000e+00  0.0000000000e+00  0.0000000000e+00]
 [ 0.0000000000e+00  1.8984648755e-17  0.0000000000e+00  0.0000000000e+00  0.0000000000e+00 -4.1177750903e-01 -3.4586863765e-01  8.4309795904e-01]
 [ 0.0000000000e+00  1.6425505910e-17  0.0000000000e+00  0.0000000000e+00  0.0000000000e+00 -1.2346938459e-01  9.3781929513e-01  3.2442299665e-01]
 [ 0.0000000000e+00  1.0330081391e-16  0.0000000000e+00  0.0000000000e+00  0.0000000000e+00 -9.0288127355e-01  2.9493307280e-02 -4.2887708111e-01]]
detC 0.9999999999999999
detNg [1.0003279083 1.00859783   1.0467754495 1.1372115419 1.2762447372 1.4132719086 1.489386963  1.5077942854]
xg [0.9996721991 0.9914754626 0.9553147244 0.8793438715 0.7835487747 0.7075779218 0.6714171836 0.663220447 ]
ciS 1.6628926461780815
ciH -3.148241791831671
1.0 -1.2108335981000223e-18 -0.010510425189655165j -6.711211447685272e-17
0.8316637267579192 5.523451883366889e-05 -5.52345188336689e-05 0.16833627324208086
1.0 -1.0415117119438877e-17 -0.05337966752280441j -7.860465750519907e-17
0.8371702627418519 0.0014246944524225701 -0.0014246944524225701 0.16282973725814842
1.0 -2.9375102610779136e-17 -0.1196577489490625j -1.0614339268633088e-16
0.8631786101113661 0.007158988441778436 -0.0071589884417784366 0.13682138988863385
1.0 -1.2813914426063056e-17 -0.18377903896243225j -1.4647571350279165e-16
0.9286429875110831 0.016887367580977596 -0.016887367580977596 0.07135701248891677
0.9999999999999998 3.0222135558033436e-18 -0.2062474945444039j -1.9049432170570313e-16
1.03985997961094 0.02126901450292196 -0.021269014502921957 -0.0398599796109405
1.0000000000000002 6.341227456324594e-17 -0.16155225585593808j -1.6263032587282567e-16
1.1620101662361368 0.01304956568607124 -0.01304956568607124 -0.16201016623613682
1.0 3.110982608675594e-17 -0.07882525476033148j -8.977193988179977e-17
1.2352386036401761 0.00310671039401558 -0.0031067103940155797 -0.2352386036401761
0.9999999999999999 4.015783202932638e-18 -0.015842364194680967j -8.53267109746092e-17
1.2535245243202604 0.00012549025163845478 -0.00012549025163845475 -0.2535245243202609
S2 = 0.000000
X(g)
[[ 2.0000000000e+00 -3.4694469520e-18  4.5381241416e-04 -6.2243482999e-05 -4.0205946697e-05  2.1985023113e-03  8.6708871194e-05  1.7968193499e-02]
 [ 0.0000000000e+00  2.0000000000e+00 -1.7865804921e-02  2.4504175958e-03  1.5828381462e-03  5.5844539097e-05  2.2025070989e-06  4.5641320422e-04]
 [ 4.5381241416e-04  1.7865804921e-02  0.0000000000e+00  0.0000000000e+00  0.0000000000e+00  0.0000000000e+00  0.0000000000e+00  0.0000000000e+00]
 [-6.2243482999e-05 -2.4504175958e-03  0.0000000000e+00  0.0000000000e+00  0.0000000000e+00  0.0000000000e+00  0.0000000000e+00  0.0000000000e+00]
 [-4.0205946697e-05 -1.5828381462e-03  0.0000000000e+00  0.0000000000e+00  0.0000000000e+00  0.0000000000e+00  0.0000000000e+00  0.0000000000e+00]
 [-2.1985023113e-03  5.5844539097e-05  0.0000000000e+00  0.0000000000e+00  0.0000000000e+00  0.0000000000e+00  0.0000000000e+00  0.0000000000e+00]
 [-8.6708871194e-05  2.2025070989e-06  0.0000000000e+00  0.0000000000e+00  0.0000000000e+00  0.0000000000e+00  0.0000000000e+00  0.0000000000e+00]
 [-1.7968193499e-02  4.5641320422e-04  0.0000000000e+00  0.0000000000e+00  0.0000000000e+00  0.0000000000e+00  0.0000000000e+00  0.0000000000e+00]]
X(g) int
[[ 2.0000000000e+00 -4.6063572499e-17  2.8056139779e-01 -3.8480918654e-02 -2.4856606503e-02  3.3304317357e-02  1.3135213682e-03  2.7219367273e-01]
 [-7.3357881637e-18  2.0000000000e+00 -2.7064262515e-01  3.7120491004e-02  2.3977843314e-02  3.4524886185e-02  1.3616605695e-03  2.8216928966e-01]
 [ 2.8056139779e-01  2.7064262515e-01  0.0000000000e+00  0.0000000000e+00  0.0000000000e+00  0.0000000000e+00  0.0000000000e+00  0.0000000000e+00]
 [-3.8480918654e-02 -3.7120491004e-02  0.0000000000e+00  0.0000000000e+00  0.0000000000e+00  0.0000000000e+00  0.0000000000e+00  0.0000000000e+00]
 [-2.4856606503e-02 -2.3977843314e-02  0.0000000000e+00  0.0000000000e+00  0.0000000000e+00  0.0000000000e+00  0.0000000000e+00  0.0000000000e+00]
 [-3.3304317357e-02  3.4524886185e-02  0.0000000000e+00  0.0000000000e+00  0.0000000000e+00  0.0000000000e+00  0.0000000000e+00  0.0000000000e+00]
 [-1.3135213682e-03  1.3616605695e-03  0.0000000000e+00  0.0000000000e+00  0.0000000000e+00  0.0000000000e+00  0.0000000000e+00  0.0000000000e+00]
 [-2.7219367273e-01  2.8216928966e-01  0.0000000000e+00  0.0000000000e+00  0.0000000000e+00  0.0000000000e+00  0.0000000000e+00  0.0000000000e+00]]
Hsp + Hph =  -1.8932321332152438
Feff (mod,ortho)
[[-0.5087058923 -0.3236261962 -0.036219722   0.0098518962  0.            0.            0.            0.          ]
 [-0.3236261962  0.8225117996 -0.0679760679  0.6678064279  0.            0.            0.            0.          ]
 [-0.036219722  -0.0679760679  0.8912170038 -0.0243646531  0.            0.            0.            0.          ]
 [ 0.0098518962  0.6678064279 -0.0243646531  0.911075632   0.            0.            0.            0.          ]
 [ 0.            0.            0.            0.           -0.5087058923  0.3236261962 -0.036219722  -0.0098518962]
 [ 0.            0.            0.            0.            0.3236261962  0.8225117996  0.0679760679  0.6678064279]
 [ 0.            0.            0.            0.           -0.036219722   0.0679760679  0.8912170038  0.0243646531]
 [ 0.            0.            0.            0.           -0.0098518962  0.6678064279  0.0243646531  0.911075632 ]]
Alpha occ 1 vir 3; Beta occ 1 vir 3
Alpha energies:  [-0.6054805768] <- HOMO
         LUMO->  [0.2694690636 0.8879448154 1.5641652408]
Beta energies:   [-0.6054805768] <- HOMO
         LUMO->  [0.2694690636 0.8879448154 1.5641652408]
v_a, v_b
 [[ 0.9517757631  0.2870805305  0.0329905019  0.1030499516]
 [ 0.2769738575 -0.6660991679 -0.0337184911 -0.6917083519]
 [ 0.0335348464 -0.0291487953 -0.9949502957  0.0899981713]
 [-0.1276079663  0.6877841342 -0.08859232   -0.7090984364]] 
 [[ 0.9517757631 -0.2870805305  0.0329905019 -0.1030499516]
 [-0.2769738575 -0.6660991679  0.0337184911 -0.6917083519]
 [ 0.0335348464  0.0291487953 -0.9949502957 -0.0899981713]
 [ 0.1276079663  0.6877841342  0.08859232   -0.7090984364]]
P_a, P_b
 [[ 0.9058771033  0.2636170046  0.031917654  -0.1214541695]
 [ 0.2636170046  0.0767145178  0.0092882758 -0.0353440707]
 [ 0.031917654   0.0092882758  0.0011245859 -0.0042793135]
 [-0.1214541695 -0.0353440707 -0.0042793135  0.0162837931]] 
 [[ 0.9058771033 -0.2636170046  0.031917654   0.1214541695]
 [-0.2636170046  0.0767145178 -0.0092882758 -0.0353440707]
 [ 0.031917654  -0.0092882758  0.0011245859  0.0042793135]
 [ 0.1214541695 -0.0353440707  0.0042793135  0.0162837931]]
dm_reg
 [[[ 0.0180100389 -0.0086937221  0.058168383   0.0855286128]
  [-0.0086937221  0.0041965931 -0.028078771  -0.0412859737]
  [ 0.058168383  -0.028078771   0.1878708202  0.2762382207]
  [ 0.0855286128 -0.0412859737  0.2762382207  0.4061703381]]

 [[ 0.1878708202  0.2762382207  0.058168383  -0.028078771 ]
  [ 0.2762382207  0.4061703381  0.0855286128 -0.0412859737]
  [ 0.058168383   0.0855286128  0.0180100389 -0.0086937221]
  [-0.028078771  -0.0412859737 -0.0086937221  0.0041965931]]]
mo_reg
 [[-0.1342014863 -0.1481244967  0.6725659037 -1.1914089475]
 [ 0.0647811165 -1.7701016864 -0.4774342937  1.3448627864]
 [-0.4334406767  0.0378914414  0.854874944   0.9958078775]
 [-0.6373149442  1.5463811081 -0.8370134128 -1.294604059 ]] 
 [[-0.4334406767 -0.0378914414  0.854874944  -0.9958078775]
 [-0.6373149442 -1.5463811081 -0.8370134128  1.294604059 ]
 [-0.1342014863  0.1481244967  0.6725659037  1.1914089475]
 [ 0.0647811165  1.7701016864 -0.4774342937 -1.3448627864]]
time for xg, H, S2, Yg, Feff: 0.022
 E =     -1.13726469, delta E = -0.000711341, MaxD(dm) = 0.00741552, RMSD(dm) = 0.00307848
**** Start Cycle 5 ****
dm (ortho)
[[[ 0.9058771033  0.2636170046  0.031917654  -0.1214541695]
  [ 0.2636170046  0.0767145178  0.0092882758 -0.0353440707]
  [ 0.031917654   0.0092882758  0.0011245859 -0.0042793135]
  [-0.1214541695 -0.0353440707 -0.0042793135  0.0162837931]]

 [[ 0.9058771033 -0.2636170046  0.031917654   0.1214541695]
  [-0.2636170046  0.0767145178 -0.0092882758 -0.0353440707]
  [ 0.031917654  -0.0092882758  0.0011245859  0.0042793135]
  [ 0.1214541695 -0.0353440707  0.0042793135  0.0162837931]]]
Fock (ortho)
 (array([[-0.5709394573, -0.2201186705, -0.0447448984,  0.0198906234],
       [-0.2201186705,  0.8902453788, -0.068926276 ,  0.6536841156],
       [-0.0447448984, -0.068926276 ,  0.8920948678, -0.0238146355],
       [ 0.0198906234,  0.6536841156, -0.0238146355,  0.909596947 ]]), array([[-0.5709394573,  0.2201186705, -0.0447448984, -0.0198906234],
       [ 0.2201186705,  0.8902453788,  0.068926276 ,  0.6536841156],
       [-0.0447448984,  0.068926276 ,  0.8920948678,  0.0238146355],
       [-0.0198906234,  0.6536841156,  0.0238146355,  0.909596947 ]]))
NO eigenvalue
[-1.0000000000e+00 -4.9943255751e-18 -2.7038501802e-19  2.3122587905e-17] 
 [-1.0000000000e+00 -6.9428358340e-17 -3.0278673578e-18  3.6916538859e-20]
NO vec
[[ 0.9517757631  0.            0.1759122225  0.0016845637  0.251346273   0.            0.            0.          ]
 [ 0.2769738575  0.           -0.1510630902 -0.1115753897 -0.9423461983  0.            0.            0.          ]
 [ 0.0335348464  0.           -0.0479949817  0.9932579156 -0.1000530306  0.            0.            0.          ]
 [-0.1276079663  0.            0.9715612767  0.0314134967 -0.1969722942  0.            0.            0.          ]
 [ 0.            0.9517757631  0.            0.            0.            0.3067071353 -0.0022239788  0.0069773808]
 [ 0.           -0.2769738575  0.            0.            0.            0.8617537676  0.4235007475  0.0362359377]
 [ 0.            0.0335348464  0.            0.            0.           -0.0802952321  0.2674291964 -0.9596404091]
 [ 0.            0.1276079663  0.            0.            0.           -0.3960604158  0.8655193792  0.2787984187]]
dm(NO)
[[ 1.0000000000e+00  0.0000000000e+00 -2.3891615519e-17 -1.7325497058e-18 -3.5638558684e-17  0.0000000000e+00  0.0000000000e+00  0.0000000000e+00]
 [ 0.0000000000e+00  1.0000000000e+00  0.0000000000e+00  0.0000000000e+00  0.0000000000e+00  1.3805251459e-17  6.3817227506e-17 -1.3360084933e-18]
 [ 3.3417237304e-18  0.0000000000e+00  2.3935060341e-18  3.4703510512e-19  9.2765185670e-18  0.0000000000e+00  0.0000000000e+00  0.0000000000e+00]
 [ 4.9852103035e-18  0.0000000000e+00  3.3863926971e-19 -5.3543173124e-21 -4.8266919196e-20  0.0000000000e+00  0.0000000000e+00  0.0000000000e+00]
 [ 4.6397213820e-17  0.0000000000e+00  7.6801606557e-18  1.1037459083e-18  1.4424710622e-17  0.0000000000e+00  0.0000000000e+00  0.0000000000e+00]
 [ 0.0000000000e+00 -5.7268253869e-17  0.0000000000e+00  0.0000000000e+00  0.0000000000e+00 -7.4505555992e-18 -2.8643719099e-18 -3.6839966792e-19]
 [ 0.0000000000e+00  3.8499468757e-17  0.0000000000e+00  0.0000000000e+00  0.0000000000e+00 -2.5228183691e-18 -1.6330634710e-18  1.9752551688e-19]
 [ 0.0000000000e+00  1.3380302673e-18  0.0000000000e+00  0.0000000000e+00  0.0000000000e+00 -7.2624698774e-20  1.9926016533e-19  2.2134359668e-19]]
D(g) (NO)
 [[ 9.9951368521e-01  2.5383244668e-02  2.4446087897e-17  2.2678705234e-18  1.1767294799e-16  1.8037853118e-02  4.2730163355e-04 -1.5928694380e-03]
 [-2.5383244668e-02  9.9951368521e-01 -1.0341570276e-02 -2.1773418998e-03 -1.4710372916e-02 -9.5718602455e-17 -1.7837290055e-17  1.6927641489e-18]
 [ 3.0633702634e-17  1.0341570276e-02  9.9951368521e-01  9.3667340752e-19 -1.4011333088e-16 -1.4255995786e-02  2.3814726274e-02  9.7504048940e-03]
 [ 5.1459813048e-18  2.1773418998e-03 -3.1111162559e-18  9.9951368521e-01  2.7982688087e-18 -5.8571239168e-03  7.6573244355e-03 -2.9575526012e-02]
 [ 1.1696557714e-16  1.4710372916e-02 -1.4427870202e-16 -9.2310910134e-19  9.9951368521e-01 -2.0235849703e-02 -1.8612755922e-02  2.7149068601e-04]
 [-1.8037853118e-02 -7.0712463732e-17  1.4255995786e-02  5.8571239168e-03  2.0235849703e-02  9.9951368521e-01  4.8676307447e-17 -1.2574081220e-17]
 [-4.2730163355e-04 -1.2143064332e-17 -2.3814726274e-02 -7.6573244355e-03  1.8612755922e-02  3.8163916471e-17  9.9951368521e-01 -5.5511151231e-17]
 [ 1.5928694380e-03  0.0000000000e+00 -9.7504048940e-03  2.9575526012e-02 -2.7149068601e-04 -2.7755575616e-17  5.5511151231e-17  9.9951368521e-01]]
N(g) (NO)
 [[ 0.9998417172 -0.0253915752]
 [ 0.0253915752  0.9998417172]]
P(g) (NO)
 [[ 1.0000000000e+00  1.9438765458e-18 -2.3891615519e-17 -1.7325497058e-18 -3.5638558684e-17  3.3355186099e-36  0.0000000000e+00 -6.0185310762e-36]
 [ 2.4228371563e-18  1.0000000000e+00  2.8674807374e-35  3.8690231765e-36 -5.1230890330e-35  1.3805251459e-17  6.3817227506e-17 -1.3360084933e-18]
 [ 2.6258875973e-04  1.0339933384e-02 -6.2736696872e-21 -4.5494807842e-22 -9.3582849236e-21  1.4274538044e-19  6.5986588115e-19 -1.3814238821e-20]
 [ 5.5286140666e-05  2.1769972642e-03 -1.3208752163e-21 -9.5785986746e-23 -1.9703183686e-21  3.0053994658e-20  1.3892992969e-19 -2.9084868349e-21]
 [ 3.7351954066e-04  1.4708044518e-02 -8.9239852545e-21 -6.4714117029e-22 -1.3311698070e-20  2.0304825304e-19  9.3862662316e-19 -1.9650072396e-20]
 [-1.8034998037e-02  4.5800950457e-04  4.3088523900e-19  3.1246530544e-20  6.4274133593e-19  6.3229363813e-21  2.9228896753e-20 -6.1190458813e-22]
 [-4.2723399907e-04  1.0849861577e-05  1.0207310443e-20  7.4020413940e-22  1.5226003948e-20  1.4978506737e-22  6.9240808468e-22 -1.4495507219e-23]
 [ 1.5926173143e-03 -4.0445464178e-05 -3.8050200541e-20 -2.7592886593e-21 -5.6758585616e-20 -5.5835980336e-22 -2.5811173890e-21  5.4035483659e-23]]
time for NO, Ng: 0.013
Pg_ortho
 [[ 9.0601051219e-01  2.6365582761e-01  3.1922354547e-02 -1.2147205612e-01  5.2532312666e-03 -1.5287295441e-03  1.8509223541e-04  7.0431942528e-04]
 [ 2.6323836846e-01  7.6604331806e-02  9.2749349099e-03 -3.5293305582e-02 -1.4909521114e-02  4.3387820293e-03 -5.2532174045e-04 -1.9989725960e-03]
 [ 3.1922354547e-02  9.2896436567e-03  1.1247515411e-03 -4.2799437655e-03  1.8509223541e-04 -5.3863223280e-05  6.5215357694e-06  2.4815975207e-05]
 [-1.2127972348e-01 -3.5293305582e-02 -4.2731671214e-03  1.6260404465e-02  6.8691452867e-03 -1.9989725960e-03  2.4202731461e-04  9.2097077303e-04]
[...]
 [ 0.0000000000e+00 -1.2029884774e-16  0.0000000000e+00  0.0000000000e+00  0.0000000000e+00 -9.4080494272e-19  1.0719658293e-19  8.3721282736e-18]]
D(g) (NO)
 [[ 9.9951368521e-01  2.5287916867e-02 -1.8935902409e-17  1.0521127307e-17  5.1787999636e-17 -3.0945852779e-03 -1.6546534293e-03 -1.7905306456e-02]
 [-2.5287916867e-02  9.9951368521e-01  1.3907041512e-03 -2.6893558389e-03  1.7992988702e-02 -3.1662866373e-17  1.7468227825e-18 -9.5110487389e-17]
 [-1.8785237543e-17 -1.3907041512e-03  9.9951368521e-01  3.1779653892e-16 -4.9268007980e-17 -1.6567915674e-02  2.6336450705e-02 -1.5344546923e-03]
 [ 1.0061095257e-17  2.6893558389e-03  3.2475729993e-16  9.9951368521e-01 -3.6255420593e-17 -2.5324790499e-02 -1.5231162408e-02  9.5826467006e-03]
 [ 3.6357091156e-17 -1.7992988702e-02 -2.8194732180e-17 -2.6543475161e-17  9.9951368521e-01 -6.8538874435e-03 -6.6376390949e-03 -2.3613796952e-02]
 [ 3.0945852779e-03 -3.6754799581e-17  1.6567915674e-02  2.5324790499e-02  6.8538874435e-03  9.9951368521e-01  7.8507397063e-18 -2.0539687017e-16]
 [ 1.6546534293e-03  6.9388939039e-18 -2.6336450705e-02  1.5231162408e-02  6.6376390949e-03  0.0000000000e+00  9.9951368521e-01  0.0000000000e+00]
 [ 1.7905306456e-02 -5.5511151231e-17  1.5344546923e-03 -9.5826467006e-03  2.3613796952e-02 -1.7520707107e-16 -2.7755575616e-17  9.9951368521e-01]]
N(g) (NO)
 [[ 0.9998465485 -0.0252963384]
 [ 0.0252963384  0.9998465485]]
P(g) (NO)
 [[ 1.0000000000e+00  3.8543053200e-18 -1.0556000546e-17  2.1697963884e-17 -2.9192795940e-17 -2.1001220106e-34  1.2037062152e-35 -3.8518598888e-34]
 [ 8.1045002931e-19  1.0000000000e+00 -2.8683730698e-35 -2.8383840198e-35  2.9109713421e-36 -3.0454538290e-17  3.6067072138e-18 -1.3639480982e-16]
 [-3.5179722797e-05 -1.3904907456e-03  3.7135717303e-22 -7.6332835470e-22  1.0269944688e-21  4.2346753652e-20 -5.0150930027e-21  1.8965572080e-19]
 [ 6.8030855325e-05  2.6889431531e-03 -7.1813374593e-22  1.4761310418e-21 -1.9860108772e-21 -8.1890522216e-20  9.6982306677e-21 -3.6675788999e-19]
 [-4.5515673068e-04 -1.7990227650e-02  4.8046346974e-21 -9.8759743039e-21  1.3287297560e-20  5.4788407682e-19 -6.4885483844e-20  2.4537736790e-18]
 [ 3.0941104090e-03 -7.8281676336e-05 -3.2661431165e-20  6.7135895908e-20 -9.0325733787e-20  2.3840323094e-21 -2.8233908675e-22  1.0677214356e-20]
 [ 1.6543995202e-03 -4.1856673051e-05 -1.7463842238e-20  3.5897101040e-20 -4.8296547598e-20  1.2747256521e-21 -1.5096476464e-22  5.7090329605e-21]
 [ 1.7902558859e-02 -4.5293869091e-04 -1.8897942108e-19  3.8844907556e-19 -5.2262574759e-19  1.3794038705e-20 -1.6336172439e-21  6.1778486608e-20]]
time for NO, Ng: 0.013
Pg_ortho
 [[ 9.0424309072e-01  2.8696776920e-01  3.5134033059e-02 -5.6013142321e-02  5.3291724172e-03 -1.6912495500e-03  2.0706303626e-04  3.3011443065e-04]
 [ 2.8651510417e-01  9.0927540537e-02  1.1132439103e-02 -1.7748116045e-02 -1.6200492836e-02  5.1413379176e-03 -6.2946419685e-04 -1.0035360184e-03]
 [ 3.5134033059e-02  1.1150027236e-02  1.3651199458e-03 -2.1763700649e-03  2.0706303626e-04 -6.5712879877e-05  8.0453581961e-06  1.2826474914e-05]
 [-5.5924786786e-02 -1.7748116045e-02 -2.1729370430e-03  3.4642487996e-03  3.1621687460e-03 -1.0035360184e-03  1.2286490480e-04  1.9587985779e-04]
 [-5.3291724172e-03 -1.6912495500e-03 -2.0706303626e-04  3.3011443065e-04  9.0424309072e-01 -2.8696776920e-01  3.5134033059e-02  5.6013142321e-02]
 [-1.6200492836e-02 -5.1413379176e-03 -6.2946419685e-04  1.0035360184e-03 -2.8651510417e-01  9.0927540537e-02 -1.1132439103e-02 -1.7748116045e-02]
 [-2.0706303626e-04 -6.5712879877e-05 -8.0453581961e-06  1.2826474914e-05  3.5134033059e-02 -1.1150027236e-02  1.3651199458e-03  2.1763700649e-03]
 [ 3.1621687460e-03  1.0035360184e-03  1.2286490480e-04 -1.9587985779e-04  5.5924786786e-02 -1.7748116045e-02  2.1729370430e-03  3.4642487996e-03]]
G(g) (NO)
 [[ 6.1045210190e-01 -1.5399389743e-03 -1.0460828484e-01  1.2633206181e-01 -5.8578585864e-02 -9.9717221372e-04  2.9874166692e-04 -1.9312517407e-03]
 [ 1.5399389743e-03  6.1045210190e-01  3.9150422607e-04  4.7286983822e-04  2.1062884063e-03 -2.1837813677e-02 -1.5906646685e-01 -6.7491501979e-02]
 [-1.0454964599e-01  4.2885637359e-03  1.0551318309e+00 -8.3801788891e-02  2.7310831908e-01  1.1947649795e-03 -2.2709805938e-03  1.1396069645e-03]
 [ 1.2632438647e-01 -9.1437728767e-04 -8.3822030269e-02  8.8483577254e-01  7.1061945903e-02 -4.9836501351e-04 -1.5102553039e-04 -6.5421974890e-04]
 [-5.8355811547e-02  1.3004135597e-02  2.7308387852e-01  7.1099955798e-02  1.2017703483e+00  1.0083866199e-03 -3.1985728590e-03  1.6860730306e-03]
 [-5.4352269279e-03 -2.1751874468e-02  9.2058683605e-04 -2.3550409290e-03 -1.1948255859e-03  1.0291597397e+00  1.0241447064e-01  3.0598332214e-01]
 [-2.3352033742e-03 -1.5904170014e-01 -1.0199834524e-04 -1.2064571067e-03 -1.3327491820e-03  1.0244291954e-01  1.0116276060e+00  7.3899034309e-02]
 [-1.2383074772e-02 -6.7279071084e-02  1.1405289342e-03 -2.5200480828e-03 -1.9895569440e-03  3.0598799788e-01  7.3858777588e-02  1.1009506060e+00]]
time for Gg: 0.021
C(NO)
[[ 1.0000000000e+00  0.0000000000e+00 -1.4744948137e-16 -7.4413428119e-17 -1.6496941278e-16  0.0000000000e+00  0.0000000000e+00  0.0000000000e+00]
 [ 0.0000000000e+00  1.0000000000e+00  0.0000000000e+00  0.0000000000e+00  0.0000000000e+00  1.3435065297e-16 -6.6786853825e-17  2.7755575616e-17]
 [-2.6897871651e-17  0.0000000000e+00  3.5229444822e-01  6.4125412225e-01 -6.8167570916e-01  0.0000000000e+00  0.0000000000e+00  0.0000000000e+00]
 [ 1.3039113019e-17  0.0000000000e+00  4.9281446772e-01 -7.4631810089e-01 -4.4737366115e-01  0.0000000000e+00  0.0000000000e+00  0.0000000000e+00]
 [-7.7746207707e-17  0.0000000000e+00 -7.9562712508e-01 -1.7833239467e-01 -5.7894303248e-01  0.0000000000e+00  0.0000000000e+00  0.0000000000e+00]
 [ 0.0000000000e+00 -3.0454538290e-17  0.0000000000e+00  0.0000000000e+00  0.0000000000e+00 -4.0681068187e-01  4.4348388414e-02  9.1243536185e-01]
 [ 0.0000000000e+00  3.6067072138e-18  0.0000000000e+00  0.0000000000e+00  0.0000000000e+00  1.2458736674e-01  9.9218161689e-01  7.3230567054e-03]
 [ 0.0000000000e+00 -1.3639480982e-16  0.0000000000e+00  0.0000000000e+00  0.0000000000e+00  9.0497682686e-01 -1.1665701675e-01  4.0915532904e-01]]
detC 1.0000000000000002
detNg [1.0003330252 1.0087331218 1.0475398041 1.1396508624 1.2817681804 1.4224420676 1.5008445855 1.5198332781]
xg [0.9996670857 0.9913424854 0.9546176633 0.8774617148 0.7801722771 0.7030163286 0.6662915066 0.6579669062]
ciS 1.6576339919065592
ciH -3.1432523900800025
1.0000000000000002 6.336653478409421e-18 -0.010674435550823109j 1.08528637465799e-16
0.8290360411154085 5.697178716433813e-05 -5.6971787164338134e-05 0.17096395888459173
1.0 9.408841978100768e-18 -0.054219627393926904j 1.3118846287074604e-17
0.834585271709838 0.0014698839973681344 -0.0014698839973681342 0.16541472829016218
1.0 7.047991747513582e-17 -0.12161306855638865j -2.873135757086587e-17
0.8608239243386484 0.0073948692218504435 -0.007394869221850443 0.13917607566135184
1.0000000000000002 4.229743725409074e-17 -0.18704622746634628j -2.981555974335137e-17
0.9270688585880448 0.01749314560469608 -0.017493145604696073 0.07293114141195572
1.0000000000000002 -3.469446951953614e-17 -0.21037136069016377j 2.3310346708438345e-17
1.0402231980892884 0.022128054699315492 -0.022128054699315496 -0.040223198089287975
1.0000000000000002 1.1462727468602996e-16 -0.1651369656888623j -1.0516761073109393e-16
1.165309052666187 0.01363510871846224 -0.013635108718462243 -0.1653090526661867
1.0 6.002075464243972e-17 -0.08067072692252744j -2.0155318386505527e-16
1.2406716176913233 0.003253883091104497 -0.003253883091104498 -0.24067161769132336
1.0000000000000002 1.1780534230412809e-17 -0.016217961385256267j -8.055622141567298e-17
1.2595321407753683 0.00013151113574683164 -0.00013151113574683164 -0.25953214077536796
S2 = -0.000000
X(g)
[[ 2.0000000000e+00  6.9388939039e-18 -3.5179722797e-05  6.8030855325e-05 -4.5515673068e-04 -3.0941104090e-03 -1.6543995202e-03 -1.7902558859e-02]
 [ 0.0000000000e+00  2.0000000000e+00  1.3904907456e-03 -2.6889431531e-03  1.7990227650e-02 -7.8281676336e-05 -4.1856673051e-05 -4.5293869091e-04]
 [-3.5179722797e-05 -1.3904907456e-03  0.0000000000e+00  0.0000000000e+00  0.0000000000e+00  0.0000000000e+00  0.0000000000e+00  0.0000000000e+00]
 [ 6.8030855325e-05  2.6889431531e-03  0.0000000000e+00  0.0000000000e+00  0.0000000000e+00  0.0000000000e+00  0.0000000000e+00  0.0000000000e+00]
 [-4.5515673068e-04 -1.7990227650e-02  0.0000000000e+00  0.0000000000e+00  0.0000000000e+00  0.0000000000e+00  0.0000000000e+00  0.0000000000e+00]
 [ 3.0941104090e-03 -7.8281676336e-05  0.0000000000e+00  0.0000000000e+00  0.0000000000e+00  0.0000000000e+00  0.0000000000e+00  0.0000000000e+00]
 [ 1.6543995202e-03 -4.1856673051e-05  0.0000000000e+00  0.0000000000e+00  0.0000000000e+00  0.0000000000e+00  0.0000000000e+00  0.0000000000e+00]
 [ 1.7902558859e-02 -4.5293869091e-04  0.0000000000e+00  0.0000000000e+00  0.0000000000e+00  0.0000000000e+00  0.0000000000e+00  0.0000000000e+00]]
X(g) int
[[ 2.0000000000e+00 -1.1231682904e-16 -2.1818118943e-02  4.2192069046e-02 -2.8228373899e-01 -4.7020015062e-02 -2.5141278131e-02 -2.7205835473e-01]
 [ 1.2660100630e-16  2.0000000000e+00  2.1130757199e-02 -4.0862842901e-02  2.7339062389e-01 -4.8549527670e-02 -2.5959097985e-02 -2.8090813248e-01]
 [-2.1818118943e-02 -2.1130757199e-02  0.0000000000e+00  0.0000000000e+00  0.0000000000e+00  0.0000000000e+00  0.0000000000e+00  0.0000000000e+00]
 [ 4.2192069046e-02  4.0862842901e-02  0.0000000000e+00  0.0000000000e+00  0.0000000000e+00  0.0000000000e+00  0.0000000000e+00  0.0000000000e+00]
 [-2.8228373899e-01 -2.7339062389e-01  0.0000000000e+00  0.0000000000e+00  0.0000000000e+00  0.0000000000e+00  0.0000000000e+00  0.0000000000e+00]
 [ 4.7020015062e-02 -4.8549527670e-02  0.0000000000e+00  0.0000000000e+00  0.0000000000e+00  0.0000000000e+00  0.0000000000e+00  0.0000000000e+00]
 [ 2.5141278131e-02 -2.5959097985e-02  0.0000000000e+00  0.0000000000e+00  0.0000000000e+00  0.0000000000e+00  0.0000000000e+00  0.0000000000e+00]
 [ 2.7205835473e-01 -2.8090813248e-01  0.0000000000e+00  0.0000000000e+00  0.0000000000e+00  0.0000000000e+00  0.0000000000e+00  0.0000000000e+00]]
Hsp + Hph =  -1.8962282418356606
Feff (mod,ortho)
[[-0.4668340159 -0.3957182031 -0.0303783607 -0.1053548898  0.            0.            0.            0.          ]
 [-0.3957182031  0.7946954885 -0.0936439464  0.6321239727  0.            0.            0.            0.          ]
 [-0.0303783607 -0.0936439464  0.9040079478 -0.0348946067  0.            0.            0.            0.          ]
 [-0.1053548898  0.6321239727 -0.0348946067  0.9287660098  0.            0.            0.            0.          ]
 [ 0.            0.            0.            0.           -0.4668340159  0.3957182031 -0.0303783607  0.1053548898]
 [ 0.            0.            0.            0.            0.3957182031  0.7946954885  0.0936439464  0.6321239727]
 [ 0.            0.            0.            0.           -0.0303783607  0.0936439464  0.9040079478  0.0348946067]
 [ 0.            0.            0.            0.            0.1053548898  0.6321239727  0.0348946067  0.9287660098]]
F(mod,ortho) updated with CDIIS
[[[-0.4668339614 -0.3957182366 -0.0303783489 -0.1053549793]
  [-0.3957182366  0.7946954718 -0.0936439792  0.6321238904]
  [-0.0303783489 -0.0936439792  0.9040079921 -0.0348946171]
  [-0.1053549793  0.6321238904 -0.0348946171  0.9287660852]]

 [[-0.4668339614  0.3957182366 -0.0303783489  0.1053549793]
  [ 0.3957182366  0.7946954718  0.0936439792  0.6321238904]
  [-0.0303783489  0.0936439792  0.9040079921  0.0348946171]
  [ 0.1053549793  0.6321238904  0.0348946171  0.9287660852]]]
Alpha occ 1 vir 3; Beta occ 1 vir 3
Alpha energies:  [-0.587072032] <- HOMO
         LUMO->  [0.2835238559 0.8970267137 1.5671570499]
Beta energies:   [-0.587072032] <- HOMO
         LUMO->  [0.2835238559 0.8970267137 1.5671570499]
v_a, v_b
 [[ 0.9508460812  0.2574123764  0.043699209   0.1664961788]
 [ 0.3017575556 -0.6693894198 -0.0410533078 -0.6776243858]
 [ 0.036944781  -0.0493288816 -0.9902188821  0.1251731204]
 [-0.0588998362  0.6951426721 -0.1259824215 -0.7052913612]] 
 [[ 0.9508460812 -0.2574123764  0.043699209  -0.1664961788]
 [-0.3017575556 -0.6693894198  0.0410533078 -0.6776243858]
 [ 0.036944781   0.0493288816 -0.9902188821 -0.1251731204]
 [ 0.0588998362  0.6951426721  0.1259824215 -0.7052913612]]
P_a, P_b
 [[ 0.9041082701  0.2869249892  0.0351288003 -0.0560046784]
 [ 0.2869249892  0.0910576224  0.0111483668 -0.0177734706]
 [ 0.0351288003  0.0111483668  0.0013649168 -0.0021760416]
 [-0.0560046784 -0.0177734706 -0.0021760416  0.0034691907]] 
 [[ 0.9041082701 -0.2869249892  0.0351288003  0.0560046784]
 [-0.2869249892  0.0910576224 -0.0111483668 -0.0177734706]
 [ 0.0351288003 -0.0111483668  0.0013649168  0.0021760416]
 [ 0.0560046784 -0.0177734706  0.0021760416  0.0034691907]]
dm_reg
 [[[0.0044999908 0.0048651352 0.0339000589 0.0332039017]
  [0.0048651352 0.0052599087 0.0366508239 0.0358981782]
  [0.0339000589 0.0366508239 0.2553814084 0.2501370041]
  [0.0332039017 0.0358981782 0.2501370041 0.2450002967]]

 [[0.2553814084 0.2501370041 0.0339000589 0.0366508239]
  [0.2501370041 0.2450002967 0.0332039017 0.0358981782]
  [0.0339000589 0.0332039017 0.0044999908 0.0048651352]
  [0.0366508239 0.0358981782 0.0048651352 0.0052599087]]]
mo_reg
 [[-0.0670819709 -0.1221024515  0.6334704817 -1.2210885429]
 [-0.0725252281 -1.7902689157 -0.3999956168  1.3430326874]
 [-0.5053527564  0.0592828095  0.8808210649  0.9364878387]
 [-0.4949750466  1.5595264217 -0.9152350043 -1.2881296218]] 
 [[-0.5053527564 -0.0592828095  0.8808210649 -0.9364878387]
 [-0.4949750466 -1.5595264217 -0.9152350043  1.2881296218]
 [-0.0670819709  0.1221024515  0.6334704817  1.2210885429]
 [-0.0725252281  1.7902689157 -0.3999956168 -1.3430326874]]
time for xg, H, S2, Yg, Feff: 0.023

***************
SUHF converged at cycle 17
Final E(SUHF) =     -1.14026080, delta E = -1.35447e-13, MaxD(dm) = 1.11927e-07, RMSD(dm) = 4.18995e-08
time for cyc: 0.982
******* suhf density *****
time for Ngg: 0.002
time for Pgg: 0.004
time for xgg: 0.000
Clebsch-Gordan coeff: < 0 0 0 0 | 0 0 > = 1
Clebsch-Gordan coeff: < 0 0 1 0 | 0 0 > = 0
xggint 1.0000000000000002
SUHF DM alpha
 [[0.0949738097 0.0940046434 0.0840203553 0.0834465767]
 [0.0940046434 0.0930492635 0.0834465767 0.0828723121]
 [0.0840203553 0.0834465767 0.0949738097 0.0940046434]
 [0.0834465767 0.0828723121 0.0940046434 0.0930492635]] 
SUHF DM beta
 [[0.0949738097 0.0940046434 0.0840203553 0.0834465767]
 [0.0940046434 0.0930492635 0.0834465767 0.0828723121]
 [0.0840203553 0.0834465767 0.0949738097 0.0940046434]
 [0.0834465767 0.0828723121 0.0940046434 0.0930492635]]
time for 1pdm: 0.029
SUHF natural orbitals alpha
 [[-0.3007863842  0.7127460515 -1.11401406    0.2687831313]
 [-0.2981935801  0.687018002   2.1125624774  0.3875856355]
 [-0.3007863842 -0.7127460515  0.3871371739  1.0786085973]
 [-0.2981935801 -0.687018002  -1.4840351561 -1.5526694758]]
SUHF natural orbitals beta
 [[-0.3007863842  0.7127460515 -1.11401406    0.2687831313]
 [-0.2981935801  0.687018002   2.1125624774  0.3875856355]
 [-0.3007863842 -0.7127460515  0.3871371739  1.0786085973]
 [-0.2981935801 -0.687018002  -1.4840351561 -1.5526694758]]
SUHF natural orbitals, total
 [[-0.3007863842  0.7127460515 -1.11401406    0.2687831313]
 [-0.2981935801  0.687018002   2.1125624774  0.3875856355]
 [-0.3007863842 -0.7127460515  0.3871371739  1.0786085973]
 [-0.2981935801 -0.687018002  -1.4840351561 -1.5526694758]]
SUHF NO occ alpha:  0.989219  0.010781  ...
SUHF NO occ beta:   0.989219  0.010781  ...
SUHF NO occ total:  1.978438  0.021562  ...
core 0, active 2, external 2
time for natorb: 0.002
***** End of SUHF *****
time tot: 1.113
Date: Tue Jun 29 21:16:11 2021
F0 (array([[-0.5568  , -0.249821, -0.03976 , -0.012936],
       [-0.249821,  0.896359, -0.089843,  0.650648],
       [-0.03976 , -0.089843,  0.903415, -0.030939],
       [-0.012936,  0.650648, -0.030939,  0.917662]]), array([[-0.5568  ,  0.249821, -0.03976 ,  0.012936],
       [ 0.249821,  0.896359,  0.089843,  0.650648],
       [-0.03976 ,  0.089843,  0.903415,  0.030939],
       [ 0.012936,  0.650648,  0.030939,  0.917662]]))
[array([[ 0.950846,  0.257412,  0.043699,  0.166496],
       [ 0.301758, -0.669389, -0.041053, -0.677624],
       [ 0.036945, -0.049329, -0.990219,  0.125173],
       [-0.0589  ,  0.695143, -0.125982, -0.705291]]), array([[ 0.950846, -0.257412,  0.043699, -0.166496],
       [-0.301758, -0.669389,  0.041053, -0.677624],
       [ 0.036945,  0.049329, -0.990219, -0.125173],
       [ 0.0589  ,  0.695143,  0.125982, -0.705291]])]
ca,cb [[ 1.        0.        0.        0.      ]
 [ 0.        0.714329  0.042368 -0.698527]
 [ 0.        0.065579  0.989721  0.127092]
 [ 0.       -0.696731  0.136594 -0.704207]] [[ 1.        0.        0.        0.      ]
 [ 0.       -0.714329  0.042368 -0.698527]
 [ 0.        0.065579 -0.989721 -0.127092]
 [ 0.        0.696731  0.136594 -0.704207]]
ca,cb (sc) [[ 1.        0.        0.        0.      ]
 [ 0.        0.714329  0.065579 -0.696731]
 [ 0.        0.042368  0.989721  0.136594]
 [ 0.       -0.698527  0.127092 -0.704207]] [[ 1.        0.        0.        0.      ]
 [ 0.       -0.714329  0.065579  0.696731]
 [ 0.        0.042368 -0.989721  0.136594]
 [ 0.       -0.698527 -0.127092 -0.704207]]
[-0.5568    0.253492  0.895299  1.568644] [-0.5568    0.253492  0.895299  1.568644]
(array([[-0.5568  , -0.172049, -0.051702,  0.178564],
       [-0.172049,  0.253492,  0.      ,  0.      ],
       [-0.051702,  0.      ,  0.895299,  0.      ],
       [ 0.178564,  0.      , -0.      ,  1.568644]]), array([[-0.5568  , -0.172049,  0.051702, -0.178564],
       [-0.172049,  0.253492, -0.      ,  0.      ],
       [ 0.051702,  0.      ,  0.895299, -0.      ],
       [-0.178564, -0.      ,  0.      ,  1.568644]]))
NO eigenvalue
[-1. -0.  0.  0.] 
 [-1. -0.  0.  0.]
NO vec
[[ 0.950846  0.        0.000469  0.027547  0.308436  0.        0.        0.      ]
 [ 0.301758  0.       -0.019211  0.140509 -0.942778  0.        0.        0.      ]
 [ 0.036945  0.        0.885366 -0.457415 -0.074388  0.        0.        0.      ]
 [-0.0589    0.        0.464497  0.87765   0.102485  0.        0.        0.      ]
 [ 0.        0.950846  0.        0.        0.       -0.267758  0.020579  0.154188]
 [ 0.       -0.301758  0.        0.        0.       -0.906199 -0.043499  0.293008]
 [ 0.        0.036945  0.        0.        0.        0.011081 -0.996392 -0.075602]
 [ 0.        0.0589    0.        0.        0.       -0.327088  0.069912 -0.940562]]
dm(NO)
[[ 1.  0.  0. -0. -0.  0.  0.  0.]
 [ 0.  1.  0.  0.  0. -0.  0.  0.]
 [ 0.  0.  0. -0.  0.  0.  0.  0.]
 [ 0.  0.  0.  0. -0.  0.  0.  0.]
 [-0.  0. -0. -0.  0.  0.  0.  0.]
 [ 0. -0.  0.  0.  0.  0.  0. -0.]
 [ 0.  0.  0.  0.  0.  0. -0. -0.]
 [ 0.  0.  0.  0.  0. -0. -0.  0.]]
C(NO)
[[ 1.        0.        0.        0.        0.        0.        0.        0.      ]
 [ 0.        1.        0.        0.        0.        0.        0.        0.      ]
 [ 0.        0.        0.292198 -0.934416 -0.203685  0.        0.        0.      ]
 [-0.        0.        0.545692  0.337807 -0.766881  0.        0.        0.      ]
 [-0.        0.        0.785392  0.112932  0.60861   0.        0.        0.      ]
 [ 0.       -0.        0.        0.        0.        0.448698 -0.101083  0.887949]
 [ 0.        0.        0.        0.        0.        0.023268  0.994567  0.101462]
 [ 0.        0.        0.        0.        0.       -0.893381 -0.024865  0.448612]]
detC 1.0
detNg [1.000333 1.008733 1.04754  1.139651 1.281768 1.422442 1.500845 1.519833]
xg [0.999667 0.991342 0.954618 0.877462 0.780172 0.703016 0.666292 0.657967]
ciS 1.6576340212298295
xg [0.9996670856932149, 0.9913424860972696, 0.9546176672000923, 0.8774617253158024, 0.7801722959140327, 0.7030163540297426, 0.6662915351325653, 0.6579669355366201]
(3, 3)
emp2 -0.009548751507430628
