HF file generated by AutoMR of MOKIT
Stability RHF                                                         3-21G
Number of atoms                            I                2
Info1-9                                    I   N=           9
          12          11           0           0           0         110
           7           1           2
Charge                                     I                0
Multiplicity                               I                1
Number of electrons                        I                2
Number of alpha electrons                  I                1
Number of beta electrons                   I                1
Number of basis functions                  I                4
Number of independent functions            I                4
Number of point charges in /Mol/           I                0
Number of translation vectors              I                0
Atomic numbers                             I   N=           2
           1           1
Nuclear charges                            R   N=           2
  1.00000000E+00  1.00000000E+00
Current cartesian coordinates              R   N=           6
  0.00000000E+00  0.00000000E+00  0.00000000E+00  0.00000000E+00  0.00000000E+00
  3.77945227E+00
Force Field                                I                0
Int Atom Types                             I   N=           2
           0           0
MM charges                                 R   N=           2
  0.00000000E+00  0.00000000E+00
Integer atomic weights                     I   N=           2
           1           1
Real atomic weights                        R   N=           2
  1.00782504E+00  1.00782504E+00
Atom fragment info                         I   N=           2
           0           0
Atom residue num                           I   N=           2
           0           0
Nuclear spins                              I   N=           2
           1           1
Nuclear ZEff                               R   N=           2
 -1.00000000E+00 -1.00000000E+00
Nuclear QMom                               R   N=           2
  0.00000000E+00  0.00000000E+00
Nuclear GFac                               R   N=           2
  2.79284600E+00  2.79284600E+00
MicOpt                                     I   N=           2
          -1          -1
Number of contracted shells                I                4
Number of primitive shells                 I                6
Pure/Cartesian d shells                    I                0
Pure/Cartesian f shells                    I                0
Highest angular momentum                   I                0
Largest degree of contraction              I                2
Shell types                                I   N=           4
           0           0           0           0
Number of primitives per shell             I   N=           4
           2           1           2           1
Shell to atom map                          I   N=           4
           1           1           2           2
Primitive exponents                        R   N=           6
  5.44717800E+00  8.24547240E-01  1.83191580E-01  5.44717800E+00  8.24547240E-01
  1.83191580E-01
Contraction coefficients                   R   N=           6
  1.56284979E-01  9.04690877E-01  1.00000000E+00  1.56284979E-01  9.04690877E-01
  1.00000000E+00
Coordinates of each shell                  R   N=          12
  0.00000000E+00  0.00000000E+00  0.00000000E+00  0.00000000E+00  0.00000000E+00
  0.00000000E+00  0.00000000E+00  0.00000000E+00  3.77945227E+00  0.00000000E+00
  0.00000000E+00  3.77945227E+00
Constraint Structure                       R   N=           6
  0.00000000E+00  0.00000000E+00  0.00000000E+00  0.00000000E+00  0.00000000E+00
  3.77945227E+00
Num ILSW                                   I              100
ILSW                                       I   N=         100
           0           0           0           0           2           1
           0           0           0           0           0          -1
           0           0           0           0           0           0
           0           0           0           0           0           0
           1           1           0           0           0           0
           0           0      100000           0          -1           0
           0           0           0           0           0           0
           0           0           0           1           0           0
           0           0           1           0           0           0
           0           0           4          40           0           0
           0           0           0           0           0           0
           0           0           0           0           0           0
           0           0           0           0           0           0
           0           0           0           0           0           0
           0           0           0           0           0           0
           0           0           0           0           0           0
           0           0           0           0
Num RLSW                                   I               40
RLSW                                       R   N=          40
  1.00000000E+00  1.00000000E+00  1.00000000E+00  1.00000000E+00  1.00000000E+00
  0.00000000E+00  0.00000000E+00  1.00000000E+00  0.00000000E+00  0.00000000E+00
  0.00000000E+00  0.00000000E+00  1.00000000E+00  0.00000000E+00  0.00000000E+00
  0.00000000E+00  0.00000000E+00  1.00000000E+00  0.00000000E+00  0.00000000E+00
  0.00000000E+00  0.00000000E+00  1.00000000E+00  0.00000000E+00  0.00000000E+00
  0.00000000E+00  0.00000000E+00  1.00000000E+00  0.00000000E+00  0.00000000E+00
  0.00000000E+00  0.00000000E+00  1.00000000E+00  0.00000000E+00  0.00000000E+00
  0.00000000E+00  0.00000000E+00  0.00000000E+00  1.00000000E+00  1.00000000E+00
MxBond                                     I                1
NBond                                      I   N=           2
           0           0
IBond                                      I   N=           2
           0           0
RBond                                      R   N=           2
  0.00000000E+00  0.00000000E+00
Virial Ratio                               R      1.995382327087531E+00
SCF Energy                                 R     -9.970115059635020E-01
Total Energy                               R     -9.970115059635020E-01
S**2                                       R      9.104826109355175E-01
RMS Density                                R      4.102301062679705E-09
External E-field                           R   N=          35
  0.00000000E+00  0.00000000E+00  0.00000000E+00  0.00000000E+00  0.00000000E+00
  0.00000000E+00  0.00000000E+00  0.00000000E+00  0.00000000E+00  0.00000000E+00
  0.00000000E+00  0.00000000E+00  0.00000000E+00  0.00000000E+00  0.00000000E+00
  0.00000000E+00  0.00000000E+00  0.00000000E+00  0.00000000E+00  0.00000000E+00
  0.00000000E+00  0.00000000E+00  0.00000000E+00  0.00000000E+00  0.00000000E+00
  0.00000000E+00  0.00000000E+00  0.00000000E+00  0.00000000E+00  0.00000000E+00
  0.00000000E+00  0.00000000E+00  0.00000000E+00  0.00000000E+00  0.00000000E+00
IOpCl                                      I                0
IROHF                                      I                0
Alpha Orbital Energies                     R   N=           4
  0.00000000E+00  0.00000000E+00  0.00000000E+00  0.00000000E+00
Alpha MO coefficients                      R   N=          16
  2.35957139E-01  4.72458270E-01  2.35957139E-01  4.72458270E-01  3.08180772E-01
  5.42030661E-01 -3.08180772E-01 -5.42030661E-01  8.86978594E-01 -6.64430550E-01
  8.86978594E-01 -6.64430550E-01 -9.01771075E-01  9.73590372E-01  9.01771075E-01
 -9.73590372E-01
Total SCF Density                          R   N=          10
  1.35192851E-01  2.61187952E-01  5.04639537E-01  1.55822779E-02  3.22142586E-02
  1.35192851E-01  3.22142586E-02  6.63091202E-02  2.61187952E-01  5.04639537E-01
Mulliken Charges                           R   N=           2
  1.60982339E-15  1.33226763E-15
ONIOM Charges                              I   N=          16
           0           0           0           0           0           0
           0           0           0           0           0           0
           0           0           0           0
ONIOM Multiplicities                       I   N=          16
           1           0           0           0           0           0
           0           0           0           0           0           0
           0           0           0           0
Atom Layers                                I   N=           2
           1           1
Atom Modifiers                             I   N=           2
           0           0
Force Field                                I                0
Int Atom Modified Types                    I   N=           2
           0           0
Link Atoms                                 I   N=           2
           0           0
Atom Modified MM Charges                   R   N=           2
  0.00000000E+00  0.00000000E+00
Link Distances                             R   N=           8
  0.00000000E+00  0.00000000E+00  0.00000000E+00  0.00000000E+00  0.00000000E+00
  0.00000000E+00  0.00000000E+00  0.00000000E+00
Cartesian Gradient                         R   N=           6
  0.00000000E+00  0.00000000E+00  0.00000000E+00  0.00000000E+00  0.00000000E+00
  0.00000000E+00
Dipole Moment                              R   N=           3
  0.00000000E+00  0.00000000E+00  4.88498131E-15
Quadrupole Moment                          R   N=           6
 -4.93718493E-02 -4.93718493E-02  9.87436986E-02  0.00000000E+00  0.00000000E+00
  0.00000000E+00
ETran NETS                                 I               20
ETran NETV                                 I               96
ETran scalars                              I   N=          20
           6          16           1          10          -3           0
           0           0           0           0           0           0
           0           0           0           0           0           0
           0           0
ETran spin                                 I   N=           6
           0           2           2           0           0           2
ETran sym                                  I   N=           6
           0           0           0           0           0           0
ETran state values                         R   N=          96
 -6.65222916E-01  0.00000000E+00  0.00000000E+00  0.00000000E+00  0.00000000E+00
  0.00000000E+00  0.00000000E+00  0.00000000E+00  0.00000000E+00  0.00000000E+00
  0.00000000E+00  0.00000000E+00  0.00000000E+00  0.00000000E+00  0.00000000E+00
  0.00000000E+00 -6.05081680E-01  0.00000000E+00  0.00000000E+00  0.00000000E+00
  0.00000000E+00  0.00000000E+00  0.00000000E+00  0.00000000E+00  0.00000000E+00
  0.00000000E+00  0.00000000E+00  0.00000000E+00  0.00000000E+00  0.00000000E+00
  0.00000000E+00  0.00000000E+00  1.07974332E-01  0.00000000E+00  0.00000000E+00
  0.00000000E+00  0.00000000E+00  0.00000000E+00  0.00000000E+00  0.00000000E+00
  0.00000000E+00  0.00000000E+00  0.00000000E+00  0.00000000E+00  0.00000000E+00
  0.00000000E+00  0.00000000E+00  0.00000000E+00  1.26360079E-01  1.27319748-313
  2.12199580-314             NaN  0.00000000E+00  0.00000000E+00  0.00000000E+00
  0.00000000E+00  0.00000000E+00  0.00000000E+00  0.00000000E+00  0.00000000E+00
  0.00000000E+00  0.00000000E+00  0.00000000E+00  0.00000000E+00  5.21173826E-01
  0.00000000E+00  0.00000000E+00  9.88131292-324  9.88131292-324  0.00000000E+00
  0.00000000E+00  9.88131292-324  0.00000000E+00  0.00000000E+00  0.00000000E+00
  0.00000000E+00  0.00000000E+00  0.00000000E+00  0.00000000E+00  0.00000000E+00
  5.24921747E-01  0.00000000E+00  0.00000000E+00  0.00000000E+00  0.00000000E+00
 -6.65222916E-01  0.00000000E+00  0.00000000E+00  0.00000000E+00  0.00000000E+00
  0.00000000E+00  0.00000000E+00  0.00000000E+00  0.00000000E+00  0.00000000E+00
  0.00000000E+00
