title                                                                   
SP        CUHF                                                        CC-pVDZ             
Number of atoms                            I                2
Info1-9                                    I   N=           9
          14          13           0           0           0         111
           1           1           2
Charge                                     I                0
Multiplicity                               I                1
Number of electrons                        I               14
Number of alpha electrons                  I                7
Number of beta electrons                   I                7
Number of basis functions                  I               28
Number of independent functions            I               28
Number of point charges in /Mol/           I                0
Number of translation vectors              I                0
Atomic numbers                             I   N=           2
           7           7
Nuclear charges                            R   N=           2
  7.00000000E+00  7.00000000E+00
Current cartesian coordinates              R   N=           6
  0.00000000E+00  0.00000000E+00  1.22832199E+00  1.50426059E-16  0.00000000E+00
 -1.22832199E+00
Force Field                                I                0
Int Atom Types                             I   N=           2
           0           0
MM charges                                 R   N=           2
  0.00000000E+00  0.00000000E+00
Integer atomic weights                     I   N=           2
          14          14
Real atomic weights                        R   N=           2
  1.40030740E+01  1.40030740E+01
Atom fragment info                         I   N=           2
           0           0
Atom residue num                           I   N=           2
           0           0
Nuclear spins                              I   N=           2
           2           2
Nuclear ZEff                               R   N=           2
 -4.55000000E+00 -4.55000000E+00
Nuclear QMom                               R   N=           2
  2.04400000E+00  2.04400000E+00
Nuclear GFac                               R   N=           2
  4.03761000E-01  4.03761000E-01
MicOpt                                     I   N=           2
          -1          -1
Number of contracted shells                I               12
Number of primitive shells                 I               40
Pure/Cartesian d shells                    I                0
Pure/Cartesian f shells                    I                0
Highest angular momentum                   I                2
Largest degree of contraction              I                7
Shell types                                I   N=          12
           0           0           0           1           1          -2
           0           0           0           1           1          -2
Number of primitives per shell             I   N=          12
           7           7           1           3           1           1
           7           7           1           3           1           1
Shell to atom map                          I   N=          12
           1           1           1           1           1           1
           2           2           2           2           2           2
Primitive exponents                        R   N=          40
  9.04600000E+03  1.35700000E+03  3.09300000E+02  8.77300000E+01  2.85600000E+01
  1.02100000E+01  3.83800000E+00  9.04600000E+03  3.09300000E+02  8.77300000E+01
  2.85600000E+01  1.02100000E+01  3.83800000E+00  7.46600000E-01  2.24800000E-01
  1.35500000E+01  2.91700000E+00  7.97300000E-01  2.18500000E-01  8.17000000E-01
  9.04600000E+03  1.35700000E+03  3.09300000E+02  8.77300000E+01  2.85600000E+01
  1.02100000E+01  3.83800000E+00  9.04600000E+03  3.09300000E+02  8.77300000E+01
  2.85600000E+01  1.02100000E+01  3.83800000E+00  7.46600000E-01  2.24800000E-01
  1.35500000E+01  2.91700000E+00  7.97300000E-01  2.18500000E-01  8.17000000E-01
Contraction coefficients                   R   N=          40
  7.01708743E-04  5.40299880E-03  2.74729510E-02  1.03514580E-01  2.79586579E-01
  4.51317241E-01  2.80626875E-01  7.77446797E-06  3.00742072E-04 -2.80016549E-03
 -9.89708505E-03 -1.14331114E-01 -1.18162383E-01  1.09786885E+00  1.00000000E+00
  5.89056768E-02  3.20461107E-01  7.53042062E-01  1.00000000E+00  1.00000000E+00
  7.01708743E-04  5.40299880E-03  2.74729510E-02  1.03514580E-01  2.79586579E-01
  4.51317241E-01  2.80626875E-01  7.77446797E-06  3.00742072E-04 -2.80016549E-03
 -9.89708505E-03 -1.14331114E-01 -1.18162383E-01  1.09786885E+00  1.00000000E+00
  5.89056768E-02  3.20461107E-01  7.53042062E-01  1.00000000E+00  1.00000000E+00
Coordinates of each shell                  R   N=          36
  0.00000000E+00  0.00000000E+00  1.22832199E+00  0.00000000E+00  0.00000000E+00
  1.22832199E+00  0.00000000E+00  0.00000000E+00  1.22832199E+00  0.00000000E+00
  0.00000000E+00  1.22832199E+00  0.00000000E+00  0.00000000E+00  1.22832199E+00
  0.00000000E+00  0.00000000E+00  1.22832199E+00  1.50426059E-16  0.00000000E+00
 -1.22832199E+00  1.50426059E-16  0.00000000E+00 -1.22832199E+00  1.50426059E-16
  0.00000000E+00 -1.22832199E+00  1.50426059E-16  0.00000000E+00 -1.22832199E+00
  1.50426059E-16  0.00000000E+00 -1.22832199E+00  1.50426059E-16  0.00000000E+00
 -1.22832199E+00
Constraint Structure                       R   N=           6
  0.00000000E+00  0.00000000E+00  1.22832199E+00  1.50426059E-16  0.00000000E+00
 -1.22832199E+00
Num ILSW                                   I              100
ILSW                                       I   N=         100
           3           0           0           0           2           0
           0           0           0           0           0          -1
           0           0           0           0           0           0
           0           0           0           0           0           0
           1           0           0           0           0           0
           0           0      100000           0          -1           0
           0           0           0           0           0           0
           0           0           0           1           0           0
           0           0           1           0           0           0
           0           0           4          40           0           0
           0           0           0           0           0           0
           0           0           0           0           0           0
           0           0           0           0           0           0
           0           0           0           0           0           0
           0           0           0           0           0           0
           0           0           0           0           0           0
           0           0           0           0
Num RLSW                                   I               40
RLSW                                       R   N=          40
  1.00000000E+00  1.00000000E+00  1.00000000E+00  1.00000000E+00  1.00000000E+00
  0.00000000E+00  0.00000000E+00  1.00000000E+00  0.00000000E+00  0.00000000E+00
  0.00000000E+00  0.00000000E+00  1.00000000E+00  0.00000000E+00  0.00000000E+00
  0.00000000E+00  0.00000000E+00  1.00000000E+00  0.00000000E+00  0.00000000E+00
  0.00000000E+00  0.00000000E+00  1.00000000E+00  0.00000000E+00  0.00000000E+00
  0.00000000E+00  0.00000000E+00  1.00000000E+00  0.00000000E+00  0.00000000E+00
  0.00000000E+00  0.00000000E+00  1.00000000E+00  0.00000000E+00  0.00000000E+00
  0.00000000E+00  0.00000000E+00  0.00000000E+00  1.00000000E+00  1.00000000E+00
MxBond                                     I                1
NBond                                      I   N=           2
           1           1
IBond                                      I   N=           2
           2           1
RBond                                      R   N=           2
  1.00000000E+00  1.00000000E+00
Virial Ratio                               R      2.004545963994732E+00
SCF Energy                                 R     -1.089607138152805E+02
Total Energy                               R     -1.089607138152805E+02
S**2                                       R     -2.941350801051673E-09
S**2 after annihilation                    R     -2.941350801051673E-09
RMS Density                                R      6.990416015509349E-09
External E-field                           R   N=          35
  0.00000000E+00  0.00000000E+00  0.00000000E+00  0.00000000E+00  0.00000000E+00
  0.00000000E+00  0.00000000E+00  0.00000000E+00  0.00000000E+00  0.00000000E+00
  0.00000000E+00  0.00000000E+00  0.00000000E+00  0.00000000E+00  0.00000000E+00
  0.00000000E+00  0.00000000E+00  0.00000000E+00  0.00000000E+00  0.00000000E+00
  0.00000000E+00  0.00000000E+00  0.00000000E+00  0.00000000E+00  0.00000000E+00
  0.00000000E+00  0.00000000E+00  0.00000000E+00  0.00000000E+00  0.00000000E+00
  0.00000000E+00  0.00000000E+00  0.00000000E+00  0.00000000E+00  0.00000000E+00
IOpCl                                      I                3
IROHF                                      I                0
Alpha Orbital Energies                     R   N=          28
 -1.56912166E+01 -1.56183910E+01 -1.33615250E+00 -7.86886596E-01 -6.04287471E-01
 -6.04287471E-01 -5.58661014E-01  1.67999505E-01  1.67999505E-01  4.95664642E-01
  8.91600973E-01  8.91600973E-01  9.01493197E-01  9.71389753E-01  1.00532027E+00
  1.08619627E+00  1.08619627E+00  1.51141054E+00  1.75008369E+00  1.75008369E+00
  1.82813368E+00  1.82813368E+00  2.21468658E+00  2.21468658E+00  2.56985955E+00
  2.78847960E+00  2.78847960E+00  3.09588849E+00
Beta Orbital Energies                      R   N=          28
 -1.56912166E+01 -1.56183910E+01 -1.33615251E+00 -7.86886598E-01 -6.04287480E-01
 -6.04287480E-01 -5.58661011E-01  1.67999512E-01  1.67999512E-01  4.95664644E-01
  8.91600966E-01  8.91600966E-01  9.01493192E-01  9.71389755E-01  1.00532027E+00
  1.08619628E+00  1.08619628E+00  1.51141054E+00  1.75008369E+00  1.75008369E+00
  1.82813368E+00  1.82813368E+00  2.21468658E+00  2.21468658E+00  2.56985955E+00
  2.78847960E+00  2.78847960E+00  3.09588849E+00
Alpha MO coefficients                      R   N=        1568
 -9.96680694E-01  5.58016383E-17 -2.03472561E-02  1.13919155E-18  8.21928305E-03
 -4.60176927E-19  1.52740450E-17  1.22097465E-33 -7.54422132E-17 -2.26518542E-32
  2.59981572E-03 -1.45557125E-19 -9.19248974E-18 -7.08711833E-34  1.60708319E-16
  3.65808998E-32 -2.43208044E-03  1.36166050E-19  6.45030819E-04 -3.61136486E-20
 -1.24593482E-17 -2.08592642E-33 -3.20794032E-16 -3.31271924E-32 -2.85172650E-16
 -1.47398581E-32 -9.96658293E-17 -4.63897183E-31 -7.03297106E-03  3.93758311E-19
  5.44081954E-04 -3.04617763E-20 -3.48500804E-03  1.95116810E-19 -9.60100246E-18
 -1.83075280E-33  7.63446950E-17  3.12597520E-33  5.02998840E-04 -2.81616364E-20
 -1.38154231E-17 -1.88223022E-34 -2.20665527E-16 -2.32729345E-32 -1.32476793E-03
  7.41704148E-20  7.79694532E-04 -4.36531303E-20  1.12685567E-17 -2.53305632E-34
 -1.25472571E-16 -9.50518946E-33 -1.99355494E-15  7.70934964E-32  2.14449240E-17
 -2.20367858E-31  7.10391796E-03  2.11033293E-18  1.57408529E-04  4.67607319E-20
  4.24365051E-04  1.26064455E-19 -1.91971415E-17 -6.79411696E-33 -2.65017862E-17
 -3.48464531E-32 -5.06377684E-06 -1.50427625E-21  3.88481456E-17  7.34213881E-33
  1.37399795E-16  9.18724293E-32 -3.15525009E-04 -9.37317720E-20  4.46355525E-04
  1.32597078E-19  1.44331229E-17  1.28920789E-32  6.92787315E-17  2.53393285E-32
  2.05848967E-15  5.85060736E-31 -1.67972117E-16 -1.01582470E-30 -9.97960062E-01
 -2.96460066E-16 -9.27669763E-03 -2.75579203E-18 -2.48623942E-04 -7.38577353E-20
  1.60026700E-17  9.21975880E-33  1.06978525E-16  4.25824956E-32 -1.23410622E-03
 -3.66611075E-19 -2.78791254E-17 -3.88132140E-33 -1.69347942E-16 -1.01886567E-31
  2.91532954E-04  8.66045467E-20 -1.55026830E-03 -4.60532099E-19  6.45747034E-18
  9.40670102E-33 -1.66237698E-19 -1.05421680E-32  2.14496578E-16  8.84116986E-32
 -1.58524703E-17 -4.90954886E-31  1.91741797E-01  2.78663661E-17 -4.74786126E-01
 -6.90019820E-17 -3.70105790E-01 -5.37884990E-17  8.82583355E-17  6.14315011E-32
 -2.76386967E-16  2.81610624E-32  1.99354330E-01  2.89727166E-17  6.18301426E-17
 -1.42668214E-32  2.47540927E-16 -1.05994295E-32  8.97442460E-02  1.30427797E-17
 -1.95378493E-03 -2.83948973E-19 -4.00545069E-18  1.06858844E-32  1.03805108E-16
 -8.78751459E-32  1.51349771E-14  2.15377586E-30  1.25167333E-16  3.14954191E-32
  9.84557329E-02  1.43088442E-17 -1.86245084E-01 -2.70675136E-17 -9.89119143E-02
 -1.43751423E-17  8.41411402E-17 -7.16535618E-32  4.90861133E-17  1.81627248E-32
 -1.18896027E-01 -1.72794887E-17 -1.14693016E-17  3.41310026E-34 -7.62976111E-17
 -2.44930529E-32  1.10711044E-03  1.60899425E-19 -3.55862874E-02 -5.17185366E-18
 -8.75997694E-18  1.96687837E-33 -1.12530400E-16 -3.25429454E-32 -9.51403089E-15
 -1.25001166E-30 -1.21127623E-16 -2.67545886E-32  1.20116161E-01  2.74763953E-18
 -3.00574425E-01 -6.87559580E-18 -3.63599847E-01 -8.31729308E-18 -4.08102472E-16
 -1.57159519E-32  6.98939198E-17  7.54369772E-32 -3.43090774E-01 -7.84815103E-18
 -3.13942167E-16  3.12669466E-32 -5.88335594E-16 -1.49955767E-31 -1.33527252E-01
 -3.05441628E-18  5.27944371E-02  1.20766499E-18  5.01780941E-17 -1.36648355E-32
 -2.48560033E-16  9.40429410E-32  7.30498616E-15  4.55309328E-31 -1.69612135E-16
 -2.91633221E-32 -1.55052164E-01 -3.54679547E-18  3.17804217E-01  7.26972476E-18
  4.26551149E-01  9.75729484E-18 -5.96224831E-17  1.09790694E-34  3.08566680E-19
 -3.75823363E-32 -5.04422913E-02 -1.15386000E-18 -1.30850307E-17 -5.31346518E-32
  6.54913318E-16  1.23669508E-31 -6.61730060E-02 -1.51369779E-18  2.72782252E-02
  6.23985392E-19 -2.88690134E-17 -5.39927435E-33  4.39709875E-17  3.59468989E-32
  1.26282551E-14  3.47185252E-31  1.74985599E-16  2.43749363E-32 -1.36532529E-16
 -5.55408342E-32  1.14685525E-15  2.42035365E-31  1.33405756E-16  4.85054309E-31
 -6.50912042E-01  2.79439253E-30  1.08960532E-04  1.57456509E-23  4.24688709E-16
 -4.71676989E-31 -3.95098692E-01  2.83031108E-30  6.61382199E-05  9.55749039E-24
 -1.29823576E-15 -4.04593016E-31 -1.09947726E-16  6.89727285E-33  4.28351038E-02
 -8.87499585E-33 -7.17045532E-06 -1.03618709E-24  4.93795821E-16  1.31540047E-31
  5.51754946E-18 -1.55051538E-32  1.78228998E-16  5.71472437E-32 -5.05274427E-16
  7.58237684E-32 -1.18000885E-15 -8.31215519E-31 -1.24384036E-01  1.65344914E-30
  2.08214780E-05  3.00886701E-24 -3.15689024E-16 -6.64448680E-31 -1.05652634E-01
  3.33393579E-30  1.76859030E-05  2.55575112E-24 -5.30652337E-16 -2.34454516E-31
 -3.72999244E-16 -2.18434398E-31 -2.51303532E-02  5.68678138E-32  4.20673836E-06
  6.07906985E-25  5.08295015E-16  8.00223017E-32  6.20239501E-18  1.50417158E-32
 -2.52878547E-16 -2.44833166E-32  1.22423777E-15 -3.41110846E-31  5.48258179E-16
  1.21220789E-30 -1.08960532E-04  5.57533836E-31 -6.50912042E-01 -9.40618823E-20
  4.28339972E-15 -3.34523282E-31 -6.61382199E-05  2.15710104E-31 -3.95098692E-01
 -5.70948520E-20  3.09262003E-15 -9.42752548E-31 -3.13266745E-16 -1.04069388E-31
  7.17045532E-06 -1.68405770E-31  4.28351038E-02  6.19000761E-21 -6.69297626E-17
 -1.08949479E-31 -1.58279145E-16  7.42392576E-32 -9.09189931E-16  9.54655310E-32
  1.90071460E-15 -2.21406878E-31  4.87926456E-15 -1.10639580E-30 -2.08214780E-05
  7.60729155E-31 -1.24384036E-01 -1.79744663E-20 -3.53306710E-15 -7.71085298E-32
 -1.76859030E-05  1.60604769E-30 -1.05652634E-01 -1.52676321E-20 -2.77414272E-15
 -5.01709908E-31 -5.76330504E-17 -1.24708790E-31 -4.20673836E-06  3.64259215E-32
 -2.51303532E-02 -3.63153263E-21 -3.99818506E-16 -4.24907672E-33  3.28331807E-17
 -6.03710869E-32 -2.32449678E-02  1.20753922E-18  1.52726007E-02 -7.93387393E-19
  2.06954690E-01 -1.07509681E-17  1.82510939E-18  1.79056722E-32  6.00429783E-15
  2.71092331E-31  4.64198006E-01 -2.41143504E-17 -1.32034617E-16 -2.81506657E-32
  3.92695628E-15 -6.67002270E-31  1.94982294E-01 -1.01290211E-17 -3.90883464E-02
  2.03057762E-18  6.04249571E-17  5.92340323E-33 -5.76087659E-16  1.21469036E-31
 -5.14665106E-15  2.57131761E-31 -3.44162559E-16  1.00735623E-31 -9.19329518E-02
  4.77577109E-18  1.79295330E-01 -9.31410813E-18  3.94937577E-01 -2.05163810E-17
  1.20530514E-16 -1.37787681E-32  1.02271537E-15 -2.16447726E-31 -3.92125444E-01
  2.03702951E-17 -1.18124019E-17  3.42874923E-32  9.20421919E-16  5.59589823E-31
 -2.89316514E-01  1.50295342E-17 -6.29605890E-04  3.27070278E-20  5.17365746E-17
 -8.84105670E-33  2.18442261E-16  6.31700748E-32  1.06021414E-14 -4.76788488E-31
  2.77165019E-16 -7.89643378E-32  4.50196389E-16 -3.50973762E-32 -1.09408742E-15
  8.33241397E-32 -7.61482670E-15  7.65840359E-31 -3.66270382E-03  8.33562120E-32
  2.69380435E-01 -4.88993159E-22  1.17190041E-15 -1.40943953E-31 -4.50619361E-03
  1.92063774E-31  3.31416476E-01 -6.01604159E-22  6.02399109E-15 -7.32322421E-31
  3.82565487E-17  2.76338711E-32 -3.64923264E-04  3.20637449E-32  2.68389672E-02
 -4.87194676E-23 -2.70489335E-16 -1.02672096E-31  4.00519697E-17 -5.39558210E-33
 -4.65174454E-16  4.49456876E-32  4.57590702E-16 -1.22556668E-31  8.15393358E-15
 -8.79355889E-31  6.20614186E-03 -4.12008399E-31 -4.56442365E-01  8.28557554E-22
  1.82681886E-15 -6.49544744E-32  1.00566667E-02 -6.46479026E-31 -7.39636449E-01
  1.34262596E-21  6.63373654E-15 -6.87044994E-31  1.43424229E-16  1.39066172E-35
  8.06002956E-05 -1.05378973E-32 -5.92790019E-03  1.07606280E-23 -4.69620805E-17
 -6.24627799E-32 -8.55921559E-18  1.27122868E-32  1.80767848E-16  1.66674978E-32
  3.33867206E-16 -4.70890859E-32 -4.67390548E-15 -3.41867462E-32  2.69380435E-01
 -1.13869179E-30  3.66270382E-03 -6.64872624E-24  2.19425929E-16 -4.01328333E-33
  3.31416476E-01 -2.62364412E-30  4.50619361E-03 -8.17987250E-24  3.50631203E-15
 -1.00343686E-32 -4.77795741E-16  2.56274558E-33  2.68389672E-02 -4.37992468E-31
  3.64923264E-04 -6.62427451E-25  7.32826665E-17 -1.61944856E-33  2.63209406E-17
 -6.69063679E-35 -1.78466097E-16  8.83426355E-33 -2.22607859E-16 -8.38362230E-33
  4.80976736E-15 -1.11544140E-32 -4.56442365E-01  5.62819387E-30 -6.20614186E-03
  1.12657064E-23  4.06363361E-16 -6.54423385E-33 -7.39636449E-01  8.83111293E-30
 -1.00566667E-02  1.82553761E-23  3.27946093E-15 -7.38420758E-33  3.38218869E-16
 -1.90668467E-33 -5.92790019E-03  1.43962777E-31 -8.06002956E-05  1.46309823E-25
  7.64436027E-18 -1.01324689E-33 -8.67863830E-19  1.78337675E-34  9.30991374E-02
 -9.02883236E-18 -1.95825123E-01  1.89912845E-17 -1.85690639E+00  1.80084337E-16
  2.28841605E-16  2.66081807E-31 -8.84232139E-16  2.19190455E-31  2.67147034E-01
 -2.59081432E-17 -1.88035199E-15  3.56872708E-31 -1.37596080E-15  1.60235752E-31
  1.61528936E+00 -1.56652116E-16  3.93973684E-03 -3.82078981E-19  3.65845389E-16
 -5.45131635E-32  1.68097993E-17 -3.48683524E-32 -1.17906015E-14  7.68960447E-31
  6.01412562E-17  1.79680701E-32 -1.23340743E-01  1.19616886E-17  1.75293322E-01
 -1.70000933E-17  1.97424520E+00 -1.91463954E-16  8.71482034E-16 -2.98690491E-32
  2.11026602E-15  5.34002204E-32  3.01606244E-01 -2.92500262E-17  8.08050140E-16
 -3.14383366E-32  2.78224367E-15  5.07592629E-32  1.68579941E+00 -1.63490240E-16
  1.90733480E-02 -1.84974927E-18 -7.06270073E-17  1.76054671E-32  9.84699457E-17
  3.71668438E-33 -1.30245056E-15 -1.60578027E-31 -4.82651315E-17 -7.24807549E-33
 -1.92250666E-17  4.84199079E-34 -2.00083365E-15  4.75032878E-33  5.14487515E-15
 -3.27228323E-33 -8.97895289E-01 -5.41409018E-31  1.91546603E-03 -1.01463545E-23
  5.47662871E-15 -1.81455567E-32  1.11695106E+00 -7.35858282E-31 -2.38277429E-03
  1.26217181E-23 -8.56272387E-15  2.46812537E-33  2.84089572E-16  1.36740801E-33
  7.03699720E-02  3.28647561E-32 -1.50119165E-04  7.95191475E-25  4.75689283E-17
 -9.71643008E-35  1.51969394E-17  1.60506384E-35 -1.93900267E-16 -8.50104718E-34
  1.19402847E-16  3.89932872E-33 -5.05004211E-15  3.00397692E-33 -2.84180368E-01
 -7.58639543E-32  6.06237550E-04 -3.21128173E-24  1.50169426E-15  8.34198724E-33
 -2.04349487E-02 -1.18586640E-31  4.35935575E-05 -2.30918068E-25 -1.86433761E-15
  2.45226569E-33 -1.17378496E-15  1.70594384E-33 -6.73496973E-02 -1.28939620E-32
  1.43676060E-04 -7.61061905E-25  8.97369704E-18 -7.14214348E-35 -1.25381972E-18
 -5.46635094E-35  1.65800108E-16  8.55224022E-32  3.20613098E-15  3.26952166E-31
 -5.30547176E-15 -9.62967157E-31  1.91546603E-03 -2.79336534E-31  8.97895289E-01
 -4.75621262E-21 -8.09082099E-15 -2.13042822E-30 -2.38277429E-03 -3.79667390E-31
 -1.11695106E+00  5.91656599E-21  1.46427657E-14  3.81831474E-30  7.33720204E-16
  1.02453029E-31 -1.50119165E-04  1.69560982E-32 -7.03699720E-02  3.72754544E-22
  2.37181678E-16 -4.85071774E-32  4.82197034E-20  7.66314141E-33  2.30989826E-16
  5.91090943E-32  1.36998442E-15  3.75342610E-31  5.85608234E-15  1.66271501E-30
  6.06237550E-04 -3.91428487E-32  2.84180368E-01 -1.50532280E-21  3.50242023E-15
  4.26179787E-31  4.35935575E-05 -6.11798552E-32  2.04349487E-02 -1.08245317E-22
 -3.50024066E-15 -6.67029675E-31  1.82311497E-15  4.18347050E-31  1.43676060E-04
 -6.65299426E-33  6.73496973E-02 -3.56755942E-22 -8.21113416E-18 -3.50563184E-32
  1.53643310E-16 -2.55252574E-32 -1.74270825E-02  2.59835993E-20 -1.68316892E-01
  2.50958740E-19  3.81190761E-01 -5.68351471E-19  5.39827536E-15  1.58154219E-32
  9.66117687E-15 -2.61005900E-30  7.98423986E-01 -1.19044188E-18 -5.93258640E-15
  2.33192018E-32 -1.33282096E-14  3.02407367E-30 -1.33839015E+00  1.99552583E-18
 -5.43086564E-02  8.09736434E-20 -6.01683918E-16 -7.02652361E-34 -4.32834809E-16
  1.82862495E-31 -7.87878571E-15 -9.72355712E-32 -3.60466586E-16  1.41395680E-31
 -2.32598618E-02  3.46802127E-20 -1.57253567E-01  2.34463437E-19 -5.03903729E-01
  7.51315233E-19  9.46336103E-16  3.17592355E-33  1.44815047E-15 -9.21996949E-31
 -1.87314734E-01  2.79284326E-19  6.18860466E-16  2.97225509E-33  2.13003760E-15
  1.44629347E-32  2.02367159E-01 -3.01727335E-19 -1.62320200E-01  2.42017734E-19
  2.04455880E-16  5.93139754E-34  4.00907153E-16 -1.93415809E-31  7.26291320E-15
 -1.10299098E-31 -1.56034483E-17 -5.34929376E-32  1.05066819E-02 -4.13008031E-19
 -5.07160816E-01  1.99360265E-17 -3.66327040E-01  1.43999800E-17 -1.91989859E-15
 -2.10999255E-31 -1.25971712E-15 -1.59296141E-31 -4.43498808E-01  1.74335314E-17
  2.09298422E-15 -2.52664504E-31  2.89630544E-15 -1.51297517E-31  6.94122710E-01
 -2.72853271E-17 -2.29417471E-01  9.01819039E-18 -7.42183384E-17  1.92963583E-32
 -7.39198970E-16  2.91896588E-32 -9.38843959E-15  4.34596781E-31 -2.13979467E-16
  1.22590306E-31  4.18990585E-03 -1.64701356E-19 -2.79535354E-01  1.09882784E-17
  8.79020289E-01 -3.45534814E-17 -8.98420985E-16 -1.72599196E-32  8.43945869E-15
 -1.77751464E-31 -8.50976111E-01  3.34510905E-17  3.79564538E-16 -6.32145037E-32
 -8.92114475E-15  1.53997550E-31  1.24862265E+00 -4.90822114E-17  5.86615247E-02
 -2.30593074E-18 -2.99685775E-16 -5.77780932E-34  6.33212816E-16 -2.60586278E-32
 -5.26009116E-15  2.76992388E-31 -1.76163219E-16 -5.35019161E-32  2.99119052E-02
 -1.86195443E-18 -1.06009220E+00  6.59885535E-17  1.50187364E+00 -9.34885375E-17
  6.60440369E-16  1.28260195E-31  8.68815697E-15  2.34098814E-32 -4.01237113E-02
  2.49761830E-18 -1.13022767E-15  1.70728168E-31 -2.05153712E-14 -3.21724101E-31
 -2.94811062E-01  1.83513808E-17 -1.84225285E-02  1.14676442E-18 -2.13156194E-16
  2.80782789E-33  2.49985358E-15  1.79683925E-32 -4.95242714E-16 -3.93386909E-32
 -2.22004333E-16  1.08581373E-31  4.81236208E-02 -2.99559617E-18 -9.40567761E-01
  5.85484039E-17  3.27910737E-01 -2.04117673E-17  1.62626014E-16  2.01721950E-32
 -3.50764411E-14 -1.63394564E-31  4.44503933E-01 -2.76694534E-17 -1.06040845E-16
  3.49124848E-32  3.93251766E-14  1.90517403E-31 -7.17011292E-01  4.46324746E-17
 -1.18710816E-01  7.38950354E-18 -2.58424866E-17  7.53207135E-33 -1.29598356E-15
  2.61499066E-32 -1.11498033E-14  7.03211203E-31 -1.42615903E-16 -3.13862034E-32
  9.72264336E-16 -8.50999112E-32 -3.32219851E-14  2.32558079E-30  5.78255313E-14
 -3.47182970E-30 -2.09773125E-03 -2.12231419E-31 -2.63114265E-01 -1.40924470E-21
  3.39715656E-15 -1.92096411E-31  4.79698190E-03 -5.13796909E-32  6.01675914E-01
  3.22258695E-21 -1.95229392E-14  7.69937760E-31  1.55658393E-15  9.75896868E-32
 -5.28558482E-04  5.46198218E-33 -6.62960408E-02 -3.55082779E-22 -1.26431121E-16
  5.25341431E-33 -2.53708506E-16  1.65965019E-32  1.66888878E-15 -8.89621374E-32
 -2.96125380E-14  2.08043072E-30  8.76605657E-16 -8.75333537E-31  8.18983638E-03
  6.90401298E-32  1.02723491E+00  5.50188855E-21  2.16278158E-14 -1.05658063E-30
 -9.15270338E-03 -1.46872382E-31 -1.14800541E+00 -6.14873749E-21 -3.59973370E-14
  1.94696831E-30 -5.03975593E-15  2.88838164E-31  2.77206328E-04 -3.62349341E-33
  3.47694393E-02  1.86225738E-22  4.76145956E-17  4.06970828E-32  3.63477357E-17
 -2.84254421E-32 -3.04938175E-17 -5.00085229E-33  1.32512565E-16 -8.79431778E-34
 -5.40146795E-16  3.47842776E-32 -2.63114265E-01  2.29297711E-31  2.09773125E-03
  1.12354861E-23  1.41618114E-16 -2.49190492E-32  6.01675914E-01  5.55220493E-32
 -4.79698190E-03 -2.56927206E-23 -3.47463194E-16 -1.73221707E-32  4.16904916E-17
  1.21634480E-33 -6.62960408E-02 -5.90135693E-33  5.28558482E-04  2.83096866E-24
  1.78015961E-17  4.91225161E-35  6.50294687E-18 -1.36487272E-34  1.11225574E-17
 -7.41626640E-33 -1.73275788E-16 -3.87281123E-33  1.99636613E-16  1.33576493E-32
  1.02723491E+00 -7.45872306E-32 -8.18983638E-03 -4.38649099E-23 -6.90380885E-16
  2.10494130E-32 -1.14800541E+00  1.58678633E-31  9.15270338E-03  4.90220427E-23
  9.46857754E-16 -1.12706889E-32 -9.16592704E-17  1.21193076E-34  3.47694393E-02
  3.91539248E-33 -2.77206328E-04 -1.48472204E-24  5.07197027E-17 -2.68720215E-34
  5.66796323E-18  2.28409263E-34  2.15117190E-02 -4.50649849E-19  1.32689028E+00
 -2.77970768E-17 -3.92787448E+00  8.22851971E-17 -2.84267048E-16 -2.67799901E-32
 -2.60270664E-16  9.28722934E-32 -8.87433493E-02  1.85908792E-18  6.73412465E-16
 -3.38433988E-32  5.64963125E-16 -2.00049843E-32  1.92957654E+00 -4.04227749E-17
 -8.67379399E-02  1.81707652E-18  8.03753525E-16 -1.50851363E-32  1.40099962E-17
  1.95859375E-32 -3.45441289E-14  1.17080063E-30  3.51138944E-16 -3.01977717E-32
 -1.04147646E-02  2.18179314E-19 -1.50185171E+00  3.14623506E-17  4.05134539E+00
 -8.48717941E-17  9.40594624E-17 -8.00306171E-33  2.24474658E-16 -5.42928093E-33
 -1.02942357E-01  2.15654348E-18  4.71914505E-16 -1.51048472E-32 -2.50696684E-16
  4.81140637E-32  1.92990151E+00 -4.04295827E-17  4.38698206E-02 -9.19030600E-19
 -5.91949955E-16  1.07771057E-32  3.87801556E-16 -5.16269049E-32 -2.70723620E-14
  7.08310537E-31 -2.54476086E-16  6.35516853E-33 -1.39745000E-16  2.48724960E-32
  3.87148309E-16  1.51932661E-31 -1.48044591E-15 -3.15084593E-31 -1.67160647E-03
  1.39360423E-31  1.64314384E-01 -4.05057171E-23 -4.23579977E-17 -5.59142660E-32
  2.52931989E-04  1.22036753E-31 -2.48625289E-02  6.12894931E-24  7.93402440E-16
  1.83537287E-31 -5.09494361E-16 -3.89959605E-32 -6.66767014E-03 -2.09401457E-31
  6.55413900E-01 -1.61568385E-22 -1.52367245E-15  3.96851585E-31 -1.13665854E-15
  4.26148899E-31 -7.94898788E-18 -3.15002329E-32 -1.77456715E-17 -8.12762016E-33
  1.41002081E-15  3.10458575E-31 -1.99029193E-03 -2.27309391E-32  1.95640301E-01
 -4.82279787E-23 -2.00528536E-16 -1.69834554E-32 -6.42787908E-05  2.87386753E-32
  6.31843089E-03 -1.55757870E-24  8.80721566E-16  1.14754913E-31  2.51018487E-16
 -8.15951909E-33  5.78260996E-03  1.78118773E-31 -5.68414884E-01  1.40121952E-22
 -9.37625195E-16  2.37280895E-31 -7.26743621E-16  1.79970065E-31  3.77682909E-18
 -1.92585281E-33  1.24420829E-15 -3.41521970E-33 -2.44785430E-15 -1.84744582E-33
 -1.64314384E-01  1.24807407E-31 -1.67160647E-03  4.12073602E-25 -5.25695935E-16
 -8.80666822E-33  2.48625289E-02  1.09293214E-31  2.52931989E-04 -6.23511838E-26
  1.27469872E-15 -5.71327129E-33  1.16093535E-15  1.36764013E-33 -6.55413900E-01
 -1.87533055E-31 -6.66767014E-03  1.64367101E-24 -5.61739737E-16 -3.90602340E-33
 -7.00120984E-17 -4.33625626E-33  2.23278225E-19  1.50263076E-33 -1.26067113E-15
  1.11083575E-33  2.50153523E-15 -4.09620406E-33 -1.95640301E-01 -2.03578236E-32
 -1.99029193E-03  4.90633913E-25 -5.59256933E-16  4.92602432E-33 -6.31843089E-03
  2.57363254E-32 -6.42787908E-05  1.58455872E-26  1.23382213E-15  1.89303500E-33
 -1.07775727E-15  4.28579871E-34  5.68414884E-01  1.59519118E-31  5.78260996E-03
 -1.42549168E-24  2.12086266E-16 -2.18113554E-33  5.77439574E-17 -1.83084929E-33
  4.99395281E-17 -5.50856942E-32 -2.69851310E-15 -5.22816219E-30  7.15906406E-15
  8.25331470E-30 -7.61783359E-18  4.61472688E-32  5.25864225E-17  1.17993852E-30
  6.28715167E-16  1.35426463E-30 -7.13282039E-18  1.27158597E-32  4.21422362E-16
  2.87078754E-30 -4.45211464E-15 -5.24391580E-30  6.69373548E-16 -2.71896197E-32
 -6.96547836E-17 -4.88414716E-31  3.53867500E-16  1.60517612E-30 -2.81274854E-02
 -4.67498556E-18  8.33772181E-01  4.66136022E-15 -1.14171020E-16 -6.00154607E-32
  2.25972070E-15 -1.03692667E-30 -7.25437349E-15 -3.65289021E-30 -4.08457338E-18
 -2.04268341E-32  3.96664822E-16  2.37470088E-30 -2.09748246E-16 -1.51728432E-30
 -1.21797769E-18  1.49036904E-32 -3.82376312E-16 -1.90060246E-30 -3.71631872E-15
 -1.04130147E-30  7.38857812E-16 -6.45085512E-32 -3.56103772E-17 -2.02928350E-31
 -1.32557261E-15 -8.48943867E-30 -1.63534993E-02 -2.71806641E-18  4.84760461E-01
  2.71014454E-15  2.02503929E-15  7.73240068E-31 -5.64546223E-14 -2.22647437E-29
  1.70506448E-13  6.64572760E-29 -4.47225510E-16 -6.99066692E-32 -1.02943038E-16
 -1.34615340E-31  1.17342570E-14  4.87058776E-30 -2.70276650E-16 -5.75812512E-32
 -1.29950973E-16 -2.06071446E-31 -1.05794889E-13 -4.07583595E-29  2.07387501E-14
  7.89419793E-30  5.47972477E-16  2.39227817E-31 -1.45298342E-15 -9.08524243E-31
 -8.33772181E-01 -3.22609993E-16 -2.81274854E-02 -1.63460331E-16 -2.29672006E-15
 -9.27455416E-31  7.00123751E-14  2.78990048E-29 -1.94577916E-13 -7.60307172E-29
 -5.19855902E-18  2.02809957E-32 -1.43817512E-16 -2.89768892E-31  1.37128608E-15