title
Stability UHF                                                         CC-pVDZ
Number of atoms                            I                2
Info1-9                                    I   N=           9
          12          11           0           0           0         110
           7           1           2
Charge                                     I                0
Multiplicity                               I                1
Number of electrons                        I               14
Number of alpha electrons                  I                7
Number of beta electrons                   I                7
Number of basis functions                  I               28
Number of independent functions            I               28
Number of point charges in /Mol/           I                0
Number of translation vectors              I                0
Atomic numbers                             I   N=           2
           7           7
Nuclear charges                            R   N=           2
  7.00000000E+00  7.00000000E+00
Current cartesian coordinates              R   N=           6
  0.00000000E+00  0.00000000E+00  1.22832199E+00  1.50426059E-16  0.00000000E+00
 -1.22832199E+00
Force Field                                I                0
Int Atom Types                             I   N=           2
           0           0
MM charges                                 R   N=           2
  0.00000000E+00  0.00000000E+00
Integer atomic weights                     I   N=           2
          14          14
Real atomic weights                        R   N=           2
  1.40030740E+01  1.40030740E+01
Atom fragment info                         I   N=           2
           0           0
Atom residue num                           I   N=           2
           0           0
Nuclear spins                              I   N=           2
           2           2
Nuclear ZEff                               R   N=           2
 -4.55000000E+00 -4.55000000E+00
Nuclear QMom                               R   N=           2
  2.04400000E+00  2.04400000E+00
Nuclear GFac                               R   N=           2
  4.03761000E-01  4.03761000E-01
MicOpt                                     I   N=           2
          -1          -1
Number of contracted shells                I               12
Number of primitive shells                 I               40
Pure/Cartesian d shells                    I                0
Pure/Cartesian f shells                    I                0
Highest angular momentum                   I                2
Largest degree of contraction              I                7
Shell types                                I   N=          12
           0           0           0           1           1          -2
           0           0           0           1           1          -2
Number of primitives per shell             I   N=          12
           7           7           1           3           1           1
           7           7           1           3           1           1
Shell to atom map                          I   N=          12
           1           1           1           1           1           1
           2           2           2           2           2           2
Primitive exponents                        R   N=          40
  9.04600000E+03  1.35700000E+03  3.09300000E+02  8.77300000E+01  2.85600000E+01
  1.02100000E+01  3.83800000E+00  9.04600000E+03  3.09300000E+02  8.77300000E+01
  2.85600000E+01  1.02100000E+01  3.83800000E+00  7.46600000E-01  2.24800000E-01
  1.35500000E+01  2.91700000E+00  7.97300000E-01  2.18500000E-01  8.17000000E-01
  9.04600000E+03  1.35700000E+03  3.09300000E+02  8.77300000E+01  2.85600000E+01
  1.02100000E+01  3.83800000E+00  9.04600000E+03  3.09300000E+02  8.77300000E+01
  2.85600000E+01  1.02100000E+01  3.83800000E+00  7.46600000E-01  2.24800000E-01
  1.35500000E+01  2.91700000E+00  7.97300000E-01  2.18500000E-01  8.17000000E-01
Contraction coefficients                   R   N=          40
  7.01708743E-04  5.40299880E-03  2.74729510E-02  1.03514580E-01  2.79586579E-01
  4.51317241E-01  2.80626875E-01  7.77446797E-06  3.00742072E-04 -2.80016549E-03
 -9.89708505E-03 -1.14331114E-01 -1.18162383E-01  1.09786885E+00  1.00000000E+00
  5.89056768E-02  3.20461107E-01  7.53042062E-01  1.00000000E+00  1.00000000E+00
  7.01708743E-04  5.40299880E-03  2.74729510E-02  1.03514580E-01  2.79586579E-01
  4.51317241E-01  2.80626875E-01  7.77446797E-06  3.00742072E-04 -2.80016549E-03
 -9.89708505E-03 -1.14331114E-01 -1.18162383E-01  1.09786885E+00  1.00000000E+00
  5.89056768E-02  3.20461107E-01  7.53042062E-01  1.00000000E+00  1.00000000E+00
Coordinates of each shell                  R   N=          36
  0.00000000E+00  0.00000000E+00  1.22832199E+00  0.00000000E+00  0.00000000E+00
  1.22832199E+00  0.00000000E+00  0.00000000E+00  1.22832199E+00  0.00000000E+00
  0.00000000E+00  1.22832199E+00  0.00000000E+00  0.00000000E+00  1.22832199E+00
  0.00000000E+00  0.00000000E+00  1.22832199E+00  1.50426059E-16  0.00000000E+00
 -1.22832199E+00  1.50426059E-16  0.00000000E+00 -1.22832199E+00  1.50426059E-16
  0.00000000E+00 -1.22832199E+00  1.50426059E-16  0.00000000E+00 -1.22832199E+00
  1.50426059E-16  0.00000000E+00 -1.22832199E+00  1.50426059E-16  0.00000000E+00
 -1.22832199E+00
Constraint Structure                       R   N=           6
  0.00000000E+00  0.00000000E+00  1.22832199E+00  1.50426059E-16  0.00000000E+00
 -1.22832199E+00
Num ILSW                                   I              100
ILSW                                       I   N=         100
           1           0           0           0           2           1
           0           0           0           0           0          -1
           0           0           0           0           0           0
           0           0           0           0           0           0
           1           0           0           0           0           0
           0           0      100000           0          -1           0
           0           0           0           0           0           0
           0           0           0           1           0           0
           0           0           1           0           0           0
           0           0           4          40           0           0
           0           0           0           0           0           0
           0           0           0           0           0           0
           0           0           0           0           0           0
           0           0           0           0           0           0
           0           0           0           0           0           0
           0           0           0           0           0           0
           0           0           0           0
Num RLSW                                   I               40
RLSW                                       R   N=          40
  1.00000000E+00  1.00000000E+00  1.00000000E+00  1.00000000E+00  1.00000000E+00
  0.00000000E+00  0.00000000E+00  1.00000000E+00  0.00000000E+00  0.00000000E+00
  0.00000000E+00  0.00000000E+00  1.00000000E+00  0.00000000E+00  0.00000000E+00
  0.00000000E+00  0.00000000E+00  1.00000000E+00  0.00000000E+00  0.00000000E+00
  0.00000000E+00  0.00000000E+00  1.00000000E+00  0.00000000E+00  0.00000000E+00
  0.00000000E+00  0.00000000E+00  1.00000000E+00  0.00000000E+00  0.00000000E+00
  0.00000000E+00  0.00000000E+00  1.00000000E+00  0.00000000E+00  0.00000000E+00
  0.00000000E+00  0.00000000E+00  0.00000000E+00  1.00000000E+00  1.00000000E+00
MxBond                                     I                1
NBond                                      I   N=           2
           1           1
IBond                                      I   N=           2
           2           1
RBond                                      R   N=           2
  1.00000000E+00  1.00000000E+00
Virial Ratio                               R      2.004545963942753E+00
SCF Energy                                 R     -1.088799179299420E+02
Total Energy                               R     -1.088799179299420E+02
S**2                                       R      1.033422383499848E+00
S**2 after annihilation                    R      1.502339525322467E+00
RMS Density                                R      8.115634931128895E-10
External E-field                           R   N=          35
  0.00000000E+00  0.00000000E+00  0.00000000E+00  0.00000000E+00  0.00000000E+00
  0.00000000E+00  0.00000000E+00  0.00000000E+00  0.00000000E+00  0.00000000E+00
  0.00000000E+00  0.00000000E+00  0.00000000E+00  0.00000000E+00  0.00000000E+00
  0.00000000E+00  0.00000000E+00  0.00000000E+00  0.00000000E+00  0.00000000E+00
  0.00000000E+00  0.00000000E+00  0.00000000E+00  0.00000000E+00  0.00000000E+00
  0.00000000E+00  0.00000000E+00  0.00000000E+00  0.00000000E+00  0.00000000E+00
  0.00000000E+00  0.00000000E+00  0.00000000E+00  0.00000000E+00  0.00000000E+00
IOpCl                                      I                1
IROHF                                      I                0
Alpha Orbital Energies                     R   N=          28
 -1.56221053E+01 -1.55534893E+01 -1.60287644E+00 -7.17980982E-01 -7.17980982E-01
 -7.16608325E-01 -5.88061758E-01  3.05003127E-01  3.05003127E-01  6.30977709E-01
  7.57729199E-01  7.99142648E-01  7.99142648E-01  1.03246773E+00  1.12760699E+00
  1.12760699E+00  1.44848168E+00  1.70391969E+00  1.70391969E+00  1.94859890E+00
  2.13683022E+00  2.13683022E+00  2.45981509E+00  2.45981509E+00  2.97945826E+00
  3.24871520E+00  3.24871520E+00  4.21581551E+00
Beta Orbital Energies                      R   N=          28
 -1.56221053E+01 -1.55534893E+01 -1.60287644E+00 -7.17980982E-01 -7.17980982E-01
 -7.16608325E-01 -5.88061758E-01  3.05003127E-01  3.05003127E-01  6.30977709E-01
  7.57729199E-01  7.99142648E-01  7.99142648E-01  1.03246773E+00  1.12760699E+00
  1.12760699E+00  1.44848168E+00  1.70391969E+00  1.70391969E+00  1.94859890E+00
  2.13683022E+00  2.13683022E+00  2.45981509E+00  2.45981509E+00  2.97945826E+00
  3.24871520E+00  3.24871520E+00  4.21581551E+00
Alpha MO coefficients                      R   N=         784
 -9.99682082E-01 -1.25052321E-02  1.85949929E-02 -5.34466951E-17 -1.26235031E-16
 -6.50584318E-03 -1.10385904E-16  9.71552012E-17  5.00974757E-03 -1.35358427E-03
 -1.17130166E-18 -1.01764625E-17 -1.16682454E-16 -5.96339634E-17 -9.80195346E-02
  5.63553873E-03 -1.29967595E-02 -1.16577687E-16  1.01411314E-16 -2.97418914E-03
  8.58765619E-17  3.42483365E-17  3.97822084E-03 -4.04721252E-05 -2.76624515E-17
 -2.33021302E-17  1.63528583E-16 -5.89279277E-17  1.04729164E-01  2.08900494E-03
  1.05937535E-03  1.05899646E-16  7.58297037E-17 -5.73132650E-04 -1.56400839E-16
 -1.30395024E-16  5.84130668E-04 -5.76084071E-04  9.00742003E-17  4.43344506E-18
  1.47642933E-16 -7.01153952E-17 -9.93459169E-01  4.36679288E-03 -3.23738013E-03
 -8.69947385E-17 -2.69490609E-17  3.59097163E-03 -1.81694553E-16  1.95537355E-16
  5.37058673E-04 -3.37179519E-03  1.46201063E-16 -2.89489216E-17 -1.25256209E-16
 -2.03877128E-17 -6.93552069E-03  4.40809705E-01  1.89577881E-01  2.64554779E-16
 -1.97723356E-16  3.02565066E-01  2.38990176E-16 -7.18047130E-16  4.85596180E-02
  1.41693388E-02  6.82845479E-17 -4.75351721E-16 -1.48856792E-16  1.31174153E-16
 -7.01220169E-02  2.10691209E-01  1.03003882E-01  7.53011925E-19 -5.87462067E-16
 -2.19492516E-01 -4.72979364E-16  3.80966721E-16 -5.14348703E-03  5.14847951E-02
  1.30337379E-16 -1.01979244E-16 -5.99033495E-16 -1.19061556E-17 -4.07168876E-16
  5.57262186E-15  2.87886035E-14 -1.01136809E-01 -6.39788686E-01 -1.05854657E-14
 -4.06706658E-02 -2.57281519E-01  3.69856356E-15 -1.25634620E-15 -9.27997229E-03
 -5.87048507E-02  9.36316463E-16 -9.85170676E-17  1.13196586E-15 -3.02067393E-15
 -2.27940396E-14 -3.42301954E-02 -2.16539279E-01  2.26463372E-15 -1.92551916E-02
 -1.21807815E-01  7.20098316E-15 -4.76589672E-17  5.69799253E-03  3.60453448E-02
 -1.13081375E-15  8.88799025E-16 -1.38062628E-15 -5.06705418E-15  1.26381595E-14
 -6.39788686E-01  1.01136809E-01  4.98630481E-15 -2.57281519E-01  4.06706658E-02
  8.43148316E-15  4.05338861E-16 -5.87048507E-02  9.27997229E-03 -1.01191836E-15
 -7.72778517E-16  7.98317793E-17  1.64638043E-15 -1.32086251E-14 -2.16539279E-01
  3.42301954E-02  8.27593580E-16 -1.21807815E-01  1.92551916E-02  5.52186959E-15
  7.01821178E-16  3.60453448E-02 -5.69799253E-03  6.65498138E-16  3.70826776E-16
 -2.38513802E-02 -3.41337261E-01 -5.32357840E-01  2.41711021E-15 -1.64674674E-14
  5.30944614E-01  9.80573869E-18 -7.29731889E-15  1.13051037E-01  7.85621774E-02
  5.64325513E-16 -3.77405912E-15  5.95512256E-16  1.09166593E-17 -4.52883643E-02
  1.55463256E-01  3.10133419E-01  1.82686421E-15 -4.67091068E-15 -4.03566651E-02
  1.89183213E-15 -2.05934949E-16  1.94410753E-02  2.87035293E-02  2.00010163E-16
 -2.68041117E-15 -1.93182034E-16  4.89072714E-16 -1.85707248E-02 -7.90219792E-02
  2.91945779E-01 -8.78173366E-17 -4.33814442E-16 -2.76979816E-01  3.71910477E-16
  2.11728200E-15 -6.67617603E-03 -2.45357063E-02 -8.18301185E-16 -1.02700218E-15
 -3.72317715E-16  8.21285892E-17 -2.01048996E-02  1.90791213E-01  4.11632359E-01
 -2.19628810E-16  3.43713275E-16  4.30117051E-01 -3.68608818E-16 -2.21278984E-15
  3.96801912E-01  1.77918124E-02 -1.15362700E-15 -2.48903448E-15  1.26307041E-15
 -2.40202032E-16  4.28604838E-16  1.80079621E-16 -1.95834441E-14  2.71661469E-01
 -1.70660650E-01  4.22506658E-16  6.63930858E-01 -4.17088489E-01 -8.87901912E-15
 -1.59629668E-16 -1.45248673E-02  9.12467748E-03 -3.57070187E-16 -3.49178821E-16
 -2.19504447E-16  1.62589800E-16  1.92515276E-14 -3.44481576E-01  2.16407023E-01
 -2.62889348E-16 -8.65712937E-01  5.43850157E-01 -8.20316110E-15  2.61141500E-16
  5.50591981E-03 -3.45887790E-03  2.43127066E-16  4.00156024E-17 -6.68688273E-16
 -1.95683891E-15  2.68248462E-15 -1.70660650E-01 -2.71661469E-01 -9.69137849E-16
 -4.17088489E-01 -6.63930858E-01 -2.09099960E-15  2.20075284E-16  9.12467748E-03
  1.45248673E-02 -6.09185898E-16  1.07369055E-15  6.43229458E-16  2.15937066E-15
  7.65694346E-16  2.16407023E-01  3.44481576E-01  2.79108153E-16  5.43850157E-01
  8.65712937E-01  6.91117764E-16 -1.27582393E-15 -3.45887790E-03 -5.50591981E-03
  1.43249565E-15 -1.72185150E-15  1.68476884E-03  1.78930654E-01  7.07119231E+00
 -4.34913627E-15 -3.48563463E-15 -5.03357640E-02  6.70323024E-15 -2.69817744E-16
  3.63628885E+00  6.41001678E-02 -3.45731237E-17  7.74317167E-16  5.40736836E-17
  1.52524782E-17  4.14591652E-02 -1.27445940E-01 -7.24059339E+00 -4.09657837E-15
  2.13111042E-15 -4.94939297E-02  5.48613202E-17  2.36714720E-15  3.55223253E+00
 -7.34861016E-02  4.60629648E-16  1.46043753E-15  9.64089705E-17  1.13919661E-16
 -1.69565470E-01 -3.49505371E-01 -2.97672425E-01 -4.75976549E-15  1.07118769E-15
 -3.72509794E-01  7.73805019E-15 -3.09337070E-15  1.03087314E+00 -1.21265269E-02
 -4.07850694E-16  2.21359701E-16 -2.96368109E-16  7.62819931E-17 -1.72562601E-01
 -2.99405100E-01  2.58154860E-01 -3.20926109E-15  3.66081781E-16  3.86905613E-01
  1.49898258E-15  2.14119868E-16 -1.23027968E+00 -3.01792321E-03  8.50827216E-16
 -1.25104611E-16 -9.58624443E-17 -4.16464659E-17 -1.60907563E-17 -1.27299307E-15
 -3.01444416E-14 -4.83668312E-01 -4.41473260E-01  2.73277206E-15  6.86937651E-01
  6.27009454E-01 -2.32156325E-14 -1.85620930E-16 -5.62305814E-02 -5.13250455E-02
 -9.08268235E-16  8.05674869E-16  1.54226979E-15  4.35755348E-15  3.12179941E-14
 -3.39778995E-01 -3.10136797E-01 -2.38227712E-16  2.02540203E-01  1.84870668E-01
 -1.28902777E-14  7.84977912E-17  8.00838345E-02  7.30973492E-02 -1.04926534E-15
  8.89022027E-16  1.02755746E-17  8.81502086E-16  1.32189298E-14  4.41473260E-01
 -4.83668312E-01 -4.13516873E-15 -6.27009454E-01  6.86937651E-01  1.67573047E-14
 -2.09576888E-16  5.13250455E-02 -5.62305814E-02  5.59904641E-16  5.53131293E-17
 -8.26631428E-16 -2.46632366E-15 -1.60495723E-14  3.10136797E-01 -3.39778995E-01
  1.93365465E-15 -1.84870668E-01  2.02540203E-01  1.34990716E-15 -4.16138654E-16
 -7.30973492E-02  8.00838345E-02  3.38814123E-16  1.81897262E-17  4.57720814E-01
  1.07793194E+00 -1.83589161E+00 -7.62841287E-17  1.52857412E-15 -3.31072557E-01
 -1.79543960E-15 -2.78810492E-15 -2.31991830E-01  4.05720412E-02 -6.98554366E-16
 -1.23395073E-16 -7.19007956E-17  2.44541683E-16  3.88969324E-01  9.81383829E-01
  3.74551831E-02 -1.48214501E-15 -1.00261273E-15  3.03091041E-01  2.88215004E-15
  2.20610591E-15 -5.04909312E-01  5.09861034E-02 -9.61856970E-17 -6.60844180E-16
  7.24469993E-17  9.57484736E-17 -8.63418473E-16 -2.00198997E-15  7.22428028E-15
  5.29645583E-01  1.82912155E-01  2.78299392E-16 -1.12493079E+00 -3.88492838E-01
  2.90243965E-15  1.44138994E-16 -2.03511896E-01 -7.02824695E-02 -1.17921127E-15
 -2.81818869E-16 -8.96257882E-16 -2.27236473E-15 -3.85507116E-15 -8.20500239E-01
 -2.83358291E-01 -7.36496170E-16  1.27622465E+00  4.40741902E-01  2.77503667E-15
 -7.58551116E-17 -1.26741381E-01 -4.37699094E-02 -1.69808093E-15 -3.88560662E-16
  3.42981677E-16  1.28029898E-15  6.73856360E-15 -1.82912155E-01  5.29645583E-01
 -8.04295897E-16  3.88492838E-01 -1.12493079E+00  3.60226222E-15 -5.48724682E-16
  7.02824695E-02 -2.03511896E-01 -9.44286015E-16  3.57647077E-16 -8.18248958E-16
 -2.87875407E-15 -4.91422975E-15  2.83358291E-01 -8.20500239E-01 -9.27921798E-16
 -4.40741902E-01  1.27622465E+00  5.67656185E-15  2.24339993E-16  4.37699094E-02
 -1.26741381E-01 -6.04087858E-16 -5.31776171E-17  3.92128291E-01  7.46646907E-01
 -5.76076220E+00 -1.72742626E-15 -1.19735653E-15 -5.75689493E-01  1.87679478E-15
  3.34695299E-15 -1.93604044E+00  2.16395952E-01 -1.76965735E-15 -1.92704540E-16
  1.21353634E-16 -1.56545258E-16 -4.43774941E-01 -8.48427342E-01  5.85801305E+00
 -1.51870005E-16  4.93443944E-16 -6.56210306E-01  1.50222537E-15 -3.31346049E-15
 -1.91548881E+00 -2.10170597E-01  1.65202518E-15 -1.82260610E-15  1.25962245E-16
 -5.92685628E-16  1.01534631E-17 -7.48084547E-16  7.74402946E-15  3.98117181E-15
 -1.33899113E-15  6.97819746E-17 -4.01469327E-15  1.16487485E-15  2.96774713E-15
  7.61707306E-16 -7.26381386E-15 -7.21384427E-17 -6.85132587E-01  6.18337532E-02
  7.91149207E-18  6.05781424E-16 -7.54077104E-15  1.00528164E-14  2.80510841E-15
  1.93767401E-16 -3.66881706E-15 -2.47085865E-15  3.93794595E-15 -9.11040257E-16
  6.79276584E-15  3.70019842E-16 -5.42602371E-01  4.89702894E-02 -1.51390098E-17
 -2.76062067E-16  5.67503602E-15 -3.02347248E-17  1.14242122E-15  4.05369224E-16
  2.38339634E-15  1.98415091E-15  2.28295007E-15 -3.42819110E-16 -2.00552709E-15
 -2.10349614E-15 -6.18337532E-02 -6.85132587E-01  7.59229658E-16  1.41547716E-15
 -6.59657072E-15  2.34666534E-15  1.87934308E-15  2.90913706E-16 -1.54026882E-15
  9.92314385E-16  2.56747204E-15 -1.32534193E-16  2.35430091E-15  1.14910854E-15
 -4.89702894E-02 -5.42602371E-01  4.41091025E-01  1.06000276E+00 -8.28468194E+00
 -7.67649728E-15  2.03333128E-15  1.77618723E-01  1.61609032E-15  2.22826408E-15
 -3.30752851E+00 -5.29320802E-01  8.64922835E-15 -9.51591126E-15  3.28013040E-15
  3.59253176E-15 -4.34701513E-01 -1.12013494E+00  8.27477285E+00 -6.34893758E-15
  7.61042898E-15  1.65561753E-01  6.74192294E-15 -3.57600129E-15 -3.26438371E+00
  4.72024267E-01 -1.20619314E-14  2.98117524E-15 -4.94895991E-15 -4.00656844E-15
  3.57909005E-16  8.66832733E-16 -9.86959253E-16 -1.76597649E-01 -2.90806196E-01
  7.67143383E-16  5.13065409E-02  8.44873081E-02 -8.50807434E-16  2.56399137E-16
  3.29446540E-01  5.42504928E-01 -6.08246299E-15 -4.85732947E-15 -3.06620232E-16
 -1.07782536E-15  8.62095262E-16 -2.13110764E-01 -3.50932930E-01  1.52759799E-16
  6.28471881E-02  1.03491478E-01 -9.25964811E-16 -4.67889431E-16 -3.13355546E-01
 -5.16007630E-01 -5.08040221E-15 -2.18121015E-16  6.73699062E-15  1.69239897E-14
 -1.13322990E-13  2.90806196E-01 -1.76597649E-01  4.01634255E-15 -8.44873081E-02
  5.13065409E-02 -4.67226938E-14 -1.40018289E-14 -5.42504928E-01  3.29446540E-01
 -3.09916174E-15  1.72663224E-14 -3.89929434E-15 -1.42079236E-14  1.11418990E-13
  3.50932930E-01 -2.13110764E-01  2.74435192E-15 -1.03491478E-01  6.28471881E-02
 -4.23294493E-14  7.68086229E-15  5.16007630E-01 -3.13355546E-01  2.04792119E-14
 -1.91624588E-14  6.35044217E-16  1.73975150E-15 -1.56595434E-14  6.43285551E-15
 -1.92566788E-15 -7.24107599E-16 -3.81310389E-15  3.95324254E-16 -6.27488076E-15
 -8.30578916E-16 -1.70178821E-14  1.05292277E-14  4.26807973E-01 -6.69700973E-01
 -6.05274384E-16 -1.60599622E-15  1.60418605E-14  1.22273281E-14 -6.10586191E-15
  2.54525513E-16 -1.43835148E-15  2.28860194E-15 -6.28262820E-15  6.49761151E-16
  1.21743050E-14 -3.38169420E-15 -4.82826836E-01  7.57599723E-01  4.45606327E-15
  9.26634952E-15 -5.97691892E-14  6.64357374E-16 -3.13236385E-16  1.80187161E-15
 -2.10296332E-16 -2.75605968E-16 -2.51695227E-14 -5.94703907E-15  2.28389789E-16
 -1.57186749E-15 -6.69700973E-01 -4.26807973E-01 -1.70921699E-15 -5.42395897E-15
  5.73802496E-14 -6.31184219E-16  2.39337063E-16 -7.55442459E-17  1.25834234E-15
 -4.35507140E-16 -2.16460934E-14  8.57270464E-16  2.46746912E-16  7.20839384E-16
  7.57599723E-01  4.82826836E-01  5.75462643E-01  8.76509067E-01 -3.13368616E-01
 -4.87585932E-16 -3.79235998E-15  2.05413448E-01  3.87368261E-16 -4.50548328E-15
 -7.21401925E-01 -1.02228958E+00  1.64677230E-15 -1.08091592E-14  1.59794871E-15
  1.31874072E-15  6.02494461E-01  9.65841416E-01 -5.22159128E-01 -1.40461656E-15
  5.30558290E-15 -2.11623601E-01  2.17505405E-16  3.58261354E-15  8.21574677E-01
 -1.03901383E+00 -9.89841246E-16 -9.04816457E-15 -1.68929995E-15 -1.02462039E-15
 -6.28611248E-15 -1.14539093E-14  5.09613827E-14 -5.56409621E-01 -3.30780675E-01
 -3.91666769E-15 -5.16278572E-01 -3.06923116E-01  2.34371416E-14  3.92680372E-15
 -1.14967391E+00 -6.83471131E-01  5.55485118E-16  1.16119788E-16  1.57977138E-15
  3.91386088E-15 -4.83814340E-14  5.78400592E-01  3.43854116E-01 -2.55902743E-15
  5.16638368E-01  3.07137012E-01  1.59188833E-14  4.22218007E-15 -1.16982539E+00
 -6.95451012E-01  3.44884431E-16 -4.55283066E-19 -8.70815094E-15 -1.49324666E-14
  5.38219925E-14  3.30780675E-01 -5.56409621E-01 -6.50856457E-15  3.06923116E-01
 -5.16278572E-01  2.61146213E-14  5.32957935E-15  6.83471131E-01 -1.14967391E+00
  1.63846564E-15 -1.25935175E-15  9.50961660E-16  2.82295796E-15 -4.88892756E-14
 -3.43854116E-01  5.78400592E-01 -2.90363709E-15 -3.07137012E-01  5.16638368E-01
  1.44896136E-14  8.64033849E-15  6.95451012E-01 -1.16982539E+00 -1.90349183E-15
  2.23349059E-15 -8.79768998E-01 -1.67507564E+00 -2.74522017E+00 -3.05586023E-16
  3.04357480E-15 -1.70461780E+00  9.63873215E-16  3.92901395E-15 -1.20680644E+00
 -1.12174164E+00  1.51592321E-15  5.43428702E-15 -3.57948313E-17  3.58824001E-16
  8.76012712E-01  1.67546360E+00  2.73698296E+00 -4.12401502E-16 -2.32028656E-15
 -1.74079087E+00  1.64203905E-15 -4.25041139E-15 -1.21412180E+00  1.13354630E+00
 -1.16441933E-15  6.03562975E-15 -5.58991403E-17 -1.14558809E-17
Beta MO coefficients                       R   N=         784
 -9.80195345E-02  5.63553873E-03 -1.29967595E-02  7.27978762E-17  2.12975241E-16
  2.97418914E-03 -1.26545324E-16 -1.11978997E-16 -3.97822084E-03 -4.04721251E-05
  8.60857118E-17 -2.90741169E-17 -1.57216038E-16 -1.62102719E-17 -9.99682082E-01
 -1.25052321E-02  1.85949929E-02 -1.69222012E-16  2.63212904E-16  6.50584318E-03
 -8.10911184E-17  1.06232046E-16 -5.00974757E-03 -1.35358427E-03  1.79276499E-16
  5.11401434E-17  4.81183723E-17 -1.22855763E-17 -9.93459169E-01  4.36679288E-03
 -3.23738013E-03  3.88245260E-17  1.66462116E-17 -3.59097163E-03  2.94053133E-17
  1.08300879E-16 -5.37058673E-04 -3.37179519E-03 -6.34963894E-17  5.79603617E-17
  1.62783253E-16 -1.08456017E-17  1.04729164E-01  2.08900494E-03  1.05937535E-03
  1.77415376E-17  1.28252610E-16  5.73132650E-04 -9.48050805E-17  1.37953376E-16
 -5.84130668E-04 -5.76084071E-04 -4.22644510E-17 -7.59213418E-17 -1.65697107E-16
 -1.58636818E-17 -7.01220169E-02  2.10691209E-01  1.03003882E-01 -5.28277484E-16
 -4.34926385E-17  2.19492516E-01 -1.74669239E-16  1.04917267E-16  5.14348703E-03
  5.14847951E-02  3.42839698E-17  5.45441127E-16  1.60675741E-17 -1.68184388E-16
 -6.93552069E-03  4.40809705E-01  1.89577881E-01 -2.54251561E-16  2.34798479E-16
 -3.02565066E-01  4.15322718E-16 -1.63542565E-16 -4.85596180E-02  1.41693388E-02
  1.44142727E-17  7.04467179E-16  5.52127130E-16  2.33521704E-17  6.94392422E-16
 -1.07271227E-14  5.21296514E-15 -2.06176420E-02 -2.18256451E-01  1.93855432E-15
 -1.15978493E-02 -1.22773760E-01  1.36154169E-14 -6.94042001E-16 -3.43203329E-03
 -3.63311869E-02 -2.11261880E-15  1.64824098E-15  1.56001228E-15  1.61005623E-14
 -1.29148601E-15 -6.09170501E-02 -6.44862257E-01  1.88104308E-14 -2.44968870E-02
 -2.59321780E-01  1.36018195E-14 -4.09699913E-15  5.58954293E-03  5.91703844E-02
  1.90411902E-15  5.58407271E-16 -3.01791728E-15  6.46039509E-15 -4.03968626E-16
  2.18256451E-01 -2.06176420E-02 -2.57940470E-15  1.22773760E-01 -1.15978493E-02
 -9.43699871E-15 -3.86978015E-16  3.63311869E-02 -3.43203329E-03 -3.43834799E-16
 -2.44775607E-16 -1.29163222E-15 -1.57034912E-14 -3.85402937E-15  6.44862257E-01
 -6.09170501E-02 -2.25576441E-14  2.59321780E-01 -2.44968870E-02 -1.39235812E-14
  5.24609973E-15 -5.91703844E-02  5.58954293E-03  3.39850767E-16 -2.41213524E-16
 -4.52883643E-02  1.55463256E-01  3.10133419E-01 -1.06597189E-14 -8.21752329E-15
  4.03566651E-02 -4.43390049E-15 -2.97853295E-15 -1.94410753E-02  2.87035293E-02
 -1.56194729E-15 -3.82180217E-15  2.10764522E-16  3.86518171E-16 -2.38513802E-02
 -3.41337261E-01 -5.32357840E-01 -3.13404577E-14 -2.38164768E-14 -5.30944614E-01
 -1.30470770E-14 -1.07937317E-14 -1.13051037E-01  7.85621774E-02  1.03282455E-15
 -1.05890312E-15  1.15048747E-15 -4.63818612E-16 -2.01048996E-02  1.90791213E-01
  4.11632359E-01 -8.13003838E-16 -2.33124601E-15 -4.30117051E-01 -2.10371963E-15
 -1.58594780E-15 -3.96801912E-01  1.77918124E-02  5.01359507E-16 -1.68788175E-15
  8.46449596E-16 -7.65192463E-17 -1.85707248E-02 -7.90219792E-02  2.91945779E-01
 -4.41014819E-15 -5.60353837E-15  2.76979816E-01 -1.54490072E-15 -9.39787266E-16
  6.67617603E-03 -2.45357063E-02  7.55766778E-16 -8.52173305E-16 -8.69403385E-16
  1.28296975E-16 -2.12331778E-16 -3.88122114E-16  1.91050587E-14 -2.77759208E-01
  2.97236234E-01  5.81486720E-16 -6.98033671E-01  7.46981175E-01  8.86285807E-15
  5.59634126E-16 -4.43948248E-03  4.75078779E-03  3.56990793E-16  3.77261276E-16
  3.34052794E-16  9.74801050E-16 -1.90596200E-14  2.19043570E-01 -2.34403339E-01
  4.68220788E-16  5.35334607E-01 -5.72873329E-01  1.01612533E-14 -2.00157132E-16
  1.17115570E-02 -1.25327946E-02  1.42083035E-16  4.92823334E-16 -6.35259630E-16
 -1.42241125E-15 -1.30106014E-14 -2.97236234E-01 -2.77759208E-01 -4.81958156E-16
 -7.46981175E-01 -6.98033671E-01 -6.50187258E-15  4.88827578E-16 -4.75078779E-03
 -4.43948248E-03 -5.40874124E-16 -7.09296569E-16  5.88526207E-16  8.06443132E-16
  1.03708541E-14  2.34403339E-01  2.19043570E-01 -1.35851257E-15  5.72873329E-01
  5.35334607E-01 -9.26040264E-15 -1.48082445E-16  1.25327946E-02  1.17115570E-02
  1.45333297E-15 -1.40946212E-15 -4.14591652E-02  1.27445940E-01  7.24059339E+00
 -3.99872277E-15 -2.51090346E-15 -4.94939297E-02  8.93296869E-17 -5.54569176E-15
  3.55223253E+00  7.34861016E-02 -2.42882602E-16  6.21515664E-16  1.60278968E-16
  3.99563867E-17 -1.68476884E-03 -1.78930654E-01 -7.07119231E+00 -4.56492907E-15
  3.04698224E-15 -5.03357640E-02  6.68504896E-15  2.89230243E-15  3.63628885E+00
 -6.41001678E-02  1.43922059E-16  1.03397616E-15  9.00669442E-18  1.65399139E-16
  1.72562601E-01  2.99405100E-01 -2.58154860E-01  2.00240633E-15 -8.12486673E-16
  3.86905613E-01 -1.13245604E-15 -1.63137538E-15 -1.23027968E+00  3.01792321E-03
  2.98443089E-16 -4.37168984E-16 -1.18025044E-16 -3.70784710E-16  1.69565470E-01
  3.49505371E-01  2.97672425E-01  2.76431639E-15 -1.80807915E-15 -3.72509794E-01
 -2.23014309E-15  3.65442869E-15  1.03087314E+00  1.21265269E-02 -4.26697092E-16
 -2.65692821E-16 -5.34719199E-19 -4.10351430E-16 -5.96542248E-16 -1.72550585E-15
  4.01563724E-15  7.90679890E-02  4.53191848E-01  1.39462652E-15 -4.71319498E-02
 -2.70144918E-01 -1.40640999E-15 -1.27547815E-16  1.86358422E-02  1.06814551E-01
  9.27968827E-16 -8.27180003E-16 -1.83928535E-16 -6.82739487E-16 -5.49565011E-16
  1.12551633E-01  6.45109142E-01 -3.89557607E-16 -1.59853256E-01 -9.16226571E-01
  2.59389036E-15 -2.49004027E-16 -1.30850908E-02 -7.49994599E-02  7.73128158E-16
 -1.24476508E-15  7.52499070E-17 -1.75811047E-15 -3.82199624E-14 -4.53191848E-01
  7.90679890E-02  2.23409189E-15  2.70144918E-01 -4.71319498E-02 -2.53483363E-14
  8.47548089E-17 -1.06814551E-01  1.86358422E-02 -7.74599749E-16 -1.69087291E-16
  1.92893555E-15  5.34625405E-15  3.65979771E-14 -6.45109142E-01  1.12551633E-01
  4.94305093E-16  9.16226571E-01 -1.59853256E-01 -1.75494469E-14 -8.49758442E-17
  7.49994599E-02 -1.30850908E-02 -1.39030459E-15 -1.24288968E-16 -3.88969324E-01
 -9.81383829E-01 -3.74551832E-02  9.79033504E-16  5.58774330E-15  3.03091041E-01
 -2.61521193E-15 -9.81024436E-15 -5.04909312E-01 -5.09861034E-02 -4.88728446E-16
 -1.43018471E-15  3.42281906E-17  3.19196423E-17 -4.57720814E-01 -1.07793194E+00
  1.83589161E+00 -1.65921875E-15 -4.72448075E-15 -3.31072557E-01  3.50279326E-15
  1.07423830E-14 -2.31991830E-01 -4.05720412E-02 -2.85663412E-16 -2.00164720E-15
  2.83607903E-16 -5.84383121E-17  1.39753436E-15  3.39056225E-15 -1.12942242E-15
  8.51619715E-01  1.68096473E-01 -1.22923193E-15 -1.32462859E+00 -2.61461059E-01
  2.41888497E-15  4.14434185E-16 -1.31548358E-01 -2.59655977E-02 -5.82791667E-16
  4.79003491E-16  1.27379503E-15  3.28302705E-15 -5.34227780E-15 -5.49733686E-01
 -1.08508871E-01  9.01702028E-16  1.16759654E+00  2.30465378E-01 -2.92230717E-17
  4.82880314E-17 -2.11230582E-01 -4.16936281E-02 -1.00323252E-15  1.07198497E-15
  3.02783425E-15  8.00383312E-15  2.60047506E-15 -1.68096473E-01  8.51619715E-01
 -2.93489207E-15  2.61461059E-01 -1.32462859E+00  7.27809933E-15  3.42189717E-16