title
Stability UHF                                                         CC-pVDZ
Number of atoms                            I                2
Info1-9                                    I   N=           9
          12          11           0           0           0         110
           7           1           2
Charge                                     I                0
Multiplicity                               I                1
Number of electrons                        I               14
Number of alpha electrons                  I                7
Number of beta electrons                   I                7
Number of basis functions                  I               28
Number of independent functions            I               28
Number of point charges in /Mol/           I                0
Number of translation vectors              I                0
Atomic numbers                             I   N=           2
           7           7
Nuclear charges                            R   N=           2
  7.00000000E+00  7.00000000E+00
Current cartesian coordinates              R   N=           6
  0.00000000E+00  0.00000000E+00  1.22832199E+00  1.50426059E-16  0.00000000E+00
 -1.22832199E+00
Force Field                                I                0
Int Atom Types                             I   N=           2
           0           0
MM charges                                 R   N=           2
  0.00000000E+00  0.00000000E+00
Integer atomic weights                     I   N=           2
          14          14
Real atomic weights                        R   N=           2
  1.40030740E+01  1.40030740E+01
Atom fragment info                         I   N=           2
           0           0
Atom residue num                           I   N=           2
           0           0
Nuclear spins                              I   N=           2
           2           2
Nuclear ZEff                               R   N=           2
 -4.55000000E+00 -4.55000000E+00
Nuclear QMom                               R   N=           2
  2.04400000E+00  2.04400000E+00
Nuclear GFac                               R   N=           2
  4.03761000E-01  4.03761000E-01
MicOpt                                     I   N=           2
          -1          -1
Number of contracted shells                I               12
Number of primitive shells                 I               40
Pure/Cartesian d shells                    I                0
Pure/Cartesian f shells                    I                0
Highest angular momentum                   I                2
Largest degree of contraction              I                7
Shell types                                I   N=          12
           0           0           0           1           1          -2
           0           0           0           1           1          -2
Number of primitives per shell             I   N=          12
           7           7           1           3           1           1
           7           7           1           3           1           1
Shell to atom map                          I   N=          12
           1           1           1           1           1           1
           2           2           2           2           2           2
Primitive exponents                        R   N=          40
  9.04600000E+03  1.35700000E+03  3.09300000E+02  8.77300000E+01  2.85600000E+01
  1.02100000E+01  3.83800000E+00  9.04600000E+03  3.09300000E+02  8.77300000E+01
  2.85600000E+01  1.02100000E+01  3.83800000E+00  7.46600000E-01  2.24800000E-01
  1.35500000E+01  2.91700000E+00  7.97300000E-01  2.18500000E-01  8.17000000E-01
  9.04600000E+03  1.35700000E+03  3.09300000E+02  8.77300000E+01  2.85600000E+01
  1.02100000E+01  3.83800000E+00  9.04600000E+03  3.09300000E+02  8.77300000E+01
  2.85600000E+01  1.02100000E+01  3.83800000E+00  7.46600000E-01  2.24800000E-01
  1.35500000E+01  2.91700000E+00  7.97300000E-01  2.18500000E-01  8.17000000E-01
Contraction coefficients                   R   N=          40
  7.01708743E-04  5.40299880E-03  2.74729510E-02  1.03514580E-01  2.79586579E-01
  4.51317241E-01  2.80626875E-01  7.77446797E-06  3.00742072E-04 -2.80016549E-03
 -9.89708505E-03 -1.14331114E-01 -1.18162383E-01  1.09786885E+00  1.00000000E+00
  5.89056768E-02  3.20461107E-01  7.53042062E-01  1.00000000E+00  1.00000000E+00
  7.01708743E-04  5.40299880E-03  2.74729510E-02  1.03514580E-01  2.79586579E-01
  4.51317241E-01  2.80626875E-01  7.77446797E-06  3.00742072E-04 -2.80016549E-03
 -9.89708505E-03 -1.14331114E-01 -1.18162383E-01  1.09786885E+00  1.00000000E+00
  5.89056768E-02  3.20461107E-01  7.53042062E-01  1.00000000E+00  1.00000000E+00
Coordinates of each shell                  R   N=          36
  0.00000000E+00  0.00000000E+00  1.22832199E+00  0.00000000E+00  0.00000000E+00
  1.22832199E+00  0.00000000E+00  0.00000000E+00  1.22832199E+00  0.00000000E+00
  0.00000000E+00  1.22832199E+00  0.00000000E+00  0.00000000E+00  1.22832199E+00
  0.00000000E+00  0.00000000E+00  1.22832199E+00  1.50426059E-16  0.00000000E+00
 -1.22832199E+00  1.50426059E-16  0.00000000E+00 -1.22832199E+00  1.50426059E-16
  0.00000000E+00 -1.22832199E+00  1.50426059E-16  0.00000000E+00 -1.22832199E+00
  1.50426059E-16  0.00000000E+00 -1.22832199E+00  1.50426059E-16  0.00000000E+00
 -1.22832199E+00
Constraint Structure                       R   N=           6
  0.00000000E+00  0.00000000E+00  1.22832199E+00  1.50426059E-16  0.00000000E+00
 -1.22832199E+00
Num ILSW                                   I              100
ILSW                                       I   N=         100
           1           0           0           0           2           1
           0           0           0           0           0          -1
           0           0           0           0           0           0
           0           0           0           0           0           0
           1           0           0           0           0           0
           0           0      100000           0          -1           0
           0           0           0           0           0           0
           0           0           0           1           0           0
           0           0           1           0           0           0
           0           0           4          40           0           0
           0           0           0           0           0           0
           0           0           0           0           0           0
           0           0           0           0           0           0
           0           0           0           0           0           0
           0           0           0           0           0           0
           0           0           0           0           0           0
           0           0           0           0
Num RLSW                                   I               40
RLSW                                       R   N=          40
  1.00000000E+00  1.00000000E+00  1.00000000E+00  1.00000000E+00  1.00000000E+00
  0.00000000E+00  0.00000000E+00  1.00000000E+00  0.00000000E+00  0.00000000E+00
  0.00000000E+00  0.00000000E+00  1.00000000E+00  0.00000000E+00  0.00000000E+00
  0.00000000E+00  0.00000000E+00  1.00000000E+00  0.00000000E+00  0.00000000E+00
  0.00000000E+00  0.00000000E+00  1.00000000E+00  0.00000000E+00  0.00000000E+00
  0.00000000E+00  0.00000000E+00  1.00000000E+00  0.00000000E+00  0.00000000E+00
  0.00000000E+00  0.00000000E+00  1.00000000E+00  0.00000000E+00  0.00000000E+00
  0.00000000E+00  0.00000000E+00  0.00000000E+00  1.00000000E+00  1.00000000E+00
MxBond                                     I                1
NBond                                      I   N=           2
           1           1
IBond                                      I   N=           2
           2           1
RBond                                      R   N=           2
  1.00000000E+00  1.00000000E+00
Virial Ratio                               R      2.004545963942753E+00
SCF Energy                                 R     -1.088799179299420E+02
Total Energy                               R     -1.088799179299420E+02
S**2                                       R      1.033422383499848E+00
S**2 after annihilation                    R      1.502339525322467E+00
RMS Density                                R      8.115634931128895E-10
External E-field                           R   N=          35
  0.00000000E+00  0.00000000E+00  0.00000000E+00  0.00000000E+00  0.00000000E+00
  0.00000000E+00  0.00000000E+00  0.00000000E+00  0.00000000E+00  0.00000000E+00
  0.00000000E+00  0.00000000E+00  0.00000000E+00  0.00000000E+00  0.00000000E+00
  0.00000000E+00  0.00000000E+00  0.00000000E+00  0.00000000E+00  0.00000000E+00
  0.00000000E+00  0.00000000E+00  0.00000000E+00  0.00000000E+00  0.00000000E+00
  0.00000000E+00  0.00000000E+00  0.00000000E+00  0.00000000E+00  0.00000000E+00
  0.00000000E+00  0.00000000E+00  0.00000000E+00  0.00000000E+00  0.00000000E+00
IOpCl                                      I                1
IROHF                                      I                0
Alpha Orbital Energies                     R   N=          28
  9.99999594E-01  9.99999393E-01  9.99439285E-01  9.98360356E-01  9.98163482E-01
  9.85848804E-01  9.85848804E-01  1.41511956E-02  1.41511956E-02  1.83651779E-03
  1.63964362E-03  5.60715305E-04  6.07036218E-07  4.05966892E-07  1.42076916E-16
  1.16692751E-16  8.69834744E-17  1.26783899E-17  3.05778027E-18  3.07886680E-19
 -8.54799136E-20 -2.50931039E-18 -4.40006609E-18 -2.35895318E-17 -7.18438894E-17
 -8.36823272E-17 -1.14073053E-16 -1.48800775E-16
Beta Orbital Energies                      R   N=          28
  9.99999594E-01  9.99999393E-01  9.99439285E-01  9.98360356E-01  9.98163482E-01
  9.85848804E-01  9.85848804E-01  1.41511956E-02  1.41511956E-02  1.83651779E-03
  1.63964362E-03  5.60715305E-04  6.07036218E-07  4.05966892E-07  1.42076916E-16
  1.16692751E-16  8.69834744E-17  1.26783899E-17  3.05778027E-18  3.07886680E-19
 -8.54799136E-20 -2.50931039E-18 -4.40006609E-18 -2.35895318E-17 -7.18438894E-17
 -8.36823272E-17 -1.14073053E-16 -1.48800775E-16
Alpha MO coefficients                      R   N=         784
 -7.07298189E-01  1.51224132E-02  1.02176968E-02 -1.40348164E-15 -4.06855202E-15
  7.85501725E-03 -7.52107561E-16 -1.96186892E-15  6.59351377E-04 -2.55624399E-04
  9.24544484E-17 -4.28780293E-16  3.88435537E-17 -5.69072244E-17 -7.07298178E-01
  1.51224132E-02  1.02176966E-02 -1.66384704E-15 -3.75020430E-15 -7.85501738E-03
 -6.95170876E-16 -1.38334860E-15 -6.59351387E-04 -2.55624373E-04  2.52591495E-16
  2.90343623E-16  4.07330779E-17 -1.95778414E-17  7.10385068E-01 -1.44539202E-03
 -1.66858868E-02 -7.48286727E-15 -1.78037985E-15  9.23133870E-03 -3.45625549E-15
 -1.25233215E-15  7.18483089E-04  1.79883405E-03 -6.42825539E-16 -3.28208001E-16
  2.51270432E-17 -3.91534922E-17 -7.10385078E-01  1.44539224E-03  1.66858869E-02
 -7.49212871E-15 -2.06080931E-15  9.23133859E-03 -3.62148949E-15 -6.14551770E-16
  7.18483079E-04 -1.79883405E-03  1.04006324E-15  2.50163744E-16 -4.99874586E-18
  2.00405578E-17 -8.68163676E-03  1.46306831E-01 -1.61468986E-01  3.12641056E-15
  5.82308253E-15  5.12001987E-01  2.43007965E-15  1.53595054E-15  1.60050121E-01
  4.71644249E-02  5.40962045E-16  2.75390693E-16 -1.01796671E-16  3.22366465E-17
 -8.68163675E-03  1.46306831E-01 -1.61468986E-01  3.61889933E-15  6.07713390E-15
 -5.12001987E-01  1.66274708E-15  3.84339592E-15 -1.60050121E-01  4.71644249E-02
 -5.63075621E-16 -8.23732044E-16  6.65644167E-17 -1.45981776E-17  7.92598425E-03
  2.92377334E-01  3.95829454E-01  1.14554908E-14  9.81679392E-15 -2.46813849E-01
  5.49735933E-15  4.42949310E-15 -1.56241935E-01 -1.18886872E-02  1.40710194E-15
  3.77068159E-16 -4.66087078E-16  1.41848486E-16 -7.92598425E-03 -2.92377334E-01
 -3.95829454E-01  1.05937566E-14  8.03183883E-15 -2.46813849E-01  3.10609765E-15
  3.10089326E-15 -1.56241935E-01  1.18886872E-02 -1.49133693E-15 -9.89994394E-16
  7.53939530E-16 -3.80406334E-16 -2.89613702E-03  3.02838254E-01  3.57092785E-01
  2.20617059E-15 -3.10244340E-15 -1.09955561E-01  2.80594941E-16 -7.33934573E-16
 -1.17958826E-01  6.07686300E-03  2.32231891E-16 -2.30998586E-16 -1.46065187E-17
 -4.07427802E-17 -2.89613702E-03  3.02838254E-01  3.57092785E-01  1.89971229E-15
 -3.35757125E-15  1.09955561E-01  8.48671481E-16 -1.98429623E-15  1.17958826E-01
  6.07686300E-03 -6.86486518E-17  4.74107748E-16 -6.21863961E-17 -1.02850172E-17
 -8.92445175E-15  9.24991222E-15  8.43248435E-14 -4.40406124E-01 -1.02041151E-01
  4.20784322E-15 -1.94964162E-01 -4.51727766E-02  2.91494076E-14  4.45276239E-15
 -4.87296547E-02 -1.12905561E-02 -5.92539245E-16  8.33090086E-16  1.53822597E-14
 -6.55587104E-15 -8.53327860E-14 -4.40406124E-01 -1.02041151E-01 -6.37364774E-15
 -1.94964162E-01 -4.51727766E-02  2.48855078E-14 -2.56988891E-15  4.87296547E-02
  1.12905561E-02 -3.49018401E-16  1.54904381E-15 -2.74689109E-15  1.20812018E-15
 -3.34638292E-14 -1.02041151E-01  4.40406124E-01 -3.13179893E-15 -4.51727766E-02
  1.94964162E-01 -1.38499237E-14 -1.32560613E-15 -1.12905561E-02  4.87296547E-02
 -6.29943961E-17 -3.61357822E-15 -6.47149372E-15  2.86747996E-15  4.08837918E-14
 -1.02041151E-01  4.40406124E-01  1.01289736E-14 -4.51727766E-02  1.94964162E-01
 -8.67805279E-15 -7.18982232E-16  1.12905561E-02 -4.87296547E-02  9.44975709E-17
 -4.01582658E-15 -2.53604432E-15 -5.20869544E-15  2.46216212E-14  2.54128583E-01
 -7.10785447E-01 -6.86806167E-15  8.13415017E-02 -2.27508275E-01  1.09958721E-14
  1.52609259E-16  1.36052799E-02 -3.80533146E-02  8.32530388E-15 -4.25556247E-15
  3.60645709E-15  7.54391319E-15 -2.63470478E-14 -2.54128583E-01  7.10785447E-01
 -5.88470827E-15 -8.13415017E-02  2.27508275E-01  1.12206820E-14  5.50677203E-16
  1.36052799E-02 -3.80533146E-02 -2.05950653E-15 -4.86204987E-16 -1.28733326E-14
 -2.54826376E-14 -3.63393677E-13 -7.10785447E-01 -2.54128583E-01 -3.13210504E-14
 -2.27508275E-01 -8.13415017E-02 -1.60291584E-13 -3.17263780E-14 -3.80533146E-02
 -1.36052799E-02 -2.05371843E-15 -3.92837570E-15  7.08888577E-15  1.29607244E-14
  3.69875750E-13  7.10785447E-01  2.54128583E-01 -2.76284553E-14  2.27508275E-01
  8.13415017E-02 -1.75732925E-13  3.24689911E-14 -3.80533146E-02 -1.36052799E-02
 -3.46304158E-15 -9.72723945E-16 -1.90450937E-01 -6.71081229E-01 -1.05472042E+00
  1.79363642E-14  1.93154287E-14 -3.29167161E-02 -1.29685656E-14 -1.49091988E-14
 -1.00095284E+00  2.97066297E-01  2.42143861E-15  5.70318754E-15  1.30537583E-15
 -3.67501127E-15  1.90450937E-01  6.71081229E-01  1.05472042E+00 -3.13280290E-15
 -4.59366971E-16 -3.29167161E-02 -2.84037912E-15 -3.67811077E-15 -1.00095284E+00
 -2.97066297E-01  3.19755213E-15  8.23571449E-15 -1.44130572E-14  3.26493374E-16
 -3.44347837E-01 -7.03896915E-01  6.89405623E-01 -1.04023001E-14 -1.35798267E-14
  3.77752144E-01  4.77853248E-15 -9.54962528E-15 -6.08708948E-01  3.81838566E-01
  3.51145272E-16 -2.64432997E-14  6.25034208E-15  1.62961786E-15 -3.44347837E-01
 -7.03896915E-01  6.89405623E-01 -1.39057519E-15  2.15159798E-14 -3.77752144E-01
  3.66958029E-15 -7.23893985E-16  6.08708948E-01  3.81838566E-01 -7.48258752E-15
 -3.40955838E-14  7.54347755E-15 -4.63658495E-16 -4.05890577E-01 -8.25780725E-01
  1.78587110E+00 -1.07036893E-13  2.65380776E-14 -1.34504553E+00 -1.50878392E-14
  4.24729147E-14  1.16452524E+00 -1.68362512E-01 -6.93669430E-14 -3.70490955E-14
 -9.64909928E-15 -1.09698238E-14  4.05890577E-01  8.25780725E-01 -1.78587110E+00
  7.32465694E-14  5.23807851E-15 -1.34504553E+00 -1.24409710E-14 -1.41376042E-14
  1.16452524E+00  1.68362512E-01 -2.12827748E-13  1.03815255E-13  2.24972366E-14
 -1.59586874E-14  5.20968734E-01  1.12364464E+00 -7.21165569E-01 -1.48810063E-11
  1.68033260E-11  4.72339101E-02  2.36023040E-12 -2.22394181E-11 -7.63162525E-01
 -1.28448524E-01 -1.10615464E-11 -7.27899772E-12  1.68337900E-12  1.31980658E-12
  5.20968734E-01  1.12364464E+00 -7.21165568E-01 -2.00670990E-12  1.86697533E-11
 -4.72339099E-02  1.23466786E-11 -1.15030727E-11  7.63162525E-01 -1.28448524E-01
 -1.66538079E-11 -2.20127234E-12  4.48851967E-13  1.53487192E-12 -8.46939612E-01
 -1.67608566E+00  8.85016947E+00  6.39472862E-11 -3.62180710E-11 -2.36431869E-01
  9.48894154E-12  2.20254265E-11  3.34893572E+00 -3.57857620E-01  3.78553796E-11
 -2.39403998E-11 -1.13668961E-11 -9.89322295E-12  8.46939613E-01  1.67608566E+00
 -8.85016947E+00 -2.75630084E-11 -6.50715329E-11 -2.36431869E-01 -7.89535793E-12
  1.01860615E-10  3.34893572E+00  3.57857620E-01  1.27777128E-10  2.59980198E-11
 -1.12665029E-11 -1.33607801E-11 -8.00028055E-03 -1.44714195E-02 -1.51382862E-01
 -3.59391360E-01 -1.13119182E-01 -2.09466203E-02  1.31440541E-01  2.91231899E-02
 -6.68547559E-02 -1.95883244E-02  1.13209664E-01 -2.23664708E-01 -3.83735892E-01
 -3.21770392E-01  8.00028055E-03  1.44714195E-02  1.51382862E-01 -1.36181082E-01
  2.43508675E-02 -2.09466203E-02  1.15531559E-01  1.27441226E-01 -6.68547559E-02
  1.95883244E-02 -4.82890541E-01 -6.75908949E-02 -3.91234374E-01 -3.32405361E-01
  4.09802684E-01  5.14479638E-01 -3.93739881E-02  3.26312589E-11 -3.60512637E-11
  3.81698709E-01 -2.37958854E-11  8.02426700E-11 -9.72370896E-01 -9.51152948E-01
 -1.34064722E-11  4.01368233E-12 -7.02662288E-12 -9.01630474E-12  4.09802684E-01
  5.14479638E-01 -3.93739849E-02  5.22381739E-11  2.19216550E-12 -3.81698709E-01
 -5.66404287E-11 -4.55379387E-11  9.72370894E-01 -9.51152948E-01 -5.73249009E-13
  5.01147120E-12  2.42711040E-12 -6.77709611E-12  5.28273461E-02  9.55574844E-02
  9.99609303E-01 -2.76929098E-01 -5.55753258E-02  1.38314444E-01  3.35714277E-01
  6.39771967E-02  4.41454435E-01  1.29345363E-01 -1.18204901E-01  2.18940030E-01
  3.30245680E-01 -3.82905439E-01 -5.28273461E-02 -9.55574844E-02 -9.99609303E-01
 -2.31489936E-01 -1.65742043E-01  1.38314444E-01  2.64860497E-01  5.51263330E-02
  4.41454435E-01 -1.29345363E-01  8.27097084E-02 -2.66597929E-02  3.18811183E-01
 -3.98349494E-01 -2.39241282E-01 -4.32754941E-01 -4.52697000E+00 -5.79499423E-01
  4.52214392E-01 -6.26390068E-01  2.50227330E-01 -1.87100731E-01 -1.99923208E+00
 -5.85771436E-01 -5.17347608E-01  2.04038153E-01  2.04219220E-01 -9.09902100E-03
  2.39241282E-01  4.32754941E-01  4.52697000E+00  3.39310109E-01  9.87895920E-02
 -6.26390068E-01 -1.34875318E-01 -2.68251301E-01 -1.99923208E+00  5.85771436E-01
 -8.16434458E-01  4.43837572E-01  9.05340304E-02  8.55718172E-02  8.52981817E-02
  1.54292810E-01  1.61402876E+00  1.86867040E-01  5.18203775E-01  2.23330746E-01
 -7.27139124E-01  4.33858711E-01  7.12798643E-01  2.08848732E-01 -8.75979515E-02
  1.04138162E+00 -8.54417448E-02 -1.61392049E-01 -8.52981817E-02 -1.54292810E-01
 -1.61402876E+00 -1.47144630E-01 -5.50895300E-01  2.23330746E-01  6.56476379E-01
 -3.24437552E-01  7.12798643E-01 -2.08848732E-01 -1.58848753E-01  1.21998555E+00
 -8.85598560E-03  1.11761477E-01  9.92186424E-02  1.79473030E-01  1.87743442E+00
 -7.54223221E-02  4.00346186E-01  2.59777793E-01  1.16640913E+00 -6.12839969E-01
  8.29125689E-01  2.42932349E-01  6.49754037E-01  2.72252346E-01  2.43099601E-01
  1.94737792E-01 -9.92186424E-02 -1.79473030E-01 -1.87743442E+00  2.43858950E-03
 -3.62386754E-01  2.59777793E-01 -1.12782042E+00  5.92353156E-01  8.29125689E-01
 -2.42932349E-01  5.67152721E-01  3.14239309E-01 -3.26465117E-01 -1.36309631E-01
 -1.72330279E-02 -3.11722037E-02 -3.26086701E-01  1.53150185E-02  4.39544286E-03
 -4.51201290E-02 -4.28459789E-01  2.33568455E-01 -1.44008684E-01 -4.21942877E-02
 -2.13737462E-01  1.19033539E-01  1.04648162E-01  8.10266577E-01  1.72330279E-02
  3.11722037E-02  3.26086701E-01 -2.63648971E-02  1.30822208E-02 -4.51201290E-02
  4.35466874E-01 -2.40235973E-01 -1.44008684E-01  4.21942878E-02 -2.23518051E-01
  1.44836373E-01 -9.16979551E-02 -7.96675305E-01 -2.10441587E-03 -3.80660211E-03
 -3.98201659E-02  7.16083534E-02 -4.94561106E-02 -5.50985680E-03 -6.50142979E-01
 -3.06993291E-01 -1.75856595E-02 -5.15256691E-03 -2.64503826E-01 -2.36157716E-01
  7.50393332E-01 -1.48017785E-01  2.10441588E-03  3.80660212E-03  3.98201659E-02
 -8.24758836E-02  4.35889164E-02 -5.50985681E-03  6.67823868E-01  2.95777442E-01
 -1.75856595E-02  5.15256689E-03 -2.48875163E-01 -2.76302974E-01 -7.35775463E-01
  1.60922148E-01  2.38781032E-02  4.31922412E-02  4.51826107E-01  6.67798174E-03
  2.71115428E-01  6.25185026E-02 -6.02628019E-01 -1.49127670E+00  1.99538598E-01
  5.84644535E-02 -2.72380883E-01 -4.23068357E-01 -2.35067926E-01  7.03550011E-02
 -2.38781032E-02 -4.31922412E-02 -4.51826107E-01 -3.74458956E-02 -2.14334267E-01
  6.25185026E-02  5.97104859E-01  1.41685164E+00  1.99538598E-01 -5.84644536E-02
 -3.58195597E-01 -4.62710417E-01  3.00786023E-01 -3.84167030E-02  4.46197508E-02
  8.07110608E-02  8.44303591E-01 -4.97797547E-01 -1.39048466E-01  1.16825025E-01
  2.87795626E-01  1.44377526E-01  3.72867243E-01  1.09249438E-01 -8.36489986E-01
  3.29248931E-01 -2.41777260E-01  1.80584479E-01 -4.46197508E-02 -8.07110608E-02
 -8.44303591E-01  1.85361608E-01 -2.95332699E-01  1.16825025E-01  2.55746354E-01
  1.30802884E-01  3.72867243E-01 -1.09249438E-01 -3.04744522E-01 -5.58781420E-02
 -2.22048549E-01  2.04594621E-01 -7.48160544E-02 -1.35332067E-01 -1.41568391E+00
 -7.57601950E-03  3.37012438E-01 -1.95886066E-01  2.17199921E-01 -2.89488743E-01
 -6.25204207E-01 -1.83183719E-01  5.57010280E-01 -1.59205948E-02 -1.43219397E-01
  9.88724067E-02  7.48160544E-02  1.35332067E-01  1.41568391E+00 -7.57944982E-01
  3.53488426E-01 -1.95886066E-01  5.44106797E-01 -3.84129902E-01 -6.25204207E-01
  1.83183719E-01  5.24962815E-01  4.35963164E-02 -6.53598712E-02  1.18307328E-01
  3.53554829E-01  6.39532601E-01  6.69003314E+00 -2.07135084E-01  2.37975357E-01
  9.25689880E-01 -6.54707322E-02 -1.43293577E-01  2.95449911E+00  8.65662975E-01
 -3.53111325E-01 -1.64833335E-01  5.89846179E-03 -1.39725636E-02 -3.53554829E-01
 -6.39532601E-01 -6.69003314E+00  2.24822478E-01  4.88195570E-01  9.25689880E-01
  1.55434803E-02 -5.34307767E-01  2.95449911E+00 -8.65662975E-01 -4.28041681E-01
 -3.01325606E-02  2.43916150E-02  3.32630256E-03 -1.01671014E-01 -1.83909036E-01
 -1.92383867E+00  3.61355025E-01  2.73862962E-01 -2.66198679E-01 -2.22214680E-01
 -3.22232390E-01 -8.49619057E-01 -2.48936869E-01 -2.18849710E-01  4.21558145E-01
 -1.66304230E-01 -2.30250177E-01  1.01671014E-01  1.83909036E-01  1.92383867E+00
  3.42856026E-01  5.86500939E-02 -2.66198679E-01 -2.76583996E-01 -2.39350709E-01
 -8.49619057E-01  2.48936870E-01  2.82235008E-01 -1.04841114E-01 -1.87891352E-01
 -2.52875471E-01  2.67138288E-02  4.83216831E-02  5.05484258E-01 -1.29865674E-01
 -1.90223454E-01  6.99431007E-02 -3.45646487E-02  1.75065757E-01  2.23235485E-01
  6.54075992E-02  3.83257880E-01  6.18804187E-01  5.93095602E-02  1.03444965E-01
 -2.67138288E-02 -4.83216830E-02 -5.05484258E-01 -1.76457491E-01 -2.26495832E-01
  6.99431007E-02  3.37589395E-02 -1.69224643E-01  2.23235485E-01 -6.54075992E-02
 -3.44317467E-01 -3.54749390E-01  6.79222849E-02  1.20205739E-01
Beta MO coefficients                       R   N=         784
 -7.07298189E-01  1.51224132E-02  1.02176968E-02 -1.40348164E-15 -4.06855202E-15
  7.85501725E-03 -7.52107561E-16 -1.96186892E-15  6.59351377E-04 -2.55624399E-04
  9.24544484E-17 -4.28780293E-16  3.88435537E-17 -5.69072244E-17 -7.07298178E-01
  1.51224132E-02  1.02176966E-02 -1.66384704E-15 -3.75020430E-15 -7.85501738E-03
 -6.95170876E-16 -1.38334860E-15 -6.59351387E-04 -2.55624373E-04  2.52591495E-16
  2.90343623E-16  4.07330779E-17 -1.95778414E-17  7.10385068E-01 -1.44539202E-03
 -1.66858868E-02 -7.48286727E-15 -1.78037985E-15  9.23133870E-03 -3.45625549E-15
 -1.25233215E-15  7.18483089E-04  1.79883405E-03 -6.42825539E-16 -3.28208001E-16
  2.51270432E-17 -3.91534922E-17 -7.10385078E-01  1.44539224E-03  1.66858869E-02
 -7.49212871E-15 -2.06080931E-15  9.23133859E-03 -3.62148949E-15 -6.14551770E-16
  7.18483079E-04 -1.79883405E-03  1.04006324E-15  2.50163744E-16 -4.99874586E-18
  2.00405578E-17 -8.68163676E-03  1.46306831E-01 -1.61468986E-01  3.12641056E-15
  5.82308253E-15  5.12001987E-01  2.43007965E-15  1.53595054E-15  1.60050121E-01
  4.71644249E-02  5.40962045E-16  2.75390693E-16 -1.01796671E-16  3.22366465E-17
 -8.68163675E-03  1.46306831E-01 -1.61468986E-01  3.61889933E-15  6.07713390E-15
 -5.12001987E-01  1.66274708E-15  3.84339592E-15 -1.60050121E-01  4.71644249E-02
 -5.63075621E-16 -8.23732044E-16  6.65644167E-17 -1.45981776E-17  7.92598425E-03
  2.92377334E-01  3.95829454E-01  1.14554908E-14  9.81679392E-15 -2.46813849E-01
  5.49735933E-15  4.42949310E-15 -1.56241935E-01 -1.18886872E-02  1.40710194E-15
  3.77068159E-16 -4.66087078E-16  1.41848486E-16 -7.92598425E-03 -2.92377334E-01
 -3.95829454E-01  1.05937566E-14  8.03183883E-15 -2.46813849E-01  3.10609765E-15
  3.10089326E-15 -1.56241935E-01  1.18886872E-02 -1.49133693E-15 -9.89994394E-16
  7.53939530E-16 -3.80406334E-16 -2.89613702E-03  3.02838254E-01  3.57092785E-01
  2.20617059E-15 -3.10244340E-15 -1.09955561E-01  2.80594941E-16 -7.33934573E-16
 -1.17958826E-01  6.07686300E-03  2.32231891E-16 -2.30998586E-16 -1.46065187E-17
 -4.07427802E-17 -2.89613702E-03  3.02838254E-01  3.57092785E-01  1.89971229E-15
 -3.35757125E-15  1.09955561E-01  8.48671481E-16 -1.98429623E-15  1.17958826E-01
  6.07686300E-03 -6.86486518E-17  4.74107748E-16 -6.21863961E-17 -1.02850172E-17
 -8.92445175E-15  9.24991222E-15  8.43248435E-14 -4.40406124E-01 -1.02041151E-01
  4.20784322E-15 -1.94964162E-01 -4.51727766E-02  2.91494076E-14  4.45276239E-15
 -4.87296547E-02 -1.12905561E-02 -5.92539245E-16  8.33090086E-16  1.53822597E-14
 -6.55587104E-15 -8.53327860E-14 -4.40406124E-01 -1.02041151E-01 -6.37364774E-15
 -1.94964162E-01 -4.51727766E-02  2.48855078E-14 -2.56988891E-15  4.87296547E-02
  1.12905561E-02 -3.49018401E-16  1.54904381E-15 -2.74689109E-15  1.20812018E-15
 -3.34638292E-14 -1.02041151E-01  4.40406124E-01 -3.13179893E-15 -4.51727766E-02
  1.94964162E-01 -1.38499237E-14 -1.32560613E-15 -1.12905561E-02  4.87296547E-02
 -6.29943961E-17 -3.61357822E-15 -6.47149372E-15  2.86747996E-15  4.08837918E-14
 -1.02041151E-01  4.40406124E-01  1.01289736E-14 -4.51727766E-02  1.94964162E-01
 -8.67805279E-15 -7.18982232E-16  1.12905561E-02 -4.87296547E-02  9.44975709E-17
 -4.01582658E-15 -2.53604432E-15 -5.20869544E-15  2.46216212E-14  2.54128583E-01
 -7.10785447E-01 -6.86806167E-15  8.13415017E-02 -2.27508275E-01  1.09958721E-14
  1.52609259E-16  1.36052799E-02 -3.80533146E-02  8.32530388E-15 -4.25556247E-15
  3.60645709E-15  7.54391319E-15 -2.63470478E-14 -2.54128583E-01  7.10785447E-01
 -5.88470827E-15 -8.13415017E-02  2.27508275E-01  1.12206820E-14  5.50677203E-16
  1.36052799E-02 -3.80533146E-02 -2.05950653E-15 -4.86204987E-16 -1.28733326E-14
 -2.54826376E-14 -3.63393677E-13 -7.10785447E-01 -2.54128583E-01 -3.13210504E-14
 -2.27508275E-01 -8.13415017E-02 -1.60291584E-13 -3.17263780E-14 -3.80533146E-02
 -1.36052799E-02 -2.05371843E-15 -3.92837570E-15  7.08888577E-15  1.29607244E-14
  3.69875750E-13  7.10785447E-01  2.54128583E-01 -2.76284553E-14  2.27508275E-01
  8.13415017E-02 -1.75732925E-13  3.24689911E-14 -3.80533146E-02 -1.36052799E-02
 -3.46304158E-15 -9.72723945E-16 -1.90450937E-01 -6.71081229E-01 -1.05472042E+00
  1.79363642E-14  1.93154287E-14 -3.29167161E-02 -1.29685656E-14 -1.49091988E-14
 -1.00095284E+00  2.97066297E-01  2.42143861E-15  5.70318754E-15  1.30537583E-15
 -3.67501127E-15  1.90450937E-01  6.71081229E-01  1.05472042E+00 -3.13280290E-15
 -4.59366971E-16 -3.29167161E-02 -2.84037912E-15 -3.67811077E-15 -1.00095284E+00
 -2.97066297E-01  3.19755213E-15  8.23571449E-15 -1.44130572E-14  3.26493374E-16
 -3.44347837E-01 -7.03896915E-01  6.89405623E-01 -1.04023001E-14 -1.35798267E-14
  3.77752144E-01  4.77853248E-15 -9.54962528E-15 -6.08708948E-01  3.81838566E-01
  3.51145272E-16 -2.64432997E-14  6.25034208E-15  1.62961786E-15 -3.44347837E-01
 -7.03896915E-01  6.89405623E-01 -1.39057519E-15  2.15159798E-14 -3.77752144E-01
  3.66958029E-15 -7.23893985E-16  6.08708948E-01  3.81838566E-01 -7.48258752E-15
 -3.40955838E-14  7.54347755E-15 -4.63658495E-16 -4.05890577E-01 -8.25780725E-01
  1.78587110E+00 -1.07036893E-13  2.65380776E-14 -1.34504553E+00 -1.50878392E-14
  4.24729147E-14  1.16452524E+00 -1.68362512E-01 -6.93669430E-14 -3.70490955E-14
 -9.64909928E-15 -1.09698238E-14  4.05890577E-01  8.25780725E-01 -1.78587110E+00
  7.32465694E-14  5.23807851E-15 -1.34504553E+00 -1.24409710E-14 -1.41376042E-14
  1.16452524E+00  1.68362512E-01 -2.12827748E-13  1.03815255E-13  2.24972366E-14
 -1.59586874E-14  5.20968734E-01  1.12364464E+00 -7.21165569E-01 -1.48810063E-11
  1.68033260E-11  4.72339101E-02  2.36023040E-12 -2.22394181E-11 -7.63162525E-01
 -1.28448524E-01 -1.10615464E-11 -7.27899772E-12  1.68337900E-12  1.31980658E-12
  5.20968734E-01  1.12364464E+00 -7.21165568E-01 -2.00670990E-12  1.86697533E-11
 -4.72339099E-02  1.23466786E-11 -1.15030727E-11  7.63162525E-01 -1.28448524E-01
 -1.66538079E-11 -2.20127234E-12  4.48851967E-13  1.53487192E-12 -8.46939612E-01
 -1.67608566E+00  8.85016947E+00  6.39472862E-11 -3.62180710E-11 -2.36431869E-01
  9.48894154E-12  2.20254265E-11  3.34893572E+00 -3.57857620E-01  3.78553796E-11
 -2.39403998E-11 -1.13668961E-11 -9.89322295E-12  8.46939613E-01  1.67608566E+00
 -8.85016947E+00 -2.75630084E-11 -6.50715329E-11 -2.36431869E-01 -7.89535793E-12
  1.01860615E-10  3.34893572E+00  3.57857620E-01  1.27777128E-10  2.59980198E-11
 -1.12665029E-11 -1.33607801E-11 -8.00028055E-03 -1.44714195E-02 -1.51382862E-01
 -3.59391360E-01 -1.13119182E-01 -2.09466203E-02  1.31440541E-01  2.91231899E-02
 -6.68547559E-02 -1.95883244E-02  1.13209664E-01 -2.23664708E-01 -3.83735892E-01
 -3.21770392E-01  8.00028055E-03  1.44714195E-02  1.51382862E-01 -1.36181082E-01
  2.43508675E-02 -2.09466203E-02  1.15531559E-01  1.27441226E-01 -6.68547559E-02
  1.95883244E-02 -4.82890541E-01 -6.75908949E-02 -3.91234374E-01 -3.32405361E-01
  4.09802684E-01  5.14479638E-01 -3.93739881E-02  3.26312589E-11 -3.60512637E-11
  3.81698709E-01 -2.37958854E-11  8.02426700E-11 -9.72370896E-01 -9.51152948E-01