

#INFO: **** input file is /share/home/srwang/ExSCF/test/pytest/scan_h2/scan_dft.py ****
#import phf
from pyscf import lib
#import scipy
import numpy as np
import sys, os, contextlib

from pyphf import util, sudft

#xyz = 'h2.xyz' #sys.argv[1]
fch = 'test_uhf.fchk' #sys.argv[2]
#bas = '../h2.bas'
bas = 'cc-pvtz'

lib.num_threads(4)

for r in np.arange(0.9, 2.55, 0.1):
    output = 'tpss/sudft_%.1f_diis.out' % r
    os.system("echo '\n' > %s" % output)
    with open(output, 'a', encoding='utf-8') as f:
        with contextlib.redirect_stdout(f):
            xyz = '''H 0.0 0.0 0.0; H 0.0 0.0 %f'''%r
            mf = util.guess_from_fchk(xyz, bas, fch)
            #mf = util.guess(xyz, bas)
            #f.flush()
            mf2 = util.SUHF(mf)
            #mf2.cut_no = False
            mf2.debug = False
            #mf2.max_cycle = 50
            mf2.diis_on = True
            #mf2.output = 'sudft_%.1f.out'%r
            #mf2.kernel()
            
            mf3 = sudft.SUDFT(mf2)
            mf3.suxc = 'TPSS'
            mf3.kernel()
                    
#INFO: ******************** input file end ********************


System: uname_result(system='Linux', node='xc02n18', release='3.10.0-693.el7.x86_64', version='#1 SMP Thu Jul 6 19:56:57 EDT 2017', machine='x86_64', processor='x86_64')  Threads 4
Python 3.7.4 (default, Aug 13 2019, 20:35:49) 
[GCC 7.3.0]
numpy 1.17.2  scipy 1.4.1
Date: Tue Nov 24 03:36:06 2020
PySCF version 1.7.5
PySCF path  /share/home/srwang/pyscf-1.7.5/pyscf

[CONFIG] conf_file None
[INPUT] verbose = 4
[INPUT] num. atoms = 2
[INPUT] num. electrons = 2
[INPUT] charge = 0
[INPUT] spin (= nelec alpha-beta = 2S) = 0
[INPUT] symmetry False subgroup None
[INPUT] Mole.unit = angstrom
[INPUT]  1 H      0.000000000000   0.000000000000   0.000000000000 AA    0.000000000000   0.000000000000   0.000000000000 Bohr
[INPUT]  2 H      0.000000000000   0.000000000000   1.900000000000 AA    0.000000000000   0.000000000000   3.590479636674 Bohr

nuclear repulsion = 0.278514321536842
number of shells = 12
number of NR pGTOs = 32
number of NR cGTOs = 28
basis = cc-pvtz
ecp = {}
CPU time:       185.02


******** <class 'pyscf.scf.uhf.UHF'> ********
method = UHF
initial guess = minao
damping factor = 0
level_shift factor = 0
DIIS = <class 'pyscf.scf.diis.CDIIS'>
diis_start_cycle = 1
diis_space = 8
SCF conv_tol = 1e-09
SCF conv_tol_grad = None
SCF max_cycles = 1
direct_scf = True
direct_scf_tol = 1e-13
chkfile to save SCF result = /share/home/srwang/ExSCF/test/pytest/scan_h2/tmpb3nr8xea
max_memory 4000 MB (current use 133 MB)
number electrons alpha = 1  beta = 1
Set gradient conv threshold to 3.16228e-05
init E= -0.656273041701841
  alpha nocc = 1  HOMO = -0.265031520759139  LUMO = -0.0905188469787916
  beta  nocc = 1  HOMO = -0.263499508515099  LUMO = -0.0900736322131253
cycle= 1 E= -0.937637203283125  delta_E= -0.281  |g|= 0.0348  |ddm|= 0.412
SCF not converged.
SCF energy = -0.937637203283125 after 1 cycles  <S^2> = 2.846439e-07  2S+1 = 1.0000006


******** <class 'pyscf.scf.uhf.UHF'> ********
method = UHF
initial guess = minao
damping factor = 0
level_shift factor = 0
DIIS = <class 'pyscf.scf.diis.CDIIS'>
diis_start_cycle = 1
diis_space = 8
SCF conv_tol = 1e-09
SCF conv_tol_grad = None
SCF max_cycles = 1
direct_scf = True
direct_scf_tol = 1e-13
chkfile to save SCF result = /share/home/srwang/ExSCF/test/pytest/scan_h2/tmpb3nr8xea
max_memory 4000 MB (current use 133 MB)
number electrons alpha = 1  beta = 1
Set gradient conv threshold to 3.16228e-05
init E= -0.916238026774223
  alpha nocc = 1  HOMO = -0.489706914345201  LUMO = -0.00575716270591676
  beta  nocc = 1  HOMO = -0.489706914345201  LUMO = -0.005757162705916
cycle= 1 E= -0.99905178044455  delta_E= -0.0828  |g|= 0.0419  |ddm|= 0.0844
SCF not converged.
SCF energy = -0.99905178044455 after 1 cycles  <S^2> = 0.69324917  2S+1 = 1.9424203

******** <class 'pyphf.util.SUHF'> ********
max_cycle = 70
verbose: normal
DIIS: <class 'pyscf.scf.diis.CDIIS'>
diis_start_cyc = 40
SVD: S^(-1/2)
[[-0.16524896  0.29579184  0.09453099  0.          0.         -0.         -0.          0.18640501 -0.01931014 -0.         -0.         -0.         -0.
  -0.         -0.         -0.          0.          0.07906917 -0.67643474  0.63350368  0.03042819  0.         -0.          0.          0.         -0.47888884
   0.83402284 -0.72702009]
 [-0.2439197   0.31664476  0.08489429 -0.          0.          0.          0.          0.12009544  0.00500539  0.          0.          0.          0.
   0.          0.          0.         -0.          0.00691365 -0.05179692 -0.23221988  0.00553014 -0.          0.         -0.         -0.          0.52309661
  -1.6652921   1.61315437]
 [-0.26797786  0.1930611   0.07798175  0.          0.          0.         -0.          0.01152201 -0.0153427  -0.          0.         -0.         -0.
  -0.         -0.          0.          0.         -0.01693526  0.48330935 -0.58150842 -0.12183762  0.         -0.          0.          0.          0.39891883
   0.97844088 -1.70563345]
 [ 0.         -0.          0.          0.36611334  0.07294606  0.22474269 -0.3455963   0.          0.         -0.01622893 -0.0386543   0.         -0.
  -0.          0.         -0.04464693 -0.00085827  0.          0.          0.         -0.          0.04044607  0.80193906 -0.56511443  0.58057018  0.
  -0.         -0.        ]
 [ 0.         -0.          0.          0.07294606 -0.36611334  0.3455963   0.22474269  0.          0.          0.0386543  -0.01622893  0.         -0.
  -0.          0.         -0.00085827  0.04464693 -0.         -0.         -0.          0.          0.80193906 -0.04044607  0.58057018  0.56511443  0.
   0.          0.        ]
 [-0.05144146 -0.10973719 -0.32010679  0.         -0.          0.         -0.          0.45195305 -0.10083971 -0.          0.          0.         -0.
   0.          0.          0.          0.          0.15796354 -0.09367566 -0.39295506 -0.81790809  0.         -0.          0.          0.         -0.73687261
  -0.06406142  0.14392006]
 [-0.         -0.          0.          0.39146756  0.07799775  0.21042425 -0.32357823 -0.          0.         -0.00109234 -0.00260174 -0.         -0.
  -0.          0.         -0.00099194 -0.00001907 -0.         -0.         -0.          0.         -0.03796233 -0.75269298  0.60594232 -0.6225147   0.
   0.          0.        ]
 [ 0.         -0.          0.          0.07799775 -0.39146756  0.32357823  0.21042425  0.          0.          0.00260174 -0.00109234  0.         -0.
  -0.         -0.         -0.00001907  0.00099194  0.          0.          0.         -0.         -0.75269298  0.03796233 -0.6225147  -0.60594232 -0.
  -0.         -0.        ]
 [-0.10343613 -0.14833603 -0.38410694  0.         -0.          0.         -0.          0.31435889 -0.01809272  0.         -0.         -0.          0.
  -0.         -0.         -0.         -0.          0.00138193  0.00128501  0.30118921  0.68017053 -0.          0.         -0.         -0.          1.2159317
   0.0822041  -0.33227406]
 [ 0.          0.          0.         -0.         -0.          0.         -0.          0.          0.         -0.          0.          0.70671848  0.
   0.60805038  0.3616973   0.         -0.          0.          0.          0.          0.          0.         -0.          0.          0.          0.
   0.         -0.        ]
 [-0.         -0.          0.          0.00467593 -0.0234683  -0.02216579 -0.0144145   0.          0.         -0.64641886  0.27139763 -0.          0.
   0.         -0.         -0.01366008  0.71058987  0.          0.          0.          0.          0.04492456 -0.00226579 -0.0356087  -0.03466074  0.
  -0.         -0.        ]
 [-0.01920883 -0.00676793 -0.05354953 -0.          0.         -0.          0.         -0.1237721   0.68407865  0.          0.         -0.          0.
  -0.         -0.          0.         -0.          0.70452538 -0.02165028  0.00471698 -0.10449224  0.         -0.          0.          0.          0.22103292
   0.05040329 -0.00685313]
 [-0.         -0.          0.          0.0234683   0.00467593 -0.0144145   0.02216579  0.         -0.          0.27139763  0.64641886  0.         -0.
   0.         -0.         -0.71058987 -0.01366008 -0.         -0.          0.         -0.          0.00226579  0.04492456  0.03466074 -0.0356087   0.
   0.          0.        ]
 [ 0.          0.          0.         -0.          0.         -0.          0.          0.          0.         -0.         -0.          0.         -0.70671848
   0.3616973  -0.60805038 -0.          0.          0.          0.          0.          0.          0.          0.          0.         -0.          0.
   0.          0.        ]
 [-0.16524896 -0.29579184  0.09453099 -0.          0.         -0.         -0.         -0.18640501 -0.01931014  0.          0.          0.          0.
   0.          0.          0.         -0.         -0.07906917 -0.67643474 -0.63350368  0.03042819 -0.          0.         -0.         -0.          0.47888884
   0.83402284  0.72702009]
 [-0.2439197  -0.31664476  0.08489429 -0.         -0.          0.          0.         -0.12009544  0.00500539 -0.          0.         -0.         -0.
  -0.         -0.         -0.          0.         -0.00691365 -0.05179692  0.23221988  0.00553014  0.         -0.          0.          0.         -0.52309661
  -1.6652921  -1.61315437]
 [-0.26797786 -0.1930611   0.07798175 -0.         -0.         -0.         -0.         -0.01152201 -0.0153427  -0.         -0.          0.          0.
   0.          0.         -0.         -0.          0.01693526  0.48330935  0.58150842 -0.12183762  0.         -0.          0.          0.         -0.39891883
   0.97844088  1.70563345]
 [-0.         -0.          0.          0.36611334  0.07294606 -0.22474269  0.3455963   0.          0.         -0.01622893 -0.0386543  -0.          0.
  -0.          0.          0.04464693  0.00085827  0.          0.          0.         -0.          0.04044607  0.80193906  0.56511443 -0.58057018  0.
   0.         -0.        ]
 [-0.         -0.          0.          0.07294606 -0.36611334 -0.3455963  -0.22474269  0.          0.          0.0386543  -0.01622893  0.         -0.
  -0.          0.          0.00085827 -0.04464693 -0.         -0.         -0.          0.          0.80193906 -0.04044607 -0.58057018 -0.56511443 -0.
   0.         -0.        ]
 [ 0.05144146 -0.10973719  0.32010679  0.          0.         -0.         -0.          0.45195305  0.10083971  0.          0.          0.          0.
   0.          0.          0.         -0.          0.15796354  0.09367566 -0.39295506  0.81790809 -0.          0.         -0.         -0.         -0.73687261
   0.06406142  0.14392006]
 [-0.         -0.          0.          0.39146756  0.07799775 -0.21042425  0.32357823  0.          0.         -0.00109234 -0.00260174  0.          0.
   0.          0.          0.00099194  0.00001907 -0.         -0.         -0.          0.         -0.03796233 -0.75269298 -0.60594232  0.6225147  -0.
  -0.         -0.        ]
 [-0.         -0.          0.          0.07799775 -0.39146756 -0.32357823 -0.21042425  0.         -0.          0.00260174 -0.00109234  0.         -0.
  -0.          0.          0.00001907 -0.00099194  0.          0.          0.         -0.         -0.75269298  0.03796233  0.6225147   0.60594232  0.
   0.          0.        ]
 [ 0.10343613 -0.14833603  0.38410694 -0.          0.          0.         -0.          0.31435889  0.01809272 -0.          0.         -0.         -0.
  -0.         -0.         -0.          0.          0.00138193 -0.00128501  0.30118921 -0.68017053  0.         -0.          0.          0.          1.2159317
  -0.0822041  -0.33227406]
 [ 0.          0.         -0.          0.         -0.         -0.          0.         -0.         -0.         -0.         -0.          0.70671848  0.
  -0.60805038 -0.3616973   0.          0.         -0.         -0.          0.         -0.          0.         -0.          0.         -0.          0.
   0.          0.        ]
 [ 0.          0.         -0.         -0.00467593  0.0234683  -0.02216579 -0.0144145  -0.         -0.          0.64641886 -0.27139763  0.         -0.
  -0.          0.         -0.01366008  0.71058987  0.          0.         -0.         -0.         -0.04492456  0.00226579 -0.0356087  -0.03466074 -0.
  -0.         -0.        ]
 [-0.01920883  0.00676793 -0.05354953 -0.          0.         -0.          0.          0.1237721   0.68407865  0.          0.          0.         -0.
  -0.          0.          0.          0.         -0.70452538 -0.02165028 -0.00471698 -0.10449224  0.         -0.          0.          0.         -0.22103292
   0.05040329  0.00685313]
 [ 0.          0.         -0.         -0.0234683  -0.00467593 -0.0144145   0.02216579  0.          0.         -0.27139763 -0.64641886  0.          0.
  -0.          0.         -0.71058987 -0.01366008 -0.         -0.         -0.          0.         -0.00226579 -0.04492456  0.03466074 -0.0356087   0.
   0.          0.        ]
 [ 0.          0.          0.          0.         -0.          0.         -0.          0.          0.         -0.          0.          0.         -0.70671848
  -0.3616973   0.60805038  0.          0.          0.          0.          0.         -0.          0.         -0.         -0.         -0.         -0.
  -0.         -0.        ]]
C (ortho)
[[-0.86478023 -0.44734117  0.00042091  0.15534028 -0.14599476  0.         -0.         -0.         -0.          0.0191307   0.02974321  0.01731455 -0.02053557
   0.         -0.          0.          0.         -0.          0.          0.          0.         -0.00331238  0.         -0.          0.         -0.
   0.06780579 -0.00387829]
 [ 0.45113284 -0.78871721 -0.06153647  0.2953432   0.04349169  0.         -0.         -0.          0.         -0.20739578 -0.01473321  0.13808899 -0.00730323
  -0.         -0.          0.          0.         -0.          0.          0.         -0.         -0.11696398 -0.         -0.          0.          0.
  -0.00641577  0.07365275]
 [ 0.16769975  0.06305874  0.11293844  0.10657428 -0.87943672 -0.          0.         -0.         -0.          0.04689776 -0.02222371 -0.01098266 -0.01887129
   0.         -0.          0.         -0.          0.          0.          0.          0.         -0.02196045  0.          0.          0.         -0.
   0.40789629 -0.01861714]
 [-0.         -0.         -0.          0.          0.         -0.18606076  0.83236626 -0.04294075  0.16376596 -0.          0.          0.          0.
  -0.06157602 -0.00184014 -0.         -0.          0.         -0.         -0.00389083  0.02038707 -0.          0.4511232   0.14966471  0.01742523  0.11594629
   0.          0.        ]
 [ 0.         -0.         -0.          0.          0.         -0.83236626 -0.18606076 -0.16376596 -0.04294075 -0.         -0.         -0.         -0.
  -0.00184014  0.06157602 -0.         -0.          0.          0.         -0.02038707 -0.00389083  0.          0.14966471 -0.4511232  -0.11594629  0.01742523
   0.          0.        ]
 [-0.         -0.         -0.          0.          0.          0.09393335  0.14411951 -0.43190766 -0.71873185  0.          0.          0.          0.
   0.00326766  0.00355446 -0.         -0.          0.         -0.          0.05646757  0.08097225 -0.          0.04751451  0.09763261 -0.40226696 -0.28967141
   0.          0.        ]
 [-0.          0.          0.         -0.         -0.          0.14411951 -0.09393335 -0.71873185  0.43190766  0.         -0.         -0.          0.
  -0.00355446  0.00326766  0.         -0.         -0.         -0.          0.08097225 -0.05646757  0.         -0.09763261  0.04751451 -0.28967141  0.40226696
   0.         -0.        ]
 [ 0.10875386 -0.1116339  -0.16780398  0.23904735  0.06581229  0.         -0.          0.          0.          0.78220144  0.00655317  0.02789251  0.00483612
   0.          0.          0.          0.          0.         -0.         -0.          0.          0.24124058  0.          0.          0.         -0.
   0.00165641 -0.4638903 ]
 [-0.00833741 -0.0101322  -0.03657319 -0.02724059 -0.02031364 -0.          0.          0.         -0.         -0.00444694  0.20340623  0.06297276  0.97440906
   0.          0.         -0.         -0.          0.         -0.         -0.         -0.         -0.03438276 -0.         -0.          0.          0.
   0.03442871 -0.01164345]
 [-0.         -0.         -0.         -0.          0.         -0.01426906 -0.00027239 -0.00440038 -0.00024494 -0.          0.         -0.          0.
   0.22617967 -0.96292974  0.         -0.         -0.         -0.          0.1031412  -0.00126351  0.          0.05140933 -0.08954642 -0.00864926  0.00315723
   0.         -0.        ]
 [ 0.         -0.          0.         -0.         -0.         -0.00027239  0.01426906 -0.00024494  0.00440038 -0.          0.         -0.         -0.
   0.96292974  0.22617967 -0.          0.          0.          0.         -0.00126351 -0.1031412  -0.          0.08954642  0.05140933  0.00315723  0.00864926
  -0.         -0.        ]
 [ 0.         -0.         -0.         -0.          0.         -0.          0.         -0.          0.         -0.         -0.         -0.          0.
  -0.         -0.          0.03674956  0.82713567  0.51950128 -0.21122138  0.          0.          0.          0.         -0.         -0.          0.
   0.         -0.        ]
 [ 0.          0.         -0.          0.          0.          0.          0.          0.          0.          0.         -0.          0.         -0.
   0.          0.         -0.82713567  0.03674956 -0.21122138 -0.51950128  0.         -0.          0.         -0.          0.         -0.          0.
   0.         -0.        ]
 [ 0.         -0.         -0.         -0.          0.         -0.          0.          0.         -0.         -0.         -0.         -0.          0.
   0.          0.          0.30781127  0.46877315 -0.81859862 -0.12409777  0.         -0.          0.          0.          0.          0.         -0.
   0.         -0.        ]
 [ 0.         -0.         -0.         -0.         -0.         -0.         -0.         -0.          0.         -0.         -0.         -0.          0.
  -0.         -0.         -0.46877315  0.30781127 -0.12409777  0.81859862 -0.          0.          0.         -0.         -0.         -0.          0.
   0.         -0.        ]
 [ 0.         -0.         -0.         -0.          0.         -0.00130089  0.00309963  0.00956695 -0.02064827  0.          0.         -0.         -0.
  -0.10669153  0.01586005 -0.          0.          0.          0.          0.35126273 -0.91641614 -0.          0.06539487  0.00940814  0.00402506 -0.14230583
   0.         -0.        ]
 [ 0.         -0.          0.         -0.         -0.         -0.00309963 -0.00130089  0.02064827  0.00956695 -0.          0.          0.          0.
   0.01586005  0.10669153  0.         -0.          0.         -0.          0.91641614  0.35126273  0.          0.00940814 -0.06539487  0.14230583  0.00402506
  -0.         -0.        ]
 [ 0.01009515  0.00175722 -0.04017226  0.05145254  0.00039177  0.         -0.         -0.          0.         -0.07722143 -0.05340027  0.26758185  0.02635575
   0.          0.          0.         -0.          0.          0.         -0.         -0.          0.87328437  0.          0.          0.         -0.
   0.07298514  0.38284702]
 [ 0.00700856  0.14208003  0.62821895  0.43284419  0.18207727  0.         -0.          0.          0.         -0.00407859  0.5701827   0.13690884 -0.0911649
   0.         -0.          0.          0.         -0.          0.         -0.          0.         -0.00823766  0.         -0.          0.         -0.
   0.11095388 -0.00634332]
 [-0.07599786  0.32044166 -0.40896746  0.464953    0.00975583  0.         -0.          0.          0.          0.06191884 -0.12097596  0.55946457 -0.01829182
   0.         -0.          0.          0.         -0.          0.          0.         -0.         -0.33095041 -0.         -0.          0.          0.
  -0.01104231  0.25798486]
 [-0.00929063 -0.01744163 -0.15978788 -0.13752844  0.37785643 -0.         -0.          0.          0.         -0.02936062 -0.01637052 -0.00312721 -0.03299925
   0.         -0.          0.         -0.          0.          0.          0.          0.         -0.06021055 -0.          0.          0.         -0.
   0.8973575  -0.03582169]
 [ 0.          0.          0.          0.         -0.         -0.43110707 -0.2173516  -0.09009123 -0.0496269  -0.          0.          0.          0.
  -0.01690615 -0.07661383  0.          0.         -0.         -0.          0.03390268  0.01578058 -0.         -0.06167244  0.84018032  0.19670329  0.01931721
  -0.          0.        ]
 [ 0.          0.         -0.         -0.         -0.          0.2173516  -0.43110707  0.0496269  -0.09009123  0.          0.         -0.          0.
  -0.07661383  0.01690615 -0.         -0.          0.         -0.         -0.01578058  0.03390268 -0.          0.84018032  0.06167244 -0.01931721  0.19670329
   0.          0.        ]
 [-0.          0.          0.          0.         -0.         -0.09206901  0.03416424  0.48150096 -0.15892566 -0.          0.          0.         -0.
   0.00045495 -0.00065775  0.          0.         -0.         -0.          0.11184089 -0.04553662  0.         -0.15128851  0.12115039 -0.61805339  0.54691619
   0.         -0.        ]
 [ 0.          0.          0.         -0.         -0.         -0.03416424 -0.09206901  0.15892566  0.48150096 -0.          0.          0.          0.
  -0.00065775 -0.00045495 -0.         -0.          0.         -0.          0.04553662  0.11184089 -0.          0.12115039  0.15128851 -0.54691619 -0.61805339
   0.          0.        ]
 [ 0.0429276  -0.0959541   0.04619744 -0.04255322  0.03047782 -0.          0.          0.         -0.          0.50948115  0.08643196 -0.35321673  0.00985498
  -0.         -0.          0.          0.         -0.         -0.          0.          0.         -0.16840217 -0.          0.          0.          0.
   0.0234886   0.75050946]
 [-0.02743096  0.06849538  0.45157742  0.34233927  0.14667487  0.          0.          0.          0.          0.00536986 -0.7634112  -0.1610822   0.19731034
   0.         -0.         -0.          0.         -0.          0.          0.         -0.         -0.00674869 -0.          0.          0.         -0.
   0.06458603 -0.00168168]
 [-0.002437    0.15554467 -0.39855545  0.52468491  0.01325889  0.          0.          0.          0.         -0.26886258  0.1544575  -0.64938699  0.01465351
   0.         -0.         -0.         -0.          0.         -0.         -0.          0.          0.14898063 -0.          0.         -0.         -0.
   0.0077895  -0.03413385]]
[[-0.86478023 -0.44734117  0.00042091  0.15534028  0.14599476 -0.          0.          0.          0.         -0.0191307   0.02974321  0.01731455 -0.02053557
   0.         -0.          0.          0.          0.          0.         -0.         -0.          0.00331238 -0.         -0.         -0.         -0.
  -0.06780579  0.00387829]
 [-0.45113284  0.78871721  0.06153647 -0.2953432   0.04349169  0.         -0.         -0.          0.         -0.20739578  0.01473321 -0.13808899  0.00730323
  -0.         -0.         -0.          0.         -0.          0.         -0.          0.         -0.11696398 -0.         -0.         -0.         -0.
  -0.00641577  0.07365275]
 [ 0.16769975  0.06305874  0.11293844  0.10657428  0.87943672  0.          0.          0.          0.         -0.04689776 -0.02222371 -0.01098266 -0.01887129
   0.          0.          0.          0.          0.          0.          0.         -0.          0.02196045 -0.          0.         -0.         -0.
  -0.40789629  0.01861714]
 [-0.         -0.         -0.          0.         -0.          0.67994148  0.51490948  0.13459154  0.10270499  0.         -0.          0.          0.
   0.0020504   0.06156937 -0.          0.          0.         -0.         -0.02035737 -0.00404338 -0.          0.40879648  0.24248116  0.09192201  0.0727841
  -0.          0.        ]
 [ 0.         -0.          0.         -0.         -0.         -0.51490948  0.67994148  0.10270499 -0.13459154 -0.         -0.          0.         -0.
  -0.06156937  0.0020504   0.         -0.          0.          0.         -0.00404338  0.02035737 -0.          0.24248116 -0.40879648 -0.0727841   0.09192201
  -0.          0.        ]
 [-0.          0.          0.         -0.         -0.         -0.17011272  0.02560409  0.10157502  0.83234741  0.          0.          0.          0.
   0.0035656   0.0032555  -0.          0.         -0.         -0.          0.05386716  0.08272497  0.         -0.02558668 -0.10552287  0.49166616 -0.06318717
  -0.          0.        ]
 [ 0.          0.         -0.          0.          0.          0.02560409  0.17011272 -0.83234741  0.10157502 -0.          0.         -0.          0.
   0.0032555  -0.0035656  -0.          0.          0.         -0.         -0.08272497  0.05386716 -0.          0.10552287 -0.02558668 -0.06318717 -0.49166616
   0.         -0.        ]
 [-0.10875386  0.1116339   0.16780398 -0.23904735  0.06581229  0.         -0.         -0.         -0.          0.78220144 -0.00655317 -0.02789251 -0.00483612
  -0.          0.         -0.         -0.         -0.         -0.          0.         -0.          0.24124058  0.         -0.          0.          0.
   0.00165641 -0.4638903 ]
 [-0.00833741 -0.0101322  -0.03657319 -0.02724059  0.02031364 -0.         -0.         -0.         -0.          0.00444694  0.20340623  0.06297276  0.97440906
  -0.          0.         -0.          0.          0.         -0.          0.          0.          0.03438276 -0.         -0.         -0.          0.
  -0.03442871  0.01164345]
 [-0.         -0.          0.         -0.         -0.         -0.00617319  0.01286748  0.00331875 -0.00289988  0.         -0.          0.          0.
   0.96215175 -0.22946667 -0.         -0.          0.         -0.          0.03987316 -0.09513062 -0.          0.06933325 -0.07651392 -0.00416085  0.00821372
   0.         -0.        ]
 [-0.          0.         -0.          0.          0.          0.01286748  0.00617319  0.00289988  0.00331875 -0.          0.          0.          0.
  -0.22946667 -0.96215175 -0.          0.         -0.          0.          0.09513062  0.03987316  0.          0.07651392  0.06933325  0.00821372  0.00416085
  -0.         -0.        ]
 [-0.          0.          0.         -0.         -0.          0.          0.          0.          0.         -0.         -0.          0.          0.
   0.          0.          0.82654359 -0.04826636 -0.00713153  0.56075412  0.          0.          0.         -0.          0.          0.         -0.
   0.         -0.        ]
 [-0.          0.          0.          0.          0.         -0.         -0.         -0.         -0.         -0.          0.         -0.          0.
  -0.         -0.         -0.04826636 -0.82654359 -0.56075412 -0.00713153 -0.          0.         -0.         -0.          0.          0.         -0.
  -0.          0.        ]
 [-0.          0.          0.         -0.         -0.          0.          0.          0.          0.         -0.         -0.          0.          0.
  -0.         -0.         -0.49786757 -0.25811612  0.41419559  0.71690025 -0.          0.          0.          0.          0.          0.          0.
   0.         -0.        ]
 [-0.          0.          0.         -0.          0.         -0.         -0.         -0.         -0.         -0.         -0.          0.          0.
   0.          0.         -0.25811612  0.49786757 -0.71690025  0.41419559  0.          0.          0.         -0.         -0.         -0.         -0.
   0.         -0.        ]
 [-0.          0.         -0.          0.         -0.         -0.00227953 -0.00247058  0.02024406  0.01039499  0.         -0.          0.          0.
   0.01549562 -0.10674507  0.          0.         -0.          0.         -0.98125946 -0.01827341  0.         -0.06188112 -0.02314583  0.09425927  0.10668804
  -0.         -0.        ]
 [-0.          0.         -0.          0.          0.          0.00247058 -0.00227953  0.01039499 -0.02024406  0.          0.         -0.         -0.
   0.10674507  0.01549562 -0.          0.          0.         -0.         -0.01827341  0.98125946  0.         -0.02314583  0.06188112 -0.10668804  0.09425927
  -0.         -0.        ]
 [-0.01009515 -0.00175722  0.04017226 -0.05145254  0.00039177  0.         -0.         -0.          0.         -0.07722143  0.05340027 -0.26758185 -0.02635575
  -0.          0.         -0.         -0.         -0.         -0.          0.         -0.          0.87328437  0.         -0.         -0.          0.
   0.07298514  0.38284702]
 [ 0.00700856  0.14208003  0.62821895  0.43284419 -0.18207727  0.         -0.         -0.          0.          0.00407859  0.5701827   0.13690884 -0.0911649
   0.         -0.          0.         -0.         -0.          0.         -0.         -0.          0.00823766 -0.         -0.         -0.         -0.
  -0.11095388  0.00634332]
 [ 0.07599786 -0.32044166  0.40896746 -0.464953    0.00975583  0.         -0.         -0.          0.          0.06191884  0.12097596 -0.55946457  0.01829182
  -0.         -0.          0.         -0.         -0.          0.         -0.          0.         -0.33095041 -0.         -0.          0.         -0.
  -0.01104231  0.25798486]
 [-0.00929063 -0.01744163 -0.15978788 -0.13752844 -0.37785643 -0.          0.          0.         -0.          0.02936062 -0.01637052 -0.00312721 -0.03299925
   0.          0.          0.         -0.          0.          0.          0.         -0.          0.06021055 -0.          0.         -0.         -0.
  -0.8973575   0.03582169]
 [ 0.          0.          0.          0.          0.         -0.37674735  0.30192128  0.04050454 -0.09454438 -0.          0.         -0.          0.
   0.07667112  0.01664442 -0.          0.          0.         -0.         -0.0019061  -0.03734682  0.         -0.23953502  0.80766914  0.15686442 -0.12024514
   0.         -0.        ]
 [ 0.          0.          0.          0.          0.         -0.30192128 -0.37674735 -0.09454438 -0.04050454 -0.         -0.          0.         -0.
  -0.01664442  0.07667112 -0.          0.          0.         -0.         -0.03734682  0.0019061  -0.          0.80766914  0.23953502  0.12024514  0.15686442
  -0.          0.        ]
 [ 0.         -0.          0.         -0.         -0.          0.00715343 -0.09794246  0.47739002 -0.17087807  0.          0.         -0.          0.
  -0.00065619  0.00045719 -0.          0.          0.         -0.         -0.08417567  0.08658189 -0.          0.17365586 -0.08607713  0.07786011 -0.8216113
   0.         -0.        ]
 [ 0.          0.         -0.          0.          0.          0.09794246  0.00715343 -0.17087807 -0.47739002 -0.          0.         -0.          0.
  -0.00045719 -0.00065619 -0.         -0.         -0.         -0.          0.08658189  0.08417567  0.         -0.08607713 -0.17365586  0.8216113   0.07786011
  -0.          0.        ]
 [-0.0429276   0.0959541  -0.04619744  0.04255322  0.03047782 -0.          0.          0.         -0.          0.50948115 -0.08643196  0.35321673 -0.00985498
  -0.         -0.          0.          0.          0.         -0.         -0.          0.         -0.16840217 -0.          0.          0.         -0.
   0.0234886   0.75050946]
 [-0.02743096  0.06849538  0.45157742  0.34233927 -0.14667487  0.         -0.         -0.          0.         -0.00536986 -0.7634112  -0.1610822   0.19731034
   0.          0.         -0.          0.          0.          0.          0.          0.          0.00674869 -0.          0.         -0.         -0.
  -0.06458603  0.00168168]
 [ 0.002437   -0.15554467  0.39855545 -0.52468491  0.01325889  0.          0.         -0.          0.         -0.26886258 -0.1544575   0.64938699 -0.01465351
  -0.          0.         -0.          0.          0.         -0.          0.          0.          0.14898063  0.          0.          0.         -0.
   0.0077895  -0.03413385]]
grids:  [0.06237655 0.31939555 0.74529195 1.28265786 1.85893479 2.39630071 2.8221971  3.07921611] 
weights:  [0.15900941 0.34931531 0.49276925 0.56970235 0.56970235 0.49276925 0.34931531 0.15900941]
S = 0.0, Sz = 0.0
Wigner small d:  1
value : [1. 1. 1. 1. 1. 1. 1. 1.]
**** Start Cycle 1 ****
dm (ortho)
[[[ 0.74784484 -0.39013076 -0.14502343 ... -0.03712294  0.02372175  0.00210747]
  [-0.39013076  0.20352084  0.07565487 ...  0.01936605 -0.01237501 -0.00109941]
  [-0.14502343  0.07565487  0.02812321 ...  0.00719895 -0.00460016 -0.00040868]
  ...
  [-0.03712294  0.01936605  0.00719895 ...  0.00184278 -0.00117755 -0.00010461]
  [ 0.02372175 -0.01237501 -0.00460016 ... -0.00117755  0.00075246  0.00006685]
  [ 0.00210747 -0.00109941 -0.00040868 ... -0.00010461  0.00006685  0.00000594]]

 [[ 0.74784484  0.39013076 -0.14502343 ...  0.03712294  0.02372175 -0.00210747]
  [ 0.39013076  0.20352084 -0.07565487 ...  0.01936605  0.01237501 -0.00109941]
  [-0.14502343 -0.07565487  0.02812321 ... -0.00719895 -0.00460016  0.00040868]
  ...
  [ 0.03712294  0.01936605 -0.00719895 ...  0.00184278  0.00117755 -0.00010461]
  [ 0.02372175  0.01237501 -0.00460016 ...  0.00117755  0.00075246 -0.00006685]
  [-0.00210747 -0.00109941  0.00040868 ... -0.00010461 -0.00006685  0.00000594]]]
Fock (ortho)
 (array([[-0.27054134,  0.2411094 ,  0.2774014 , -0.        ,  0.        , -0.        , -0.        ,  0.09450344, -0.04275242,  0.        , -0.        ,
        -0.        ,  0.        , -0.        , -0.        , -0.        , -0.        ,  0.01781001,  0.10808745,  0.01680941,  0.19048021, -0.        ,
         0.        , -0.        , -0.        ,  0.00984323, -0.05773726,  0.0094635 ],
       [ 0.2411094 ,  0.14667924, -0.08432863, -0.        , -0.        , -0.        ,  0.        , -0.42122017,  0.00214839, -0.        , -0.        ,
        -0.        ,  0.        , -0.        , -0.        , -0.        ,  0.        , -0.12575305,  0.08656811,  0.50685553, -0.00364347,  0.        ,
        -0.        ,  0.        , -0.        ,  0.04662771,  0.00904218, -0.17335508],
       [ 0.2774014 , -0.08432863,  1.21213444,  0.        , -0.        ,  0.        , -0.        ,  0.02396854, -0.00522361,  0.        , -0.        ,
        -0.        , -0.        ,  0.        , -0.        , -0.        , -0.        ,  0.00660088,  0.08650153, -0.01339   ,  1.2247307 , -0.        ,
         0.        , -0.        , -0.        ,  0.00038709,  0.08944872, -0.0004541 ],
       [-0.        , -0.        ,  0.        ,  1.47577408,  0.        , -0.03965563,  0.04063036,  0.        , -0.        , -0.00181515, -0.0089164 ,
        -0.        , -0.        , -0.        ,  0.        ,  0.00404499, -0.0007254 ,  0.        ,  0.        ,  0.        ,  0.        ,  0.32982525,
         1.30771821,  0.00289965, -0.00447211,  0.        , -0.        , -0.        ],
       [ 0.        , -0.        , -0.        , -0.        ,  1.47577408,  0.04063036,  0.03965563,  0.        ,  0.        , -0.0089164 ,  0.00181515,
         0.        , -0.        ,  0.        , -0.        ,  0.0007254 ,  0.00404499,  0.        ,  0.        ,  0.        , -0.        , -1.30771821,
         0.32982525,  0.00447211,  0.00289965, -0.        , -0.        , -0.        ],
       [-0.        , -0.        ,  0.        , -0.03965563,  0.04063036,  1.69755719, -0.        ,  0.        , -0.        , -0.00230473,  0.00339273,
         0.        , -0.        ,  0.        ,  0.        , -0.01133665,  0.01672064, -0.        , -0.        , -0.        ,  0.        , -0.00828515,
        -0.00481217,  0.30100163,  1.33166292,  0.        ,  0.        ,  0.        ],
       [-0.        ,  0.        , -0.        ,  0.04063036,  0.03965563, -0.        ,  1.69755719, -0.        , -0.        , -0.00339273, -0.00230473,
        -0.        ,  0.        ,  0.        , -0.        ,  0.01672064,  0.01133665, -0.        , -0.        , -0.        ,  0.        , -0.00481217,
         0.00828515,  1.33166292, -0.30100163, -0.        ,  0.        ,  0.        ],
       [ 0.09450344, -0.42122017,  0.02396854,  0.        ,  0.        ,  0.        , -0.        ,  1.94981024,  0.0141185 , -0.        ,  0.        ,
         0.        ,  0.        ,  0.        ,  0.        ,  0.        , -0.        , -0.06502609,  0.04204218, -0.64918029,  0.01283741,  0.        ,
         0.        ,  0.        ,  0.        , -1.26270826, -0.00057629, -0.01051954],
       [-0.04275242,  0.00214839, -0.00522361, -0.        ,  0.        , -0.        , -0.        ,  0.0141185 ,  3.25233497, -0.        , -0.        ,
        -0.        ,  0.        , -0.        , -0.        , -0.        , -0.        , -0.01992106,  0.01276615, -0.00034675,  0.01786846, -0.        ,
         0.        , -0.        ,  0.        , -0.00209496,  0.22462989, -0.0001063 ],
       [ 0.        , -0.        ,  0.        , -0.00181515, -0.0089164 , -0.00230473, -0.00339273, -0.        , -0.        ,  3.3688662 , -0.        ,
         0.        ,  0.        ,  0.        , -0.        ,  0.00849317,  0.02137095,  0.        ,  0.        ,  0.        , -0.        , -0.05464131,
         0.0262528 , -0.00112281, -0.0004412 , -0.        ,  0.        ,  0.        ],
       [-0.        , -0.        , -0.        , -0.0089164 ,  0.00181515,  0.00339273, -0.00230473,  0.        , -0.        , -0.        ,  3.3688662 ,
         0.        , -0.        , -0.        ,  0.        ,  0.02137095, -0.00849317,  0.        ,  0.        ,  0.        ,  0.        ,  0.0262528 ,
         0.05464131, -0.0004412 ,  0.00112281, -0.        , -0.        ,  0.        ],
       [-0.        , -0.        , -0.        , -0.        ,  0.        ,  0.        , -0.        ,  0.        , -0.        ,  0.        ,  0.        ,
         3.4434577 ,  0.        , -0.0203535 , -0.01210723, -0.        , -0.        , -0.        , -0.        ,  0.        ,  0.        ,  0.        ,
        -0.        ,  0.        , -0.        , -0.        ,  0.        , -0.        ],
       [ 0.        ,  0.        , -0.        , -0.        , -0.        , -0.        ,  0.        ,  0.        ,  0.        ,  0.        , -0.        ,
         0.        ,  3.4434577 ,  0.01210723, -0.0203535 , -0.        , -0.        , -0.        ,  0.        , -0.        , -0.        ,  0.        ,
        -0.        , -0.        ,  0.        ,  0.        ,  0.        ,  0.        ],
       [-0.        , -0.        ,  0.        , -0.        ,  0.        ,  0.        ,  0.        ,  0.        , -0.        ,  0.        , -0.        ,
        -0.0203535 ,  0.01210723,  3.45945258, -0.        ,  0.        , -0.        , -0.        , -0.        ,  0.        ,  0.        ,  0.        ,
         0.        , -0.        ,  0.        ,  0.        ,  0.        , -0.        ],
       [-0.        , -0.        , -0.        ,  0.        , -0.        ,  0.        , -0.        ,  0.        , -0.        , -0.        ,  0.        ,
        -0.01210723, -0.0203535 , -0.        ,  3.45945258, -0.        ,  0.        , -0.        , -0.        ,  0.        ,  0.        , -0.        ,
        -0.        ,  0.        , -0.        , -0.        ,  0.        , -0.        ],
       [-0.        , -0.        , -0.        ,  0.00404499,  0.0007254 , -0.01133665,  0.01672064,  0.        , -0.        ,  0.00849317,  0.02137095,
        -0.        , -0.        ,  0.        , -0.        ,  3.53623803, -0.        ,  0.        ,  0.        ,  0.        , -0.        ,  0.00015427,
         0.00221252, -0.05986798,  0.06391858, -0.        ,  0.        ,  0.        ],
       [-0.        ,  0.        , -0.        , -0.0007254 ,  0.00404499,  0.01672064,  0.01133665, -0.        , -0.        ,  0.02137095, -0.00849317,
        -0.        , -0.        , -0.        ,  0.        , -0.        ,  3.53623803, -0.        ,  0.        , -0.        ,  0.        , -0.00221252,
         0.00015427, -0.06391858, -0.05986798, -0.        , -0.        , -0.        ],
       [ 0.01781001, -0.12575305,  0.00660088,  0.        ,  0.        , -0.        , -0.        , -0.06502609, -0.01992106,  0.        ,  0.        ,
        -0.        , -0.        , -0.        , -0.        ,  0.        , -0.        ,  3.67532545,  0.01260223, -0.19777569,  0.00695994,  0.        ,
         0.        ,  0.        , -0.        ,  0.4441453 , -0.00202918, -0.01390109],
       [ 0.10808745,  0.08656811,  0.08650153,  0.        ,  0.        , -0.        , -0.        ,  0.04204218,  0.01276615,  0.        ,  0.        ,
        -0.        ,  0.        , -0.        , -0.        ,  0.        ,  0.        ,  0.01260223,  1.1849097 ,  0.04390044,  0.36933237, -0.        ,
         0.        , -0.        , -0.        , -0.01563076, -0.96074498, -0.01030859],
       [ 0.01680941,  0.50685553, -0.01339   ,  0.        ,  0.        , -0.        , -0.        , -0.64918029, -0.00034675,  0.        ,  0.        ,
         0.        , -0.        ,  0.        ,  0.        ,  0.        , -0.        , -0.19777569,  0.04390044,  1.73120704, -0.01306954, -0.        ,
        -0.        , -0.        , -0.        ,  0.54061763, -0.01740926, -1.07286715],
       [ 0.19048021, -0.00364347,  1.2247307 ,  0.        , -0.        ,  0.        ,  0.        ,  0.01283741,  0.01786846, -0.        ,  0.        ,
         0.        , -0.        ,  0.        ,  0.        , -0.        ,  0.        ,  0.00695994,  0.36933237, -0.01306954,  3.34576481, -0.        ,
         0.        , -0.        , -0.        , -0.0122621 ,  0.23197192,  0.00132539],
       [-0.        ,  0.        , -0.        ,  0.32982525, -1.30771821, -0.00828515, -0.00481217,  0.        , -0.        , -0.05464131,  0.0262528 ,
         0.        ,  0.        ,  0.        , -0.        ,  0.00015427, -0.00221252,  0.        , -0.        , -0.        , -0.        ,  3.07625179,
         0.        , -0.01353918, -0.01457723,  0.        , -0.        ,  0.        ],
       [ 0.        , -0.        ,  0.        ,  1.30771821,  0.32982525, -0.00481217,  0.00828515,  0.        ,  0.        ,  0.0262528 ,  0.05464131,
        -0.        , -0.        ,  0.        , -0.        ,  0.00221252,  0.00015427,  0.        ,  0.        , -0.        ,  0.        ,  0.        ,
         3.07625179,  0.01457723, -0.01353918,  0.        , -0.        , -0.        ],
       [-0.        ,  0.        , -0.        ,  0.00289965,  0.00447211,  0.30100163,  1.33166292,  0.        , -0.        , -0.00112281, -0.0004412 ,
         0.        , -0.        , -0.        ,  0.        , -0.05986798, -0.06391858,  0.        , -0.        , -0.        , -0.        , -0.01353918,
         0.01457723,  3.12810184, -0.        , -0.        ,  0.        ,  0.        ],
       [-0.        , -0.        , -0.        , -0.00447211,  0.00289965,  1.33166292, -0.30100163,  0.        ,  0.        , -0.0004412 ,  0.00112281,
        -0.        ,  0.        ,  0.        , -0.        ,  0.06391858, -0.05986798, -0.        , -0.        , -0.        , -0.        , -0.01457723,
        -0.01353918, -0.        ,  3.12810184,  0.        ,  0.        ,  0.        ],
       [ 0.00984323,  0.04662771,  0.00038709,  0.        , -0.        ,  0.        , -0.        , -1.26270826, -0.00209496, -0.        , -0.        ,
        -0.        ,  0.        ,  0.        , -0.        , -0.        , -0.        ,  0.4441453 , -0.01563076,  0.54061763, -0.0122621 ,  0.        ,
         0.        , -0.        ,  0.        ,  3.28024903,  0.00913894,  0.25492135],
       [-0.05773726,  0.00904218,  0.08944872, -0.        , -0.        ,  0.        ,  0.        , -0.00057629,  0.22462989,  0.        , -0.        ,
         0.        ,  0.        ,  0.        ,  0.        ,  0.        , -0.        , -0.00202918, -0.96074498, -0.01740926,  0.23197192, -0.        ,
        -0.        ,  0.        ,  0.        ,  0.00913894,  1.77445987,  0.01475228],
       [ 0.0094635 , -0.17335508, -0.0004541 , -0.        , -0.        ,  0.        ,  0.        , -0.01051954, -0.0001063 ,  0.        ,  0.        ,
        -0.        ,  0.        , -0.        , -0.        ,  0.        , -0.        , -0.01390109, -0.01030859, -1.07286715,  0.00132539,  0.        ,
        -0.        ,  0.        ,  0.        ,  0.25492135,  0.01475228,  1.5228052 ]]), array([[-0.27054134, -0.2411094 ,  0.2774014 , -0.        ,  0.        , -0.        ,  0.        , -0.09450344, -0.04275242,  0.        , -0.        ,
        -0.        , -0.        , -0.        , -0.        , -0.        , -0.        , -0.01781001,  0.10808745, -0.01680941,  0.19048021, -0.        ,
         0.        , -0.        , -0.        , -0.00984323, -0.05773726, -0.0094635 ],
       [-0.2411094 ,  0.14667924,  0.08432863, -0.        , -0.        , -0.        ,  0.        , -0.42122017, -0.00214839, -0.        , -0.        ,
        -0.        , -0.        , -0.        , -0.        , -0.        ,  0.        , -0.12575305, -0.08656811,  0.50685553,  0.00364347,  0.        ,
        -0.        ,  0.        , -0.        ,  0.04662771, -0.00904218, -0.17335508],
       [ 0.2774014 ,  0.08432863,  1.21213444,  0.        , -0.        ,  0.        , -0.        , -0.02396854, -0.00522361,  0.        , -0.        ,
        -0.        ,  0.        ,  0.        , -0.        , -0.        , -0.        , -0.00660088,  0.08650153,  0.01339   ,  1.2247307 , -0.        ,
         0.        , -0.        , -0.        , -0.00038709,  0.08944872,  0.0004541 ],
       [-0.        , -0.        ,  0.        ,  1.47577408,  0.        ,  0.03965563, -0.04063036,  0.        , -0.        , -0.00181515, -0.0089164 ,
        -0.        , -0.        , -0.        ,  0.        , -0.00404499,  0.0007254 ,  0.        ,  0.        ,  0.        ,  0.        ,  0.32982525,
         1.30771821, -0.00289965,  0.00447211,  0.        , -0.        , -0.        ],
       [ 0.        , -0.        , -0.        , -0.        ,  1.47577408, -0.04063036, -0.03965563,  0.        ,  0.        , -0.0089164 ,  0.00181515,
         0.        , -0.        ,  0.        , -0.        , -0.0007254 , -0.00404499,  0.        ,  0.        ,  0.        , -0.        , -1.30771821,
         0.32982525, -0.00447211, -0.00289965, -0.        , -0.        , -0.        ],
       [-0.        , -0.        ,  0.        ,  0.03965563, -0.04063036,  1.69755719,  0.        ,  0.        , -0.        ,  0.00230473, -0.00339273,
         0.        , -0.        , -0.        ,  0.        , -0.01133665,  0.01672064, -0.        , -0.        , -0.        ,  0.        ,  0.00828515,
         0.00481217,  0.30100163,  1.33166292,  0.        ,  0.        ,  0.        ],
       [ 0.        ,  0.        , -0.        , -0.04063036, -0.03965563, -0.        ,  1.69755719, -0.        , -0.        ,  0.00339273,  0.00230473,
        -0.        , -0.        ,  0.        , -0.        ,  0.01672064,  0.01133665, -0.        , -0.        , -0.        ,  0.        ,  0.00481217,
        -0.00828515,  1.33166292, -0.30100163, -0.        ,  0.        ,  0.        ],
       [-0.09450344, -0.42122017, -0.02396854,  0.        ,  0.        ,  0.        , -0.        ,  1.94981024, -0.0141185 , -0.        ,  0.        ,
         0.        , -0.        ,  0.        ,  0.        ,  0.        ,  0.        , -0.06502609, -0.04204218, -0.64918029, -0.01283741,  0.        ,
         0.        ,  0.        ,  0.        , -1.26270826,  0.00057629, -0.01051954],
       [-0.04275242, -0.00214839, -0.00522361, -0.        ,  0.        , -0.        , -0.        , -0.0141185 ,  3.25233497, -0.        ,  0.        ,
        -0.        , -0.        , -0.        , -0.        , -0.        , -0.        ,  0.01992106,  0.01276615,  0.00034675,  0.01786846, -0.        ,
         0.        , -0.        ,  0.        ,  0.00209496,  0.22462989,  0.0001063 ],
       [ 0.        , -0.        ,  0.        , -0.00181515, -0.0089164 ,  0.00230473,  0.00339273, -0.        , -0.        ,  3.3688662 , -0.        ,
         0.        ,  0.        ,  0.        , -0.        , -0.00849317, -0.02137095,  0.        ,  0.        ,  0.        , -0.        , -0.05464131,
         0.0262528 ,  0.00112281,  0.0004412 , -0.        ,  0.        ,  0.        ],
       [-0.        , -0.        , -0.        , -0.0089164 ,  0.00181515, -0.00339273,  0.00230473,  0.        ,  0.        ,  0.        ,  3.3688662 ,
         0.        ,  0.        , -0.        ,  0.        , -0.02137095,  0.00849317,  0.        ,  0.        ,  0.        ,  0.        ,  0.0262528 ,
         0.05464131,  0.0004412 , -0.00112281, -0.        , -0.        ,  0.        ],
       [-0.        , -0.        , -0.        , -0.        ,  0.        ,  0.        , -0.        ,  0.        , -0.        ,  0.        ,  0.        ,
         3.4434577 , -0.        ,  0.0203535 ,  0.01210723, -0.        , -0.        , -0.        , -0.        ,  0.        ,  0.        ,  0.        ,
        -0.        ,  0.        , -0.        , -0.        ,  0.        , -0.        ],
       [-0.        , -0.        ,  0.        , -0.        , -0.        , -0.        , -0.        , -0.        , -0.        ,  0.        ,  0.        ,
        -0.        ,  3.4434577 , -0.01210723,  0.0203535 ,  0.        ,  0.        , -0.        , -0.        , -0.        ,  0.        ,  0.        ,
        -0.        , -0.        ,  0.        , -0.        , -0.        , -0.        ],
       [-0.        , -0.        ,  0.        , -0.        ,  0.        , -0.        ,  0.        ,  0.        , -0.        ,  0.        , -0.        ,
         0.0203535 , -0.01210723,  3.45945258,  0.        , -0.        ,  0.        , -0.        , -0.        ,  0.        ,  0.        ,  0.        ,
         0.        , -0.        ,  0.        ,  0.        ,  0.        , -0.        ],
       [-0.        , -0.        , -0.        ,  0.        , -0.        ,  0.        , -0.        ,  0.        , -0.        , -0.        ,  0.        ,
         0.01210723,  0.0203535 ,  0.        ,  3.45945258,  0.        , -0.        , -0.        , -0.        ,  0.        ,  0.        , -0.        ,
        -0.        ,  0.        , -0.        , -0.        ,  0.        , -0.        ],
       [-0.        , -0.        , -0.        , -0.00404499, -0.0007254 , -0.01133665,  0.01672064,  0.        , -0.        , -0.00849317, -0.02137095,
        -0.        ,  0.        , -0.        ,  0.        ,  3.53623803, -0.        ,  0.        ,  0.        ,  0.        , -0.        , -0.00015427,
        -0.00221252, -0.05986798,  0.06391858, -0.        ,  0.        ,  0.        ],
       [-0.        ,  0.        , -0.        ,  0.0007254 , -0.00404499,  0.01672064,  0.01133665,  0.        , -0.        , -0.02137095,  0.00849317,
        -0.        ,  0.        ,  0.        , -0.        , -0.        ,  3.53623803, -0.        ,  0.        , -0.        ,  0.        ,  0.00221252,
        -0.00015427, -0.06391858, -0.05986798, -0.        , -0.        , -0.        ],
       [-0.01781001, -0.12575305, -0.00660088,  0.        ,  0.        , -0.        , -0.        , -0.06502609,  0.01992106,  0.        ,  0.        ,
        -0.        , -0.        , -0.        , -0.        ,  0.        , -0.        ,  3.67532545, -0.01260223, -0.19777569, -0.00695994,  0.        ,
         0.        ,  0.        , -0.        ,  0.4441453 ,  0.00202918, -0.01390109],
       [ 0.10808745, -0.08656811,  0.08650153,  0.        ,  0.        , -0.        , -0.        , -0.04204218,  0.01276615,  0.        ,  0.        ,
        -0.        , -0.        , -0.        , -0.        ,  0.        ,  0.        , -0.01260223,  1.1849097 , -0.04390044,  0.36933237, -0.        ,
         0.        , -0.        , -0.        ,  0.01563076, -0.96074498,  0.01030859],
       [-0.01680941,  0.50685553,  0.01339   ,  0.        ,  0.        , -0.        , -0.        , -0.64918029,  0.00034675,  0.        ,  0.        ,
         0.        , -0.        ,  0.        ,  0.        ,  0.        , -0.        , -0.19777569, -0.04390044,  1.73120704,  0.01306954, -0.        ,
        -0.        , -0.        , -0.        ,  0.54061763,  0.01740926, -1.07286715],
       [ 0.19048021,  0.00364347,  1.2247307 ,  0.        , -0.        ,  0.        ,  0.        , -0.01283741,  0.01786846, -0.        ,  0.        ,
         0.        ,  0.        ,  0.        ,  0.        , -0.        ,  0.        , -0.00695994,  0.36933237,  0.01306954,  3.34576481, -0.        ,
         0.        , -0.        , -0.        ,  0.0122621 ,  0.23197192, -0.00132539],
       [-0.        ,  0.        , -0.        ,  0.32982525, -1.30771821,  0.00828515,  0.00481217,  0.        , -0.        , -0.05464131,  0.0262528 ,
         0.        ,  0.        ,  0.        , -0.        , -0.00015427,  0.00221252,  0.        , -0.        , -0.        , -0.        ,  3.07625179,
         0.        ,  0.01353918,  0.01457723,  0.        , -0.        ,  0.        ],
       [ 0.        , -0.        ,  0.        ,  1.30771821,  0.32982525,  0.00481217, -0.00828515,  0.        ,  0.        ,  0.0262528 ,  0.05464131,
        -0.        , -0.        ,  0.        , -0.        , -0.00221252, -0.00015427,  0.        ,  0.        , -0.        ,  0.        ,  0.        ,
         3.07625179, -0.01457723,  0.01353918,  0.        , -0.        , -0.        ],
       [-0.        ,  0.        , -0.        , -0.00289965, -0.00447211,  0.30100163,  1.33166292,  0.        , -0.        ,  0.00112281,  0.0004412 ,
         0.        , -0.        , -0.        ,  0.        , -0.05986798, -0.06391858,  0.        , -0.        , -0.        , -0.        ,  0.01353918,
        -0.01457723,  3.12810184, -0.        , -0.        ,  0.        ,  0.        ],
       [-0.        , -0.        , -0.        ,  0.00447211, -0.00289965,  1.33166292, -0.30100163,  0.        ,  0.        ,  0.0004412 , -0.00112281,
        -0.        ,  0.        ,  0.        , -0.        ,  0.06391858, -0.05986798, -0.        , -0.        , -0.        , -0.        ,  0.01457723,
         0.01353918, -0.        ,  3.12810184,  0.        ,  0.        ,  0.        ],
       [-0.00984323,  0.04662771, -0.00038709,  0.        , -0.        ,  0.        , -0.        , -1.26270826,  0.00209496, -0.        , -0.        ,
        -0.        , -0.        ,  0.        , -0.        , -0.        , -0.        ,  0.4441453 ,  0.01563076,  0.54061763,  0.0122621 ,  0.        ,
         0.        , -0.        ,  0.        ,  3.28024903, -0.00913894,  0.25492135],
       [-0.05773726, -0.00904218,  0.08944872, -0.        , -0.        ,  0.        ,  0.        ,  0.00057629,  0.22462989,  0.        , -0.        ,
         0.        , -0.        ,  0.        ,  0.        ,  0.        , -0.        ,  0.00202918, -0.96074498,  0.01740926,  0.23197192, -0.        ,
        -0.        ,  0.        ,  0.        , -0.00913894,  1.77445987, -0.01475228],
       [-0.0094635 , -0.17335508,  0.0004541 , -0.        , -0.        ,  0.        ,  0.        , -0.01051954,  0.0001063 ,  0.        ,  0.        ,
        -0.        , -0.        , -0.        , -0.        ,  0.        , -0.        , -0.01390109,  0.01030859, -1.07286715, -0.00132539,  0.        ,
        -0.        ,  0.        ,  0.        ,  0.25492135, -0.01475228,  1.5228052 ]]))
E(UHF) =    -1.277566
NO eigenvalue
[-1. -0. -0. -0. -0. -0. -0. -0. -0. -0. -0. -0. -0. -0. -0.  0.  0.  0.  0.  0.  0.  0.  0.  0.  0.  0.  0.  0.] [-1. -0. -0. -0. -0. -0. -0. -0. -0. -0. -0. -0. -0. -0. -0. -0. -0. -0.  0.  0.  0.  0.  0.  0.  0.  0.  0.  0.]
NO vec
[[ 0.86478023  0.         -0.49594531 ...  0.          0.          0.        ]
 [-0.45113284  0.         -0.83540779 ...  0.          0.          0.        ]
 [-0.16769975  0.         -0.18628883 ...  0.          0.          0.        ]
 ...
 [ 0.          0.0429276   0.         ... -0.14401069  0.31050901  0.08239883]
 [ 0.          0.02743096  0.         ...  0.53056452  0.1223419  -0.08475757]
 [ 0.         -0.002437    0.         ... -0.08818729 -0.00711379 -0.00234124]]
dm(NO)
[[ 1.  0.  0. ...  0.  0.  0.]
 [ 0.  1.  0. ... -0.  0. -0.]
 [ 0.  0. -0. ...  0.  0.  0.]
 ...
 [ 0. -0.  0. ...  0.  0.  0.]
 [ 0. -0.  0. ...  0. -0.  0.]
 [ 0. -0.  0. ...  0.  0.  0.]]
D(g) (NO)
[[ 0.99951369  0.01727085  0.         ...  0.00110723 -0.0053649   0.01452386]
 [-0.01727085  0.99951369  0.02473082 ... -0.         -0.         -0.        ]
 [ 0.         -0.02473082  0.99951369 ...  0.0007978  -0.00354583  0.01551735]
 ...
 [-0.00110723 -0.         -0.0007978  ...  0.99951369 -0.         -0.        ]
 [ 0.0053649   0.          0.00354583 ... -0.          0.99951369  0.        ]
 [-0.01452386 -0.         -0.01551735 ... -0.          0.          0.99951369]]
...
N(g) (NO)
[[ 1.00018792 -0.0172825 ]
 [ 0.0172825   1.00018792]]
...
P(g) (NO)
[[ 1.          0.          0.         ... -0.          0.         -0.        ]
 [-0.          1.         -0.         ... -0.          0.         -0.        ]
 [-0.00042741 -0.02473547 -0.         ...  0.         -0.          0.        ]
 ...
 [-0.00110744  0.00001914 -0.         ... -0.          0.         -0.        ]
 [ 0.00536591 -0.00009272  0.         ...  0.         -0.          0.        ]
 [-0.01452659  0.00025101 -0.         ... -0.          0.         -0.        ]]
...
Pg_ortho
[[ 0.74802465 -0.39022456 -0.1450583  ...  0.00051656  0.00033009 -0.00002933]
 [-0.38980406  0.20335041  0.07559151 ...  0.00093854  0.00059973 -0.00005328]
 [-0.1450583   0.07567306  0.02812997 ... -0.00010017 -0.00006401  0.00000569]
 ...
 [ 0.0017991  -0.00093854 -0.00034888 ...  0.00184124  0.00117656 -0.00010453]
 [-0.00033009  0.0001722   0.00006401 ...  0.00117783  0.00075264 -0.00006687]
 [-0.00010213  0.00005328  0.00001981 ... -0.00010453 -0.00006679  0.00000593]]
G(g) (NO)
[[ 0.3206683  -0.00210709 -0.09224801 ... -0.00028989 -0.00034222  0.0003892 ]
 [ 0.00210709  0.3206683   0.00132632 ...  0.00811005  0.01108861  0.01485826]
 [-0.09213145  0.01399859  0.84056699 ...  0.00111105  0.00062059 -0.00019248]
 ...
 [-0.00002121  0.00810935  0.00000299 ...  0.85675496  0.03335355 -0.03263599]
 [-0.00351588  0.01111512 -0.00027598 ...  0.0333523   0.83925245  0.00992986]
 [ 0.00776748  0.01480931  0.00247985 ... -0.03263584  0.00993214  0.7925851 ]]
...
C(NO)
[[-1.          0.          0.         ...  0.          0.          0.        ]
 [ 0.         -1.          0.         ...  0.         -0.          0.        ]
 [-0.          0.          0.91148389 ...  0.          0.          0.        ]
 ...
 [ 0.          0.          0.         ... -0.         -0.43180171  0.21338805]
 [ 0.          0.          0.         ... -0.         -0.19642471 -0.21637106]
 [ 0.          0.          0.         ...  0.          0.23471561 -0.0593431 ]]
detC 1.0000000000000013
detNg [1.00067457 1.0178432  1.10119263 1.33000831 1.80220503 2.50850074 3.08374307 3.25282656]
xg [0.99932589 0.98246959 0.90810633 0.751875   0.55487582 0.39864449 0.32428123 0.30742494]
ciS 1.3067508260008143
[[-0.799099    0.          0.06417512 ...  0.          0.          0.        ]
 [ 0.         -0.799099    0.         ... -0.00849863 -0.01529537 -0.00647595]
 [ 0.06417512  0.         -0.62207365 ...  0.          0.          0.        ]
 ...
 [ 0.         -0.00849863  0.         ...  2.07063615  0.21867218 -0.34480947]
 [ 0.         -0.01529537  0.         ...  0.21867218  0.68372273  0.10305495]
 [ 0.         -0.00647595  0.         ... -0.34480947  0.10305495  0.00480074]]
ciH -1.6801395838374222
S2 = 0.000000
X(g)
[[ 2.          0.         -0.00042741 ...  0.00110744 -0.00536591  0.01452659]
 [-0.          2.          0.02473547 ...  0.00001914 -0.00009272  0.00025101]
 [-0.00042741 -0.02473547  0.         ...  0.          0.          0.        ]
 ...
 [-0.00110744  0.00001914  0.         ...  0.          0.          0.        ]
 [ 0.00536591 -0.00009272  0.         ...  0.          0.          0.        ]
 [-0.01452659  0.00025101  0.         ...  0.          0.          0.        ]]
X(g) int
[[ 2.          0.         -0.33613803 ...  0.02134099 -0.10340405  0.27993571]
 [-0.          2.          0.47666653 ...  0.01504934 -0.07291897  0.19740643]
 [-0.33613803 -0.47666653  0.         ...  0.          0.          0.        ]
 ...
 [-0.02134099  0.01504934  0.         ...  0.          0.          0.        ]
 [ 0.10340405 -0.07291897  0.         ...  0.          0.          0.        ]
 [-0.27993571  0.19740643  0.         ...  0.          0.          0.        ]]
Hsp + Hph =  -1.285738298692589
Feff (mod,ortho)
[[-0.25261809  0.2538467   0.27240515 ...  0.          0.          0.        ]
 [ 0.2538467   0.12851212 -0.08600545 ...  0.          0.          0.        ]
 [ 0.27240515 -0.08600545  1.21339818 ...  0.          0.          0.        ]
 ...
 [ 0.          0.          0.         ...  3.28034818 -0.00904021  0.25483619]
 [ 0.          0.          0.         ... -0.00904021  1.77454556 -0.0148087 ]
 [ 0.          0.          0.         ...  0.25483619 -0.0148087   1.52281455]]
E(SUHF) =     -1.00722398
e_a, e_b
[-0.48301395  0.05613878  0.36620579  0.47660983  0.69752983  0.69752983  0.69939701  0.87954352  0.87954352  1.19568508  2.43917385  2.64485467  3.29637148
  3.36174938  3.36174938  3.42645896  3.42645896  3.47645132  3.47645132  3.53018103  3.53018103  3.66139238  3.84033699  3.84033699  3.97344837  3.97344837
  3.98297427  4.46934945] [-0.48301395  0.05613878  0.36620579  0.47660983  0.69752983  0.69752983  0.69939701  0.87954352  0.87954352  1.19568508  2.43917385  2.64485467  3.29637148
  3.36174938  3.36174938  3.42645896  3.42645896  3.47645132  3.47645132  3.53018103  3.53018103  3.66139238  3.84033699  3.84033699  3.97344837  3.97344837
  3.98297427  4.46934945]
P_a, P_b
[[ 0.67739443 -0.42685296 -0.13572079 -0.         -0.         -0.          0.         -0.1058849   0.00704428 -0.         -0.         -0.         -0.
  -0.         -0.         -0.         -0.         -0.01032039 -0.01353322  0.06607304  0.00991803 -0.          0.          0.         -0.         -0.04001241
   0.01703047 -0.00130182]
 [-0.42685296  0.2689769   0.08552303  0.          0.          0.         -0.          0.06672226 -0.00443888  0.          0.          0.          0.
   0.          0.          0.          0.          0.00650329  0.00852782 -0.04163523 -0.00624974  0.         -0.         -0.          0.          0.0252134
  -0.01073157  0.00082033]
 [-0.13572079  0.08552303  0.02719263  0.          0.          0.         -0.          0.02121479 -0.00141137  0.          0.          0.          0.
   0.          0.          0.          0.          0.00206776  0.00271148 -0.0132382  -0.00198715  0.         -0.         -0.          0.          0.00801677
  -0.00341218  0.00026083]
 [-0.          0.          0.          0.          0.          0.         -0.          0.         -0.          0.          0.          0.          0.
   0.          0.          0.          0.          0.          0.         -0.         -0.          0.         -0.         -0.          0.          0.
  -0.          0.        ]
 [-0.          0.          0.          0.          0.          0.         -0.          0.         -0.          0.          0.          0.          0.
   0.          0.          0.          0.          0.          0.         -0.         -0.          0.         -0.         -0.          0.          0.
  -0.          0.        ]
 [-0.          0.          0.          0.          0.          0.         -0.          0.         -0.          0.          0.          0.          0.
   0.          0.          0.          0.          0.          0.         -0.         -0.          0.         -0.         -0.          0.          0.
  -0.          0.        ]
 [ 0.         -0.         -0.         -0.         -0.         -0.          0.         -0.          0.         -0.         -0.         -0.         -0.
  -0.         -0.         -0.         -0.         -0.         -0.          0.          0.         -0.          0.          0.         -0.         -0.
   0.         -0.        ]
 [-0.1058849   0.06672226  0.02121479  0.          0.          0.         -0.          0.01655109 -0.00110111  0.          0.          0.          0.
   0.          0.          0.          0.          0.0016132   0.00211541 -0.01032801 -0.00155031  0.         -0.         -0.          0.          0.00625442
  -0.00266207  0.00020349]
 [ 0.00704428 -0.00443888 -0.00141137 -0.         -0.         -0.          0.         -0.00110111  0.00007325 -0.         -0.         -0.         -0.
  -0.         -0.         -0.         -0.         -0.00010732 -0.00014073  0.0006871   0.00010314 -0.          0.          0.         -0.         -0.00041609
   0.0001771  -0.00001354]
 [-0.          0.          0.          0.          0.          0.         -0.          0.         -0.          0.          0.          0.          0.
   0.          0.          0.          0.          0.          0.         -0.         -0.          0.         -0.         -0.          0.          0.
  -0.          0.        ]
 [-0.          0.          0.          0.          0.          0.         -0.          0.         -0.          0.          0.          0.          0.
   0.          0.          0.          0.          0.          0.         -0.         -0.          0.         -0.         -0.          0.          0.
  -0.          0.        ]
 [-0.          0.          0.          0.          0.          0.         -0.          0.         -0.          0.          0.          0.          0.
   0.          0.          0.          0.          0.          0.         -0.         -0.          0.         -0.         -0.          0.          0.
  -0.          0.        ]
 [-0.          0.          0.          0.          0.          0.         -0.          0.         -0.          0.          0.          0.          0.
   0.          0.          0.          0.          0.          0.         -0.         -0.          0.         -0.         -0.          0.          0.
  -0.          0.        ]
 [-0.          0.          0.          0.          0.          0.         -0.          0.         -0.          0.          0.          0.          0.
   0.          0.          0.          0.          0.          0.         -0.         -0.          0.         -0.         -0.          0.          0.
  -0.          0.        ]
 [-0.          0.          0.          0.          0.          0.         -0.          0.         -0.          0.          0.          0.          0.
   0.          0.          0.          0.          0.          0.         -0.         -0.          0.         -0.         -0.          0.          0.
  -0.          0.        ]
 [-0.          0.          0.          0.          0.          0.         -0.          0.         -0.          0.          0.          0.          0.
   0.          0.          0.          0.          0.          0.         -0.         -0.          0.         -0.         -0.          0.          0.
  -0.          0.        ]
 [-0.          0.          0.          0.          0.          0.         -0.          0.         -0.          0.          0.          0.          0.
   0.          0.          0.          0.          0.          0.         -0.         -0.          0.         -0.         -0.          0.          0.
  -0.          0.        ]
 [-0.01032039  0.00650329  0.00206776  0.          0.          0.         -0.          0.0016132  -0.00010732  0.          0.          0.          0.
   0.          0.          0.          0.          0.00015724  0.00020618 -0.00100665 -0.00015111  0.         -0.         -0.          0.          0.00060961
  -0.00025947  0.00001983]
 [-0.01353322  0.00852782  0.00271148  0.          0.          0.         -0.          0.00211541 -0.00014073  0.          0.          0.          0.
   0.          0.          0.          0.          0.00020618  0.00027037 -0.00132003 -0.00019815  0.         -0.         -0.          0.          0.00079938
  -0.00034024  0.00002601]
 [ 0.06607304 -0.04163523 -0.0132382  -0.         -0.         -0.          0.         -0.01032801  0.0006871  -0.         -0.         -0.         -0.
  -0.         -0.         -0.         -0.         -0.00100665 -0.00132003  0.00644476  0.0009674  -0.          0.          0.         -0.         -0.00390281
   0.00166115 -0.00012698]
 [ 0.00991803 -0.00624974 -0.00198715 -0.         -0.         -0.          0.         -0.00155031  0.00010314 -0.         -0.         -0.         -0.
  -0.         -0.         -0.         -0.         -0.00015111 -0.00019815  0.0009674   0.00014521 -0.          0.          0.         -0.         -0.00058584
   0.00024935 -0.00001906]
 [-0.          0.          0.          0.          0.          0.         -0.          0.         -0.          0.          0.          0.          0.
   0.          0.          0.          0.          0.          0.         -0.         -0.          0.         -0.         -0.          0.          0.
  -0.          0.        ]
 [ 0.         -0.         -0.         -0.         -0.         -0.          0.         -0.          0.         -0.         -0.         -0.         -0.
  -0.         -0.         -0.         -0.         -0.         -0.          0.          0.         -0.          0.          0.         -0.         -0.
   0.         -0.        ]
 [ 0.         -0.         -0.         -0.         -0.         -0.          0.         -0.          0.         -0.         -0.         -0.         -0.
  -0.         -0.         -0.         -0.         -0.         -0.          0.          0.         -0.          0.          0.         -0.         -0.
   0.         -0.        ]
 [-0.          0.          0.          0.          0.          0.         -0.          0.         -0.          0.          0.          0.          0.
   0.          0.          0.          0.          0.          0.         -0.         -0.          0.         -0.         -0.          0.          0.
  -0.          0.        ]
 [-0.04001241  0.0252134   0.00801677  0.          0.          0.         -0.          0.00625442 -0.00041609  0.          0.          0.          0.
   0.          0.          0.          0.          0.00060961  0.00079938 -0.00390281 -0.00058584  0.         -0.         -0.          0.          0.00236346
  -0.00100596  0.0000769 ]
 [ 0.01703047 -0.01073157 -0.00341218 -0.         -0.         -0.          0.         -0.00266207  0.0001771  -0.         -0.         -0.         -0.
  -0.         -0.         -0.         -0.         -0.00025947 -0.00034024  0.00166115  0.00024935 -0.          0.          0.         -0.         -0.00100596
   0.00042817 -0.00003273]
 [-0.00130182  0.00082033  0.00026083  0.          0.          0.         -0.          0.00020349 -0.00001354  0.          0.          0.          0.
   0.          0.          0.          0.          0.00001983  0.00002601 -0.00012698 -0.00001906  0.         -0.         -0.          0.          0.0000769
  -0.00003273  0.0000025 ]] 
 [[ 0.67739443  0.42685296 -0.13572079  0.         -0.          0.         -0.          0.1058849   0.00704428  0.          0.          0.          0.
   0.          0.          0.          0.          0.01032039 -0.01353322 -0.06607304  0.00991803 -0.         -0.         -0.         -0.          0.04001241
   0.01703047  0.00130182]
 [ 0.42685296  0.2689769  -0.08552303  0.         -0.          0.         -0.          0.06672226  0.00443888  0.          0.          0.          0.
   0.          0.          0.          0.          0.00650329 -0.00852782 -0.04163523  0.00624974 -0.         -0.         -0.         -0.          0.0252134
   0.01073157  0.00082033]
 [-0.13572079 -0.08552303  0.02719263 -0.          0.         -0.          0.         -0.02121479 -0.00141137 -0.         -0.         -0.         -0.
  -0.         -0.         -0.         -0.         -0.00206776  0.00271148  0.0132382  -0.00198715  0.          0.          0.          0.         -0.00801677
  -0.00341218 -0.00026083]
 [ 0.          0.         -0.          0.         -0.          0.         -0.          0.          0.          0.          0.          0.          0.
   0.          0.          0.          0.          0.         -0.         -0.          0.         -0.         -0.         -0.         -0.          0.
   0.          0.        ]
 [-0.         -0.          0.         -0.          0.         -0.          0.         -0.         -0.         -0.         -0.         -0.         -0.
  -0.         -0.         -0.         -0.         -0.          0.          0.         -0.          0.          0.          0.          0.         -0.
  -0.         -0.        ]
 [ 0.          0.         -0.          0.         -0.          0.         -0.          0.          0.          0.          0.          0.          0.
   0.          0.          0.          0.          0.         -0.         -0.          0.         -0.         -0.         -0.         -0.          0.
   0.          0.        ]
 [-0.         -0.          0.         -0.          0.         -0.          0.         -0.         -0.         -0.         -0.         -0.         -0.
  -0.         -0.         -0.         -0.         -0.          0.          0.         -0.          0.          0.          0.          0.         -0.
  -0.         -0.        ]
 [ 0.1058849   0.06672226 -0.02121479  0.         -0.          0.         -0.          0.01655109  0.00110111  0.          0.          0.          0.
   0.          0.          0.          0.          0.0016132  -0.00211541 -0.01032801  0.00155031 -0.         -0.         -0.         -0.          0.00625442
   0.00266207  0.00020349]
 [ 0.00704428  0.00443888 -0.00141137  0.         -0.          0.         -0.          0.00110111  0.00007325  0.          0.          0.          0.
   0.          0.          0.          0.          0.00010732 -0.00014073 -0.0006871   0.00010314 -0.         -0.         -0.         -0.          0.00041609
   0.0001771   0.00001354]
 [ 0.          0.         -0.          0.         -0.          0.         -0.          0.          0.          0.          0.          0.          0.
   0.          0.          0.          0.          0.         -0.         -0.          0.         -0.         -0.         -0.         -0.          0.
   0.          0.        ]
 [ 0.          0.         -0.          0.         -0.          0.         -0.          0.          0.          0.          0.          0.          0.
   0.          0.          0.          0.          0.         -0.         -0.          0.         -0.         -0.         -0.         -0.          0.
   0.          0.        ]
 [ 0.          0.         -0.          0.         -0.          0.         -0.          0.          0.          0.          0.          0.          0.
   0.          0.          0.          0.          0.         -0.         -0.          0.         -0.         -0.         -0.         -0.          0.
   0.          0.        ]
 [ 0.          0.         -0.          0.         -0.          0.         -0.          0.          0.          0.          0.          0.          0.
   0.          0.          0.          0.          0.         -0.         -0.          0.         -0.         -0.         -0.         -0.          0.
   0.          0.        ]
 [ 0.          0.         -0.          0.         -0.          0.         -0.          0.          0.          0.          0.          0.          0.
   0.          0.          0.          0.          0.         -0.         -0.          0.         -0.         -0.         -0.         -0.          0.
   0.          0.        ]
 [ 0.          0.         -0.          0.         -0.          0.         -0.          0.          0.          0.          0.          0.          0.
   0.          0.          0.          0.          0.         -0.         -0.          0.         -0.         -0.         -0.         -0.          0.
   0.          0.        ]
 [ 0.          0.         -0.          0.         -0.          0.         -0.          0.          0.          0.          0.          0.          0.
   0.          0.          0.          0.          0.         -0.         -0.          0.         -0.         -0.         -0.         -0.          0.
   0.          0.        ]
 [ 0.          0.         -0.          0.         -0.          0.         -0.          0.          0.          0.          0.          0.          0.
   0.          0.          0.          0.          0.         -0.         -0.          0.         -0.         -0.         -0.         -0.          0.
   0.          0.        ]
 [ 0.01032039  0.00650329 -0.00206776  0.         -0.          0.         -0.          0.0016132   0.00010732  0.          0.          0.          0.
   0.          0.          0.          0.          0.00015724 -0.00020618 -0.00100665  0.00015111 -0.         -0.         -0.         -0.          0.00060961
   0.00025947  0.00001983]
 [-0.01353322 -0.00852782  0.00271148 -0.          0.         -0.          0.         -0.00211541 -0.00014073 -0.         -0.         -0.         -0.
  -0.         -0.         -0.         -0.         -0.00020618  0.00027037  0.00132003 -0.00019815  0.          0.          0.          0.         -0.00079938
  -0.00034024 -0.00002601]
 [-0.06607304 -0.04163523  0.0132382  -0.          0.         -0.          0.         -0.01032801 -0.0006871  -0.         -0.         -0.         -0.
  -0.         -0.         -0.         -0.         -0.00100665  0.00132003  0.00644476 -0.0009674   0.          0.          0.          0.         -0.00390281
  -0.00166115 -0.00012698]
 [ 0.00991803  0.00624974 -0.00198715  0.         -0.          0.         -0.          0.00155031  0.00010314  0.          0.          0.          0.
   0.          0.          0.          0.          0.00015111 -0.00019815 -0.0009674   0.00014521 -0.         -0.         -0.         -0.          0.00058584
   0.00024935  0.00001906]
 [-0.         -0.          0.         -0.          0.         -0.          0.         -0.         -0.         -0.         -0.         -0.         -0.
  -0.         -0.         -0.         -0.         -0.          0.          0.         -0.          0.          0.          0.          0.         -0.
  -0.         -0.        ]
 [-0.         -0.          0.         -0.          0.         -0.          0.         -0.         -0.         -0.         -0.         -0.         -0.
  -0.         -0.         -0.         -0.         -0.          0.          0.         -0.          0.          0.          0.          0.         -0.
  -0.         -0.        ]
 [-0.         -0.          0.         -0.          0.         -0.          0.         -0.         -0.         -0.         -0.         -0.         -0.
  -0.         -0.         -0.         -0.         -0.          0.          0.         -0.          0.          0.          0.          0.         -0.
  -0.         -0.        ]
 [-0.         -0.          0.         -0.          0.         -0.          0.         -0.         -0.         -0.         -0.         -0.         -0.
  -0.         -0.         -0.         -0.         -0.          0.          0.         -0.          0.          0.          0.          0.         -0.
  -0.         -0.        ]
 [ 0.04001241  0.0252134  -0.00801677  0.         -0.          0.         -0.          0.00625442  0.00041609  0.          0.          0.          0.
   0.          0.          0.          0.          0.00060961 -0.00079938 -0.00390281  0.00058584 -0.         -0.         -0.         -0.          0.00236346
   0.00100596  0.0000769 ]
 [ 0.01703047  0.01073157 -0.00341218  0.         -0.          0.         -0.          0.00266207  0.0001771   0.          0.          0.          0.
   0.          0.          0.          0.          0.00025947 -0.00034024 -0.00166115  0.00024935 -0.         -0.         -0.         -0.          0.00100596
   0.00042817  0.00003273]
 [ 0.00130182  0.00082033 -0.00026083  0.         -0.          0.         -0.          0.00020349  0.00001354  0.          0.          0.          0.
   0.          0.          0.          0.          0.00001983 -0.00002601 -0.00012698  0.00001906 -0.         -0.         -0.         -0.          0.0000769
[...]
Feff (mod,ortho)
[[-0.23075729  0.2774201   0.27740484 ...  0.          0.          0.        ]
 [ 0.2774201   0.12300399 -0.09850555 ...  0.          0.          0.        ]
 [ 0.27740484 -0.09850555  1.21828575 ...  0.          0.          0.        ]
 ...
 [ 0.          0.          0.         ...  3.28304075 -0.01065434  0.25454356]
 [ 0.          0.          0.         ... -0.01065434  1.77940324 -0.01726611]
 [ 0.          0.          0.         ...  0.25454356 -0.01726611  1.52718128]]
E(SUHF) =     -1.02282894
e_a, e_b
[-0.4985056   0.07140223  0.36151563  0.48980398  0.69904421  0.69904421  0.70265951  0.88468742  0.88468742  1.19961956  2.44381453  2.65947262  3.30386221
  3.36869506  3.36869506  3.43057872  3.43057872  3.48747131  3.48747131  3.53632131  3.53632131  3.66538496  3.84732203  3.84732203  3.98836128  3.98836128
  3.99245709  4.48065705] [-0.4985056   0.07140223  0.36151563  0.48980398  0.69904421  0.69904421  0.70265951  0.88468742  0.88468742  1.19961956  2.44381453  2.65947262  3.30386221
  3.36869506  3.36869506  3.43057872  3.43057872  3.48747131  3.48747131  3.53632131  3.53632131  3.66538496  3.84732203  3.84732203  3.98836128  3.98836128
  3.99245709  4.48065705]
P_a, P_b
[[ 0.64056376 -0.43889569 -0.13488294  0.         -0.          0.          0.         -0.11622301  0.00676012 -0.         -0.         -0.         -0.
  -0.         -0.         -0.         -0.         -0.01207408 -0.00162346  0.05821338  0.01065409 -0.          0.         -0.         -0.         -0.0414757
   0.0206528  -0.0082468 ]
 [-0.43889569  0.30071859  0.09241788 -0.          0.         -0.         -0.          0.07963263 -0.00463184  0.          0.          0.          0.
   0.          0.          0.          0.          0.00827281  0.00111234 -0.03988612 -0.00729987  0.         -0.          0.          0.          0.02841794
  -0.0141507   0.00565047]
 [-0.13488294  0.09241788  0.02840218 -0.          0.         -0.         -0.          0.02447298 -0.00142347  0.          0.          0.          0.
   0.          0.          0.          0.          0.00254243  0.00034185 -0.01225794 -0.00224342  0.         -0.          0.          0.          0.0087335
  -0.00434884  0.00173652]
 [ 0.         -0.         -0.          0.         -0.          0.          0.         -0.          0.         -0.         -0.         -0.         -0.
  -0.         -0.         -0.         -0.         -0.         -0.          0.          0.         -0.          0.         -0.         -0.         -0.
   0.         -0.        ]
 [-0.          0.          0.         -0.          0.         -0.         -0.          0.         -0.          0.          0.          0.          0.
   0.          0.          0.          0.          0.          0.         -0.         -0.          0.         -0.          0.          0.          0.
  -0.          0.        ]
 [ 0.         -0.         -0.          0.         -0.          0.          0.         -0.          0.         -0.         -0.         -0.         -0.
  -0.         -0.         -0.         -0.         -0.         -0.          0.          0.         -0.          0.         -0.         -0.         -0.
   0.         -0.        ]
 [ 0.         -0.         -0.          0.         -0.          0.          0.         -0.          0.         -0.         -0.         -0.         -0.
  -0.         -0.         -0.         -0.         -0.         -0.          0.          0.         -0.          0.         -0.         -0.         -0.
   0.         -0.        ]
 [-0.11622301  0.07963263  0.02447298 -0.          0.         -0.         -0.          0.02108734 -0.00122655  0.          0.          0.          0.
   0.          0.          0.          0.          0.0021907   0.00029456 -0.01056216 -0.00193306  0.         -0.          0.          0.          0.00752529
  -0.00374722  0.00149629]
 [ 0.00676012 -0.00463184 -0.00142347  0.         -0.          0.          0.         -0.00122655  0.00007134 -0.         -0.         -0.         -0.
  -0.         -0.         -0.         -0.         -0.00012742 -0.00001713  0.00061435  0.00011244 -0.          0.         -0.         -0.         -0.00043771
   0.00021796 -0.00008703]
 [-0.          0.          0.         -0.          0.         -0.         -0.          0.         -0.          0.          0.          0.          0.
   0.          0.          0.          0.          0.          0.         -0.         -0.          0.         -0.          0.          0.          0.
  -0.          0.        ]
 [-0.          0.          0.         -0.          0.         -0.         -0.          0.         -0.          0.          0.          0.          0.
   0.          0.          0.          0.          0.          0.         -0.         -0.          0.         -0.          0.          0.          0.
  -0.          0.        ]
 [-0.          0.          0.         -0.          0.         -0.         -0.          0.         -0.          0.          0.          0.          0.
   0.          0.          0.          0.          0.          0.         -0.         -0.          0.         -0.          0.          0.          0.
  -0.          0.        ]
 [-0.          0.          0.         -0.          0.         -0.         -0.          0.         -0.          0.          0.          0.          0.
   0.          0.          0.          0.          0.          0.         -0.         -0.          0.         -0.          0.          0.          0.
  -0.          0.        ]
 [-0.          0.          0.         -0.          0.         -0.         -0.          0.         -0.          0.          0.          0.          0.
   0.          0.          0.          0.          0.          0.         -0.         -0.          0.         -0.          0.          0.          0.
  -0.          0.        ]
 [-0.          0.          0.         -0.          0.         -0.         -0.          0.         -0.          0.          0.          0.          0.
   0.          0.          0.          0.          0.          0.         -0.         -0.          0.         -0.          0.          0.          0.
  -0.          0.        ]
 [-0.          0.          0.         -0.          0.         -0.         -0.          0.         -0.          0.          0.          0.          0.
   0.          0.          0.          0.          0.          0.         -0.         -0.          0.         -0.          0.          0.          0.
  -0.          0.        ]
 [-0.          0.          0.         -0.          0.         -0.         -0.          0.         -0.          0.          0.          0.          0.
   0.          0.          0.          0.          0.          0.         -0.         -0.          0.         -0.          0.          0.          0.
  -0.          0.        ]
 [-0.01207408  0.00827281  0.00254243 -0.          0.         -0.         -0.          0.0021907  -0.00012742  0.          0.          0.          0.
   0.          0.          0.          0.          0.00022759  0.0000306  -0.00109727 -0.00020082  0.         -0.          0.          0.          0.00078178
  -0.00038929  0.00015545]
 [-0.00162346  0.00111234  0.00034185 -0.          0.         -0.         -0.          0.00029456 -0.00001713  0.          0.          0.          0.
   0.          0.          0.          0.          0.0000306   0.00000411 -0.00014754 -0.000027    0.         -0.          0.          0.          0.00010512
  -0.00005234  0.0000209 ]
 [ 0.05821338 -0.03988612 -0.01225794  0.         -0.          0.          0.         -0.01056216  0.00061435 -0.         -0.         -0.         -0.
  -0.         -0.         -0.         -0.         -0.00109727 -0.00014754  0.00529034  0.00096823 -0.          0.         -0.         -0.         -0.00376924
   0.00187689 -0.00074946]
 [ 0.01065409 -0.00729987 -0.00224342  0.         -0.          0.          0.         -0.00193306  0.00011244 -0.         -0.         -0.         -0.
  -0.         -0.         -0.         -0.         -0.00020082 -0.000027    0.00096823  0.0001772  -0.          0.         -0.         -0.         -0.00068984
   0.0003435  -0.00013716]
 [-0.          0.          0.         -0.          0.         -0.         -0.          0.         -0.          0.          0.          0.          0.
   0.          0.          0.          0.          0.          0.         -0.         -0.          0.         -0.          0.          0.          0.
  -0.          0.        ]
 [ 0.         -0.         -0.          0.         -0.          0.          0.         -0.          0.         -0.         -0.         -0.         -0.
  -0.         -0.         -0.         -0.         -0.         -0.          0.          0.         -0.          0.         -0.         -0.         -0.
   0.         -0.        ]
 [-0.          0.          0.         -0.          0.         -0.         -0.          0.         -0.          0.          0.          0.          0.
   0.          0.          0.          0.          0.          0.         -0.         -0.          0.         -0.          0.          0.          0.
  -0.          0.        ]
 [-0.          0.          0.         -0.          0.         -0.         -0.          0.         -0.          0.          0.          0.          0.
   0.          0.          0.          0.          0.          0.         -0.         -0.          0.         -0.          0.          0.          0.
  -0.          0.        ]
 [-0.0414757   0.02841794  0.0087335  -0.          0.         -0.         -0.          0.00752529 -0.00043771  0.          0.          0.          0.
   0.          0.          0.          0.          0.00078178  0.00010512 -0.00376924 -0.00068984  0.         -0.          0.          0.          0.0026855
  -0.00133724  0.00053397]
 [ 0.0206528  -0.0141507  -0.00434884  0.         -0.          0.          0.         -0.00374722  0.00021796 -0.         -0.         -0.         -0.
  -0.         -0.         -0.         -0.         -0.00038929 -0.00005234  0.00187689  0.0003435  -0.          0.         -0.         -0.         -0.00133724
   0.00066588 -0.00026589]
 [-0.0082468   0.00565047  0.00173652 -0.          0.         -0.         -0.          0.00149629 -0.00008703  0.          0.          0.          0.
   0.          0.          0.          0.          0.00015545  0.0000209  -0.00074946 -0.00013716  0.         -0.          0.          0.          0.00053397
  -0.00026589  0.00010617]] 
 [[ 0.64056376  0.43889569 -0.13488294  0.          0.          0.         -0.          0.11622301  0.00676012  0.          0.          0.          0.
   0.          0.          0.         -0.          0.01207408 -0.00162346 -0.05821338  0.01065409 -0.         -0.         -0.         -0.          0.0414757
   0.0206528   0.0082468 ]
 [ 0.43889569  0.30071859 -0.09241788  0.          0.          0.         -0.          0.07963263  0.00463184  0.          0.          0.          0.
   0.          0.          0.         -0.          0.00827281 -0.00111234 -0.03988612  0.00729987 -0.         -0.         -0.         -0.          0.02841794
   0.0141507   0.00565047]
 [-0.13488294 -0.09241788  0.02840218 -0.         -0.         -0.          0.         -0.02447298 -0.00142347 -0.         -0.         -0.         -0.
  -0.         -0.         -0.          0.         -0.00254243  0.00034185  0.01225794 -0.00224342  0.          0.          0.          0.         -0.0087335
  -0.00434884 -0.00173652]
 [ 0.          0.         -0.          0.          0.          0.         -0.          0.          0.          0.          0.          0.          0.
   0.          0.          0.         -0.          0.         -0.         -0.          0.         -0.         -0.         -0.         -0.          0.
   0.          0.        ]
 [ 0.          0.         -0.          0.          0.          0.         -0.          0.          0.          0.          0.          0.          0.
   0.          0.          0.         -0.          0.         -0.         -0.          0.         -0.         -0.         -0.         -0.          0.
   0.          0.        ]
 [ 0.          0.         -0.          0.          0.          0.         -0.          0.          0.          0.          0.          0.          0.
   0.          0.          0.         -0.          0.         -0.         -0.          0.         -0.         -0.         -0.         -0.          0.
   0.          0.        ]
 [-0.         -0.          0.         -0.         -0.         -0.          0.         -0.         -0.         -0.         -0.         -0.         -0.
  -0.         -0.         -0.          0.         -0.          0.          0.         -0.          0.          0.          0.          0.         -0.
  -0.         -0.        ]
 [ 0.11622301  0.07963263 -0.02447298  0.          0.          0.         -0.          0.02108734  0.00122655  0.          0.          0.          0.
   0.          0.          0.         -0.          0.0021907  -0.00029456 -0.01056216  0.00193306 -0.         -0.         -0.         -0.          0.00752529
   0.00374722  0.00149629]
 [ 0.00676012  0.00463184 -0.00142347  0.          0.          0.         -0.          0.00122655  0.00007134  0.          0.          0.          0.
   0.          0.          0.         -0.          0.00012742 -0.00001713 -0.00061435  0.00011244 -0.         -0.         -0.         -0.          0.00043771
   0.00021796  0.00008703]
 [ 0.          0.         -0.          0.          0.          0.         -0.          0.          0.          0.          0.          0.          0.
   0.          0.          0.         -0.          0.         -0.         -0.          0.         -0.         -0.         -0.         -0.          0.
   0.          0.        ]
 [ 0.          0.         -0.          0.          0.          0.         -0.          0.          0.          0.          0.          0.          0.
   0.          0.          0.         -0.          0.         -0.         -0.          0.         -0.         -0.         -0.         -0.          0.
   0.          0.        ]
 [ 0.          0.         -0.          0.          0.          0.         -0.          0.          0.          0.          0.          0.          0.
   0.          0.          0.         -0.          0.         -0.         -0.          0.         -0.         -0.         -0.         -0.          0.
   0.          0.        ]
 [ 0.          0.         -0.          0.          0.          0.         -0.          0.          0.          0.          0.          0.          0.
   0.          0.          0.         -0.          0.         -0.         -0.          0.         -0.         -0.         -0.         -0.          0.
   0.          0.        ]
 [ 0.          0.         -0.          0.          0.          0.         -0.          0.          0.          0.          0.          0.          0.
   0.          0.          0.         -0.          0.         -0.         -0.          0.         -0.         -0.         -0.         -0.          0.
   0.          0.        ]
 [ 0.          0.         -0.          0.          0.          0.         -0.          0.          0.          0.          0.          0.          0.
   0.          0.          0.         -0.          0.         -0.         -0.          0.         -0.         -0.         -0.         -0.          0.
   0.          0.        ]
 [ 0.          0.         -0.          0.          0.          0.         -0.          0.          0.          0.          0.          0.          0.
   0.          0.          0.         -0.          0.         -0.         -0.          0.         -0.         -0.         -0.         -0.          0.
   0.          0.        ]
 [-0.         -0.          0.         -0.         -0.         -0.          0.         -0.         -0.         -0.         -0.         -0.         -0.
  -0.         -0.         -0.          0.         -0.          0.          0.         -0.          0.          0.          0.          0.         -0.
  -0.         -0.        ]
 [ 0.01207408  0.00827281 -0.00254243  0.          0.          0.         -0.          0.0021907   0.00012742  0.          0.          0.          0.
   0.          0.          0.         -0.          0.00022759 -0.0000306  -0.00109727  0.00020082 -0.         -0.         -0.         -0.          0.00078178
   0.00038929  0.00015545]
 [-0.00162346 -0.00111234  0.00034185 -0.         -0.         -0.          0.         -0.00029456 -0.00001713 -0.         -0.         -0.         -0.
  -0.         -0.         -0.          0.         -0.0000306   0.00000411  0.00014754 -0.000027    0.          0.          0.          0.         -0.00010512
  -0.00005234 -0.0000209 ]
 [-0.05821338 -0.03988612  0.01225794 -0.         -0.         -0.          0.         -0.01056216 -0.00061435 -0.         -0.         -0.         -0.
  -0.         -0.         -0.          0.         -0.00109727  0.00014754  0.00529034 -0.00096823  0.          0.          0.          0.         -0.00376924
  -0.00187689 -0.00074946]
 [ 0.01065409  0.00729987 -0.00224342  0.          0.          0.         -0.          0.00193306  0.00011244  0.          0.          0.          0.
   0.          0.          0.         -0.          0.00020082 -0.000027   -0.00096823  0.0001772  -0.         -0.         -0.         -0.          0.00068984
   0.0003435   0.00013716]
 [-0.         -0.          0.         -0.         -0.         -0.          0.         -0.         -0.         -0.         -0.         -0.         -0.
  -0.         -0.         -0.          0.         -0.          0.          0.         -0.          0.          0.          0.          0.         -0.
  -0.         -0.        ]
 [-0.         -0.          0.         -0.         -0.         -0.          0.         -0.         -0.         -0.         -0.         -0.         -0.
  -0.         -0.         -0.          0.         -0.          0.          0.         -0.          0.          0.          0.          0.         -0.
  -0.         -0.        ]
 [-0.         -0.          0.         -0.         -0.         -0.          0.         -0.         -0.         -0.         -0.         -0.         -0.
  -0.         -0.         -0.          0.         -0.          0.          0.         -0.          0.          0.          0.          0.         -0.
  -0.         -0.        ]
 [-0.         -0.          0.         -0.         -0.         -0.          0.         -0.         -0.         -0.         -0.         -0.         -0.
  -0.         -0.         -0.          0.         -0.          0.          0.         -0.          0.          0.          0.          0.         -0.
  -0.         -0.        ]
 [ 0.0414757   0.02841794 -0.0087335   0.          0.          0.         -0.          0.00752529  0.00043771  0.          0.          0.          0.
   0.          0.          0.         -0.          0.00078178 -0.00010512 -0.00376924  0.00068984 -0.         -0.         -0.         -0.          0.0026855
   0.00133724  0.00053397]
 [ 0.0206528   0.0141507  -0.00434884  0.          0.          0.         -0.          0.00374722  0.00021796  0.          0.          0.          0.
   0.          0.          0.         -0.          0.00038929 -0.00005234 -0.00187689  0.0003435  -0.         -0.         -0.         -0.          0.00133724
   0.00066588  0.00026589]
 [ 0.0082468   0.00565047 -0.00173652  0.          0.          0.         -0.          0.00149629  0.00008703  0.          0.          0.          0.
   0.          0.          0.         -0.          0.00015545 -0.0000209  -0.00074946  0.00013716 -0.         -0.         -0.         -0.          0.00053397
   0.00026589  0.00010617]]

***************
SUHF converged at cycle 11
Final E(SUHF) =     -1.02282894, delta E = -3.45126e-09
***** Start DFT Correlation for SUHF+DFT **********
tot grids = 20048
E(SUHF) =     -1.02282894
E_c(TPSS) =     -0.00798408
E(SUHF+DFT) =     -1.03081301
