

#INFO: **** input file is /share/home/srwang/ExSCF/test/pytest/scan_h2/scan_dft.py ****
#import phf
from pyscf import lib
#import scipy
import numpy as np
import sys, os, contextlib

from pyphf import util, sudft

#xyz = 'h2.xyz' #sys.argv[1]
fch = 'test_uhf.fchk' #sys.argv[2]
#bas = '../h2.bas'
bas = 'cc-pvtz'

lib.num_threads(4)

for r in np.arange(0.9, 2.55, 0.1):
    output = 'tpss/sudft_%.1f_diis.out' % r
    os.system("echo '\n' > %s" % output)
    with open(output, 'a', encoding='utf-8') as f:
        with contextlib.redirect_stdout(f):
            xyz = '''H 0.0 0.0 0.0; H 0.0 0.0 %f'''%r
            mf = util.guess_from_fchk(xyz, bas, fch)
            #mf = util.guess(xyz, bas)
            #f.flush()
            mf2 = util.SUHF(mf)
            #mf2.cut_no = False
            mf2.debug = False
            #mf2.max_cycle = 50
            mf2.diis_on = True
            #mf2.output = 'sudft_%.1f.out'%r
            #mf2.kernel()
            
            mf3 = sudft.SUDFT(mf2)
            mf3.suxc = 'TPSS'
            mf3.kernel()
                    
#INFO: ******************** input file end ********************


System: uname_result(system='Linux', node='xc02n18', release='3.10.0-693.el7.x86_64', version='#1 SMP Thu Jul 6 19:56:57 EDT 2017', machine='x86_64', processor='x86_64')  Threads 4
Python 3.7.4 (default, Aug 13 2019, 20:35:49) 
[GCC 7.3.0]
numpy 1.17.2  scipy 1.4.1
Date: Tue Nov 24 03:36:13 2020
PySCF version 1.7.5
PySCF path  /share/home/srwang/pyscf-1.7.5/pyscf

[CONFIG] conf_file None
[INPUT] verbose = 4
[INPUT] num. atoms = 2
[INPUT] num. electrons = 2
[INPUT] charge = 0
[INPUT] spin (= nelec alpha-beta = 2S) = 0
[INPUT] symmetry False subgroup None
[INPUT] Mole.unit = angstrom
[INPUT]  1 H      0.000000000000   0.000000000000   0.000000000000 AA    0.000000000000   0.000000000000   0.000000000000 Bohr
[INPUT]  2 H      0.000000000000   0.000000000000   2.200000000000 AA    0.000000000000   0.000000000000   4.157397474043 Bohr

nuclear repulsion = 0.240535095872727
number of shells = 12
number of NR pGTOs = 32
number of NR cGTOs = 28
basis = cc-pvtz
ecp = {}
CPU time:       212.08


******** <class 'pyscf.scf.uhf.UHF'> ********
method = UHF
initial guess = minao
damping factor = 0
level_shift factor = 0
DIIS = <class 'pyscf.scf.diis.CDIIS'>
diis_start_cycle = 1
diis_space = 8
SCF conv_tol = 1e-09
SCF conv_tol_grad = None
SCF max_cycles = 1
direct_scf = True
direct_scf_tol = 1e-13
chkfile to save SCF result = /share/home/srwang/ExSCF/test/pytest/scan_h2/tmpvq03tp_b
max_memory 4000 MB (current use 132 MB)
number electrons alpha = 1  beta = 1
Set gradient conv threshold to 3.16228e-05
init E= -0.649551796991941
  alpha nocc = 1  HOMO = -0.239049388508465  LUMO = -0.120735847604367
  beta  nocc = 1  HOMO = -0.237686741456872  LUMO = -0.120495734865779
cycle= 1 E= -0.899190039010813  delta_E= -0.25  |g|= 0.0329  |ddm|= 0.447
SCF not converged.
SCF energy = -0.899190039010813 after 1 cycles  <S^2> = 2.0907434e-07  2S+1 = 1.0000004


******** <class 'pyscf.scf.uhf.UHF'> ********
method = UHF
initial guess = minao
damping factor = 0
level_shift factor = 0
DIIS = <class 'pyscf.scf.diis.CDIIS'>
diis_start_cycle = 1
diis_space = 8
SCF conv_tol = 1e-09
SCF conv_tol_grad = None
SCF max_cycles = 1
direct_scf = True
direct_scf_tol = 1e-13
chkfile to save SCF result = /share/home/srwang/ExSCF/test/pytest/scan_h2/tmpvq03tp_b
max_memory 4000 MB (current use 132 MB)
number electrons alpha = 1  beta = 1
Set gradient conv threshold to 3.16228e-05
init E= -0.871385452304214
  alpha nocc = 1  HOMO = -0.491511711852852  LUMO = -0.0355362423483192
  beta  nocc = 1  HOMO = -0.49151171185285  LUMO = -0.0355362423483176
cycle= 1 E= -0.993445926443811  delta_E= -0.122  |g|= 0.0518  |ddm|= 0.12
SCF not converged.
SCF energy = -0.993445926443811 after 1 cycles  <S^2> = 0.80309565  2S+1 = 2.052409

******** <class 'pyphf.util.SUHF'> ********
max_cycle = 70
verbose: normal
DIIS: <class 'pyscf.scf.diis.CDIIS'>
diis_start_cyc = 40
SVD: S^(-1/2)
[[-0.18462144  0.29104131  0.08144124  0.          0.         -0.          0.         -0.12903284 -0.0312537   0.          0.          0.          0.
   0.          0.          0.          0.          0.04026794 -0.65925407 -0.65350977 -0.10537483 -0.         -0.         -0.         -0.          0.40001314
  -0.84938511  0.74209296]
 [-0.25817761  0.32162579  0.06976794 -0.          0.          0.          0.         -0.09444553 -0.00501076  0.          0.         -0.          0.
   0.          0.          0.         -0.          0.0071401  -0.04430046  0.20061654  0.02121993 -0.          0.         -0.          0.         -0.33512315
   1.6747108  -1.64482218]
 [-0.2798212   0.21267876  0.03740664  0.          0.         -0.         -0.         -0.00720527  0.00641794 -0.         -0.         -0.         -0.
  -0.         -0.         -0.         -0.         -0.01616186  0.48945575  0.59561333  0.1284228   0.          0.          0.          0.         -0.26228873
  -0.99011981  1.57863096]
 [ 0.         -0.          0.         -0.32612916  0.20510798  0.40124792 -0.01372533  0.          0.          0.0001159  -0.0143561  -0.         -0.
   0.         -0.         -0.0000066  -0.01455141  0.          0.         -0.         -0.          0.33642559  0.72859601  0.2603893   0.76652543 -0.
  -0.         -0.        ]
 [ 0.          0.         -0.         -0.20510798 -0.32612916  0.01372533  0.40124792 -0.         -0.         -0.0143561  -0.0001159  -0.          0.
  -0.          0.          0.01455141 -0.0000066  -0.          0.          0.          0.         -0.72859601  0.33642559 -0.76652543  0.2603893  -0.
  -0.          0.        ]
 [-0.03865343 -0.0756908  -0.34627668 -0.          0.          0.          0.         -0.43007749 -0.0609045   0.         -0.         -0.         -0.
  -0.         -0.          0.         -0.          0.06560296 -0.13836697  0.3365432   0.79110405  0.          0.          0.          0.          0.7601111
   0.01616229 -0.15012765]
 [-0.         -0.          0.         -0.33555266  0.21103458  0.39002694 -0.0133415   0.          0.          0.00000164 -0.00020323  0.         -0.
   0.         -0.         -0.00000005 -0.00011792  0.         -0.          0.          0.         -0.32711274 -0.7084272  -0.26799386 -0.78891147 -0.
   0.          0.        ]
 [ 0.          0.         -0.         -0.21103458 -0.33555266  0.0133415   0.39002694 -0.         -0.         -0.00020323 -0.00000164 -0.          0.
  -0.         -0.          0.00011792 -0.00000005 -0.          0.         -0.         -0.          0.7084272  -0.32711274  0.78891147 -0.26799386  0.
   0.         -0.        ]
 [-0.07555883 -0.10528112 -0.39463553 -0.          0.          0.         -0.         -0.35422246 -0.00286124 -0.         -0.          0.         -0.
  -0.          0.         -0.         -0.         -0.00028096  0.02718811 -0.23379118 -0.70424258 -0.         -0.         -0.         -0.         -0.98697296
   0.0138409   0.32171963]
 [ 0.          0.          0.          0.          0.          0.          0.         -0.          0.         -0.         -0.          0.57791463  0.40738281
   0.56347348  0.42726055 -0.         -0.          0.         -0.          0.          0.          0.          0.          0.          0.          0.
   0.          0.        ]
 [ 0.          0.         -0.         -0.00422981 -0.00672555 -0.00028447 -0.00831623 -0.         -0.          0.70628242  0.00570216  0.         -0.
   0.         -0.          0.7076184  -0.00032075 -0.         -0.          0.         -0.         -0.0146058   0.00674416  0.0156313  -0.00530996 -0.
  -0.          0.        ]
 [-0.01118954 -0.00799273 -0.02792884 -0.         -0.         -0.          0.          0.04797288  0.70049824  0.         -0.          0.         -0.
  -0.          0.          0.         -0.          0.70599523 -0.046134    0.01751481  0.06017938  0.         -0.          0.          0.         -0.09645505
  -0.01538387  0.0245249 ]
 [-0.         -0.          0.         -0.00672555  0.00422981 -0.00831623  0.00028447  0.         -0.         -0.00570216  0.70628242 -0.          0.
   0.         -0.         -0.00032075 -0.7076184   0.          0.         -0.         -0.          0.00674416  0.0146058  -0.00530996 -0.0156313   0.
   0.          0.        ]
 [ 0.          0.          0.         -0.         -0.          0.         -0.          0.          0.          0.         -0.         -0.40738281  0.57791463
  -0.42726055  0.56347348  0.         -0.          0.          0.          0.         -0.          0.         -0.         -0.          0.         -0.
  -0.         -0.        ]
 [-0.18462144 -0.29104131  0.08144124  0.         -0.         -0.          0.          0.12903284 -0.0312537  -0.          0.         -0.         -0.
   0.          0.         -0.          0.         -0.04026794 -0.65925407  0.65350977 -0.10537483  0.         -0.          0.         -0.         -0.40001314
  -0.84938511 -0.74209296]
 [-0.25817761 -0.32162579  0.06976794  0.         -0.         -0.          0.          0.09444553 -0.00501076  0.         -0.         -0.         -0.
  -0.         -0.          0.         -0.         -0.0071401  -0.04430046 -0.20061654  0.02121993 -0.          0.         -0.          0.          0.33512315
   1.6747108   1.64482218]
 [-0.2798212  -0.21267876  0.03740664  0.         -0.         -0.         -0.          0.00720527  0.00641794  0.         -0.          0.          0.
   0.          0.          0.         -0.          0.01616186  0.48945575 -0.59561333  0.1284228  -0.         -0.         -0.         -0.          0.26228873
  -0.99011981 -1.57863096]
 [-0.         -0.          0.         -0.32612916  0.20510798 -0.40124792  0.01372533  0.         -0.          0.0001159  -0.0143561   0.         -0.
  -0.          0.          0.0000066   0.01455141  0.          0.         -0.         -0.          0.33642559  0.72859601 -0.2603893  -0.76652543  0.
   0.          0.        ]
 [ 0.          0.         -0.         -0.20510798 -0.32612916 -0.01372533 -0.40124792 -0.          0.         -0.0143561  -0.0001159  -0.          0.
  -0.          0.         -0.01455141  0.0000066  -0.         -0.          0.          0.         -0.72859601  0.33642559  0.76652543 -0.2603893   0.
   0.         -0.        ]
 [ 0.03865343 -0.0756908   0.34627668  0.          0.          0.          0.         -0.43007749  0.0609045  -0.         -0.          0.          0.
   0.          0.         -0.         -0.          0.06560296  0.13836697  0.3365432  -0.79110405 -0.         -0.         -0.         -0.          0.7601111
  -0.01616229 -0.15012765]
 [-0.         -0.          0.         -0.33555266  0.21103458 -0.39002694  0.0133415   0.         -0.          0.00000164 -0.00020323  0.         -0.
   0.         -0.          0.00000005  0.00011792  0.         -0.          0.          0.         -0.32711274 -0.7084272   0.26799386  0.78891147  0.
  -0.         -0.        ]
 [ 0.          0.         -0.         -0.21103458 -0.33555266 -0.0133415  -0.39002694 -0.          0.         -0.00020323 -0.00000164  0.         -0.
   0.          0.         -0.00011792  0.00000005 -0.          0.         -0.         -0.          0.7084272  -0.32711274 -0.78891147  0.26799386 -0.
  -0.         -0.        ]
 [ 0.07555883 -0.10528112  0.39463553  0.          0.         -0.          0.         -0.35422246  0.00286124  0.          0.          0.         -0.
  -0.         -0.          0.          0.         -0.00028096 -0.02718811 -0.23379118  0.70424258  0.          0.          0.          0.         -0.98697296
  -0.0138409   0.32171963]
 [-0.         -0.         -0.         -0.          0.          0.         -0.         -0.          0.          0.         -0.          0.57791463  0.40738281
  -0.56347348 -0.42726055  0.         -0.          0.          0.          0.         -0.         -0.          0.         -0.          0.         -0.
  -0.         -0.        ]
 [-0.         -0.          0.          0.00422981  0.00672555 -0.00028447 -0.00831623  0.         -0.         -0.70628242 -0.00570216 -0.          0.
  -0.          0.          0.7076184  -0.00032075  0.          0.         -0.         -0.          0.0146058  -0.00674416  0.0156313  -0.00530996  0.
   0.         -0.        ]
 [-0.01118954  0.00799273 -0.02792884  0.          0.          0.         -0.         -0.04797288  0.70049824  0.          0.          0.         -0.
  -0.          0.          0.          0.         -0.70599523 -0.046134   -0.01751481  0.06017938 -0.          0.         -0.          0.          0.09645505
  -0.01538387 -0.0245249 ]
 [ 0.          0.         -0.          0.00672555 -0.00422981 -0.00831623  0.00028447 -0.         -0.          0.00570216 -0.70628242 -0.         -0.
   0.         -0.         -0.00032075 -0.7076184  -0.         -0.          0.          0.         -0.00674416 -0.0146058  -0.00530996 -0.0156313  -0.
   0.          0.        ]
 [ 0.          0.          0.         -0.          0.         -0.          0.          0.          0.          0.         -0.         -0.40738281  0.57791463
   0.42726055 -0.56347348  0.          0.          0.          0.          0.          0.          0.         -0.          0.         -0.          0.
   0.          0.        ]]
C (ortho)
[[-0.84183249 -0.5046467  -0.01168403  0.14862314 -0.09358494 -0.         -0.         -0.         -0.          0.01219102  0.04307253  0.02811149 -0.00301564
   0.         -0.         -0.         -0.         -0.         -0.          0.          0.          0.00188278  0.          0.         -0.0532869  -0.
   0.          0.0044735 ]
 [ 0.51189019 -0.77907159 -0.06470547  0.26327053  0.02302946 -0.         -0.         -0.         -0.         -0.17796765 -0.02769308  0.12640621 -0.00859498
  -0.          0.          0.         -0.         -0.         -0.         -0.         -0.          0.05542386  0.          0.         -0.00092133 -0.
   0.         -0.07364047]
 [ 0.10947114  0.03150038  0.00408325  0.00522826 -0.87820982 -0.          0.         -0.          0.          0.06065746  0.01004861 -0.00057832  0.08219893
   0.         -0.         -0.          0.         -0.         -0.          0.          0.          0.02802723  0.          0.         -0.45083525 -0.
   0.          0.03394189]
 [ 0.          0.         -0.         -0.         -0.         -0.48853009 -0.65981609 -0.05980613 -0.25804215 -0.         -0.         -0.          0.
   0.02047119  0.03365885 -0.          0.         -0.          0.         -0.01832655 -0.01631799  0.         -0.41263628 -0.23622193 -0.         -0.14944107
  -0.07254168 -0.        ]
 [ 0.         -0.         -0.         -0.          0.         -0.65981609  0.48853009  0.25804215 -0.05980613  0.          0.         -0.         -0.
   0.03365885 -0.02047119  0.          0.          0.         -0.         -0.01631799  0.01832655  0.         -0.23622193  0.41263628 -0.          0.07254168
  -0.14944107  0.        ]
 [ 0.         -0.         -0.          0.         -0.          0.02964365  0.26812081 -0.56056543 -0.59576706  0.          0.          0.          0.
   0.00027416  0.01427231 -0.          0.          0.         -0.          0.01238002  0.03785267 -0.          0.07860159  0.13612646  0.         -0.47984524
   0.0362016   0.        ]
 [ 0.         -0.          0.          0.         -0.          0.26812081 -0.02964365  0.59576706 -0.56056543  0.          0.         -0.         -0.
   0.01427231 -0.00027416  0.         -0.         -0.          0.          0.03785267 -0.01238002 -0.          0.13612646 -0.07860159  0.         -0.0362016
  -0.47984524 -0.        ]
 [-0.09415922  0.07982906  0.19246891 -0.21395344 -0.06973536 -0.          0.          0.         -0.         -0.80406897  0.00718009 -0.04272598 -0.01469613
   0.         -0.         -0.          0.         -0.          0.          0.          0.          0.14531563 -0.          0.         -0.01966233 -0.
  -0.         -0.47639773]
 [-0.00601998  0.00133481  0.01031888  0.00825799  0.02360413 -0.          0.         -0.          0.         -0.00456337  0.12542794  0.0539298   0.97270035
  -0.         -0.         -0.          0.         -0.         -0.         -0.          0.          0.12145419 -0.         -0.          0.14018568  0.
  -0.          0.00442932]
 [-0.          0.          0.          0.          0.          0.00882456 -0.00074295 -0.00243842  0.00241748  0.          0.          0.          0.
   0.90528338  0.00625828  0.         -0.          0.          0.         -0.40043438  0.11948265 -0.          0.06497504 -0.03528776  0.          0.00157451
   0.01547111  0.        ]
 [-0.          0.         -0.         -0.         -0.          0.00074295  0.00882456  0.00241748  0.00243842 -0.         -0.         -0.          0.
  -0.00625828  0.90528338 -0.          0.         -0.         -0.         -0.11948265 -0.40043438 -0.          0.03528776  0.06497504  0.          0.01547111
  -0.00157451  0.        ]
 [-0.          0.         -0.         -0.          0.          0.          0.         -0.          0.          0.          0.          0.         -0.
   0.         -0.         -0.42145185  0.59196191  0.5097382  -0.46057183 -0.         -0.          0.          0.         -0.         -0.         -0.
   0.         -0.        ]
 [-0.          0.         -0.         -0.          0.         -0.          0.          0.         -0.          0.          0.          0.         -0.
  -0.          0.          0.59196191  0.42145185  0.46057183  0.5097382   0.         -0.          0.         -0.          0.         -0.          0.
  -0.          0.        ]
 [-0.          0.         -0.         -0.          0.          0.         -0.         -0.          0.          0.         -0.          0.         -0.
   0.         -0.         -0.41764575  0.54546444 -0.52192304  0.50560548 -0.          0.          0.          0.         -0.         -0.          0.
   0.          0.        ]
 [-0.          0.         -0.         -0.          0.         -0.          0.         -0.         -0.          0.          0.          0.         -0.
  -0.         -0.          0.54546444  0.41764575 -0.50560548 -0.52192304  0.         -0.          0.         -0.          0.         -0.         -0.
  -0.         -0.        ]
 [-0.          0.          0.          0.          0.         -0.00312343  0.00023901 -0.00816461  0.00821879  0.          0.          0.          0.
   0.4195426   0.00609764  0.         -0.         -0.          0.          0.86951813 -0.25224965 -0.         -0.0285421   0.01522065  0.          0.00602469
   0.05503208  0.        ]
 [ 0.          0.         -0.         -0.         -0.          0.00023901  0.00312343 -0.00821879 -0.00816461 -0.         -0.         -0.          0.
   0.00609764 -0.4195426  -0.         -0.         -0.          0.         -0.25224965 -0.86951813 -0.          0.01522065  0.0285421   0.         -0.05503208
   0.00602469  0.        ]
 [ 0.00475907  0.0063856  -0.04064818  0.03945994 -0.00242282 -0.          0.          0.         -0.         -0.06547083 -0.03519364  0.11204471  0.12637994
  -0.         -0.         -0.          0.         -0.          0.          0.          0.         -0.95309276 -0.          0.         -0.05655157  0.
  -0.         -0.22602329]
 [ 0.02133887  0.16312757  0.57334028  0.52919042  0.09663745 -0.         -0.          0.         -0.         -0.00564752  0.53204669  0.20178562 -0.06969875
   0.          0.          0.         -0.          0.         -0.          0.         -0.          0.00051024  0.          0.         -0.16131779 -0.
   0.          0.01136041]
 [ 0.0761448  -0.28161803  0.49649229 -0.43679467  0.00493513  0.          0.         -0.          0.          0.01399291  0.19412484 -0.55812741  0.02510285
  -0.         -0.         -0.          0.         -0.          0.          0.          0.         -0.18437167 -0.         -0.          0.01168292  0.
  -0.          0.3056611 ]
 [ 0.00893757  0.01920423  0.12483091  0.12870262 -0.45001765 -0.          0.         -0.          0.          0.04000276  0.05380283  0.0172251  -0.11613743
  -0.          0.          0.          0.          0.          0.         -0.         -0.         -0.05437137 -0.         -0.          0.86047953  0.
  -0.         -0.05681084]
 [ 0.         -0.          0.          0.         -0.          0.41852182 -0.23327941 -0.15155806  0.05645593  0.          0.         -0.          0.
   0.04527586 -0.02008832  0.          0.          0.         -0.         -0.02699796  0.0234165  -0.         -0.49282616  0.64994764 -0.          0.08707776
  -0.26007755  0.        ]
 [ 0.         -0.         -0.         -0.         -0.         -0.23327941 -0.41852182 -0.05645593 -0.15155806  0.          0.          0.         -0.
  -0.02008832 -0.04527586 -0.         -0.          0.         -0.          0.0234165   0.02699796 -0.          0.64994764  0.49282616  0.          0.26007755
   0.08707776  0.        ]
 [ 0.         -0.          0.          0.         -0.          0.14112929 -0.06023336  0.43342444 -0.21565162  0.          0.         -0.          0.
  -0.01205335  0.00389406  0.          0.          0.         -0.         -0.03862839  0.02696186 -0.         -0.19042316  0.20282516  0.         -0.17599267
   0.79456914  0.        ]
 [ 0.         -0.         -0.         -0.         -0.         -0.06023336 -0.14112929  0.21565162  0.43342444 -0.          0.          0.         -0.
   0.00389406  0.01205335  0.          0.          0.         -0.          0.02696186  0.03862839 -0.          0.20282516  0.19042316  0.         -0.79456914
  -0.17599267  0.        ]
 [-0.03752276  0.07031813 -0.02979854  0.00993294 -0.03753897 -0.          0.          0.         -0.         -0.49571766 -0.12363603  0.33222786 -0.00133026
  -0.         -0.         -0.          0.         -0.          0.         -0.          0.         -0.10799337 -0.         -0.          0.05052766  0.
   0.          0.77822684]
 [ 0.02514332 -0.07174808 -0.40252381 -0.40808932 -0.02593886  0.          0.          0.          0.         -0.00292752  0.76247937  0.2649195  -0.10835993
   0.          0.          0.         -0.          0.          0.         -0.         -0.         -0.0130013  -0.         -0.          0.03878027  0.
   0.         -0.00209295]
 [-0.00207534 -0.12079364  0.45070743 -0.45512537  0.00848126  0.          0.         -0.          0.          0.25708544 -0.24482858  0.65792469 -0.01034008
   0.          0.         -0.          0.         -0.          0.          0.         -0.          0.05571843  0.         -0.         -0.00535058  0.
  -0.         -0.1136549 ]]
[[-0.84183249 -0.5046467  -0.01168403  0.14862314  0.09358494 -0.          0.         -0.          0.         -0.01219102  0.04307253  0.02811149 -0.00301564
   0.         -0.          0.         -0.         -0.          0.          0.          0.          0.00188278  0.          0.          0.0532869   0.
   0.         -0.0044735 ]
 [-0.51189019  0.77907159  0.06470547 -0.26327053  0.02302946 -0.         -0.         -0.         -0.         -0.17796765  0.02769308 -0.12640621  0.00859498
   0.          0.          0.          0.          0.          0.         -0.          0.         -0.05542386 -0.         -0.         -0.00092133 -0.
   0.         -0.07364047]
 [ 0.10947114  0.03150038  0.00408325  0.00522826  0.87820982 -0.         -0.         -0.         -0.         -0.06065746  0.01004861 -0.00057832  0.08219893
  -0.         -0.         -0.         -0.          0.         -0.          0.         -0.          0.02802723  0.          0.          0.45083525  0.
   0.         -0.03394189]
 [ 0.         -0.         -0.          0.         -0.         -0.66592372 -0.48017135 -0.16321098 -0.20862574 -0.         -0.         -0.         -0.
  -0.03082096 -0.02453684  0.          0.         -0.          0.          0.01278559  0.0209444  -0.         -0.44348356 -0.17144045  0.         -0.11535654
  -0.11953157  0.        ]
 [-0.          0.         -0.          0.         -0.          0.48017135 -0.66592372  0.20862574 -0.16321098  0.         -0.          0.          0.
   0.02453684 -0.03082096  0.         -0.         -0.         -0.          0.0209444  -0.01278559 -0.         -0.17144045  0.44348356  0.          0.11953157
  -0.11535654  0.        ]
 [-0.          0.          0.         -0.          0.         -0.26847328 -0.02626044  0.75976132  0.30320741  0.          0.         -0.          0.
   0.01412483  0.00206469 -0.         -0.          0.          0.          0.00083045  0.03981708 -0.         -0.09819035 -0.12274884 -0.          0.46300278
   0.13111231  0.        ]
 [-0.         -0.          0.         -0.          0.          0.02626044 -0.26847328 -0.30320741  0.75976132  0.          0.          0.         -0.
  -0.00206469  0.01412483 -0.          0.         -0.         -0.          0.03981708 -0.00083045 -0.         -0.12274884  0.09819035 -0.         -0.13111231
   0.46300278 -0.        ]
 [ 0.09415922 -0.07982906 -0.19246891  0.21395344 -0.06973536  0.         -0.          0.          0.         -0.80406897 -0.00718009  0.04272598  0.01469613
   0.         -0.         -0.          0.          0.          0.         -0.          0.         -0.14531563 -0.          0.         -0.01966233  0.
  -0.         -0.47639773]
 [-0.00601998  0.00133481  0.01031888  0.00825799 -0.02360413 -0.         -0.          0.         -0.          0.00456337  0.12542794  0.0539298   0.97270035
  -0.          0.          0.          0.          0.          0.          0.         -0.          0.12145419 -0.         -0.         -0.14018568 -0.
  -0.         -0.00442932]
 [ 0.         -0.         -0.         -0.          0.         -0.00063162  0.00883323 -0.00118899  0.00322124 -0.          0.         -0.         -0.
   0.10750103 -0.89889972  0.          0.         -0.          0.          0.41787433  0.00220074 -0.          0.05892526 -0.04466313 -0.         -0.00384488
   0.01506822 -0.        ]
 [-0.          0.          0.         -0.          0.          0.00883323  0.00063162  0.00322124  0.00118899 -0.          0.         -0.         -0.
  -0.89889972 -0.10750103 -0.          0.         -0.          0.         -0.00220074  0.41787433 -0.          0.04466313  0.05892526 -0.          0.01506822
   0.00384488  0.        ]
 [ 0.         -0.         -0.          0.         -0.         -0.          0.          0.          0.          0.          0.         -0.          0.
   0.         -0.         -0.47289189  0.5517371   0.56001992 -0.39791598  0.          0.          0.          0.         -0.          0.          0.
   0.         -0.        ]
 [ 0.         -0.         -0.          0.         -0.          0.         -0.         -0.         -0.          0.         -0.         -0.         -0.
  -0.          0.          0.5517371   0.47289189  0.39791598  0.56001992 -0.         -0.         -0.         -0.          0.          0.         -0.
  -0.          0.        ]
 [ 0.         -0.          0.          0.         -0.          0.          0.         -0.         -0.          0.         -0.         -0.         -0.
   0.         -0.          0.46492698 -0.50576906  0.57737867 -0.44121926  0.          0.         -0.          0.         -0.          0.         -0.
  -0.          0.        ]
 [ 0.         -0.          0.          0.         -0.         -0.         -0.          0.         -0.          0.         -0.         -0.          0.
  -0.          0.         -0.50576906 -0.46492698  0.44121926  0.57737867  0.         -0.          0.         -0.          0.          0.          0.
  -0.         -0.        ]
 [ 0.         -0.         -0.         -0.          0.         -0.00019961  0.00312619  0.0039286  -0.01089842 -0.          0.         -0.         -0.
  -0.04664806  0.41698577 -0.          0.         -0.         -0.          0.90529307  0.01166671 -0.          0.02592677 -0.01934224 -0.          0.01327842
  -0.05374486  0.        ]
 [-0.         -0.          0.         -0.          0.         -0.00312619 -0.00019961  0.01089842  0.0039286   0.          0.         -0.         -0.
  -0.41698577 -0.04664806  0.          0.         -0.         -0.          0.01166671 -0.90529307 -0.         -0.01934224 -0.02592677 -0.          0.05374486
   0.01327842  0.        ]
 [-0.00475907 -0.0063856   0.04064818 -0.03945994 -0.00242282  0.         -0.          0.         -0.         -0.06547083  0.03519364 -0.11204471 -0.12637994
  -0.         -0.         -0.          0.          0.         -0.          0.         -0.          0.95309276 -0.          0.         -0.05655157  0.
  -0.         -0.22602329]
 [ 0.02133887  0.16312757  0.57334028  0.52919042 -0.09663745 -0.          0.         -0.          0.          0.00564752  0.53204669  0.20178562 -0.06969875
   0.         -0.          0.         -0.         -0.         -0.          0.          0.          0.00051024  0.          0.          0.16131779  0.
   0.         -0.01136041]
 [-0.0761448   0.28161803 -0.49649229  0.43679467  0.00493513  0.          0.          0.          0.          0.01399291 -0.19412484  0.55812741 -0.02510285
  -0.         -0.         -0.          0.          0.         -0.          0.         -0.          0.18437167  0.         -0.          0.01168292 -0.
   0.          0.3056611 ]
 [ 0.00893757  0.01920423  0.12483091  0.12870262  0.45001765  0.         -0.          0.         -0.         -0.04000276  0.05380283  0.0172251  -0.11613743
   0.          0.         -0.          0.          0.          0.         -0.          0.         -0.05437137 -0.         -0.         -0.86047953 -0.
  -0.          0.05681084]
 [ 0.          0.          0.         -0.          0.         -0.22798354  0.42143006 -0.11352385  0.11519311  0.         -0.          0.         -0.
   0.02561618 -0.04239405  0.         -0.         -0.         -0.          0.03264329 -0.01454778 -0.         -0.38941328  0.71670555 -0.          0.17124752
  -0.21423621  0.        ]
 [ 0.          0.         -0.          0.         -0.         -0.42143006 -0.22798354 -0.11519311 -0.11352385 -0.          0.          0.          0.
   0.04239405  0.02561618 -0.         -0.          0.         -0.         -0.01454778 -0.03264329 -0.          0.71670555  0.38941328 -0.          0.21423621
   0.17124752  0.        ]
 [-0.          0.          0.         -0.          0.          0.05844901 -0.14187757 -0.30175949  0.3785546   0.         -0.          0.          0.
   0.0053772  -0.01146877  0.         -0.          0.          0.         -0.04480209  0.01455566  0.          0.15773466 -0.22916981  0.          0.43863946
  -0.68549906  0.        ]
 [-0.          0.         -0.          0.         -0.          0.14187757  0.05844901 -0.3785546  -0.30175949 -0.          0.          0.         -0.
   0.01146877  0.0053772  -0.         -0.          0.          0.          0.01455566  0.04480209 -0.         -0.22916981 -0.15773466 -0.          0.68549906
   0.43863946  0.        ]
 [ 0.03752276 -0.07031813  0.02979854 -0.00993294 -0.03753897  0.          0.         -0.          0.         -0.49571766  0.12363603 -0.33222786  0.00133026
  -0.          0.         -0.          0.          0.         -0.         -0.         -0.          0.10799337 -0.          0.          0.05052766 -0.
   0.          0.77822684]
 [ 0.02514332 -0.07174808 -0.40252381 -0.40808932  0.02593886  0.         -0.         -0.         -0.          0.00292752  0.76247937  0.2649195  -0.10835993
   0.          0.         -0.          0.          0.          0.         -0.          0.         -0.0130013  -0.         -0.         -0.03878027 -0.
  -0.          0.00209295]
 [ 0.00207534  0.12079364 -0.45070743  0.45512537  0.00848126  0.          0.          0.          0.          0.25708544  0.24482858 -0.65792469  0.01034008
  -0.         -0.         -0.          0.          0.         -0.          0.          0.         -0.05571843  0.         -0.         -0.00535058 -0.
  -0.         -0.1136549 ]]
grids:  [0.06237655 0.31939555 0.74529195 1.28265786 1.85893479 2.39630071 2.8221971  3.07921611] 
weights:  [0.15900941 0.34931531 0.49276925 0.56970235 0.56970235 0.49276925 0.34931531 0.15900941]
S = 0.0, Sz = 0.0
Wigner small d:  1
value : [1. 1. 1. 1. 1. 1. 1. 1.]
**** Start Cycle 1 ****
dm (ortho)
[[[ 0.70868194 -0.4309258  -0.09215636 ...  0.03158788 -0.02116647  0.00174709]
  [-0.4309258   0.26203157  0.0560372  ... -0.01920753  0.01287062 -0.00106235]
  [-0.09215636  0.0560372   0.01198393 ... -0.00410766  0.00275247 -0.00022719]
  ...
  [ 0.03158788 -0.01920753 -0.00410766 ...  0.00140796 -0.00094345  0.00007787]
  [-0.02116647  0.01287062  0.00275247 ... -0.00094345  0.00063219 -0.00005218]
  [ 0.00174709 -0.00106235 -0.00022719 ...  0.00007787 -0.00005218  0.00000431]]

 [[ 0.70868194  0.4309258  -0.09215636 ... -0.03158788 -0.02116647 -0.00174709]
  [ 0.4309258   0.26203157 -0.0560372  ... -0.01920753 -0.01287062 -0.00106235]
  [-0.09215636 -0.0560372   0.01198393 ...  0.00410766  0.00275247  0.00022719]
  ...
  [-0.03158788 -0.01920753  0.00410766 ...  0.00140796  0.00094345  0.00007787]
  [-0.02116647 -0.01287062  0.00275247 ...  0.00094345  0.00063219  0.00005218]
  [-0.00174709 -0.00106235  0.00022719 ...  0.00007787  0.00005218  0.00000431]]]
Fock (ortho)
 (array([[-0.25693977,  0.27051533,  0.19443677,  0.        ,  0.        , -0.        ,  0.        , -0.08063259, -0.02493031, -0.        , -0.        ,
         0.        ,  0.        ,  0.        ,  0.        , -0.        ,  0.        ,  0.01030748,  0.15364729, -0.02584094, -0.12644133, -0.        ,
        -0.        , -0.        , -0.        , -0.00367982,  0.07463075, -0.01075358],
       [ 0.27051533,  0.03641079, -0.06948927,  0.        , -0.        , -0.        , -0.        ,  0.30701675,  0.00725707,  0.        ,  0.        ,
         0.        ,  0.        ,  0.        ,  0.        ,  0.        ,  0.        , -0.06124038,  0.09001799, -0.42047252,  0.00728429, -0.        ,
        -0.        , -0.        , -0.        , -0.03923159, -0.01022578,  0.16481085],
       [ 0.19443677, -0.06948927,  1.32167098, -0.        ,  0.        ,  0.        , -0.        , -0.04083112,  0.02795632, -0.        , -0.        ,
         0.        ,  0.        ,  0.        ,  0.        , -0.        , -0.        ,  0.00392554,  0.2192464 ,  0.01474318, -1.28215146, -0.        ,
        -0.        , -0.        , -0.        ,  0.00051627, -0.07051665,  0.00015754],
       [ 0.        ,  0.        , -0.        ,  1.53695371, -0.        ,  0.05253709,  0.03058632,  0.        ,  0.        ,  0.00281515,  0.00455742,
         0.        , -0.        ,  0.        , -0.        ,  0.00098069, -0.0015609 , -0.        ,  0.        ,  0.        ,  0.        ,  0.17454615,
        -1.34732495, -0.00155876,  0.00654105,  0.        ,  0.        ,  0.        ],
       [ 0.        , -0.        ,  0.        , -0.        ,  1.53695371, -0.03058632,  0.05253709, -0.        ,  0.        ,  0.00455742, -0.00281515,
         0.        , -0.        ,  0.        , -0.        ,  0.0015609 ,  0.00098069, -0.        ,  0.        ,  0.        , -0.        ,  1.34732495,
         0.17454615, -0.00654105, -0.00155876,  0.        ,  0.        , -0.        ],
       [-0.        , -0.        ,  0.        ,  0.05253709, -0.03058632,  1.63564911, -0.        , -0.        ,  0.        ,  0.00002758,  0.00105553,
        -0.        ,  0.        ,  0.        , -0.        ,  0.00047862, -0.01418006, -0.        , -0.        , -0.        , -0.        , -0.00336126,
        -0.00798607,  0.39186788,  1.29763969,  0.        , -0.        , -0.        ],
       [ 0.        , -0.        , -0.        ,  0.03058632,  0.05253709, -0.        ,  1.63564911,  0.        , -0.        ,  0.00105553, -0.00002758,
         0.        , -0.        ,  0.        , -0.        ,  0.01418006,  0.00047862,  0.        ,  0.        ,  0.        ,  0.        ,  0.00798607,
        -0.00336126, -1.29763969,  0.39186788, -0.        , -0.        ,  0.        ],
       [-0.08063259,  0.30701675, -0.04083112,  0.        , -0.        , -0.        ,  0.        ,  1.78915857, -0.00892258, -0.        , -0.        ,
         0.        , -0.        , -0.        ,  0.        , -0.        ,  0.        ,  0.00426891, -0.03557395, -0.57588419,  0.01047344,  0.        ,
         0.        ,  0.        ,  0.        , -1.24202633,  0.00041746,  0.03556751],
       [-0.02493031,  0.00725707,  0.02795632,  0.        ,  0.        ,  0.        , -0.        , -0.00892258,  3.37736546,  0.        ,  0.        ,
         0.        , -0.        , -0.        ,  0.        ,  0.        ,  0.        , -0.02379403, -0.11712979, -0.00205677,  0.06918068,  0.        ,
        -0.        ,  0.        ,  0.        ,  0.00203658, -0.07166167,  0.00029357],
       [-0.        ,  0.        , -0.        ,  0.00281515,  0.00455742,  0.00002758,  0.00105553, -0.        ,  0.        ,  3.4342295 , -0.        ,
         0.        , -0.        ,  0.        , -0.        , -0.02504149, -0.00019082,  0.        , -0.        ,  0.        ,  0.        , -0.03461645,
         0.01564617, -0.00036529,  0.00012081, -0.        , -0.        ,  0.        ],
       [-0.        ,  0.        , -0.        ,  0.00455742, -0.00281515,  0.00105553, -0.00002758, -0.        ,  0.        , -0.        ,  3.4342295 ,
         0.        , -0.        , -0.        ,  0.        , -0.00019082,  0.02504149, -0.        ,  0.        , -0.        , -0.        ,  0.01564617,
         0.03461645,  0.00012081,  0.00036529,  0.        , -0.        , -0.        ],
       [ 0.        ,  0.        ,  0.        ,  0.        ,  0.        , -0.        ,  0.        ,  0.        ,  0.        ,  0.        ,  0.        ,
         3.44915389, -0.        , -0.02520068, -0.00087604, -0.        , -0.        ,  0.        , -0.        ,  0.        ,  0.        , -0.        ,
         0.        ,  0.        ,  0.        , -0.        , -0.        ,  0.        ],
       [ 0.        ,  0.        ,  0.        , -0.        , -0.        ,  0.        , -0.        , -0.        , -0.        , -0.        , -0.        ,
        -0.        ,  3.44915389,  0.00087604, -0.02520068,  0.        ,  0.        , -0.        ,  0.        ,  0.        ,  0.        ,  0.        ,
        -0.        , -0.        , -0.        ,  0.        , -0.        ,  0.        ],
       [ 0.        ,  0.        ,  0.        ,  0.        ,  0.        ,  0.        ,  0.        , -0.        , -0.        ,  0.        , -0.        ,
        -0.02520068,  0.00087604,  3.45139368,  0.        , -0.        ,  0.        , -0.        , -0.        ,  0.        ,  0.        , -0.        ,
         0.        ,  0.        , -0.        ,  0.        , -0.        ,  0.        ],
       [ 0.        ,  0.        ,  0.        , -0.        , -0.        , -0.        , -0.        ,  0.        ,  0.        , -0.        ,  0.        ,
        -0.00087604, -0.02520068,  0.        ,  3.45139368,  0.        ,  0.        ,  0.        , -0.        ,  0.        ,  0.        ,  0.        ,
        -0.        ,  0.        ,  0.        , -0.        , -0.        ,  0.        ],
       [-0.        ,  0.        , -0.        ,  0.00098069,  0.0015609 ,  0.00047862,  0.01418006, -0.        ,  0.        , -0.02504149, -0.00019082,
        -0.        ,  0.        , -0.        ,  0.        ,  3.46691316, -0.        ,  0.        , -0.        ,  0.        ,  0.        ,  0.00063425,
        -0.00029251,  0.03861415, -0.01309774, -0.        , -0.        ,  0.        ],
       [ 0.        ,  0.        , -0.        , -0.0015609 ,  0.00098069, -0.01418006,  0.00047862,  0.        ,  0.        , -0.00019082,  0.02504149,
        -0.        ,  0.        ,  0.        ,  0.        , -0.        ,  3.46691316,  0.        ,  0.        , -0.        , -0.        ,  0.00029251,
         0.00063425,  0.01309774,  0.03861415,  0.        ,  0.        , -0.        ],
       [ 0.01030748, -0.06124038,  0.00392554, -0.        , -0.        , -0.        ,  0.        ,  0.00426891, -0.02379403,  0.        , -0.        ,
         0.        , -0.        , -0.        ,  0.        ,  0.        ,  0.        ,  3.50795802,  0.00812463,  0.13389147, -0.00285622,  0.        ,
         0.        ,  0.        , -0.        , -0.252896  ,  0.00076842,  0.09853832],
       [ 0.15364729,  0.09001799,  0.2192464 ,  0.        ,  0.        , -0.        ,  0.        , -0.03557395, -0.11712979, -0.        ,  0.        ,
        -0.        ,  0.        , -0.        , -0.        , -0.        ,  0.        ,  0.00812463,  1.19381693, -0.04901664, -0.40030902, -0.        ,
        -0.        , -0.        , -0.        ,  0.02000542,  0.95245084,  0.01117267],
       [-0.02584094, -0.42047252,  0.01474318,  0.        ,  0.        , -0.        ,  0.        , -0.57588419, -0.00205677,  0.        , -0.        ,
         0.        ,  0.        ,  0.        ,  0.        ,  0.        , -0.        ,  0.13389147, -0.04901664,  1.60718583, -0.01641429, -0.        ,
        -0.        , -0.        , -0.        ,  0.5206078 , -0.01841487, -1.07832517],
       [-0.12644133,  0.00728429, -1.28215146,  0.        , -0.        , -0.        ,  0.        ,  0.01047344,  0.06918068,  0.        , -0.        ,
         0.        ,  0.        ,  0.        ,  0.        ,  0.        , -0.        , -0.00285622, -0.40030902, -0.01641429,  3.07333836,  0.        ,
         0.        ,  0.        ,  0.        , -0.01427355,  0.25070716,  0.00323092],
       [-0.        , -0.        , -0.        ,  0.17454615,  1.34732495, -0.00336126,  0.00798607,  0.        ,  0.        , -0.03461645,  0.01564617,
        -0.        ,  0.        , -0.        ,  0.        ,  0.00063425,  0.00029251,  0.        , -0.        , -0.        ,  0.        ,  3.04276407,
        -0.        , -0.02145245, -0.00226316,  0.        ,  0.        , -0.        ],
       [-0.        , -0.        , -0.        , -1.34732495,  0.17454615, -0.00798607, -0.00336126,  0.        , -0.        ,  0.01564617,  0.03461645,
         0.        , -0.        ,  0.        , -0.        , -0.00029251,  0.00063425,  0.        , -0.        , -0.        ,  0.        , -0.        ,
         3.04276407,  0.00226316, -0.02145245, -0.        , -0.        , -0.        ],
       [-0.        , -0.        , -0.        , -0.00155876, -0.00654105,  0.39186788, -1.29763969,  0.        ,  0.        , -0.00036529,  0.00012081,
         0.        , -0.        ,  0.        ,  0.        ,  0.03861415,  0.01309774,  0.        , -0.        , -0.        ,  0.        , -0.02145245,
         0.00226316,  3.11957503, -0.        ,  0.        ,  0.        , -0.        ],
       [-0.        , -0.        , -0.        ,  0.00654105, -0.00155876,  1.29763969,  0.39186788,  0.        ,  0.        ,  0.00012081,  0.00036529,
         0.        , -0.        , -0.        ,  0.        , -0.01309774,  0.03861415, -0.        , -0.        , -0.        ,  0.        , -0.00226316,
        -0.02145245,  0.        ,  3.11957503, -0.        , -0.        , -0.        ],
       [-0.00367982, -0.03923159,  0.00051627,  0.        ,  0.        ,  0.        , -0.        , -1.24202633,  0.00203658, -0.        ,  0.        ,
        -0.        ,  0.        ,  0.        , -0.        , -0.        ,  0.        , -0.252896  ,  0.02000542,  0.5206078 , -0.01427355,  0.        ,
        -0.        ,  0.        , -0.        ,  3.2064153 ,  0.01013758,  0.10406285],
       [ 0.07463075, -0.01022578, -0.07051665,  0.        ,  0.        , -0.        , -0.        ,  0.00041746, -0.07166167, -0.        , -0.        ,
        -0.        , -0.        , -0.        , -0.        , -0.        ,  0.        ,  0.00076842,  0.95245084, -0.01841487,  0.25070716,  0.        ,
        -0.        ,  0.        , -0.        ,  0.01013758,  1.79215172,  0.0163951 ],
       [-0.01075358,  0.16481085,  0.00015754,  0.        , -0.        , -0.        ,  0.        ,  0.03556751,  0.00029357,  0.        , -0.        ,
         0.        ,  0.        ,  0.        ,  0.        ,  0.        , -0.        ,  0.09853832,  0.01117267, -1.07832517,  0.00323092, -0.        ,
        -0.        , -0.        , -0.        ,  0.10406285,  0.0163951 ,  1.57422527]]), array([[-0.25693977, -0.27051533,  0.19443677,  0.        , -0.        , -0.        ,  0.        ,  0.08063259, -0.02493031, -0.        , -0.        ,
        -0.        ,  0.        ,  0.        , -0.        , -0.        , -0.        , -0.01030748,  0.15364729,  0.02584094, -0.12644133, -0.        ,
        -0.        , -0.        , -0.        ,  0.00367982,  0.07463075,  0.01075358],
       [-0.27051533,  0.03641079,  0.06948927,  0.        , -0.        , -0.        , -0.        ,  0.30701675, -0.00725707,  0.        ,  0.        ,
         0.        ,  0.        ,  0.        ,  0.        ,  0.        ,  0.        , -0.06124038, -0.09001799, -0.42047252, -0.00728429, -0.        ,
        -0.        , -0.        , -0.        , -0.03923159,  0.01022578,  0.16481085],
       [ 0.19443677,  0.06948927,  1.32167098, -0.        ,  0.        ,  0.        , -0.        ,  0.04083112,  0.02795632, -0.        , -0.        ,
         0.        ,  0.        ,  0.        ,  0.        , -0.        , -0.        , -0.00392554,  0.2192464 , -0.01474318, -1.28215146, -0.        ,
        -0.        , -0.        , -0.        , -0.00051627, -0.07051665, -0.00015754],
       [ 0.        ,  0.        , -0.        ,  1.53695371,  0.        , -0.05253709, -0.03058632,  0.        ,  0.        ,  0.00281515,  0.00455742,
         0.        , -0.        ,  0.        , -0.        , -0.00098069,  0.0015609 , -0.        ,  0.        ,  0.        ,  0.        ,  0.17454615,
        -1.34732495,  0.00155876, -0.00654105,  0.        ,  0.        ,  0.        ],
       [-0.        , -0.        ,  0.        ,  0.        ,  1.53695371,  0.03058632, -0.05253709, -0.        , -0.        ,  0.00455742, -0.00281515,
         0.        , -0.        ,  0.        , -0.        , -0.0015609 , -0.00098069, -0.        , -0.        ,  0.        , -0.        ,  1.34732495,
         0.17454615,  0.00654105,  0.00155876,  0.        ,  0.        , -0.        ],
       [-0.        , -0.        ,  0.        , -0.05253709,  0.03058632,  1.63564911,  0.        ,  0.        ,  0.        , -0.00002758, -0.00105553,
        -0.        ,  0.        ,  0.        , -0.        ,  0.00047862, -0.01418006, -0.        , -0.        , -0.        , -0.        ,  0.00336126,
         0.00798607,  0.39186788,  1.29763969,  0.        , -0.        , -0.        ],
       [ 0.        , -0.        , -0.        , -0.03058632, -0.05253709,  0.        ,  1.63564911, -0.        , -0.        , -0.00105553,  0.00002758,
         0.        , -0.        ,  0.        , -0.        ,  0.01418006,  0.00047862,  0.        ,  0.        ,  0.        ,  0.        , -0.00798607,
         0.00336126, -1.29763969,  0.39186788, -0.        , -0.        ,  0.        ],
       [ 0.08063259,  0.30701675,  0.04083112,  0.        , -0.        ,  0.        , -0.        ,  1.78915857,  0.00892258, -0.        , -0.        ,
         0.        , -0.        , -0.        ,  0.        , -0.        , -0.        ,  0.00426891,  0.03557395, -0.57588419, -0.01047344,  0.        ,
         0.        ,  0.        ,  0.        , -1.24202633, -0.00041746,  0.03556751],
       [-0.02493031, -0.00725707,  0.02795632,  0.        , -0.        ,  0.        , -0.        ,  0.00892258,  3.37736546,  0.        ,  0.        ,
         0.        , -0.        , -0.        ,  0.        ,  0.        ,  0.        ,  0.02379403, -0.11712979,  0.00205677,  0.06918068,  0.        ,
        -0.        ,  0.        ,  0.        , -0.00203658, -0.07166167, -0.00029357],
       [-0.        ,  0.        , -0.        ,  0.00281515,  0.00455742, -0.00002758, -0.00105553, -0.        ,  0.        ,  3.4342295 ,  0.        ,
        -0.        ,  0.        , -0.        ,  0.        ,  0.02504149,  0.00019082,  0.        , -0.        ,  0.        ,  0.        , -0.03461645,
         0.01564617,  0.00036529, -0.00012081, -0.        , -0.        ,  0.        ],
       [-0.        ,  0.        , -0.        ,  0.00455742, -0.00281515, -0.00105553,  0.00002758, -0.        ,  0.        ,  0.        ,  3.4342295 ,
        -0.        ,  0.        ,  0.        , -0.        ,  0.00019082, -0.02504149, -0.        ,  0.        , -0.        , -0.        ,  0.01564617,
         0.03461645, -0.00012081, -0.00036529,  0.        ,  0.        , -0.        ],
       [-0.        ,  0.        ,  0.        ,  0.        ,  0.        , -0.        ,  0.        ,  0.        ,  0.        , -0.        , -0.        ,
         3.44915389,  0.        ,  0.02520068,  0.00087604,  0.        ,  0.        ,  0.        , -0.        ,  0.        ,  0.        , -0.        ,
         0.        ,  0.        ,  0.        , -0.        , -0.        ,  0.        ],
       [ 0.        ,  0.        ,  0.        , -0.        , -0.        ,  0.        , -0.        , -0.        , -0.        ,  0.        ,  0.        ,
         0.        ,  3.44915389, -0.00087604,  0.02520068, -0.        , -0.        , -0.        , -0.        ,  0.        ,  0.        ,  0.        ,
        -0.        , -0.        , -0.        ,  0.        , -0.        ,  0.        ],
       [ 0.        ,  0.        ,  0.        ,  0.        ,  0.        ,  0.        ,  0.        , -0.        , -0.        , -0.        ,  0.        ,
         0.02520068, -0.00087604,  3.45139368, -0.        ,  0.        , -0.        , -0.        , -0.        ,  0.        ,  0.        , -0.        ,
         0.        ,  0.        , -0.        ,  0.        , -0.        ,  0.        ],
       [-0.        ,  0.        ,  0.        , -0.        , -0.        , -0.        , -0.        ,  0.        ,  0.        ,  0.        , -0.        ,
         0.00087604,  0.02520068, -0.        ,  3.45139368, -0.        ,  0.        ,  0.        , -0.        ,  0.        ,  0.        ,  0.        ,
        -0.        , -0.        ,  0.        , -0.        , -0.        ,  0.        ],
       [-0.        ,  0.        , -0.        , -0.00098069, -0.0015609 ,  0.00047862,  0.01418006, -0.        ,  0.        ,  0.02504149,  0.00019082,
         0.        , -0.        ,  0.        , -0.        ,  3.46691316,  0.        ,  0.        , -0.        ,  0.        ,  0.        , -0.00063425,
         0.00029251,  0.03861415, -0.01309774, -0.        , -0.        ,  0.        ],
       [-0.        ,  0.        , -0.        ,  0.0015609 , -0.00098069, -0.01418006,  0.00047862, -0.        ,  0.        ,  0.00019082, -0.02504149,
         0.        , -0.        , -0.        ,  0.        ,  0.        ,  3.46691316, -0.        ,  0.        , -0.        , -0.        , -0.00029251,
        -0.00063425,  0.01309774,  0.03861415,  0.        ,  0.        , -0.        ],
       [-0.01030748, -0.06124038, -0.00392554, -0.        , -0.        , -0.        ,  0.        ,  0.00426891,  0.02379403,  0.        , -0.        ,
         0.        , -0.        , -0.        ,  0.        ,  0.        , -0.        ,  3.50795802, -0.00812463,  0.13389147,  0.00285622,  0.        ,
         0.        ,  0.        , -0.        , -0.252896  , -0.00076842,  0.09853832],
       [ 0.15364729, -0.09001799,  0.2192464 ,  0.        , -0.        , -0.        ,  0.        ,  0.03557395, -0.11712979, -0.        ,  0.        ,
        -0.        , -0.        , -0.        , -0.        , -0.        ,  0.        , -0.00812463,  1.19381693,  0.04901664, -0.40030902, -0.        ,
        -0.        , -0.        , -0.        , -0.02000542,  0.95245084, -0.01117267],
       [ 0.02584094, -0.42047252, -0.01474318,  0.        ,  0.        , -0.        ,  0.        , -0.57588419,  0.00205677,  0.        , -0.        ,
         0.        ,  0.        ,  0.        ,  0.        ,  0.        , -0.        ,  0.13389147,  0.04901664,  1.60718583,  0.01641429, -0.        ,
        -0.        , -0.        , -0.        ,  0.5206078 ,  0.01841487, -1.07832517],
       [-0.12644133, -0.00728429, -1.28215146,  0.        , -0.        , -0.        ,  0.        , -0.01047344,  0.06918068,  0.        , -0.        ,
         0.        ,  0.        ,  0.        ,  0.        ,  0.        , -0.        ,  0.00285622, -0.40030902,  0.01641429,  3.07333836,  0.        ,
         0.        ,  0.        ,  0.        ,  0.01427355,  0.25070716, -0.00323092],
       [-0.        , -0.        , -0.        ,  0.17454615,  1.34732495,  0.00336126, -0.00798607,  0.        ,  0.        , -0.03461645,  0.01564617,
        -0.        ,  0.        , -0.        ,  0.        , -0.00063425, -0.00029251,  0.        , -0.        , -0.        ,  0.        ,  3.04276407,
        -0.        ,  0.02145245,  0.00226316,  0.        ,  0.        , -0.        ],
       [-0.        , -0.        , -0.        , -1.34732495,  0.17454615,  0.00798607,  0.00336126,  0.        , -0.        ,  0.01564617,  0.03461645,
         0.        , -0.        ,  0.        , -0.        ,  0.00029251, -0.00063425,  0.        , -0.        , -0.        ,  0.        , -0.        ,
         3.04276407, -0.00226316,  0.02145245, -0.        , -0.        , -0.        ],
       [-0.        , -0.        , -0.        ,  0.00155876,  0.00654105,  0.39186788, -1.29763969,  0.        ,  0.        ,  0.00036529, -0.00012081,
         0.        , -0.        ,  0.        , -0.        ,  0.03861415,  0.01309774,  0.        , -0.        , -0.        ,  0.        ,  0.02145245,
        -0.00226316,  3.11957503, -0.        ,  0.        ,  0.        , -0.        ],
       [-0.        , -0.        , -0.        , -0.00654105,  0.00155876,  1.29763969,  0.39186788,  0.        ,  0.        , -0.00012081, -0.00036529,
         0.        , -0.        , -0.        ,  0.        , -0.01309774,  0.03861415, -0.        , -0.        , -0.        ,  0.        ,  0.00226316,
         0.02145245,  0.        ,  3.11957503, -0.        , -0.        , -0.        ],
       [ 0.00367982, -0.03923159, -0.00051627,  0.        ,  0.        ,  0.        , -0.        , -1.24202633, -0.00203658, -0.        ,  0.        ,
        -0.        ,  0.        ,  0.        , -0.        , -0.        ,  0.        , -0.252896  , -0.02000542,  0.5206078 ,  0.01427355,  0.        ,
        -0.        ,  0.        , -0.        ,  3.2064153 , -0.01013758,  0.10406285],
       [ 0.07463075,  0.01022578, -0.07051665,  0.        ,  0.        , -0.        , -0.        , -0.00041746, -0.07166167, -0.        ,  0.        ,
        -0.        , -0.        , -0.        , -0.        , -0.        ,  0.        , -0.00076842,  0.95245084,  0.01841487,  0.25070716,  0.        ,
        -0.        ,  0.        , -0.        , -0.01013758,  1.79215172, -0.0163951 ],
       [ 0.01075358,  0.16481085, -0.00015754,  0.        , -0.        , -0.        ,  0.        ,  0.03556751, -0.00029357,  0.        , -0.        ,
         0.        ,  0.        ,  0.        ,  0.        ,  0.        , -0.        ,  0.09853832, -0.01117267, -1.07832517, -0.00323092, -0.        ,
        -0.        , -0.        , -0.        ,  0.10406285, -0.0163951 ,  1.57422527]]))
E(UHF) =    -1.233981
NO eigenvalue
[-1. -0. -0. -0. -0. -0. -0. -0. -0. -0. -0. -0. -0. -0. -0. -0. -0.  0.  0.  0.  0.  0.  0.  0.  0.  0.  0.  0.] [-1. -0. -0. -0. -0. -0. -0. -0. -0. -0. -0. -0. -0. -0. -0. -0.  0.  0.  0.  0.  0.  0.  0.  0.  0.  0.  0.  0.]
NO vec
[[ 0.84183249  0.         -0.04318657 ...  0.          0.          0.        ]
 [-0.51189019  0.         -0.13574406 ...  0.          0.          0.        ]
 [-0.10947114  0.         -0.03479088 ...  0.          0.          0.        ]
 ...
 [ 0.         -0.03752276  0.         ...  0.75074487  0.04076939  0.23689702]
 [ 0.         -0.02514332  0.         ...  0.28539091 -0.09905265  0.21277769]
 [ 0.         -0.00207534  0.         ...  0.03192749 -0.01361657  0.0222933 ]]
dm(NO)
[[ 1.  0.  0. ...  0.  0.  0.]
 [ 0.  1.  0. ... -0.  0.  0.]
 [ 0.  0. -0. ...  0.  0.  0.]
 ...
 [ 0. -0.  0. ... -0.  0.  0.]
 [ 0.  0.  0. ... -0. -0.  0.]
 [ 0.  0.  0. ...  0. -0.  0.]]
D(g) (NO)
[[ 0.99951369  0.01383721  0.         ...  0.00091978  0.0037233   0.00353755]
 [-0.01383721  0.99951369  0.00204916 ...  0.          0.          0.        ]
 [-0.         -0.00204916  0.99951369 ...  0.00483469 -0.01913271 -0.01234237]
 ...
 [-0.00091978  0.         -0.00483469 ...  0.99951369  0.         -0.        ]
 [-0.0037233   0.          0.01913271 ...  0.          0.99951369  0.        ]
 [-0.00353755  0.          0.01234237 ... -0.          0.          0.99951369]]
...
N(g) (NO)
[[ 1.00029484 -0.01384803]
 [ 0.01384803  1.00029484]]
...
P(g) (NO)
[[ 1.          0.          0.         ... -0.          0.          0.        ]
 [ 0.          1.          0.         ... -0.          0.          0.        ]
 [-0.00002838 -0.00204977 -0.         ...  0.         -0.         -0.        ]
 ...
 [-0.00092006  0.00001274 -0.         ... -0.          0.          0.        ]
 [-0.0037244   0.00005156 -0.         ... -0.          0.          0.        ]
 [-0.00353859  0.00004899 -0.         ... -0.          0.          0.        ]]
...
Pg_ortho
[[ 0.70885218 -0.43102931 -0.0921785  ... -0.00054809 -0.00036726 -0.00003031]
 [-0.43065714  0.26186821  0.05600227 ... -0.00086499 -0.00057961 -0.00004784]
 [-0.0921785   0.05605066  0.01198681 ...  0.00007127  0.00004776  0.00000394]
 ...
 [-0.00142252  0.00086499  0.00018498 ...  0.00140708  0.00094286  0.00007782]
 [ 0.00036726 -0.00022332 -0.00004776 ...  0.00094367  0.00063234  0.00005219]
 [-0.00007868  0.00004784  0.00001023 ...  0.00007782  0.00005215  0.0000043 ]]
G(g) (NO)
[[ 0.27159127 -0.00201797 -0.00373986 ... -0.00025443 -0.00030142 -0.00019801]
 [ 0.00201797  0.27159127  0.00068264 ... -0.00386503 -0.01818032  0.04126887]
 [-0.00372384  0.00414448  0.76661222 ...  0.00120579  0.00087206  0.00170679]
 ...
 [ 0.00193077 -0.00386393  0.0010473  ...  0.88698529 -0.02257345 -0.02305682]
 [ 0.00058162 -0.01818229 -0.0008701  ... -0.02257275  0.7594543  -0.01151878]
 [ 0.00111406  0.04125092  0.00020718 ... -0.02305534 -0.01151713  0.82566283]]
...
C(NO)
[[-1.          0.          0.         ...  0.          0.          0.        ]
 [ 0.         -1.          0.         ... -0.          0.          0.        ]
 [-0.          0.         -0.09728757 ...  0.          0.          0.        ]
 ...
 [ 0.          0.          0.         ... -0.         -0.          0.74841222]
 [ 0.         -0.          0.         ...  0.         -0.         -0.29755376]
 [ 0.         -0.          0.         ...  0.          0.         -0.10295152]]
detC 0.9999999999999994
detNg [1.00078153 1.0207291  1.11913702 1.40339219 2.0646433  3.29642741 4.60378707 5.05854568]
xg [0.99921908 0.97969187 0.89354563 0.71255919 0.48434516 0.30335872 0.21721248 0.19768528]
ciS 1.1969043517512756
[[-0.75277218  0.         -0.00674796 ...  0.          0.          0.        ]
 [ 0.         -0.75277218  0.         ...  0.00282734  0.01310391 -0.03332645]
 [-0.00674796  0.          0.63706619 ...  0.          0.          0.        ]
 ...
 [ 0.          0.00282734  0.         ...  2.35634743 -0.71538219  0.087201  ]
 [ 0.          0.01310391  0.         ... -0.71538219  0.80899005  0.18411326]
 [ 0.         -0.03332645  0.         ...  0.087201    0.18411326  0.71346065]]
ciH -1.4781477758156631
S2 = 0.000000
X(g)
[[ 2.          0.         -0.00002838 ...  0.00092006  0.0037244   0.00353859]
 [-0.          2.          0.00204977 ...  0.00001274  0.00005156  0.00004899]
 [-0.00002838 -0.00204977  0.         ...  0.          0.          0.        ]
 ...
 [-0.00092006  0.00001274  0.         ...  0.          0.          0.        ]
 [-0.0037244   0.00005156  0.         ...  0.          0.          0.        ]
 [-0.00353859  0.00004899  0.         ...  0.          0.          0.        ]]
X(g) int
[[ 2.          0.         -0.02436263 ...  0.01935511  0.07834972  0.07444096]
 [ 0.          2.          0.04312076 ...  0.01093537  0.0442665   0.04205811]
 [-0.02436263 -0.04312076  0.         ...  0.          0.          0.        ]
 ...
 [-0.01935511  0.01093537  0.         ...  0.          0.          0.        ]
 [-0.07834972  0.0442665   0.         ...  0.          0.          0.        ]
 [-0.07444096  0.04205811  0.         ...  0.          0.          0.        ]]
Hsp + Hph =  -1.234975688452365
Feff (mod,ortho)
[[-0.23563462  0.28138413  0.19092068 ...  0.          0.          0.        ]
 [ 0.28138413  0.01531541 -0.07044927 ...  0.          0.          0.        ]
 [ 0.19092068 -0.07044927  1.32222517 ...  0.          0.          0.        ]
 ...
 [ 0.          0.          0.         ...  3.20651288 -0.0100284   0.10399753]
 [ 0.          0.          0.         ... -0.0100284   1.79225423 -0.01643644]
 [ 0.          0.          0.         ...  0.10399753 -0.01643644  1.57421775]]
E(SUHF) =     -0.99444059
e_a, e_b
[-0.48714447  0.05246189  0.37076255  0.49058196  0.65382745  0.71916383  0.71916383  0.84884125  0.84884125  1.08832667  2.4578647   2.61390542  3.38446663
  3.41920969  3.41920969  3.42503303  3.42503303  3.47551454  3.47551454  3.47852358  3.47852358  3.50580002  3.8302894   3.8302894   3.85292821  3.94005684
  3.94005684  4.23897644] [-0.48714447  0.05246189  0.37076255  0.49058196  0.65382745  0.71916383  0.71916383  0.84884125  0.84884125  1.08832667  2.4578647   2.61390542  3.38446663
  3.41920969  3.41920969  3.42503303  3.42503303  3.47551454  3.47551454  3.47852358  3.47852358  3.50580002  3.8302894   3.8302894   3.85292821  3.94005684
  3.94005684  4.23897644]
P_a, P_b
[[ 0.61970161 -0.46315197 -0.08610923 -0.         -0.         -0.         -0.          0.08772914  0.00472154  0.         -0.          0.          0.
   0.          0.          0.         -0.         -0.00480216 -0.02145058 -0.06380492 -0.01005824 -0.         -0.         -0.         -0.          0.03359773
  -0.01484939  0.00485252]
 [-0.46315197  0.34615006  0.06435623  0.          0.          0.          0.         -0.06556692 -0.00352878 -0.          0.         -0.         -0.
  -0.         -0.         -0.          0.          0.00358903  0.01603171  0.04768646  0.00751732  0.          0.          0.          0.         -0.02511024
   0.01109812 -0.00362667]
 [-0.08610923  0.06435623  0.01196511  0.          0.          0.          0.         -0.0121902  -0.00065607 -0.          0.         -0.         -0.
  -0.         -0.         -0.          0.          0.00066727  0.00298062  0.00886587  0.00139762  0.          0.          0.          0.         -0.0046685
   0.00206336 -0.00067427]
 [-0.          0.          0.          0.          0.          0.          0.         -0.         -0.         -0.          0.         -0.         -0.
  -0.         -0.         -0.          0.          0.          0.          0.          0.          0.          0.          0.          0.         -0.
   0.         -0.        ]
 [-0.          0.          0.          0.          0.          0.          0.         -0.         -0.         -0.          0.         -0.         -0.
  -0.         -0.         -0.          0.          0.          0.          0.          0.          0.          0.          0.          0.         -0.
   0.         -0.        ]
 [-0.          0.          0.          0.          0.          0.          0.         -0.         -0.         -0.          0.         -0.         -0.
  -0.         -0.         -0.          0.          0.          0.          0.          0.          0.          0.          0.          0.         -0.
   0.         -0.        ]
 [-0.          0.          0.          0.          0.          0.          0.         -0.         -0.         -0.          0.         -0.         -0.
  -0.         -0.         -0.          0.          0.          0.          0.          0.          0.          0.          0.          0.         -0.
   0.         -0.        ]
 [ 0.08772914 -0.06556692 -0.0121902  -0.         -0.         -0.         -0.          0.01241953  0.00066841  0.         -0.          0.          0.
   0.          0.          0.         -0.         -0.00067983 -0.00303669 -0.00903266 -0.00142391 -0.         -0.         -0.         -0.          0.00475632
  -0.00210218  0.00068696]
 [ 0.00472154 -0.00352878 -0.00065607 -0.         -0.         -0.         -0.          0.00066841  0.00003597  0.         -0.          0.          0.
   0.          0.          0.         -0.         -0.00003659 -0.00016343 -0.00048613 -0.00007663 -0.         -0.         -0.         -0.          0.00025598
  -0.00011314  0.00003697]
 [ 0.         -0.         -0.         -0.         -0.         -0.         -0.          0.          0.          0.         -0.          0.          0.
   0.          0.          0.         -0.         -0.         -0.         -0.         -0.         -0.         -0.         -0.         -0.          0.
  -0.          0.        ]
 [-0.          0.          0.          0.          0.          0.          0.         -0.         -0.         -0.          0.         -0.         -0.
  -0.         -0.         -0.          0.          0.          0.          0.          0.          0.          0.          0.          0.         -0.
   0.         -0.        ]
 [ 0.         -0.         -0.         -0.         -0.         -0.         -0.          0.          0.          0.         -0.          0.          0.
   0.          0.          0.         -0.         -0.         -0.         -0.         -0.         -0.         -0.         -0.         -0.          0.
  -0.          0.        ]
 [ 0.         -0.         -0.         -0.         -0.         -0.         -0.          0.          0.          0.         -0.          0.          0.
   0.          0.          0.         -0.         -0.         -0.         -0.         -0.         -0.         -0.         -0.         -0.          0.
  -0.          0.        ]
 [ 0.         -0.         -0.         -0.         -0.         -0.         -0.          0.          0.          0.         -0.          0.          0.
   0.          0.          0.         -0.         -0.         -0.         -0.         -0.         -0.         -0.         -0.         -0.          0.
  -0.          0.        ]
 [ 0.         -0.         -0.         -0.         -0.         -0.         -0.          0.          0.          0.         -0.          0.          0.
   0.          0.          0.         -0.         -0.         -0.         -0.         -0.         -0.         -0.         -0.         -0.          0.
  -0.          0.        ]
 [ 0.         -0.         -0.         -0.         -0.         -0.         -0.          0.          0.          0.         -0.          0.          0.
   0.          0.          0.         -0.         -0.         -0.         -0.         -0.         -0.         -0.         -0.         -0.          0.
  -0.          0.        ]
 [-0.          0.          0.          0.          0.          0.          0.         -0.         -0.         -0.          0.         -0.         -0.
  -0.         -0.         -0.          0.          0.          0.          0.          0.          0.          0.          0.          0.         -0.
   0.         -0.        ]
 [-0.00480216  0.00358903  0.00066727  0.          0.          0.          0.         -0.00067983 -0.00003659 -0.          0.         -0.         -0.
  -0.         -0.         -0.          0.          0.00003721  0.00016622  0.00049443  0.00007794  0.          0.          0.          0.         -0.00026035
   0.00011507 -0.0000376 ]
 [-0.02145058  0.01603171  0.00298062  0.          0.          0.          0.         -0.00303669 -0.00016343 -0.          0.         -0.         -0.
  -0.         -0.         -0.          0.          0.00016622  0.0007425   0.00220857  0.00034816  0.          0.          0.          0.         -0.00116296
   0.000514   -0.00016797]
 [-0.06380492  0.04768646  0.00886587  0.          0.          0.          0.         -0.00903266 -0.00048613 -0.          0.         -0.         -0.
  -0.         -0.         -0.          0.          0.00049443  0.00220857  0.0065694   0.0010356   0.          0.          0.          0.         -0.00345925
   0.0015289  -0.00049962]
 [-0.01005824  0.00751732  0.00139762  0.          0.          0.          0.         -0.00142391 -0.00007663 -0.          0.         -0.         -0.
  -0.         -0.         -0.          0.          0.00007794  0.00034816  0.0010356   0.00016325  0.          0.          0.          0.         -0.00054532
   0.00024102 -0.00007876]
 [-0.          0.          0.          0.          0.          0.          0.         -0.         -0.         -0.          0.         -0.         -0.
  -0.         -0.         -0.          0.          0.          0.          0.          0.          0.          0.          0.          0.         -0.
   0.         -0.        ]
 [-0.          0.          0.          0.          0.          0.          0.         -0.         -0.         -0.          0.         -0.         -0.
  -0.         -0.         -0.          0.          0.          0.          0.          0.          0.          0.          0.          0.         -0.
   0.         -0.        ]
 [-0.          0.          0.          0.          0.          0.          0.         -0.         -0.         -0.          0.         -0.         -0.
  -0.         -0.         -0.          0.          0.          0.          0.          0.          0.          0.          0.          0.         -0.
   0.         -0.        ]
 [-0.          0.          0.          0.          0.          0.          0.         -0.         -0.         -0.          0.         -0.         -0.
  -0.         -0.         -0.          0.          0.          0.          0.          0.          0.          0.          0.          0.         -0.
   0.         -0.        ]
 [ 0.03359773 -0.02511024 -0.0046685  -0.         -0.         -0.         -0.          0.00475632  0.00025598  0.         -0.          0.          0.
   0.          0.          0.         -0.         -0.00026035 -0.00116296 -0.00345925 -0.00054532 -0.         -0.         -0.         -0.          0.00182153
  -0.00080507  0.00026308]
 [-0.01484939  0.01109812  0.00206336  0.          0.          0.          0.         -0.00210218 -0.00011314 -0.          0.         -0.         -0.
  -0.         -0.         -0.          0.          0.00011507  0.000514    0.0015289   0.00024102  0.          0.          0.          0.         -0.00080507
   0.00035582 -0.00011628]
 [ 0.00485252 -0.00362667 -0.00067427 -0.         -0.         -0.         -0.          0.00068696  0.00003697  0.         -0.          0.          0.
   0.          0.          0.         -0.         -0.0000376  -0.00016797 -0.00049962 -0.00007876 -0.         -0.         -0.         -0.          0.00026308
  -0.00011628  0.000038  ]] 
 [[ 0.61970161  0.46315197 -0.08610923 -0.          0.          0.         -0.         -0.08772914  0.00472154 -0.          0.         -0.         -0.
  -0.         -0.         -0.          0.          0.00480216 -0.02145058  0.06380492 -0.01005824  0.         -0.          0.          0.         -0.03359773
  -0.01484939 -0.00485252]
 [ 0.46315197  0.34615006 -0.06435623 -0.          0.          0.         -0.         -0.06556692  0.00352878 -0.          0.         -0.         -0.
  -0.         -0.         -0.          0.          0.00358903 -0.01603171  0.04768646 -0.00751732  0.         -0.          0.          0.         -0.02511024
  -0.01109812 -0.00362667]
 [-0.08610923 -0.06435623  0.01196511  0.         -0.         -0.          0.          0.0121902  -0.00065607  0.         -0.          0.          0.
   0.          0.          0.         -0.         -0.00066727  0.00298062 -0.00886587  0.00139762 -0.          0.         -0.         -0.          0.0046685
   0.00206336  0.00067427]
 [-0.         -0.          0.          0.         -0.         -0.          0.          0.         -0.          0.         -0.          0.          0.
   0.          0.          0.         -0.         -0.          0.         -0.          0.         -0.          0.         -0.         -0.          0.
   0.          0.        ]
 [ 0.          0.         -0.         -0.          0.          0.         -0.         -0.          0.         -0.          0.         -0.         -0.
  -0.         -0.         -0.          0.          0.         -0.          0.         -0.          0.         -0.          0.          0.         -0.
  -0.         -0.        ]
 [ 0.          0.         -0.         -0.          0.          0.         -0.         -0.          0.         -0.          0.         -0.         -0.
  -0.         -0.         -0.          0.          0.         -0.          0.         -0.          0.         -0.          0.          0.         -0.
  -0.         -0.        ]
 [-0.         -0.          0.          0.         -0.         -0.          0.          0.         -0.          0.         -0.          0.          0.
   0.          0.          0.         -0.         -0.          0.         -0.          0.         -0.          0.         -0.         -0.          0.
   0.          0.        ]
 [-0.08772914 -0.06556692  0.0121902   0.         -0.         -0.          0.          0.01241953 -0.00066841  0.         -0.          0.          0.
   0.          0.          0.         -0.         -0.00067983  0.00303669 -0.00903266  0.00142391 -0.          0.         -0.         -0.          0.00475632
   0.00210218  0.00068696]
 [ 0.00472154  0.00352878 -0.00065607 -0.          0.          0.         -0.         -0.00066841  0.00003597 -0.          0.         -0.         -0.
  -0.         -0.         -0.          0.          0.00003659 -0.00016343  0.00048613 -0.00007663  0.         -0.          0.          0.         -0.00025598
  -0.00011314 -0.00003697]
 [-0.         -0.          0.          0.         -0.         -0.          0.          0.         -0.          0.         -0.          0.          0.
   0.          0.          0.         -0.         -0.          0.         -0.          0.         -0.          0.         -0.         -0.          0.
   0.          0.        ]
 [ 0.          0.         -0.         -0.          0.          0.         -0.         -0.          0.         -0.          0.         -0.         -0.
  -0.         -0.         -0.          0.          0.         -0.          0.         -0.          0.         -0.          0.          0.         -0.
  -0.         -0.        ]
 [-0.         -0.          0.          0.         -0.         -0.          0.          0.         -0.          0.         -0.          0.          0.
   0.          0.          0.         -0.         -0.          0.         -0.          0.         -0.          0.         -0.         -0.          0.
   0.          0.        ]
 [-0.         -0.          0.          0.         -0.         -0.          0.          0.         -0.          0.         -0.          0.          0.
   0.          0.          0.         -0.         -0.          0.         -0.          0.         -0.          0.         -0.         -0.          0.
   0.          0.        ]
 [-0.         -0.          0.          0.         -0.         -0.          0.          0.         -0.          0.         -0.          0.          0.
   0.          0.          0.         -0.         -0.          0.         -0.          0.         -0.          0.         -0.         -0.          0.
   0.          0.        ]
 [-0.         -0.          0.          0.         -0.         -0.          0.          0.         -0.          0.         -0.          0.          0.
   0.          0.          0.         -0.         -0.          0.         -0.          0.         -0.          0.         -0.         -0.          0.
   0.          0.        ]
 [-0.         -0.          0.          0.         -0.         -0.          0.          0.         -0.          0.         -0.          0.          0.
   0.          0.          0.         -0.         -0.          0.         -0.          0.         -0.          0.         -0.         -0.          0.
   0.          0.        ]
 [ 0.          0.         -0.         -0.          0.          0.         -0.         -0.          0.         -0.          0.         -0.         -0.
  -0.         -0.         -0.          0.          0.         -0.          0.         -0.          0.         -0.          0.          0.         -0.
  -0.         -0.        ]
 [ 0.00480216  0.00358903 -0.00066727 -0.          0.          0.         -0.         -0.00067983  0.00003659 -0.          0.         -0.         -0.
  -0.         -0.         -0.          0.          0.00003721 -0.00016622  0.00049443 -0.00007794  0.         -0.          0.          0.         -0.00026035
  -0.00011507 -0.0000376 ]
 [-0.02145058 -0.01603171  0.00298062  0.         -0.         -0.          0.          0.00303669 -0.00016343  0.         -0.          0.          0.
   0.          0.          0.         -0.         -0.00016622  0.0007425  -0.00220857  0.00034816 -0.          0.         -0.         -0.          0.00116296
   0.000514    0.00016797]
 [ 0.06380492  0.04768646 -0.00886587 -0.          0.          0.         -0.         -0.00903266  0.00048613 -0.          0.         -0.         -0.
  -0.         -0.         -0.          0.          0.00049443 -0.00220857  0.0065694  -0.0010356   0.         -0.          0.          0.         -0.00345925
  -0.0015289  -0.00049962]
 [-0.01005824 -0.00751732  0.00139762  0.         -0.         -0.          0.          0.00142391 -0.00007663  0.         -0.          0.          0.
   0.          0.          0.         -0.         -0.00007794  0.00034816 -0.0010356   0.00016325 -0.          0.         -0.         -0.          0.00054532
   0.00024102  0.00007876]
 [ 0.          0.         -0.         -0.          0.          0.         -0.         -0.          0.         -0.          0.         -0.         -0.
  -0.         -0.         -0.          0.          0.         -0.          0.         -0.          0.         -0.          0.          0.         -0.
  -0.         -0.        ]
 [-0.         -0.          0.          0.         -0.         -0.          0.          0.         -0.          0.         -0.          0.          0.
   0.          0.          0.         -0.         -0.          0.         -0.          0.         -0.          0.         -0.         -0.          0.
   0.          0.        ]
 [ 0.          0.         -0.         -0.          0.          0.         -0.         -0.          0.         -0.          0.         -0.         -0.
  -0.         -0.         -0.          0.          0.         -0.          0.         -0.          0.         -0.          0.          0.         -0.
  -0.         -0.        ]
 [ 0.          0.         -0.         -0.          0.          0.         -0.         -0.          0.         -0.          0.         -0.         -0.
  -0.         -0.         -0.          0.          0.         -0.          0.         -0.          0.         -0.          0.          0.         -0.
  -0.         -0.        ]
 [-0.03359773 -0.02511024  0.0046685   0.         -0.         -0.          0.          0.00475632 -0.00025598  0.         -0.          0.          0.
   0.          0.          0.         -0.         -0.00026035  0.00116296 -0.00345925  0.00054532 -0.          0.         -0.         -0.          0.00182153
   0.00080507  0.00026308]
 [-0.01484939 -0.01109812  0.00206336  0.         -0.         -0.          0.          0.00210218 -0.00011314  0.         -0.          0.          0.
   0.          0.          0.         -0.         -0.00011507  0.000514   -0.0015289   0.00024102 -0.          0.         -0.         -0.          0.00080507
   0.00035582  0.00011628]
 [-0.00485252 -0.00362667  0.00067427  0.         -0.         -0.          0.          0.00068696 -0.00003697  0.         -0.          0.          0.
[...]
Feff (mod,ortho)
[[-0.22519774  0.29712512  0.19745829 ...  0.          0.          0.        ]
 [ 0.29712512  0.01652731 -0.07976676 ...  0.          0.          0.        ]
 [ 0.19745829 -0.07976676  1.32801984 ...  0.          0.          0.        ]
 ...
 [ 0.          0.          0.         ...  3.20903107 -0.01118317  0.10370903]
 [ 0.          0.          0.         ... -0.01118317  1.79647756 -0.01829951]
 [ 0.          0.          0.         ...  0.10370903 -0.01829951  1.57854209]]
E(SUHF) =     -1.01004457
e_a, e_b
[-0.49876445  0.06464911  0.3672668   0.50067726  0.65689552  0.72031187  0.72031187  0.85418918  0.85418918  1.09146918  2.46171471  2.62856539  3.39184783
  3.42412715  3.42412715  3.42987842  3.42987842  3.48558095  3.48558095  3.48711975  3.48711975  3.51107068  3.83704249  3.83704249  3.86082866  3.95386657
  3.95386657  4.25009664] [-0.49876445  0.06464911  0.3672668   0.50067726  0.65689552  0.72031187  0.72031187  0.85418918  0.85418918  1.09146918  2.46171471  2.62856539  3.39184783
  3.42412715  3.42412715  3.42987842  3.42987842  3.48558095  3.48558095  3.48711975  3.48711975  3.51107068  3.83704249  3.83704249  3.86082866  3.95386657
  3.95386657  4.25009664]
P_a, P_b
[[ 0.60208121 -0.46637897 -0.09007419  0.         -0.         -0.         -0.          0.09231768  0.00537995  0.          0.          0.          0.
   0.          0.          0.          0.         -0.00543311 -0.00934984 -0.05946537 -0.0109576  -0.         -0.         -0.         -0.          0.0344722
  -0.01931248  0.00841337]
 [-0.46637897  0.36126246  0.06977249 -0.          0.          0.          0.         -0.07151033 -0.00416737 -0.         -0.         -0.         -0.
  -0.         -0.         -0.         -0.          0.00420855  0.00724249  0.04606255  0.00848789  0.          0.          0.          0.         -0.02670256
   0.01495967 -0.0065171 ]
 [-0.09007419  0.06977249  0.01347552 -0.          0.          0.          0.         -0.01381116 -0.00080487 -0.         -0.         -0.         -0.
  -0.         -0.         -0.         -0.          0.00081282  0.00139878  0.0088963   0.00163931  0.          0.          0.          0.         -0.0051572
   0.00288924 -0.00125868]
 [ 0.         -0.         -0.          0.         -0.         -0.         -0.          0.          0.          0.          0.          0.          0.
   0.          0.          0.          0.         -0.         -0.         -0.         -0.         -0.         -0.         -0.         -0.          0.
  -0.          0.        ]
 [-0.          0.          0.         -0.          0.          0.          0.         -0.         -0.         -0.         -0.         -0.         -0.
  -0.         -0.         -0.         -0.          0.          0.          0.          0.          0.          0.          0.          0.         -0.
   0.         -0.        ]
 [-0.          0.          0.         -0.          0.          0.          0.         -0.         -0.         -0.         -0.         -0.         -0.
  -0.         -0.         -0.         -0.          0.          0.          0.          0.          0.          0.          0.          0.         -0.
   0.         -0.        ]
 [-0.          0.          0.         -0.          0.          0.          0.         -0.         -0.         -0.         -0.         -0.         -0.
  -0.         -0.         -0.         -0.          0.          0.          0.          0.          0.          0.          0.          0.         -0.
   0.         -0.        ]
 [ 0.09231768 -0.07151033 -0.01381116  0.         -0.         -0.         -0.          0.01415516  0.00082491  0.          0.          0.          0.
   0.          0.          0.          0.         -0.00083306 -0.00143362 -0.00911788 -0.00168014 -0.         -0.         -0.         -0.          0.00528565
  -0.0029612   0.00129003]
 [ 0.00537995 -0.00416737 -0.00080487  0.         -0.         -0.         -0.          0.00082491  0.00004807  0.          0.          0.          0.
   0.          0.          0.          0.         -0.00004855 -0.00008355 -0.00053136 -0.00009791 -0.         -0.         -0.         -0.          0.00030803
  -0.00017257  0.00007518]
 [ 0.         -0.         -0.          0.         -0.         -0.         -0.          0.          0.          0.          0.          0.          0.
   0.          0.          0.          0.         -0.         -0.         -0.         -0.         -0.         -0.         -0.         -0.          0.
  -0.          0.        ]
 [ 0.         -0.         -0.          0.         -0.         -0.         -0.          0.          0.          0.          0.          0.          0.
   0.          0.          0.          0.         -0.         -0.         -0.         -0.         -0.         -0.         -0.         -0.          0.
  -0.          0.        ]
 [ 0.         -0.         -0.          0.         -0.         -0.         -0.          0.          0.          0.          0.          0.          0.
   0.          0.          0.          0.         -0.         -0.         -0.         -0.         -0.         -0.         -0.         -0.          0.
  -0.          0.        ]
 [ 0.         -0.         -0.          0.         -0.         -0.         -0.          0.          0.          0.          0.          0.          0.
   0.          0.          0.          0.         -0.         -0.         -0.         -0.         -0.         -0.         -0.         -0.          0.
  -0.          0.        ]
 [ 0.         -0.         -0.          0.         -0.         -0.         -0.          0.          0.          0.          0.          0.          0.
   0.          0.          0.          0.         -0.         -0.         -0.         -0.         -0.         -0.         -0.         -0.          0.
  -0.          0.        ]
 [ 0.         -0.         -0.          0.         -0.         -0.         -0.          0.          0.          0.          0.          0.          0.
   0.          0.          0.          0.         -0.         -0.         -0.         -0.         -0.         -0.         -0.         -0.          0.
  -0.          0.        ]
 [ 0.         -0.         -0.          0.         -0.         -0.         -0.          0.          0.          0.          0.          0.          0.
   0.          0.          0.          0.         -0.         -0.         -0.         -0.         -0.         -0.         -0.         -0.          0.
  -0.          0.        ]
 [ 0.         -0.         -0.          0.         -0.         -0.         -0.          0.          0.          0.          0.          0.          0.
   0.          0.          0.          0.         -0.         -0.         -0.         -0.         -0.         -0.         -0.         -0.          0.
  -0.          0.        ]
 [-0.00543311  0.00420855  0.00081282 -0.          0.          0.          0.         -0.00083306 -0.00004855 -0.         -0.         -0.         -0.
  -0.         -0.         -0.         -0.          0.00004903  0.00008437  0.00053661  0.00009888  0.          0.          0.          0.         -0.00031107
   0.00017427 -0.00007592]
 [-0.00934984  0.00724249  0.00139878 -0.          0.          0.          0.         -0.00143362 -0.00008355 -0.         -0.         -0.         -0.
  -0.         -0.         -0.         -0.          0.00008437  0.0001452   0.00092345  0.00017016  0.          0.          0.          0.         -0.00053533
   0.00029991 -0.00013065]
 [-0.05946537  0.04606255  0.0088963  -0.          0.          0.          0.         -0.00911788 -0.00053136 -0.         -0.         -0.         -0.
  -0.         -0.         -0.         -0.          0.00053661  0.00092345  0.00587318  0.00108224  0.          0.          0.          0.         -0.00340469
   0.00190742 -0.00083096]
 [-0.0109576   0.00848789  0.00163931 -0.          0.          0.          0.         -0.00168014 -0.00009791 -0.         -0.         -0.         -0.
  -0.         -0.         -0.         -0.          0.00009888  0.00017016  0.00108224  0.00019942  0.          0.          0.          0.         -0.00062738
   0.00035148 -0.00015312]
 [-0.          0.          0.         -0.          0.          0.          0.         -0.         -0.         -0.         -0.         -0.         -0.
  -0.         -0.         -0.         -0.          0.          0.          0.          0.          0.          0.          0.          0.         -0.
   0.         -0.        ]
 [-0.          0.          0.         -0.          0.          0.          0.         -0.         -0.         -0.         -0.         -0.         -0.
  -0.         -0.         -0.         -0.          0.          0.          0.          0.          0.          0.          0.          0.         -0.
   0.         -0.        ]
 [-0.          0.          0.         -0.          0.          0.          0.         -0.         -0.         -0.         -0.         -0.         -0.
  -0.         -0.         -0.         -0.          0.          0.          0.          0.          0.          0.          0.          0.         -0.
   0.         -0.        ]
 [-0.          0.          0.         -0.          0.          0.          0.         -0.         -0.         -0.         -0.         -0.         -0.
  -0.         -0.         -0.         -0.          0.          0.          0.          0.          0.          0.          0.          0.         -0.
   0.         -0.        ]
 [ 0.0344722  -0.02670256 -0.0051572   0.         -0.         -0.         -0.          0.00528565  0.00030803  0.          0.          0.          0.
   0.          0.          0.          0.         -0.00031107 -0.00053533 -0.00340469 -0.00062738 -0.         -0.         -0.         -0.          0.00197371
  -0.00110574  0.00048171]
 [-0.01931248  0.01495967  0.00288924 -0.          0.          0.          0.         -0.0029612  -0.00017257 -0.         -0.         -0.         -0.
  -0.         -0.         -0.         -0.          0.00017427  0.00029991  0.00190742  0.00035148  0.          0.          0.          0.         -0.00110574
   0.00061947 -0.00026987]
 [ 0.00841337 -0.0065171  -0.00125868  0.         -0.         -0.         -0.          0.00129003  0.00007518  0.          0.          0.          0.
   0.          0.          0.          0.         -0.00007592 -0.00013065 -0.00083096 -0.00015312 -0.         -0.         -0.         -0.          0.00048171
  -0.00026987  0.00011757]] 
 [[ 0.60208121  0.46637897 -0.09007419 -0.          0.          0.         -0.         -0.09231768  0.00537995 -0.         -0.         -0.         -0.
  -0.         -0.         -0.         -0.          0.00543311 -0.00934984  0.05946537 -0.0109576   0.          0.          0.         -0.         -0.0344722
  -0.01931248 -0.00841337]
 [ 0.46637897  0.36126246 -0.06977249 -0.          0.          0.         -0.         -0.07151033  0.00416737 -0.         -0.         -0.         -0.
  -0.         -0.         -0.         -0.          0.00420855 -0.00724249  0.04606255 -0.00848789  0.          0.          0.         -0.         -0.02670256
  -0.01495967 -0.0065171 ]
 [-0.09007419 -0.06977249  0.01347552  0.         -0.         -0.          0.          0.01381116 -0.00080487  0.          0.          0.          0.
   0.          0.          0.          0.         -0.00081282  0.00139878 -0.0088963   0.00163931 -0.         -0.         -0.          0.          0.0051572
   0.00288924  0.00125868]
 [-0.         -0.          0.          0.         -0.         -0.          0.          0.         -0.          0.          0.          0.          0.
   0.          0.          0.          0.         -0.          0.         -0.          0.         -0.         -0.         -0.          0.          0.
   0.          0.        ]
 [ 0.          0.         -0.         -0.          0.          0.         -0.         -0.          0.         -0.         -0.         -0.         -0.
  -0.         -0.         -0.         -0.          0.         -0.          0.         -0.          0.          0.          0.         -0.         -0.
  -0.         -0.        ]
 [ 0.          0.         -0.         -0.          0.          0.         -0.         -0.          0.         -0.         -0.         -0.         -0.
  -0.         -0.         -0.         -0.          0.         -0.          0.         -0.          0.          0.          0.         -0.         -0.
  -0.         -0.        ]
 [-0.         -0.          0.          0.         -0.         -0.          0.          0.         -0.          0.          0.          0.          0.
   0.          0.          0.          0.         -0.          0.         -0.          0.         -0.         -0.         -0.          0.          0.
   0.          0.        ]
 [-0.09231768 -0.07151033  0.01381116  0.         -0.         -0.          0.          0.01415516 -0.00082491  0.          0.          0.          0.
   0.          0.          0.          0.         -0.00083306  0.00143362 -0.00911788  0.00168014 -0.         -0.         -0.          0.          0.00528565
   0.0029612   0.00129003]
 [ 0.00537995  0.00416737 -0.00080487 -0.          0.          0.         -0.         -0.00082491  0.00004807 -0.         -0.         -0.         -0.
  -0.         -0.         -0.         -0.          0.00004855 -0.00008355  0.00053136 -0.00009791  0.          0.          0.         -0.         -0.00030803
  -0.00017257 -0.00007518]
 [-0.         -0.          0.          0.         -0.         -0.          0.          0.         -0.          0.          0.          0.          0.
   0.          0.          0.          0.         -0.          0.         -0.          0.         -0.         -0.         -0.          0.          0.
   0.          0.        ]
 [-0.         -0.          0.          0.         -0.         -0.          0.          0.         -0.          0.          0.          0.          0.
   0.          0.          0.          0.         -0.          0.         -0.          0.         -0.         -0.         -0.          0.          0.
   0.          0.        ]
 [-0.         -0.          0.          0.         -0.         -0.          0.          0.         -0.          0.          0.          0.          0.
   0.          0.          0.          0.         -0.          0.         -0.          0.         -0.         -0.         -0.          0.          0.
   0.          0.        ]
 [-0.         -0.          0.          0.         -0.         -0.          0.          0.         -0.          0.          0.          0.          0.
   0.          0.          0.          0.         -0.          0.         -0.          0.         -0.         -0.         -0.          0.          0.
   0.          0.        ]
 [-0.         -0.          0.          0.         -0.         -0.          0.          0.         -0.          0.          0.          0.          0.
   0.          0.          0.          0.         -0.          0.         -0.          0.         -0.         -0.         -0.          0.          0.
   0.          0.        ]
 [-0.         -0.          0.          0.         -0.         -0.          0.          0.         -0.          0.          0.          0.          0.
   0.          0.          0.          0.         -0.          0.         -0.          0.         -0.         -0.         -0.          0.          0.
   0.          0.        ]
 [-0.         -0.          0.          0.         -0.         -0.          0.          0.         -0.          0.          0.          0.          0.
   0.          0.          0.          0.         -0.          0.         -0.          0.         -0.         -0.         -0.          0.          0.
   0.          0.        ]
 [-0.         -0.          0.          0.         -0.         -0.          0.          0.         -0.          0.          0.          0.          0.
   0.          0.          0.          0.         -0.          0.         -0.          0.         -0.         -0.         -0.          0.          0.
   0.          0.        ]
 [ 0.00543311  0.00420855 -0.00081282 -0.          0.          0.         -0.         -0.00083306  0.00004855 -0.         -0.         -0.         -0.
  -0.         -0.         -0.         -0.          0.00004903 -0.00008437  0.00053661 -0.00009888  0.          0.          0.         -0.         -0.00031107
  -0.00017427 -0.00007592]
 [-0.00934984 -0.00724249  0.00139878  0.         -0.         -0.          0.          0.00143362 -0.00008355  0.          0.          0.          0.
   0.          0.          0.          0.         -0.00008437  0.0001452  -0.00092345  0.00017016 -0.         -0.         -0.          0.          0.00053533
   0.00029991  0.00013065]
 [ 0.05946537  0.04606255 -0.0088963  -0.          0.          0.         -0.         -0.00911788  0.00053136 -0.         -0.         -0.         -0.
  -0.         -0.         -0.         -0.          0.00053661 -0.00092345  0.00587318 -0.00108224  0.          0.          0.         -0.         -0.00340469
  -0.00190742 -0.00083096]
 [-0.0109576  -0.00848789  0.00163931  0.         -0.         -0.          0.          0.00168014 -0.00009791  0.          0.          0.          0.
   0.          0.          0.          0.         -0.00009888  0.00017016 -0.00108224  0.00019942 -0.         -0.         -0.          0.          0.00062738
   0.00035148  0.00015312]
 [ 0.          0.         -0.         -0.          0.          0.         -0.         -0.          0.         -0.         -0.         -0.         -0.
  -0.         -0.         -0.         -0.          0.         -0.          0.         -0.          0.          0.          0.         -0.         -0.
  -0.         -0.        ]
 [ 0.          0.         -0.         -0.          0.          0.         -0.         -0.          0.         -0.         -0.         -0.         -0.
  -0.         -0.         -0.         -0.          0.         -0.          0.         -0.          0.          0.          0.         -0.         -0.
  -0.         -0.        ]
 [ 0.          0.         -0.         -0.          0.          0.         -0.         -0.          0.         -0.         -0.         -0.         -0.
  -0.         -0.         -0.         -0.          0.         -0.          0.         -0.          0.          0.          0.         -0.         -0.
  -0.         -0.        ]
 [-0.         -0.          0.          0.         -0.         -0.          0.          0.         -0.          0.          0.          0.          0.
   0.          0.          0.          0.         -0.          0.         -0.          0.         -0.         -0.         -0.          0.          0.
   0.          0.        ]
 [-0.0344722  -0.02670256  0.0051572   0.         -0.         -0.          0.          0.00528565 -0.00030803  0.          0.          0.          0.
   0.          0.          0.          0.         -0.00031107  0.00053533 -0.00340469  0.00062738 -0.         -0.         -0.          0.          0.00197371
   0.00110574  0.00048171]
 [-0.01931248 -0.01495967  0.00288924  0.         -0.         -0.          0.          0.0029612  -0.00017257  0.          0.          0.          0.
   0.          0.          0.          0.         -0.00017427  0.00029991 -0.00190742  0.00035148 -0.         -0.         -0.          0.          0.00110574
   0.00061947  0.00026987]
 [-0.00841337 -0.0065171   0.00125868  0.         -0.         -0.          0.          0.00129003 -0.00007518  0.          0.          0.          0.
   0.          0.          0.          0.         -0.00007592  0.00013065 -0.00083096  0.00015312 -0.         -0.         -0.          0.          0.00048171
   0.00026987  0.00011757]]

***************
SUHF converged at cycle 9
Final E(SUHF) =     -1.01004457, delta E = -2.15691e-09
***** Start DFT Correlation for SUHF+DFT **********
tot grids = 20048
E(SUHF) =     -1.01004457
E_c(TPSS) =     -0.00333911
E(SUHF+DFT) =     -1.01338367
