

#INFO: **** input file is /share/home/srwang/ExSCF/test/pytest/scan_h2/scan_dft.py ****
#import phf
from pyscf import lib
#import scipy
import numpy as np
import sys, os, contextlib

from pyphf import util, sudft

#xyz = 'h2.xyz' #sys.argv[1]
fch = 'test_uhf.fchk' #sys.argv[2]
#bas = '../h2.bas'
bas = 'cc-pvtz'

lib.num_threads(4)

for r in np.arange(0.9, 2.55, 0.1):
    output = 'tpss/sudft_%.1f_diis.out' % r
    os.system("echo '\n' > %s" % output)
    with open(output, 'a', encoding='utf-8') as f:
        with contextlib.redirect_stdout(f):
            xyz = '''H 0.0 0.0 0.0; H 0.0 0.0 %f'''%r
            mf = util.guess_from_fchk(xyz, bas, fch)
            #mf = util.guess(xyz, bas)
            #f.flush()
            mf2 = util.SUHF(mf)
            #mf2.cut_no = False
            mf2.debug = False
            #mf2.max_cycle = 50
            mf2.diis_on = True
            #mf2.output = 'sudft_%.1f.out'%r
            #mf2.kernel()
            
            mf3 = sudft.SUDFT(mf2)
            mf3.suxc = 'TPSS'
            mf3.kernel()
                    
#INFO: ******************** input file end ********************


System: uname_result(system='Linux', node='xc02n18', release='3.10.0-693.el7.x86_64', version='#1 SMP Thu Jul 6 19:56:57 EDT 2017', machine='x86_64', processor='x86_64')  Threads 4
Python 3.7.4 (default, Aug 13 2019, 20:35:49) 
[GCC 7.3.0]
numpy 1.17.2  scipy 1.4.1
Date: Tue Nov 24 03:35:20 2020
PySCF version 1.7.5
PySCF path  /share/home/srwang/pyscf-1.7.5/pyscf

[CONFIG] conf_file None
[INPUT] verbose = 4
[INPUT] num. atoms = 2
[INPUT] num. electrons = 2
[INPUT] charge = 0
[INPUT] spin (= nelec alpha-beta = 2S) = 0
[INPUT] symmetry False subgroup None
[INPUT] Mole.unit = angstrom
[INPUT]  1 H      0.000000000000   0.000000000000   0.000000000000 AA    0.000000000000   0.000000000000   0.000000000000 Bohr
[INPUT]  2 H      0.000000000000   0.000000000000   0.900000000000 AA    0.000000000000   0.000000000000   1.700753512109 Bohr

nuclear repulsion = 0.5879746788
number of shells = 12
number of NR pGTOs = 32
number of NR cGTOs = 28
basis = cc-pvtz
ecp = {}
CPU time:         0.84


******** <class 'pyscf.scf.uhf.UHF'> ********
method = UHF
initial guess = minao
damping factor = 0
level_shift factor = 0
DIIS = <class 'pyscf.scf.diis.CDIIS'>
diis_start_cycle = 1
diis_space = 8
SCF conv_tol = 1e-09
SCF conv_tol_grad = None
SCF max_cycles = 1
direct_scf = True
direct_scf_tol = 1e-13
chkfile to save SCF result = /share/home/srwang/ExSCF/test/pytest/scan_h2/tmpmrx7hpqr
max_memory 4000 MB (current use 100 MB)
number electrons alpha = 1  beta = 1
Set gradient conv threshold to 3.16228e-05
init E= -0.777606275655002
  alpha nocc = 1  HOMO = -0.484832052038409  LUMO = 0.101893589509569
  beta  nocc = 1  HOMO = -0.482896344390349  LUMO = 0.102379264447568
cycle= 1 E= -1.11785381548896  delta_E= -0.34  |g|= 0.0309  |ddm|= 0.326
SCF not converged.
SCF energy = -1.11785381548896 after 1 cycles  <S^2> = 6.3128942e-07  2S+1 = 1.0000013


******** <class 'pyscf.scf.uhf.UHF'> ********
method = UHF
initial guess = minao
damping factor = 0
level_shift factor = 0
DIIS = <class 'pyscf.scf.diis.CDIIS'>
diis_start_cycle = 1
diis_space = 8
SCF conv_tol = 1e-09
SCF conv_tol_grad = None
SCF max_cycles = 1
direct_scf = True
direct_scf_tol = 1e-13
chkfile to save SCF result = /share/home/srwang/ExSCF/test/pytest/scan_h2/tmpmrx7hpqr
max_memory 4000 MB (current use 114 MB)
number electrons alpha = 1  beta = 1
Set gradient conv threshold to 3.16228e-05
init E= -1.19390694018613
  alpha nocc = 1  HOMO = -0.524641677616422  LUMO = 0.20163919459411
  beta  nocc = 1  HOMO = -0.524641677616421  LUMO = 0.20163919459411
cycle= 1 E= -1.10198639790229  delta_E= 0.0919  |g|= 0.0704  |ddm|= 0.117
SCF not converged.
SCF energy = -1.10198639790229 after 1 cycles  <S^2> = 0.16310881  2S+1 = 1.2854708

******** <class 'pyphf.util.SUHF'> ********
max_cycle = 70
verbose: normal
DIIS: <class 'pyscf.scf.diis.CDIIS'>
diis_start_cyc = 40
SVD: S^(-1/2)
[[-1.49646211e-01 -1.62578160e-17 -9.78620860e-17 -2.64245866e-01
   3.38048192e-02  5.31934801e-17 -4.60589185e-17 -2.03676534e-16
   4.83161278e-20 -1.36938963e-01  2.04565697e-20 -1.73976021e-18
  -2.14556587e-01 -4.90093782e-20  9.20127899e-20 -4.84053463e-01
   1.41074100e-16 -9.45610065e-16  7.57147980e-01  3.02062633e-15
   1.95025791e-16 -6.68020719e-01  8.12350548e-01  1.33110995e-14
  -1.98433839e-16 -9.68424645e-01  3.38137930e-01 -5.98357519e-02]
 [-2.11655586e-01 -1.13843558e-17  6.83307127e-17 -2.01260858e-01
  -8.91809838e-02  7.54731529e-18  5.54384772e-17 -6.51606624e-17
   1.83224401e-17  2.10115222e-02 -2.85883219e-18 -3.44028043e-17
   5.65436240e-03 -5.57346822e-18 -5.68507060e-17 -1.20154540e-01
  -7.85304671e-17 -2.54018003e-17 -3.08406629e-01 -1.61274094e-15
   2.99977190e-17 -1.62782343e-01 -6.27164315e-02 -1.85783337e-15
  -3.28421946e-15  1.54092909e+00 -4.17915929e-01  9.63155515e+00]
 [-1.95866053e-01  3.09271217e-17 -5.25343062e-17 -7.68031551e-02
  -2.15050397e-01  5.01105228e-17 -1.75701845e-17  1.94438862e-16
   2.25914932e-17  3.26569429e-02 -3.36588585e-19 -3.10043420e-17
   1.04967206e-01 -1.16850479e-18  2.34416078e-18  4.50041720e-01
   8.66335256e-17  8.52475084e-16 -3.78637066e-01 -1.17521916e-15
  -7.69742191e-17  2.46869299e-01  1.62664745e-01  5.01450911e-15
   2.44324089e-15 -8.62984611e-01  2.92999062e+00 -3.62900370e-01]
 [ 0.00000000e+00 -1.13818745e-01  2.32632642e-01  0.00000000e+00
   6.00410063e-17  4.70232320e-02  4.45697299e-01 -1.12175294e-01
  -1.76028809e-02 -3.00905055e-16 -2.83844297e-17  1.56642569e-16
   0.00000000e+00 -3.51018579e-16 -2.79080627e-18  2.32162806e-16
  -6.86744870e-02 -8.43681934e-01  1.53713905e-15 -7.12803575e-01
  -3.09521381e-01  1.40606456e-15 -1.01286459e-15  6.67159734e-02
  -3.23635035e-01 -1.67377916e-15  6.84072790e-16 -1.31693244e-15]
 [ 0.00000000e+00  2.32632642e-01  1.13818745e-01  0.00000000e+00
  -8.00546750e-17 -4.45697299e-01  4.70232320e-02 -1.76028809e-02
   1.12175294e-01 -2.75829634e-16  5.40454855e-16 -5.99156749e-16
   1.69287912e-16 -2.39842021e-16  1.35772105e-16  0.00000000e+00
  -8.43681934e-01  6.86744870e-02 -9.04199440e-16  3.09521381e-01
  -7.12803575e-01 -1.80779729e-15 -6.21223618e-15  3.23635035e-01
   6.67159734e-02  1.59407539e-16 -5.90790137e-16  1.45411291e-15]
 [-7.48852417e-02 -9.17064124e-17 -5.88534224e-17  1.53372878e-01
   3.70950001e-01  2.20915301e-16 -2.29100019e-16  1.16635823e-16
  -3.80120523e-17 -2.89911017e-01 -5.81917014e-19  1.61016762e-18
   7.60953326e-02 -2.10582393e-19  1.74177286e-19  3.89409893e-01
   3.62943507e-16  6.44149983e-16 -4.50996831e-01 -1.87182992e-15
   1.62486500e-16 -7.60618296e-01  1.24423837e+00  2.20121923e-14
  -3.20780453e-15  5.46691185e-02 -4.23843892e-01  5.96036785e-01]
 [ 1.10958219e-20 -1.40846971e-01  2.87875280e-01  1.14971793e-18
   3.89030299e-18  2.97408798e-02  2.81891083e-01 -2.36849185e-01
  -3.71670788e-02 -9.54401680e-17  7.88708611e-16  7.38152407e-17
  -1.12497883e-16  1.55691739e-16  1.31855473e-16  5.40942331e-17
   5.10293478e-02  6.26907324e-01 -9.18072059e-16  2.93156033e-01
   1.27297425e-01 -3.39096598e-15  6.22798944e-15 -2.94911984e-01
   1.43059968e+00  3.16991744e-15 -1.36699014e-15  3.95583578e-15]
 [ 1.00831699e-21  2.87875280e-01  1.40846971e-01  2.82856654e-18
   1.12421468e-17 -2.81891083e-01  2.97408798e-02 -3.71670788e-02
   2.36849185e-01 -2.60593587e-16  5.19169026e-16 -9.42708021e-16
   1.94434186e-16  1.62377049e-16 -2.10888902e-16  5.39885037e-17
   6.26907324e-01 -5.10293478e-02  4.72274151e-16 -1.27297425e-01
   2.93156033e-01  9.46001413e-15  3.03385098e-14 -1.43059968e+00
  -2.94911984e-01 -4.21991140e-16  2.86418733e-16  4.76230173e-16]
 [-1.03089070e-01 -6.36126396e-17  6.97969322e-19  3.05157772e-01
   2.39872892e-01  1.61934949e-17 -1.61627155e-16 -1.75818028e-16
  -1.54465573e-17 -1.26576486e-01 -2.88509538e-18 -2.76177255e-17
   2.38591483e-01 -3.63208925e-18 -2.38009142e-17 -2.59851703e-01
  -2.52603666e-16 -6.15513394e-16  5.46385780e-01  2.26198355e-15
   1.46991786e-16  1.15444285e+00 -1.93254152e-01  3.11575318e-15
   5.02817815e-15 -2.06758979e-01  9.90876562e-01  5.50015117e+00]
 [ 0.00000000e+00  7.97924083e-17 -1.77316463e-17  0.00000000e+00
   0.00000000e+00  1.44396639e-16 -7.82148459e-17 -2.34955072e-16
  -2.45035653e-15 -3.82620563e-22 -6.29536868e-02 -6.37923397e-01
   0.00000000e+00 -7.04041120e-02 -7.95902337e-01  4.04859803e-21
  -3.32505916e-16  7.79310740e-16 -1.76601453e-19 -4.77269963e-16
  -2.32814616e-16 -1.33910910e-16 -6.75243063e-17 -4.07214384e-16
   1.61189027e-16  0.00000000e+00  4.97507484e-16 -2.19488740e-15]
 [ 9.06028617e-23  1.66314564e-01  8.13717057e-02  5.88083794e-18
   7.41643624e-17  3.06040427e-01 -3.22887530e-02  8.89548550e-02
  -5.66869542e-01  3.26371535e-16 -1.06912003e-15  2.18861379e-15
  -2.55068080e-16 -4.82259207e-16  1.57479534e-16  4.51582209e-18
   9.49816771e-02 -7.73137090e-03 -9.97240133e-16  3.33514219e-01
  -7.68057210e-01  5.90920350e-15  1.82804585e-14 -8.46391556e-01
  -1.74479986e-01 -4.95215743e-17  1.60764040e-16  2.23997629e-15]
 [-3.52306599e-02 -2.33835850e-17 -1.83028199e-17  9.99954526e-02
   9.73870167e-02 -5.61562688e-16  3.35981236e-16  3.57059559e-16
   2.49887991e-16  5.36441235e-01 -2.06419163e-18 -1.72916546e-18
  -5.66077975e-01 -7.43503728e-19  6.07996215e-18  2.08541863e-01
   2.64056522e-16 -1.98131066e-16  1.13598507e-01  3.44724571e-16
   3.43463622e-16  6.81675918e-01  8.26754222e-01  2.24481213e-14
   2.05524670e-15  1.42628599e-01 -7.09389338e-02  1.24947736e+00]
 [ 1.58162502e-21 -8.13717057e-02  1.66314564e-01  6.83471193e-21
  -3.87766417e-17 -3.22887530e-02 -3.06040427e-01  5.66869542e-01
   8.89548550e-02  8.49764696e-17 -1.80793890e-15 -2.51350505e-16
   1.24391320e-16 -6.67000846e-17  2.54912771e-16 -4.73985051e-16
   7.73137090e-03  9.49816771e-02  2.59790113e-15 -7.68057210e-01
  -3.33514219e-01 -1.67994024e-15  3.79397201e-15 -1.74479986e-01
   8.46391556e-01  1.36940671e-15 -6.18039610e-16  2.72644655e-15]
 [ 0.00000000e+00 -1.24121524e-16  2.21645579e-18  0.00000000e+00
   0.00000000e+00  8.88941807e-16  9.62644258e-17  2.35730502e-15
  -5.76919385e-16  0.00000000e+00  6.37923397e-01 -6.29536868e-02
   0.00000000e+00  7.95902337e-01 -7.04041120e-02  0.00000000e+00
  -3.22115106e-16  7.27356691e-17  0.00000000e+00  0.00000000e+00
  -2.32814616e-16  0.00000000e+00  0.00000000e+00 -3.39345320e-16
  -5.42952512e-16  0.00000000e+00  0.00000000e+00  0.00000000e+00]
 [-1.49646211e-01  1.18642355e-16  2.77141623e-17  2.64245866e-01
   3.38048192e-02 -2.47906938e-16  1.02820117e-16 -1.40403194e-16
   5.20526238e-17  1.36938963e-01  1.68773192e-18  5.25786311e-18
  -2.14556587e-01  3.14847531e-19 -1.32810571e-17 -4.84053463e-01
  -2.70803676e-16  8.57040123e-16 -7.57147980e-01 -2.89101516e-15
  -5.32087502e-16 -6.68020719e-01 -8.12350548e-01 -2.18294104e-14
  -2.11243651e-15 -9.68424645e-01 -3.38137930e-01  5.98357519e-02]
 [-2.11655586e-01 -1.58468665e-17  6.69079083e-17  2.01260858e-01
  -8.91809838e-02  7.45983285e-17  5.04912764e-17 -1.12596846e-16
  -4.08120772e-17 -2.10115222e-02  3.02913907e-18  2.23132226e-17
   5.65436240e-03  5.12358670e-18  5.49127131e-17 -1.20154540e-01
   1.37615164e-17 -4.34528153e-16  3.08406629e-01  1.03368707e-15
   1.75926279e-17 -1.62782343e-01  6.27164315e-02  2.19068855e-16
  -2.15298590e-15  1.54092909e+00  4.17915929e-01 -9.63155515e+00]
 [-1.95866053e-01 -5.33502715e-18 -5.83743772e-17  7.68031551e-02
  -2.15050397e-01  1.59619513e-16 -4.27949257e-17  2.10296206e-16
  -7.50854700e-17 -3.26569429e-02 -1.25607291e-19  3.86013210e-17
   1.04967206e-01  1.42414223e-18  1.65618896e-18  4.50041720e-01
   1.89956645e-16 -4.12645310e-16  3.78637066e-01  1.61541789e-15
   2.35335083e-16  2.46869299e-01 -1.62664745e-01 -2.12210852e-15
   2.01687570e-15 -8.62984611e-01 -2.92999062e+00  3.62900370e-01]
 [ 3.97087554e-21 -1.13818745e-01  2.32632642e-01  1.41538186e-19
  -4.31116757e-17 -4.70232320e-02 -4.45697299e-01 -1.12175294e-01
  -1.76028809e-02  3.24220930e-16  4.41761894e-16 -2.91305457e-17
  -5.28387138e-17  6.25673442e-17 -3.36894807e-16  1.46614521e-16
  -6.86744870e-02 -8.43681934e-01 -4.16143989e-15  7.12803575e-01
   3.09521381e-01 -6.28184897e-16  1.40072059e-15 -6.67159734e-02
   3.23635035e-01  5.13455945e-16 -1.16133567e-16 -9.99616767e-16]
 [ 1.91357132e-22  2.32632642e-01  1.13818745e-01  7.06858172e-18
   8.39324519e-17  4.45697299e-01 -4.70232320e-02 -1.76028809e-02
   1.12175294e-01  2.91253077e-16 -2.76392882e-16 -2.60935365e-16
  -2.16854756e-16 -1.00383286e-16  7.18742465e-17  9.43869889e-17
  -8.43681934e-01  6.86744870e-02  1.11578839e-15 -3.09521381e-01
   7.12803575e-01  2.09804844e-15  6.96516857e-15 -3.23635035e-01
  -6.67159734e-02 -2.67393536e-16  6.62375745e-18 -5.48106345e-16]
 [ 7.48852417e-02  1.39519940e-17 -1.44215647e-17  1.53372878e-01
  -3.70950001e-01  2.42713060e-16 -2.16353617e-16 -2.11865658e-16
  -2.64828596e-17 -2.89911017e-01 -2.36701811e-18  6.03110554e-18
  -7.60953326e-02 -1.78999928e-19  1.43502298e-17 -3.89409893e-01
   2.72213629e-16  7.54472449e-16 -4.50996831e-01 -1.64398954e-15
   3.02431345e-16  7.60618296e-01  1.24423837e+00  3.14875471e-14
   2.07057652e-15 -5.46691185e-02 -4.23843892e-01  5.96036785e-01]
 [ 7.15498886e-21 -1.40846971e-01  2.87875280e-01 -7.66647558e-19
  -5.52781150e-17 -2.97408798e-02 -2.81891083e-01 -2.36849185e-01
  -3.71670788e-02  1.91684005e-16  9.93028280e-16  1.98507027e-16
  -6.40341903e-17  1.91129510e-16  1.44750526e-16  2.96307141e-16
   5.10293478e-02  6.26907324e-01  2.76336102e-15 -2.93156033e-01
  -1.27297425e-01  2.92110090e-15 -6.48590762e-15  2.94911984e-01
  -1.43059968e+00 -2.79687204e-15  6.77102377e-16 -3.83777611e-16]
 [ 8.49999219e-23  2.87875280e-01  1.40846971e-01  8.51888709e-18
   9.66487778e-17  2.81891083e-01 -2.97408798e-02 -3.71670788e-02
   2.36849185e-01  8.88843820e-17  4.81322630e-17 -7.78122874e-16
  -1.75596537e-17  2.79371872e-16 -2.82144756e-16 -3.75029957e-17
   6.26907324e-01 -5.10293478e-02 -6.62870318e-16  1.27297425e-01
  -2.93156033e-01 -9.53697355e-15 -3.08518569e-14  1.43059968e+00
   2.94911984e-01  3.20253911e-16 -2.34543866e-16 -6.81021484e-16]
 [ 1.03089070e-01 -5.39736196e-18 -8.13022737e-17  3.05157772e-01
  -2.39872892e-01  9.74518656e-17  5.04563240e-18  1.38032617e-16
  -1.85799733e-17 -1.26576486e-01 -1.92978536e-19 -3.52315941e-17
  -2.38591483e-01 -3.71618137e-18 -4.52313285e-17  2.59851703e-01
   8.72496503e-17 -9.29492763e-16  5.46385780e-01  1.91031142e-15
   6.05244556e-17 -1.15444285e+00 -1.93254152e-01 -1.09976445e-14
  -3.38374632e-15  2.06758979e-01  9.90876562e-01  5.50015117e+00]
 [-5.01254665e-34 -8.13208089e-17 -2.58958547e-18  5.66483958e-27
   1.98688945e-25  1.96795909e-16 -4.65593295e-17 -2.31997915e-16
  -2.13136763e-15 -3.07225093e-22 -6.29536868e-02 -6.37923397e-01
   2.76158389e-22  7.04041120e-02  7.95902337e-01 -2.00157953e-21
   5.22298454e-16 -4.17302317e-16  4.68049689e-20  8.08045871e-17
  -3.58781404e-17  1.20366346e-17  7.05477621e-18  6.49258605e-17
  -8.04902719e-17 -9.47602963e-18 -7.79905243e-17  1.81863788e-16]
 [-1.98356259e-22 -1.66314564e-01 -8.13717057e-02 -3.62567414e-18
  -3.52279548e-17  3.06040427e-01 -3.22887530e-02 -8.89548550e-02
   5.66869542e-01  1.42942476e-16 -2.27504538e-17 -1.93957656e-15
  -1.34094389e-16 -2.59603499e-16 -1.99462931e-16  1.23984352e-16
  -9.49816771e-02  7.73137090e-03 -9.12967437e-16  3.33514219e-01
  -7.68057210e-01  5.82373454e-15  1.83169027e-14 -8.46391556e-01
  -1.74479986e-01  4.46337230e-17 -4.59203765e-17  2.58915820e-15]
 [-3.52306599e-02  6.62303066e-18  3.18768936e-17 -9.99954526e-02
   9.73870167e-02  1.26731526e-17 -4.03819395e-16  1.46411831e-16
  -2.88197398e-17 -5.36441235e-01  4.38001939e-19  4.29860603e-18
  -5.66077975e-01  7.16926152e-19  6.76908836e-18  2.08541863e-01
  -5.91450174e-17  2.08704058e-16 -1.13598507e-01 -4.09254558e-16
  -3.11321651e-17  6.81675918e-01 -8.26754222e-01 -1.36586580e-14
   2.23678086e-15  1.42628599e-01  7.09389338e-02 -1.24947736e+00]
 [-6.87707899e-21  8.13717057e-02 -1.66314564e-01  2.79794853e-19
   1.36504367e-17 -3.22887530e-02 -3.06040427e-01 -5.66869542e-01
  -8.89548550e-02  3.40464617e-16  2.01506422e-15  5.18790144e-16
  -1.35683214e-16  1.73111371e-16  2.24730595e-16  4.43796785e-16
  -7.73137090e-03 -9.49816771e-02  2.40862412e-15 -7.68057210e-01
  -3.33514219e-01 -1.56107868e-15  3.79981028e-15 -1.74479986e-01
   8.46391556e-01  1.31894485e-15 -6.00574804e-16  7.97865614e-16]
 [ 0.00000000e+00 -2.79669050e-17  6.27664199e-19  0.00000000e+00
   0.00000000e+00  5.81411378e-16  3.24667764e-17  1.97855240e-15
  -3.66183236e-16  0.00000000e+00  6.37923397e-01 -6.29536868e-02
   0.00000000e+00 -7.95902337e-01  7.04041120e-02  0.00000000e+00
   7.04910262e-17  3.04411381e-17  4.18811488e-31 -9.08863110e-17
   1.65438243e-16 -2.05607533e-25 -1.99481669e-25  3.33341674e-17
   6.46588180e-17 -7.98004007e-26 -2.13395102e-24 -1.27900517e-21]]
C (ortho)
[[-9.57494629e-01 -1.64835544e-01  3.31914807e-02  1.24554469e-01
  -5.99928666e-18 -3.70887905e-16 -1.52625076e-01  1.35152135e-16
  -1.26051606e-16  1.60846748e-02  9.31986934e-03  4.43996300e-02
  -4.80717257e-18  3.40346342e-17 -5.84830791e-17 -6.54766063e-17
  -1.10927578e-01 -4.58083488e-17 -6.12206242e-19 -5.29901731e-16
   1.88565402e-18  2.51004985e-17 -1.98115508e-17 -3.12656231e-03
  -1.46210225e-17 -4.21120651e-17 -3.85473746e-02  2.42257842e-03]
 [-2.08990915e-17 -2.86069346e-16 -3.96749575e-16 -4.76183717e-16
   8.48833407e-01 -3.54986779e-02  2.11503722e-16  4.45578145e-02
  -2.69132976e-02 -6.69324268e-17  9.99715468e-17  2.64866821e-17
  -2.64985840e-16  6.05574731e-16 -4.15547067e-01  3.01479119e-01
  -3.42599787e-17 -1.71442696e-16  2.53650043e-15  6.26926422e-02
   1.72209385e-03 -8.09336156e-02  3.78210632e-02 -3.06320307e-16
  -2.07105075e-03  4.96371497e-03  6.99726283e-17  2.14056479e-18]
 [ 5.35689139e-17  3.80319207e-16  1.04696237e-16  5.62409354e-16
   3.54986779e-02  8.48833407e-01 -2.01559650e-15  2.69132976e-02
   4.45578145e-02  2.68016894e-16  2.11912757e-16 -7.65205919e-17
  -1.63043050e-15 -3.16133799e-16  3.01479119e-01  4.15547067e-01
  -3.29892198e-16 -6.20402132e-16 -2.57589228e-16 -1.72209385e-03
   6.26926422e-02  3.78210632e-02  8.09336156e-02 -1.48224891e-16
  -4.96371497e-03 -2.07105075e-03 -5.37493054e-17 -6.25512952e-17]
 [-2.00789073e-01  6.55536720e-01  2.82688323e-02 -7.03384671e-01
  -1.07550256e-16  6.34600205e-17 -3.70984540e-02 -2.11085382e-17
   2.80698262e-17 -3.53317569e-02  1.13795105e-01 -1.10810495e-01
   1.18503709e-17 -1.39950947e-16  1.45066156e-17  2.52421114e-18
  -7.91883921e-03  7.88946916e-17  5.53901859e-19 -1.21981718e-16
  -6.68208854e-18 -9.25585779e-18  6.32434784e-18 -3.06250686e-02
   1.35542804e-17 -2.49747920e-17 -2.16960327e-03  7.44849351e-02]
 [-1.90338220e-01 -5.81352928e-02 -4.45410678e-01 -5.11839071e-02
  -2.47437421e-16  1.94055268e-15  6.31159435e-01 -3.45241896e-16
   1.39389550e-16 -1.73799736e-02 -1.40667567e-01 -1.86499412e-01
   8.18703867e-18 -7.79679890e-17  2.49723149e-16  2.73284691e-16
   5.41410640e-01  1.60180879e-16 -1.76971702e-19  2.23069657e-15
  -1.46478542e-16 -1.37793271e-16  9.26314012e-17  1.62423917e-02
   3.83406504e-17  1.25719988e-16  1.12856100e-01 -4.65822863e-03]
 [ 5.90078640e-17  1.41265328e-16  3.34923984e-16  2.61603585e-17
  -4.71643094e-02 -1.50097815e-02  9.21129382e-16  7.30047989e-01
  -1.43020689e-01  2.76482456e-16 -2.94335364e-16  4.45159207e-16
   1.75909127e-15 -7.33195571e-18  4.94442017e-03 -7.33288601e-03
   1.39753854e-15 -1.95721144e-15 -1.43059698e-14 -4.65587663e-01
  -1.84542102e-01 -3.10302433e-01  3.11336082e-01  1.76440223e-16
  -8.62202288e-04  9.34494347e-04 -3.27890178e-16  9.48611914e-17]
 [ 5.84717194e-17  6.34314562e-17  5.95027911e-17  5.18381289e-17
  -1.50097815e-02  4.71643094e-02  6.29485813e-17 -1.43020689e-01
  -7.30047989e-01 -4.32030561e-16  4.56158576e-17 -1.98694604e-16
  -2.71642427e-16 -1.78036508e-16  7.33288601e-03  4.94442017e-03
   8.14607470e-16 -3.67437333e-15 -1.00415552e-14 -1.84542102e-01
   4.65587663e-01 -3.11336082e-01 -3.10302433e-01  7.65355295e-16
   9.34494347e-04  8.62202288e-04 -1.18323252e-16 -1.38987125e-16]
 [-3.99985770e-17 -2.00392581e-16  1.44616406e-16 -2.93603024e-16
   9.17970754e-02 -3.48477221e-01  6.83147862e-16 -4.81940518e-03
  -1.93586592e-02 -2.18950620e-16 -1.32521701e-16 -1.80447819e-16
   1.13646789e-15 -1.02871327e-15  5.78087493e-01  4.33829024e-01
  -7.43674206e-16  4.71694668e-15  6.57734558e-15  1.26031241e-01
  -3.71787842e-01 -2.95262967e-01 -3.25633364e-01  1.86585640e-16
  -3.33003122e-03 -2.77450615e-03  3.33195306e-16 -1.07172482e-17]
 [-1.62719047e-17 -1.32056217e-16 -1.34453611e-16 -1.18494427e-16
   3.48477221e-01  9.17970754e-02 -3.83502461e-16  1.93586592e-02
  -4.81940518e-03 -7.02130490e-18  1.81551860e-16  1.74580868e-17
  -3.60233450e-16 -4.66505675e-15  4.33829024e-01 -5.78087493e-01
  -1.54736369e-15 -3.39178193e-15  1.25287955e-14  3.71787842e-01
   1.26031241e-01 -3.25633364e-01  2.95262967e-01 -5.47768457e-17
   2.77450615e-03 -3.33003122e-03  1.31988741e-16  1.02291030e-18]
 [ 7.23471109e-04 -1.18608474e-01  2.51737501e-02 -5.27885402e-02
  -1.27142000e-16  2.05261214e-16 -1.95244532e-02  4.17455198e-16
   4.19475451e-16 -5.84720364e-01  2.40710831e-01 -2.07261822e-01
   2.27440730e-18 -1.72249010e-17 -3.63166982e-16  1.01097072e-16
  -2.26332209e-02  2.16036619e-17 -1.53876396e-18  3.29004011e-16
  -4.82823587e-16  2.50747628e-16  5.19407261e-16  7.22184413e-01
  -6.03068608e-17  5.91550408e-17 -8.57094660e-03 -1.31136700e-01]
 [-1.40847355e-18 -8.87705847e-18  8.94490780e-18  4.08667342e-19
   2.50137327e-16  1.25125622e-15  5.34559335e-18 -8.50903234e-16
   4.92594383e-16 -5.17335843e-18 -2.88528451e-18  2.92805496e-17
   9.99720975e-01 -1.01711764e-02  1.71384403e-16  5.97684506e-16
  -7.62099782e-18 -2.13516636e-03  2.12122687e-02  3.51973501e-16
   2.22025076e-15  1.17231962e-15  6.92143542e-16 -3.44096938e-18
  -7.38196804e-17  5.86156301e-17 -1.12233136e-18 -9.75643128e-19]
 [-6.67257655e-19 -8.10242305e-17  8.76109258e-17  6.17500381e-18
  -1.21226138e-15 -2.05021350e-16  7.88848857e-17  2.27638587e-16
   2.05206802e-16 -6.81715906e-17 -4.57949867e-17  3.02994526e-16
  -1.01711764e-02 -9.99720975e-01 -3.28345135e-15  2.22689543e-15
  -1.43464097e-16 -2.12122687e-02 -2.13516636e-03 -1.50437669e-15
  -5.99389454e-16  1.89068422e-15 -1.31658353e-15 -4.52977632e-17
   2.10961719e-16  1.03806203e-16  4.64508347e-19  1.08537303e-18]
 [-2.58725228e-02  2.78680713e-02  2.19943757e-01  5.88447048e-03
   6.40683610e-17  9.31705631e-16  5.02340468e-01 -5.89740178e-16
   2.76279511e-16 -1.34487858e-02  4.13085503e-01  5.03609449e-01
  -1.61091533e-17  2.15893360e-16  1.40238351e-16  2.58009735e-16
  -2.09425858e-02 -1.18851116e-16 -1.84744527e-19  4.03701259e-16
   2.79568599e-16  7.66113099e-19 -2.26022267e-16  3.63162061e-04
   9.28551012e-17 -1.13628693e-15 -5.22411195e-01  1.73021420e-03]
 [ 4.40992856e-19 -5.34637698e-18  5.91352837e-18 -1.57576058e-20
   1.51561464e-16  3.52330605e-16 -6.24947258e-19 -1.83835129e-16
   1.78628291e-16 -1.66010831e-18  3.41177492e-18  9.63682911e-18
   2.13194577e-02 -7.54869268e-07 -1.55770285e-16 -2.68976314e-16
  -1.62310012e-17  9.00383358e-02 -9.95710088e-01  3.45062452e-14
  -6.80774135e-15 -7.80905727e-16  2.43446716e-15 -5.95773628e-18
  -5.16586813e-16 -9.48925020e-18 -2.41176745e-19 -3.70261537e-19]
 [-7.26169689e-19 -6.70185061e-17  6.90922706e-17  1.17096316e-18
  -2.17869543e-16  5.84709049e-17 -2.73729533e-18 -2.76227541e-16
   7.82142889e-17 -1.73363436e-17  3.37672297e-17  1.13766415e-16
  -7.54869268e-07 -2.13194577e-02 -1.11563543e-16 -5.27111981e-16
  -1.82421052e-16  9.95710088e-01  9.00383358e-02 -5.53808998e-15
   9.35463559e-15 -3.50979089e-15  5.20543658e-15 -3.78712993e-17
   4.97330314e-16  1.51069539e-16  1.74977542e-18  5.32002162e-18]
 [-4.44478468e-02  5.55539116e-02  7.01668255e-01  8.52038709e-02
   3.13605772e-16 -5.84295301e-17 -7.07772088e-02  3.87599138e-17
   2.07729035e-16  6.79234513e-03  4.60957710e-02  5.89803109e-02
  -3.12613256e-18 -9.93006616e-18  9.43321584e-17 -1.52422814e-16
   6.27240295e-01  5.31754076e-17 -2.68895257e-19  1.94044702e-15
   2.82659343e-16  1.79769267e-16  3.95571301e-16  1.89817333e-02
   1.95113993e-17  6.00932467e-16  3.01474468e-01 -1.87527523e-03]
 [ 2.58795860e-17 -7.24909714e-18  1.87931144e-16 -8.06424686e-17
   3.34576621e-01  1.80374131e-01 -8.25000390e-17  2.78086388e-02
  -1.98010376e-04 -2.43398996e-17 -4.39052930e-16  4.75632698e-16
   8.77884663e-16  1.14707153e-16  1.82997605e-01 -4.24614278e-01
   1.44845083e-15  5.37514533e-15 -1.40317482e-14 -4.40689873e-01
  -2.78569096e-01  3.41754446e-01 -5.02338850e-01  5.63864379e-16
   3.22633220e-03 -2.39852239e-03  6.16176771e-17  1.97216937e-16]
 [ 4.32724832e-17 -3.91616024e-16  5.50794716e-16  1.28170525e-16
  -1.80374131e-01  3.34576621e-01 -9.35215219e-16  1.98010376e-04
   2.78086388e-02  8.63826960e-17  1.04746279e-15 -4.51724728e-16
   1.50547174e-15  7.68596568e-16 -4.24614278e-01 -1.82997605e-01
  -8.72158952e-16  4.01301230e-15  1.27941879e-14  2.78569096e-01
  -4.40689873e-01 -5.02338850e-01 -3.41754446e-01 -1.06722842e-15
   2.39852239e-03  3.22633220e-03  5.21630224e-17  2.52424667e-16]
 [-3.47039360e-02  4.58910478e-01 -7.85146175e-02  2.41602646e-01
  -3.65907904e-17  3.87838949e-17  3.06345686e-03 -3.08067162e-16
   1.47067793e-15  1.31217240e-01 -5.23954560e-01  4.33707919e-01
  -7.23627193e-18  8.78975776e-17 -8.94744886e-16 -1.02078836e-16
  -6.04112178e-03 -2.02581671e-17 -1.29649690e-18  5.82968304e-16
   3.22296874e-16 -1.64239591e-15 -7.87803635e-16  4.80189226e-01
   1.13239295e-15  2.94768417e-15 -5.78985962e-04 -1.14819923e-01]
 [-1.23522690e-16  1.84139981e-15 -6.54761621e-17  1.05390835e-15
  -1.10419081e-02  1.02435258e-02  1.41118211e-16  9.10703949e-02
  -2.73600631e-01  5.69708525e-16 -1.88601115e-15  1.65280227e-15
  -7.44036175e-18 -2.25635899e-16 -1.15718953e-02 -9.09981932e-04
  -9.18554664e-16  2.49479440e-15  7.83669550e-15  1.90092601e-01
  -1.53296324e-01  2.01138618e-01  5.54407618e-02  1.62212633e-15
  -2.75830754e-01 -8.58626404e-01  1.78823942e-15 -3.97252938e-16]
 [-1.47131599e-18  1.10856746e-16  1.68813347e-16  9.26636565e-17
   1.02435258e-02  1.10419081e-02 -1.14984244e-16 -2.73600631e-01
  -9.10703949e-02  2.44225121e-17 -2.78312339e-16  3.83151658e-16
   1.74745945e-16 -5.43824361e-16  9.09981932e-04 -1.15718953e-02
   4.48213577e-16  2.75206733e-16 -3.02396594e-15 -1.53296324e-01
  -1.90092601e-01 -5.54407618e-02  2.01138618e-01  8.67918652e-17
  -8.58626404e-01  2.75830754e-01 -5.32792538e-16  1.79572959e-16]
 [-3.32300870e-02  1.54579294e-02  1.43534875e-01  7.09705339e-03
   1.86594449e-16  8.66305143e-16  4.41484547e-01 -3.99032894e-15
   1.70982788e-15 -1.27427737e-02  1.08064002e-01  1.33696441e-01
  -4.34823661e-19  6.80576850e-17 -2.36151393e-16  2.84585192e-16
  -4.82468967e-01 -2.00656552e-17  4.28565185e-19 -4.97137676e-15
   7.79888188e-17 -2.37044315e-15  1.73257253e-15 -4.02133092e-03
   1.83461813e-15 -9.20820071e-16  7.21513130e-01  2.63878841e-03]
 [ 1.49353040e-02 -1.15557583e-01  1.61939861e-02 -6.95269113e-02
   3.31992053e-16  6.26979908e-16 -5.37613800e-03 -1.28210659e-14
  -1.67923768e-15 -3.05963322e-01 -2.34039108e-01  1.87498055e-01
  -3.87871047e-18  5.95263257e-17 -1.82109472e-18  2.06917013e-16
   6.80307334e-03  8.73474872e-18 -1.32127398e-19 -7.88528449e-15
  -6.47442949e-15 -4.36864259e-15  8.43269981e-15  2.16562245e-02
   8.32215606e-15 -4.60613372e-15  2.25757991e-04  8.92882713e-01]
 [ 1.41228177e-16 -2.40533688e-15  1.22089972e-15 -1.46129134e-15
  -2.83298869e-02 -2.00766447e-02  2.58335356e-15  5.95661177e-01
   6.87792775e-02 -6.75688678e-15 -4.13531943e-15  4.47678983e-15
  -6.26996048e-16  1.79355110e-17 -1.77368853e-03  6.05761364e-03
  -3.95809757e-15  1.49070213e-15  1.07057281e-14  3.94386885e-01
   3.22714507e-01  2.00997360e-01 -3.90529731e-01  3.10174970e-16
  -3.75486245e-01  2.13594664e-01  4.18778528e-15  1.92534964e-14]
 [-1.55551715e-16  6.98896876e-16  1.50835852e-15  4.60581228e-16
  -2.00766447e-02  2.83298869e-02  2.05098771e-15  6.87792775e-02
  -5.95661177e-01  4.10208752e-16 -6.54907167e-16  3.94593905e-16
  -1.52128271e-16  1.85425240e-16 -6.05761364e-03 -1.77368853e-03
  -3.08882415e-15  4.11337075e-15  1.45032805e-14  3.22714507e-01
  -3.94386885e-01  3.90529731e-01  2.00997360e-01 -1.19696537e-16
   2.13594664e-01  3.75486245e-01  1.28401900e-15 -1.53633606e-16]
 [ 2.51981838e-02 -3.91593116e-02 -4.66425553e-01 -5.87975095e-02
  -3.96535587e-16 -8.96983182e-16 -3.52075516e-01  4.51344608e-16
  -1.49670115e-15  1.57185071e-03  4.50796943e-01  5.30235835e-01
  -5.04670494e-18  1.31732026e-17 -8.87005085e-18 -1.98775890e-16
   2.58964453e-01 -4.89809979e-17  1.22832824e-19  1.28029476e-15
  -1.28927145e-15  5.90999499e-16  3.03616280e-16  1.13064914e-02
   3.18723730e-16  9.83928495e-16  3.18279723e-01  1.29845273e-03]
 [ 2.74477030e-02 -5.44037657e-01  1.16812348e-01 -6.34818745e-01
  -5.52988516e-16  3.31079951e-16 -1.21814642e-03  5.10896060e-17
   8.58242290e-17  2.68984735e-01 -2.93284028e-01  2.36956679e-01
  -3.69802368e-17  4.27003327e-16 -2.25510142e-17  1.25798400e-16
  -4.99608584e-03 -3.93608692e-16 -1.20537165e-18 -1.53567045e-16
   3.60668070e-16 -1.25072565e-16 -1.68484229e-16  2.14076909e-01
  -2.16152798e-16 -1.57561729e-16 -1.14926057e-04 -1.62041751e-01]
 [ 9.67648635e-03  9.41011321e-03 -1.15861990e-02  8.55993930e-02
  -5.85271365e-16  1.95288752e-15  1.80263416e-02  1.41828989e-16
  -6.51423538e-16  6.87544051e-01  3.25969899e-01 -2.69216889e-01
   1.53457003e-16 -1.76563908e-15  5.02887014e-16  4.61968438e-16
  -1.33795430e-02  1.51365338e-15  1.60683546e-18  9.69300424e-16
  -1.53380476e-15 -8.05539753e-16  5.97070906e-17  4.47050483e-01
   2.25589198e-15 -4.62298609e-16 -3.94239395e-03  3.74875647e-01]]
[[-9.57494629e-01 -1.64835544e-01  3.31914807e-02  1.24554469e-01
   6.56952905e-18 -3.18429347e-16  1.52625076e-01 -1.37750921e-16
   9.55365459e-16  1.60846748e-02  9.31986934e-03  4.43996300e-02
   1.24319805e-18  1.28672888e-18 -1.13433983e-16  5.50644059e-17
   1.10927578e-01 -7.59334965e-19 -8.62929762e-18  3.85067798e-17
   1.84653478e-17 -1.18059431e-16 -2.74853709e-16 -3.12656231e-03
  -8.49179137e-18 -1.08596633e-17 -3.85473746e-02  2.42257842e-03]
 [ 4.52617530e-18  3.05989071e-16  3.03370580e-16 -4.50286186e-17
   8.39671185e-01 -1.29346859e-01 -2.58380220e-16  5.03489373e-02
   1.32177507e-02  1.93035812e-16  5.70672890e-16 -5.72839266e-17
   1.31257156e-15 -1.44802507e-15 -3.59202537e-01  3.66800438e-01
  -2.52067764e-17 -1.05941299e-15  1.98673855e-15  2.92399492e-02
  -5.54829556e-02 -2.56736612e-02  8.55660335e-02  3.43315678e-16
   4.52317632e-03 -2.91008478e-03 -2.12118734e-17  2.27698887e-17]
 [-7.21393215e-17  2.17333005e-16 -4.74345448e-16  3.92584286e-16
   1.29346859e-01  8.39671185e-01  9.06813741e-16 -1.32177507e-02
   5.03489373e-02  3.06291608e-16 -8.54710030e-17  3.32657579e-16
  -2.40706449e-15  6.98197511e-16 -3.66800438e-01 -3.59202537e-01
  -2.54900518e-16  2.60954047e-16  8.51571120e-16  5.54829556e-02
   2.92399492e-02  8.55660335e-02  2.56736612e-02 -1.07410984e-17
   2.91008478e-03  4.52317632e-03  9.04886220e-17  1.57699216e-17]
 [ 2.00789073e-01 -6.55536720e-01 -2.82688323e-02  7.03384671e-01
   2.40818106e-16 -2.05433384e-16 -3.70984540e-02  9.01931146e-17
  -2.45576383e-16  3.53317569e-02 -1.13795105e-01  1.10810495e-01
   1.11276666e-16 -1.30091706e-17 -1.56018508e-16  1.43347338e-17
  -7.91883921e-03  6.20570727e-19  4.54581351e-17 -2.52859410e-17
  -1.50897918e-17  2.96390609e-17  1.40706690e-16  3.06250686e-02
   8.11693532e-17 -3.06113597e-19  2.16960327e-03 -7.44849351e-02]
 [-1.90338220e-01 -5.81352928e-02 -4.45410678e-01 -5.11839071e-02
   3.27512147e-16  7.07971934e-16 -6.31159435e-01  5.89313861e-16
  -4.34274695e-15 -1.73799736e-02 -1.40667567e-01 -1.86499412e-01
   1.59492811e-16 -1.21857658e-17  3.43065917e-16  8.09816601e-18
  -5.41410640e-01 -2.39704582e-19  9.89610201e-17 -1.42546709e-16
  -6.49398591e-17  2.59079400e-16  1.24682047e-15  1.62423917e-02
   6.80461606e-17  9.92965061e-17  1.12856100e-01 -4.65822863e-03]
 [ 6.79278646e-17 -1.10268475e-16  3.76123824e-16 -4.52159757e-17
   4.85371743e-02  9.69063088e-03  2.31145936e-15 -6.11187297e-01
  -4.24116813e-01 -3.88039689e-16  1.77542388e-16  5.03460111e-16
   1.42644376e-16  8.23706474e-16 -7.97915149e-03  3.81466243e-03
  -1.37864278e-15  5.68646415e-15  1.35046152e-14  3.71236259e-01
  -3.36171533e-01 -2.56594512e-02 -4.38815848e-01 -3.05656195e-16
  -1.24033805e-03  2.79703380e-04 -3.00893435e-16 -9.44219816e-17]
 [-3.61766995e-17  8.98072585e-17 -1.24525765e-16  6.38385224e-17
   9.69063088e-03 -4.85371743e-02 -4.47738173e-15 -4.24116813e-01
   6.11187297e-01  2.95778416e-16 -3.38271954e-16  1.48262700e-16
  -1.58061537e-16  1.15847402e-16  3.81466243e-03  7.97915149e-03
   3.17833752e-16 -4.29342509e-15 -2.51917743e-15 -3.36171533e-01
  -3.71236259e-01  4.38815848e-01 -2.56594512e-02 -6.59445937e-16
   2.79703380e-04  1.24033805e-03  4.09369518e-17  8.58311284e-17]
 [ 9.68641494e-19 -4.17777571e-18  4.96520830e-16 -1.29046203e-16
   5.26137799e-02 -3.56503670e-01 -3.16411056e-16  1.05308903e-02
  -1.69435741e-02 -2.14547305e-17 -4.20695169e-17 -2.16090656e-16
  -3.08648722e-15  5.27683683e-15 -3.44287807e-01 -6.35498763e-01
  -6.47681109e-16 -2.55622791e-15 -8.34432476e-16 -2.77868181e-01
  -2.77307315e-01 -4.39551294e-01  3.45941531e-03 -3.10562692e-17
   1.16586411e-03  4.17465605e-03  2.56758344e-16  1.95061132e-17]
 [-1.80042789e-17  1.60317168e-16  1.95539860e-17  4.96240154e-17
   3.56503670e-01  5.26137799e-02  2.38620809e-16  1.69435741e-02
   1.05308903e-02  6.86365903e-17 -1.02749319e-15 -5.34786389e-16
  -4.55243110e-15  1.96752410e-15  6.35498763e-01 -3.44287807e-01
   1.70121836e-15 -6.23139527e-15  1.00446393e-14  2.77307315e-01
  -2.77868181e-01  3.45941531e-03  4.39551294e-01  1.90300939e-16
  -4.17465605e-03  1.16586411e-03  9.88686465e-17  3.39889385e-18]
 [-7.23471109e-04  1.18608474e-01 -2.51737501e-02  5.27885402e-02
  -2.13674159e-16 -3.31851862e-16 -1.95244532e-02 -1.00818776e-16
  -8.81289766e-16  5.84720364e-01 -2.40710831e-01  2.07261822e-01
   2.78083986e-17 -4.79486916e-18 -4.34688620e-16  3.74916228e-16
  -2.26332209e-02 -4.62533658e-20  7.27380039e-17  3.38367537e-16
   2.65481849e-16 -3.88923597e-16  9.25583463e-16 -7.22184413e-01
   1.70899533e-17  4.91973822e-17  8.57094660e-03  1.31136700e-01]
 [ 2.70106708e-18 -4.88068115e-18 -1.00516919e-17  4.71818821e-18
  -7.53386422e-17  1.42149906e-15  1.21673345e-17  6.51456622e-16
   3.82087168e-16 -5.47728979e-18 -3.15082536e-17 -3.13387150e-18
   2.13986125e-02  9.99543686e-01  5.85485595e-16  5.54644018e-15
  -7.97741981e-18  2.12215875e-02 -2.04046676e-03  5.31830477e-16
   1.29293419e-15  8.52626539e-16 -7.33752192e-17 -3.43464797e-18
  -3.32347205e-16  4.48720146e-17 -7.02943965e-19  1.02169663e-18]
 [ 8.23774148e-19 -5.24178982e-17 -8.88017782e-17  3.65451869e-17
  -1.37487369e-15 -3.81859272e-16  1.19059912e-16 -3.92223955e-16
  -1.74439886e-16 -5.86392719e-17 -3.10896116e-16 -6.48397027e-17
  -9.99543686e-01  2.13986125e-02 -9.23154439e-16  6.24844623e-15
  -1.28844548e-16 -2.04046676e-03 -2.12215875e-02 -3.52072691e-16
   5.46582279e-16 -5.00270548e-16 -1.67767213e-15 -3.74339022e-17
  -5.19862192e-17  1.11405616e-16  1.55300381e-18 -1.26099447e-18]
 [-2.58725228e-02  2.78680713e-02  2.19943757e-01  5.88447048e-03
   1.75905218e-16  7.22848844e-16 -5.02340468e-01  7.84552298e-16
  -3.09441748e-15 -1.34487858e-02  4.13085503e-01  5.03609449e-01
  -2.24738745e-16  2.59738481e-17  7.94689635e-16 -6.46927898e-16
   2.09425858e-02  6.39341407e-20 -7.84061608e-17 -2.34182911e-16
  -2.23245076e-17  1.50924306e-16  5.36228515e-16  3.63162061e-04
   2.28926140e-16  4.00533175e-17 -5.22411195e-01  1.73021420e-03]
 [-8.55619702e-19 -2.76385248e-18 -5.17846290e-18  2.27065063e-18
   1.55776214e-16  2.73577777e-17  7.94792831e-18  1.83084019e-17
  -5.89340713e-17 -4.71472272e-19 -1.25337448e-17  3.67530713e-18
  -6.72375997e-04 -2.13088524e-02  8.12490837e-16 -1.27831241e-16
  -1.51520333e-17  9.96102044e-01 -8.55932105e-02 -3.57409895e-15
  -6.81771966e-15  6.55785925e-16  1.24416438e-14 -3.17726797e-18
  -4.97564718e-17  7.18925015e-17  2.43307354e-19  1.74813614e-19]
 [ 4.54048604e-19 -3.08007326e-17 -6.15306806e-17  3.43749498e-17
  -3.08461713e-16  2.31902806e-16  8.63543166e-17  2.43760646e-16
  -6.84195503e-17 -1.92537149e-18 -1.41808173e-16  4.65137735e-17
   2.13088524e-02 -6.72375997e-04 -6.64153585e-16  1.93065131e-16
  -1.66841366e-16 -8.55932105e-02 -9.96102044e-01  2.24352963e-14
  -1.56117168e-14 -2.02415832e-15 -8.41247483e-16 -3.33960524e-17
  -1.36397713e-16  6.50228812e-16  1.13567058e-17 -5.40862040e-18]
 [-4.44478468e-02  5.55539116e-02  7.01668255e-01  8.52038709e-02
  -3.16886769e-16  4.52795400e-16  7.07772088e-02 -1.90605118e-16
   6.24563525e-16  6.79234513e-03  4.60957710e-02  5.89803109e-02
  -6.11988453e-17  8.61713847e-18  8.41246900e-16  4.22254036e-16
  -6.27240295e-01 -1.68545478e-19  7.95569741e-17  6.18048483e-17
   2.24992306e-16  7.44198365e-16  1.95361364e-15  1.89817333e-02
   7.10642372e-18  4.63315166e-17  3.01474468e-01 -1.87527523e-03]
 [ 2.68535719e-17  1.38301545e-16  2.69142084e-16  1.40239758e-16
   3.52504706e-01  1.42185704e-01  5.21690348e-16  1.95146968e-02
   1.98125266e-02  2.89116260e-16 -4.88849342e-16  2.57502146e-16
   3.52777686e-17 -1.24662317e-16  4.46874021e-01 -1.18697171e-01
  -1.42401587e-15  6.16637460e-15 -1.47814311e-14 -4.44592271e-01
   2.72297665e-01 -1.47218442e-01 -5.89463444e-01 -7.16310040e-16
  -4.01768774e-03  1.42528187e-04  5.69013026e-17 -1.88521756e-16]
 [-6.59718718e-17  6.64224583e-16 -1.77039892e-16  5.15476697e-16
  -1.42185704e-01  3.52504706e-01  1.20700708e-16 -1.98125266e-02
   1.95146968e-02  2.57121300e-16 -2.44474331e-16  4.95935609e-16
   2.77973722e-15 -1.23588828e-15  1.18697171e-01  4.46874021e-01
   4.24808664e-16 -5.46167155e-15  3.11631944e-15 -2.72297665e-01
  -4.44592271e-01 -5.89463444e-01  1.47218442e-01  9.96364188e-16
  -1.42528187e-04 -4.01768774e-03 -1.18116052e-17 -2.22855587e-16]
 [ 3.47039360e-02 -4.58910478e-01  7.85146175e-02 -2.41602646e-01
  -7.55584812e-17  1.05891408e-15  3.06345686e-03  1.13210456e-15
  -5.94120621e-16 -1.31217240e-01  5.23954560e-01 -4.33707919e-01
  -9.25028367e-17  1.28460301e-17  6.78048296e-16  5.33124324e-16
  -6.04112178e-03 -4.50127001e-19 -7.48524474e-17 -7.41442202e-16
  -1.73167242e-15  1.04193590e-16  1.13412562e-16 -4.80189226e-01
  -9.17138597e-16  3.09714700e-15  5.78985962e-04  1.14819923e-01]
 [ 1.37343588e-16 -1.74058185e-15  4.15758649e-16 -9.26136702e-16
   9.83871987e-03 -1.14040847e-02 -1.33827827e-15 -2.59729895e-01
   1.25265732e-01 -5.73748706e-16  2.25643475e-15 -1.82965241e-15
  -2.22708951e-16  1.25930870e-16  7.98229132e-04 -1.15801407e-02
   4.34718526e-16  5.64835582e-16 -3.02333073e-15  5.35523549e-02
   2.38258485e-01 -1.75294039e-01  1.13147786e-01 -1.73932614e-15
   2.60461341e-01 -8.63412877e-01  1.74056453e-16  4.32445830e-16]
 [ 1.73827806e-17 -9.54984781e-17  7.66774617e-17 -4.29379505e-19
  -1.14040847e-02 -9.83871987e-03 -1.49167455e-15  1.25265732e-01
   2.59729895e-01  1.44498451e-16  1.23180265e-16  9.64893013e-17
  -1.70115443e-16 -2.98338265e-16 -1.15801407e-02 -7.98229132e-04
  -9.52285418e-16  3.23320468e-15  6.13306354e-15  2.38258485e-01
  -5.35523549e-02 -1.13147786e-01 -1.75294039e-01 -2.34357139e-16
  -8.63412877e-01 -2.60461341e-01 -3.96245820e-16 -1.68427505e-16]
 [-3.32300870e-02  1.54579294e-02  1.43534875e-01  7.09705339e-03
  -1.02602190e-16  7.95014910e-16 -4.41484547e-01  4.23202076e-15
  -1.35799219e-15 -1.27427737e-02  1.08064002e-01  1.33696441e-01
  -2.38834851e-16  2.66576884e-17 -2.86716543e-16 -2.49837205e-16
   4.82468967e-01  5.47825689e-19 -2.12611950e-16  2.31088145e-15
  -2.78402666e-15  6.77563822e-16 -4.45946483e-15 -4.02133092e-03
   2.29004352e-15 -9.67278484e-16  7.21513130e-01  2.63878841e-03]
 [-1.49353040e-02  1.15557583e-01 -1.61939861e-02  6.95269113e-02
  -8.23619857e-16 -5.59062327e-16 -5.37613800e-03  7.70573443e-15
   1.02233144e-14  3.05963322e-01  2.34039108e-01 -1.87498055e-01
  -1.31546700e-16  1.57067863e-17 -1.13829469e-16 -2.07992396e-16
   6.80307334e-03  7.79243087e-20 -9.17232715e-17  9.95222457e-15
  -4.59104707e-15 -2.93000632e-15 -8.47961500e-15 -2.16562245e-02
   9.40324840e-15  9.74094128e-16 -2.25757991e-04 -8.92882713e-01]
 [-4.88689834e-16  2.56664596e-15  6.06268422e-16  1.49192507e-15
   3.03802649e-02  1.68134964e-02  9.41113930e-17 -3.65618429e-01
  -4.75253607e-01  6.43621771e-15  5.48397884e-15 -3.52193827e-15
  -2.42260527e-16  1.06230859e-16  6.25233409e-03 -8.65431955e-04
   4.47442028e-15 -6.55643702e-15 -1.39847407e-14 -4.63741890e-01
   2.11256072e-01  1.57526072e-01  4.09998715e-01 -1.61870389e-16
  -4.30367288e-01 -3.73710855e-02  4.40066107e-15 -1.92271781e-14]
 [-1.08951810e-16 -2.90429174e-16  1.42440380e-15 -5.54168049e-18
   1.68134964e-02 -3.03802649e-02 -4.99769169e-15 -4.75253607e-01
   3.65618429e-01 -4.98327365e-16  6.41779858e-16 -8.85189824e-16
   2.03980151e-16 -4.08703359e-16 -8.65431955e-04 -6.25233409e-03
   2.24747967e-15  2.01023544e-15 -1.81629814e-15  2.11256072e-01
   4.63741890e-01 -4.09998715e-01  1.57526072e-01 -9.92523129e-17
  -3.73710855e-02  4.30367288e-01  2.01119028e-15  1.78845300e-16]
 [ 2.51981838e-02 -3.91593116e-02 -4.66425553e-01 -5.87975095e-02
   7.98535958e-17 -1.17834515e-15  3.52075516e-01 -1.35696722e-15
   2.95473222e-15  1.57185071e-03  4.50796943e-01  5.30235835e-01
  -4.44614109e-17  4.45362559e-18  1.03714093e-15  2.17499892e-17
  -2.58964453e-01 -1.44386243e-19  4.99397052e-17  2.60194403e-16
   7.52915292e-16 -1.22884821e-15  1.65745184e-15  1.13064914e-02
  -1.85104279e-17  4.83532513e-16  3.18279723e-01  1.29845273e-03]
 [-2.74477030e-02  5.44037657e-01 -1.16812348e-01  6.34818745e-01
  -2.44263620e-16 -7.50808808e-16 -1.21814642e-03  1.57922065e-16
  -4.27155397e-16 -2.68984735e-01  2.93284028e-01 -2.36956679e-01
   2.87949345e-16 -3.34611922e-17  2.17707703e-16 -3.75493215e-16
  -4.99608584e-03 -1.09879703e-18  3.30881237e-16 -1.87653144e-16
  -2.70208950e-16  6.99240436e-16 -4.97291397e-16 -2.14076909e-01
  -2.24977521e-16 -1.50683523e-16  1.14926057e-04  1.62041751e-01]
 [-9.67648635e-03 -9.41011321e-03  1.15861990e-02 -8.55993930e-02
  -4.36397018e-16  2.46965963e-15  1.80263416e-02 -7.05775076e-16
   7.75768012e-16 -6.87544051e-01 -3.25969899e-01  2.69216889e-01
  -1.38003614e-15  1.66696893e-16 -7.83851894e-16 -2.31729819e-16
  -1.33795430e-02  3.56174003e-18 -1.44010050e-15  8.82886593e-17
  -5.56397679e-16 -2.16783423e-15  1.19623754e-15 -4.47050483e-01
   2.19688570e-15  8.37808843e-16  3.94239395e-03 -3.74875647e-01]]
grids:  [0.06237655 0.31939555 0.74529195 1.28265786 1.85893479 2.39630071
 2.8221971  3.07921611] 
weights:  [0.15900941 0.34931531 0.49276925 0.56970235 0.56970235 0.49276925
 0.34931531 0.15900941]
S = 0.0, Sz = 0.0
Wigner small d:  1
value : [1. 1. 1. 1. 1. 1. 1. 1.]
**** Start Cycle 1 ****
dm (ortho)
[[[ 0.91679596  0.         -0.         ... -0.02412713 -0.02628103 -0.00926518]
  [ 0.          0.         -0.         ... -0.         -0.         -0.        ]
  [-0.         -0.          0.         ...  0.          0.          0.        ]
  ...
  [-0.02412713 -0.          0.         ...  0.00063495  0.00069163  0.00024383]
  [-0.02628103 -0.          0.         ...  0.00069163  0.00075338  0.0002656 ]
  [-0.00926518 -0.          0.         ...  0.00024383  0.0002656   0.00009363]]

 [[ 0.91679596 -0.          0.         ... -0.02412713  0.02628103  0.00926518]
  [-0.          0.         -0.         ...  0.         -0.         -0.        ]
  [ 0.         -0.          0.         ... -0.          0.          0.        ]
  ...
  [-0.02412713  0.         -0.         ...  0.00063495 -0.00069163 -0.00024383]
  [ 0.02628103 -0.          0.         ... -0.00069163  0.00075338  0.0002656 ]
  [ 0.00926518 -0.          0.         ... -0.00024383  0.0002656   0.00009363]]]
Fock (ortho)
 (array([[-0.4433061 ,  0.        ,  0.        , -0.13438524, -0.45388887,  0.        ,  0.        , -0.        , -0.        , -0.02145953, -0.        ,
         0.        ,  0.07576046,  0.        ,  0.        , -0.31761653,  0.        , -0.        ,  0.01364565,  0.        , -0.        , -0.0311987 ,
         0.01799155,  0.        , -0.        , -0.03761345,  0.00415781,  0.00635978],
       [ 0.        ,  1.39017492, -0.        ,  0.        , -0.        ,  0.02255245,  0.00822988, -0.22334547, -0.72363412,  0.        ,  0.        ,
         0.        , -0.        , -0.        ,  0.        , -0.        , -0.77788762,  0.46232342,  0.        , -0.00667536,  0.00569268,  0.        ,
         0.        ,  0.00361728,  0.00279766,  0.        , -0.        , -0.        ],
       [ 0.        , -0.        ,  1.39017492,  0.        ,  0.        ,  0.00822988, -0.02255245,  0.72363412, -0.22334547, -0.        , -0.        ,
         0.        ,  0.        , -0.        ,  0.        , -0.        , -0.46232342, -0.77788762, -0.        ,  0.00569268,  0.00667536,  0.        ,
         0.        ,  0.00279766, -0.00361728, -0.        , -0.        ,  0.        ],
       [-0.13438524,  0.        ,  0.        ,  0.42650362, -0.0296502 , -0.        ,  0.        , -0.        , -0.        ,  0.00968708, -0.        ,
         0.        , -0.03026785, -0.        ,  0.        , -0.04326908,  0.        ,  0.        , -0.44411378, -0.        , -0.        , -0.01654657,
         0.34134447,  0.        , -0.        , -0.00128804, -0.05225291,  0.2161599 ],
       [-0.45388887, -0.        ,  0.        , -0.0296502 ,  1.69720487, -0.        ,  0.        ,  0.        , -0.        ,  0.01545906,  0.        ,
        -0.        , -0.42663856,  0.        , -0.        ,  1.18861417,  0.        , -0.        , -0.00263522, -0.        ,  0.        , -0.33413362,
        -0.00939913, -0.        , -0.        ,  0.12646945,  0.00131539, -0.00045798],
       [ 0.        ,  0.02255245,  0.00822988, -0.        , -0.        ,  2.35810347,  0.        , -0.00079309,  0.01567967, -0.        ,  0.        ,
        -0.        ,  0.        ,  0.        , -0.        , -0.        , -0.0099751 ,  0.00188053,  0.        , -0.30634726,  0.54158426,  0.        ,
         0.        , -1.23326907, -0.39289421, -0.        ,  0.        ,  0.        ],
       [ 0.        ,  0.00822988, -0.02255245,  0.        ,  0.        ,  0.        ,  2.35810347,  0.01567967,  0.00079309,  0.        , -0.        ,
         0.        ,  0.        , -0.        ,  0.        , -0.        ,  0.00188053,  0.0099751 ,  0.        , -0.54158426, -0.30634726,  0.        ,
        -0.        ,  0.39289421, -1.23326907, -0.        ,  0.        , -0.        ],
       [-0.        , -0.22334547,  0.72363412, -0.        ,  0.        , -0.00079309,  0.01567967,  3.18194477, -0.        , -0.        , -0.        ,
        -0.        , -0.        ,  0.        ,  0.        , -0.        ,  0.16089171,  0.66648024,  0.        ,  0.00457141,  0.00290002,  0.        ,
        -0.        ,  0.00048199, -0.0012846 ,  0.        ,  0.        ,  0.        ],
       [-0.        , -0.72363412, -0.22334547, -0.        , -0.        ,  0.01567967,  0.00079309, -0.        ,  3.18194477,  0.        ,  0.        ,
        -0.        , -0.        ,  0.        , -0.        ,  0.        , -0.66648024,  0.16089171,  0.        ,  0.00290002, -0.00457141,  0.        ,
         0.        , -0.0012846 , -0.00048199,  0.        , -0.        ,  0.        ],
       [-0.02145953,  0.        , -0.        ,  0.00968708,  0.01545906, -0.        ,  0.        , -0.        ,  0.        ,  3.06337225,  0.        ,
        -0.        ,  0.00583936, -0.        , -0.        , -0.00796153, -0.        , -0.        ,  0.89798612,  0.        ,  0.        , -0.00859346,
        -0.64663658, -0.        ,  0.        , -0.00624551,  0.28957034,  0.77637038],
       [-0.        ,  0.        , -0.        , -0.        ,  0.        ,  0.        , -0.        , -0.        ,  0.        ,  0.        ,  3.16272675,
         0.        ,  0.        , -0.01187799, -0.00012043, -0.        , -0.        , -0.        ,  0.        ,  0.        ,  0.        ,  0.        ,
         0.        ,  0.        , -0.        ,  0.        , -0.        ,  0.        ],
       [ 0.        ,  0.        ,  0.        ,  0.        , -0.        , -0.        ,  0.        , -0.        , -0.        , -0.        ,  0.        ,
         3.16272675, -0.        ,  0.00012043, -0.01187799, -0.        ,  0.        , -0.        , -0.        ,  0.        ,  0.        ,  0.        ,
         0.        ,  0.        ,  0.        ,  0.        , -0.        ,  0.        ],
       [ 0.07576046, -0.        ,  0.        , -0.03026785, -0.42663856,  0.        ,  0.        , -0.        , -0.        ,  0.00583936,  0.        ,
        -0.        ,  2.74467911, -0.        , -0.        , -0.74172759, -0.        ,  0.        ,  0.01305524,  0.        , -0.        , -1.41532678,
         0.01045135, -0.        , -0.        ,  0.01309566,  0.00094596,  0.00033617],
       [ 0.        , -0.        , -0.        , -0.        ,  0.        ,  0.        , -0.        ,  0.        ,  0.        , -0.        , -0.01187799,
         0.00012043, -0.        ,  3.90340512,  0.        , -0.        , -0.        ,  0.        , -0.        ,  0.        ,  0.        ,  0.        ,
         0.        , -0.        , -0.        , -0.        , -0.        ,  0.        ],
       [ 0.        ,  0.        ,  0.        ,  0.        , -0.        , -0.        ,  0.        ,  0.        , -0.        , -0.        , -0.00012043,
        -0.01187799, -0.        ,  0.        ,  3.90340512,  0.        ,  0.        , -0.        , -0.        ,  0.        ,  0.        ,  0.        ,
         0.        ,  0.        , -0.        , -0.        , -0.        ,  0.        ],
       [-0.31761653, -0.        , -0.        , -0.04326908,  1.18861417, -0.        , -0.        , -0.        ,  0.        , -0.00796153, -0.        ,
        -0.        , -0.74172759, -0.        ,  0.        ,  2.04615934,  0.        , -0.        ,  0.02179977, -0.        ,  0.        ,  0.08739846,
         0.00369575,  0.        , -0.        ,  1.12274514,  0.00259835, -0.00014362],
       [ 0.        , -0.77788762, -0.46232342,  0.        ,  0.        , -0.0099751 ,  0.00188053,  0.16089171, -0.66648024, -0.        , -0.        ,
         0.        , -0.        , -0.        ,  0.        ,  0.        ,  3.35039006,  0.        , -0.        ,  0.00239501, -0.00702788, -0.        ,
        -0.        ,  0.00592623,  0.00072708,  0.        ,  0.        , -0.        ],
       [-0.        ,  0.46232342, -0.77788762,  0.        , -0.        ,  0.00188053,  0.0099751 ,  0.66648024,  0.16089171, -0.        , -0.        ,
        -0.        ,  0.        ,  0.        , -0.        , -0.        ,  0.        ,  3.35039006,  0.        , -0.00702788, -0.00239501, -0.        ,
         0.        ,  0.00072708, -0.00592623,  0.        , -0.        ,  0.        ],
       [ 0.01364565,  0.        , -0.        , -0.44411378, -0.00263522,  0.        ,  0.        ,  0.        ,  0.        ,  0.89798612,  0.        ,
        -0.        ,  0.01305524, -0.        , -0.        ,  0.02179977, -0.        ,  0.        ,  2.27956466, -0.        , -0.        ,  0.00169818,
        -0.19126365, -0.        ,  0.        ,  0.01272061,  1.10588557,  0.07169982],
       [ 0.        , -0.00667536,  0.00569268, -0.        , -0.        , -0.30634726, -0.54158426,  0.00457141,  0.00290002,  0.        ,  0.        ,
         0.        ,  0.        ,  0.        ,  0.        , -0.        ,  0.00239501, -0.00702788, -0.        ,  4.70426932,  0.        ,  0.        ,
         0.        , -0.19803635, -0.94597763,  0.        ,  0.        ,  0.        ],
       [-0.        ,  0.00569268,  0.00667536, -0.        ,  0.        ,  0.54158426, -0.30634726,  0.00290002, -0.00457141,  0.        ,  0.        ,
         0.        , -0.        ,  0.        ,  0.        ,  0.        , -0.00702788, -0.00239501, -0.        ,  0.        ,  4.70426932, -0.        ,
        -0.        ,  0.94597763, -0.19803635, -0.        ,  0.        , -0.        ],
       [-0.0311987 ,  0.        ,  0.        , -0.01654657, -0.33413362,  0.        ,  0.        ,  0.        ,  0.        , -0.00859346,  0.        ,
         0.        , -1.41532678,  0.        ,  0.        ,  0.08739846, -0.        , -0.        ,  0.00169818,  0.        , -0.        ,  3.82787368,
         0.00672109,  0.        ,  0.        ,  0.86396838,  0.00018183, -0.00158849],
       [ 0.01799155,  0.        ,  0.        ,  0.34134447, -0.00939913,  0.        , -0.        , -0.        ,  0.        , -0.64663658,  0.        ,
         0.        ,  0.01045135,  0.        ,  0.        ,  0.00369575, -0.        ,  0.        , -0.19126365,  0.        , -0.        ,  0.00672109,
         5.46642922,  0.        , -0.        ,  0.00687383, -0.71628986,  1.55494906],
       [ 0.        ,  0.00361728,  0.00279766,  0.        , -0.        , -1.23326907,  0.39289421,  0.00048199, -0.0012846 , -0.        ,  0.        ,
         0.        , -0.        , -0.        ,  0.        ,  0.        ,  0.00592623,  0.00072708, -0.        , -0.19803635,  0.94597763,  0.        ,
         0.        ,  3.15647678,  0.        ,  0.        , -0.        ,  0.        ],
       [-0.        ,  0.00279766, -0.00361728, -0.        , -0.        , -0.39289421, -1.23326907, -0.0012846 , -0.00048199,  0.        , -0.        ,
         0.        , -0.        , -0.        , -0.        , -0.        ,  0.00072708, -0.00592623,  0.        , -0.94597763, -0.19803635,  0.        ,
        -0.        ,  0.        ,  3.15647678,  0.        , -0.        ,  0.        ],
       [-0.03761345,  0.        , -0.        , -0.00128804,  0.12646945, -0.        , -0.        ,  0.        ,  0.        , -0.00624551,  0.        ,
         0.        ,  0.01309566, -0.        , -0.        ,  1.12274514,  0.        ,  0.        ,  0.01272061,  0.        , -0.        ,  0.86396838,
         0.00687383,  0.        ,  0.        ,  2.16892464,  0.00386836, -0.00041776],
       [ 0.00415781, -0.        , -0.        , -0.05225291,  0.00131539,  0.        ,  0.        ,  0.        , -0.        ,  0.28957034, -0.        ,
        -0.        ,  0.00094596, -0.        , -0.        ,  0.00259835,  0.        , -0.        ,  1.10588557,  0.        ,  0.        ,  0.00018183,
        -0.71628986, -0.        , -0.        ,  0.00386836,  1.11386867, -0.13576455],
       [ 0.00635978, -0.        ,  0.        ,  0.2161599 , -0.00045798,  0.        , -0.        ,  0.        ,  0.        ,  0.77637038,  0.        ,
         0.        ,  0.00033617,  0.        ,  0.        , -0.00014362, -0.        ,  0.        ,  0.07169982,  0.        , -0.        , -0.00158849,
         1.55494906,  0.        ,  0.        , -0.00041776, -0.13576455,  2.89664287]]), array([[-0.4433061 ,  0.        , -0.        ,  0.13438524, -0.45388887,  0.        ,  0.        , -0.        , -0.        ,  0.02145953,  0.        ,
        -0.        ,  0.07576046, -0.        , -0.        , -0.31761653, -0.        ,  0.        , -0.01364565,  0.        ,  0.        , -0.0311987 ,
        -0.01799155, -0.        , -0.        , -0.03761345, -0.00415781, -0.00635978],
       [ 0.        ,  1.39017492, -0.        ,  0.        , -0.        , -0.02255245, -0.00822988, -0.22334547, -0.72363412,  0.        ,  0.        ,
         0.        , -0.        , -0.        ,  0.        , -0.        , -0.77788762,  0.46232342,  0.        ,  0.00667536, -0.00569268,  0.        ,
         0.        , -0.00361728, -0.00279766,  0.        , -0.        , -0.        ],
       [-0.        , -0.        ,  1.39017492,  0.        ,  0.        , -0.00822988,  0.02255245,  0.72363412, -0.22334547, -0.        , -0.        ,
         0.        ,  0.        , -0.        ,  0.        , -0.        , -0.46232342, -0.77788762, -0.        , -0.00569268, -0.00667536,  0.        ,
         0.        , -0.00279766,  0.00361728, -0.        , -0.        ,  0.        ],
       [ 0.13438524,  0.        ,  0.        ,  0.42650362,  0.0296502 ,  0.        , -0.        ,  0.        ,  0.        ,  0.00968708, -0.        ,
         0.        ,  0.03026785,  0.        ,  0.        ,  0.04326908,  0.        ,  0.        , -0.44411378, -0.        , -0.        ,  0.01654657,
         0.34134447,  0.        , -0.        ,  0.00128804, -0.05225291,  0.2161599 ],
       [-0.45388887, -0.        ,  0.        ,  0.0296502 ,  1.69720487, -0.        ,  0.        ,  0.        , -0.        , -0.01545906,  0.        ,
        -0.        , -0.42663856, -0.        , -0.        ,  1.18861417,  0.        , -0.        ,  0.00263522, -0.        ,  0.        , -0.33413362,
         0.00939913, -0.        , -0.        ,  0.12646945, -0.00131539,  0.00045798],
       [ 0.        , -0.02255245, -0.00822988,  0.        , -0.        ,  2.35810347,  0.        ,  0.00079309, -0.01567967, -0.        ,  0.        ,
        -0.        ,  0.        ,  0.        , -0.        , -0.        ,  0.0099751 , -0.00188053,  0.        , -0.30634726,  0.54158426,  0.        ,
         0.        , -1.23326907, -0.39289421, -0.        ,  0.        ,  0.        ],
       [ 0.        , -0.00822988,  0.02255245, -0.        ,  0.        ,  0.        ,  2.35810347, -0.01567967, -0.00079309,  0.        , -0.        ,
         0.        ,  0.        , -0.        ,  0.        , -0.        , -0.00188053, -0.0099751 ,  0.        , -0.54158426, -0.30634726,  0.        ,
        -0.        ,  0.39289421, -1.23326907, -0.        ,  0.        , -0.        ],
       [-0.        , -0.22334547,  0.72363412,  0.        ,  0.        ,  0.00079309, -0.01567967,  3.18194477, -0.        , -0.        , -0.        ,
        -0.        , -0.        ,  0.        ,  0.        , -0.        ,  0.16089171,  0.66648024,  0.        , -0.00457141, -0.00290002,  0.        ,
        -0.        , -0.00048199,  0.0012846 ,  0.        ,  0.        ,  0.        ],
       [-0.        , -0.72363412, -0.22334547,  0.        , -0.        , -0.01567967, -0.00079309, -0.        ,  3.18194477,  0.        ,  0.        ,
        -0.        , -0.        ,  0.        , -0.        ,  0.        , -0.66648024,  0.16089171,  0.        , -0.00290002,  0.00457141,  0.        ,
         0.        ,  0.0012846 ,  0.00048199,  0.        , -0.        ,  0.        ],
       [ 0.02145953,  0.        , -0.        ,  0.00968708, -0.01545906, -0.        ,  0.        , -0.        ,  0.        ,  3.06337225,  0.        ,
        -0.        , -0.00583936, -0.        , -0.        ,  0.00796153, -0.        , -0.        ,  0.89798612,  0.        ,  0.        ,  0.00859346,
        -0.64663658, -0.        ,  0.        ,  0.00624551,  0.28957034,  0.77637038],
       [ 0.        ,  0.        , -0.        , -0.        ,  0.        ,  0.        , -0.        , -0.        ,  0.        ,  0.        ,  3.16272675,
         0.        ,  0.        ,  0.01187799,  0.00012043,  0.        , -0.        , -0.        ,  0.        ,  0.        ,  0.        ,  0.        ,
         0.        ,  0.        , -0.        ,  0.        , -0.        ,  0.        ],
       [-0.        ,  0.        ,  0.        ,  0.        , -0.        , -0.        ,  0.        , -0.        , -0.        , -0.        ,  0.        ,
         3.16272675, -0.        , -0.00012043,  0.01187799, -0.        ,  0.        , -0.        , -0.        ,  0.        ,  0.        ,  0.        ,
         0.        ,  0.        , -0.        ,  0.        , -0.        ,  0.        ],
       [ 0.07576046, -0.        ,  0.        ,  0.03026785, -0.42663856,  0.        ,  0.        , -0.        , -0.        , -0.00583936,  0.        ,
        -0.        ,  2.74467911, -0.        , -0.        , -0.74172759, -0.        ,  0.        , -0.01305524,  0.        , -0.        , -1.41532678,
        -0.01045135, -0.        , -0.        ,  0.01309566, -0.00094596, -0.00033617],
       [-0.        , -0.        , -0.        ,  0.        , -0.        ,  0.        , -0.        ,  0.        ,  0.        , -0.        ,  0.01187799,
        -0.00012043, -0.        ,  3.90340512,  0.        , -0.        , -0.        ,  0.        , -0.        ,  0.        ,  0.        ,  0.        ,
         0.        , -0.        , -0.        , -0.        , -0.        ,  0.        ],
       [-0.        ,  0.        ,  0.        ,  0.        , -0.        , -0.        ,  0.        ,  0.        , -0.        , -0.        ,  0.00012043,
         0.01187799, -0.        ,  0.        ,  3.90340512,  0.        ,  0.        , -0.        , -0.        ,  0.        ,  0.        ,  0.        ,
         0.        ,  0.        , -0.        , -0.        , -0.        ,  0.        ],
       [-0.31761653, -0.        , -0.        ,  0.04326908,  1.18861417, -0.        , -0.        , -0.        ,  0.        ,  0.00796153,  0.        ,
        -0.        , -0.74172759, -0.        ,  0.        ,  2.04615934,  0.        , -0.        , -0.02179977, -0.        ,  0.        ,  0.08739846,
        -0.00369575,  0.        , -0.        ,  1.12274514, -0.00259835,  0.00014362],
       [-0.        , -0.77788762, -0.46232342,  0.        ,  0.        ,  0.0099751 , -0.00188053,  0.16089171, -0.66648024, -0.        , -0.        ,
         0.        , -0.        , -0.        ,  0.        ,  0.        ,  3.35039006,  0.        , -0.        , -0.00239501,  0.00702788, -0.        ,
        -0.        , -0.00592623, -0.00072708,  0.        ,  0.        , -0.        ],
       [ 0.        ,  0.46232342, -0.77788762,  0.        , -0.        , -0.00188053, -0.0099751 ,  0.66648024,  0.16089171, -0.        , -0.        ,
        -0.        ,  0.        ,  0.        , -0.        , -0.        ,  0.        ,  3.35039006,  0.        ,  0.00702788,  0.00239501, -0.        ,
         0.        , -0.00072708,  0.00592623,  0.        , -0.        ,  0.        ],
       [-0.01364565,  0.        , -0.        , -0.44411378,  0.00263522,  0.        ,  0.        ,  0.        ,  0.        ,  0.89798612,  0.        ,
        -0.        , -0.01305524, -0.        , -0.        , -0.02179977, -0.        ,  0.        ,  2.27956466, -0.        , -0.        , -0.00169818,
        -0.19126365, -0.        ,  0.        , -0.01272061,  1.10588557,  0.07169982],
       [ 0.        ,  0.00667536, -0.00569268, -0.        , -0.        , -0.30634726, -0.54158426, -0.00457141, -0.00290002,  0.        ,  0.        ,
         0.        ,  0.        ,  0.        ,  0.        , -0.        , -0.00239501,  0.00702788, -0.        ,  4.70426932, -0.        ,  0.        ,
         0.        , -0.19803635, -0.94597763,  0.        ,  0.        ,  0.        ],
       [ 0.        , -0.00569268, -0.00667536, -0.        ,  0.        ,  0.54158426, -0.30634726, -0.00290002,  0.00457141,  0.        ,  0.        ,
         0.        , -0.        ,  0.        ,  0.        ,  0.        ,  0.00702788,  0.00239501, -0.        , -0.        ,  4.70426932, -0.        ,
        -0.        ,  0.94597763, -0.19803635, -0.        ,  0.        , -0.        ],
       [-0.0311987 ,  0.        ,  0.        ,  0.01654657, -0.33413362,  0.        ,  0.        ,  0.        ,  0.        ,  0.00859346,  0.        ,
         0.        , -1.41532678,  0.        ,  0.        ,  0.08739846, -0.        , -0.        , -0.00169818,  0.        , -0.        ,  3.82787368,
        -0.00672109,  0.        ,  0.        ,  0.86396838, -0.00018183,  0.00158849],
       [-0.01799155,  0.        ,  0.        ,  0.34134447,  0.00939913,  0.        , -0.        , -0.        ,  0.        , -0.64663658,  0.        ,
         0.        , -0.01045135,  0.        ,  0.        , -0.00369575, -0.        ,  0.        , -0.19126365,  0.        , -0.        , -0.00672109,
         5.46642922,  0.        , -0.        , -0.00687383, -0.71628986,  1.55494906],
       [-0.        , -0.00361728, -0.00279766,  0.        , -0.        , -1.23326907,  0.39289421, -0.00048199,  0.0012846 , -0.        ,  0.        ,
         0.        , -0.        , -0.        ,  0.        ,  0.        , -0.00592623, -0.00072708, -0.        , -0.19803635,  0.94597763,  0.        ,
         0.        ,  3.15647678,  0.        ,  0.        , -0.        ,  0.        ],
       [-0.        , -0.00279766,  0.00361728, -0.        , -0.        , -0.39289421, -1.23326907,  0.0012846 ,  0.00048199,  0.        , -0.        ,
        -0.        , -0.        , -0.        , -0.        , -0.        , -0.00072708,  0.00592623,  0.        , -0.94597763, -0.19803635,  0.        ,
        -0.        ,  0.        ,  3.15647678,  0.        , -0.        ,  0.        ],
       [-0.03761345,  0.        , -0.        ,  0.00128804,  0.12646945, -0.        , -0.        ,  0.        ,  0.        ,  0.00624551,  0.        ,
         0.        ,  0.01309566, -0.        , -0.        ,  1.12274514,  0.        ,  0.        , -0.01272061,  0.        , -0.        ,  0.86396838,
        -0.00687383,  0.        ,  0.        ,  2.16892464, -0.00386836,  0.00041776],
       [-0.00415781, -0.        , -0.        , -0.05225291, -0.00131539,  0.        ,  0.        ,  0.        , -0.        ,  0.28957034, -0.        ,
        -0.        , -0.00094596, -0.        , -0.        , -0.00259835,  0.        , -0.        ,  1.10588557,  0.        ,  0.        , -0.00018183,
        -0.71628986, -0.        , -0.        , -0.00386836,  1.11386867, -0.13576455],
       [-0.00635978, -0.        ,  0.        ,  0.2161599 ,  0.00045798,  0.        , -0.        ,  0.        ,  0.        ,  0.77637038,  0.        ,
         0.        , -0.00033617,  0.        ,  0.        ,  0.00014362, -0.        ,  0.        ,  0.07169982,  0.        , -0.        ,  0.00158849,
         1.55494906,  0.        ,  0.        ,  0.00041776, -0.13576455,  2.89664287]]))
E(UHF) =    -1.689961
NO eigenvalue
[-1. -0. -0. -0. -0. -0. -0. -0. -0. -0. -0. -0. -0. -0. -0.  0.  0.  0.  0.  0.  0.  0.  0.  0.  0.  0.  0.  0.] [-1. -0. -0. -0. -0. -0. -0. -0. -0. -0. -0. -0. -0. -0. -0. -0. -0.  0.  0.  0.  0.  0.  0.  0.  0.  0.  0.  0.]
NO vec
[[ 0.95749463  0.         -0.09372376 ...  0.          0.          0.        ]
 [ 0.          0.         -0.76423651 ...  0.          0.          0.        ]
 [-0.          0.         -0.         ...  0.          0.          0.        ]
 ...
 [ 0.         -0.02519818  0.         ... -0.17577472 -0.01111613  0.11935868]
 [ 0.          0.0274477   0.         ...  0.03749649  0.06294492 -0.1342885 ]
 [ 0.          0.00967649  0.         ...  0.03224542  0.00878311 -0.06769853]]
dm(NO)
[[ 1.  0. -0. ...  0.  0.  0.]
 [ 0.  1.  0. ...  0.  0. -0.]
 [-0.  0. -0. ...  0.  0.  0.]
 ...
 [ 0.  0.  0. ... -0. -0.  0.]
 [ 0.  0.  0. ... -0. -0.  0.]
 [ 0. -0.  0. ...  0.  0. -0.]]
D(g) (NO)
[[ 0.99951369  0.02852696  0.         ... -0.00051936 -0.0105937   0.00368022]
 [-0.02852696  0.99951369  0.0015683  ...  0.          0.         -0.        ]
 [-0.         -0.0015683   0.99951369 ... -0.00171055 -0.01263432 -0.02139325]
 ...
 [ 0.00051936  0.          0.00171055 ...  0.99951369  0.          0.        ]
 [ 0.0105937   0.          0.01263432 ...  0.          0.99951369 -0.        ]
 [-0.00368022 -0.          0.02139325 ...  0.         -0.          0.99951369]]
...
N(g) (NO)
[[ 0.99967224 -0.02853148]
 [ 0.02853148  0.99967224]]
...
P(g) (NO)
[[ 1.          0.         -0.         ...  0.          0.          0.        ]
 [-0.          1.          0.         ...  0.          0.         -0.        ]
 [-0.00004475 -0.00156778  0.         ... -0.         -0.          0.        ]
 ...
 [ 0.00051919 -0.00001482 -0.         ... -0.         -0.          0.        ]
 [ 0.01059023 -0.00030225 -0.         ... -0.         -0.          0.        ]
 [-0.00367901  0.000105    0.         ...  0.          0.         -0.        ]]
...
Pg_ortho
[[ 0.91686544 -0.         -0.         ... -0.00006407  0.00006979  0.0000246 ]
 [-0.          0.          0.         ...  0.         -0.         -0.        ]
 [-0.          0.          0.         ... -0.          0.          0.        ]
 ...
 [ 0.00006407 -0.         -0.         ...  0.000635   -0.00069168 -0.00024385]
 [ 0.00156873 -0.         -0.         ... -0.00069045  0.00075209  0.00026514]
 [ 0.00055304 -0.         -0.         ... -0.00024341  0.00026514  0.00009347]]
G(g) (NO)
[[ 0.56347103 -0.00079075 -0.05584975 ...  0.0000848  -0.00134452  0.0004026 ]
 [ 0.00079075  0.56347103  0.00019386 ... -0.02478503 -0.0143892  -0.00104241]
 [-0.05582645  0.0010518   1.08667669 ... -0.00002913  0.00010476  0.0002676 ]
 ...
 [-0.00001971 -0.02478288 -0.00002577 ...  0.92435837  0.03461983  0.00682683]
 [-0.0063127  -0.014268    0.00002103 ...  0.03461412  1.08140221  0.0453274 ]
 [ 0.0019208  -0.00108108 -0.00028467 ...  0.00682902  0.045328    1.0897413 ]]
...
C(NO)
[[-1.          0.         -0.         ...  0.          0.          0.        ]
 [ 0.         -1.          0.         ...  0.         -0.          0.        ]
 [ 0.          0.         -0.0014364  ...  0.          0.          0.        ]
 ...
 [ 0.         -0.          0.         ... -0.00013194  0.36452281  0.07417311]
 [ 0.         -0.          0.         ... -0.00086246 -0.16009746  0.09556276]
 [ 0.          0.          0.         ... -0.00269792 -0.01215309 -0.07280516]]
detC 1.0000000000000004
detNg [1.00015863 1.00414167 1.02209869 1.0619987  1.11698091 1.16480596 1.18903834 1.19467205]
xg [0.99984139 0.99587542 0.97837911 0.94162074 0.89527045 0.85851209 0.84101578 0.8370498 ]
ciS 1.8368911948338138
[[-1.12670477  0.          0.07008297 ...  0.          0.          0.        ]
 [ 0.         -1.12670477  0.         ...  0.02608602  0.04422849 -0.00675093]
 [ 0.07008297  0.          0.88032218 ...  0.          0.          0.        ]
 ...
 [ 0.          0.02608602  0.         ...  2.08901819  0.1228208  -0.12742012]
 [ 0.          0.04422849  0.         ...  0.1228208  -0.1395111   0.17580749]
 [ 0.         -0.00675093  0.         ... -0.12742012  0.17580749  0.20773721]]
ciH -3.152430994538412
S2 = 0.000000
X(g)
[[ 2.          0.         -0.00004475 ... -0.00051919 -0.01059023  0.00367901]
 [-0.          2.          0.00156778 ... -0.00001482 -0.00030225  0.000105  ]
 [-0.00004475 -0.00156778  0.         ...  0.          0.          0.        ]
 ...
 [ 0.00051919 -0.00001482  0.         ...  0.          0.          0.        ]
 [ 0.01059023 -0.00030225  0.         ...  0.          0.          0.        ]
 [-0.00367901  0.000105    0.         ...  0.          0.          0.        ]]
X(g) int
[[ 2.          0.         -0.02504717 ... -0.00712118 -0.14525568  0.05046139]
 [-0.          2.          0.02150374 ... -0.00829462 -0.16919119  0.05877651]
 [-0.02504717 -0.02150374  0.         ...  0.          0.          0.        ]
 ...
 [ 0.00712118 -0.00829462  0.         ...  0.          0.          0.        ]
 [ 0.14525568 -0.16919119  0.         ...  0.          0.          0.        ]
 [-0.05046139  0.05877651  0.         ...  0.          0.          0.        ]]
Hsp + Hph =  -1.7161773127360531
Feff (mod,ortho)
[[-0.42014355 -0.          0.         ...  0.          0.          0.        ]
 [-0.          1.39017492 -0.         ...  0.          0.          0.        ]
 [ 0.         -0.          1.39017492 ...  0.          0.          0.        ]
 ...
 [ 0.          0.          0.         ...  2.16892125 -0.0038245   0.00047738]
 [ 0.          0.          0.         ... -0.0038245   1.11377714 -0.13584492]
 [ 0.          0.          0.         ...  0.00047738 -0.13584492  2.89659758]]
E(SUHF) =     -1.12820263
e_a, e_b
[-0.56434278  0.13989521  0.31530763  0.57630654  0.66632857  0.66632857  1.03829625  1.08020269  1.08020269  1.48824242  2.43153832  2.48379364  3.1625363
  3.1625363   3.27897164  3.27897164  3.54929371  3.90359557  3.90359557  3.95554871  3.95554871  3.99171814  3.99171814  4.21183676  5.16858957  5.16858957
  5.21842334  6.3993258 ] [-0.56434278  0.13989521  0.31530763  0.57630654  0.66632857  0.66632857  1.03829625  1.08020269  1.08020269  1.48824242  2.43153832  2.48379364  3.1625363
  3.1625363   3.27897164  3.27897164  3.54929371  3.90359557  3.90359557  3.95554871  3.95554871  3.99171814  3.99171814  4.21183676  5.16858957  5.16858957
  5.21842334  6.3993258 ]
P_a, P_b
[[ 0.90989049 -0.         -0.          0.2143456   0.16642476 -0.         -0.          0.         -0.          0.00048449  0.         -0.          0.0292147
  -0.         -0.          0.05717078 -0.          0.          0.03392397  0.          0.          0.0337086  -0.01571497 -0.          0.         -0.02947551
  -0.02671602 -0.01047356]
 [-0.          0.          0.         -0.         -0.          0.          0.         -0.          0.         -0.         -0.          0.         -0.
   0.          0.         -0.          0.         -0.         -0.         -0.         -0.         -0.          0.          0.         -0.          0.
   0.          0.        ]
 [-0.          0.          0.         -0.         -0.          0.          0.         -0.          0.         -0.         -0.          0.         -0.
   0.          0.         -0.          0.         -0.         -0.         -0.         -0.         -0.          0.          0.         -0.          0.
   0.          0.        ]
 [ 0.2143456  -0.         -0.          0.05049403  0.03920518 -0.         -0.          0.         -0.          0.00011413  0.         -0.          0.00688219
  -0.         -0.          0.01346789 -0.          0.          0.00799157  0.          0.          0.00794083 -0.00370202 -0.          0.         -0.00694363
  -0.00629357 -0.00246729]
 [ 0.16642476 -0.         -0.          0.03920518  0.03044015 -0.         -0.          0.         -0.          0.00008862  0.         -0.          0.00534356
  -0.         -0.          0.0104569  -0.          0.          0.00620491  0.          0.          0.00616552 -0.00287437 -0.          0.         -0.00539126
  -0.00488653 -0.00191568]
 [-0.          0.          0.         -0.         -0.          0.          0.         -0.          0.         -0.         -0.          0.         -0.
   0.          0.         -0.          0.         -0.         -0.         -0.         -0.         -0.          0.          0.         -0.          0.
   0.          0.        ]
 [-0.          0.          0.         -0.         -0.          0.          0.         -0.          0.         -0.         -0.          0.         -0.
   0.          0.         -0.          0.         -0.         -0.         -0.         -0.         -0.          0.          0.         -0.          0.
   0.          0.        ]
 [ 0.         -0.         -0.          0.          0.         -0.         -0.          0.         -0.          0.          0.         -0.          0.
  -0.         -0.          0.         -0.          0.          0.          0.          0.          0.         -0.         -0.          0.         -0.
  -0.         -0.        ]
 [-0.          0.          0.         -0.         -0.          0.          0.         -0.          0.         -0.         -0.          0.         -0.
   0.          0.         -0.          0.         -0.         -0.         -0.         -0.         -0.          0.          0.         -0.          0.
   0.          0.        ]
 [ 0.00048449 -0.         -0.          0.00011413  0.00008862 -0.         -0.          0.         -0.          0.00000026  0.         -0.          0.00001556
  -0.         -0.          0.00003044 -0.          0.          0.00001806  0.          0.          0.00001795 -0.00000837 -0.          0.         -0.00001569
  -0.00001423 -0.00000558]
 [ 0.         -0.         -0.          0.          0.         -0.         -0.          0.         -0.          0.          0.         -0.          0.
  -0.         -0.          0.         -0.          0.          0.          0.          0.          0.         -0.         -0.          0.         -0.
  -0.         -0.        ]
 [-0.          0.          0.         -0.         -0.          0.          0.         -0.          0.         -0.         -0.          0.         -0.
   0.          0.         -0.          0.         -0.         -0.         -0.         -0.         -0.          0.          0.         -0.          0.
   0.          0.        ]
 [ 0.0292147  -0.         -0.          0.00688219  0.00534356 -0.         -0.          0.         -0.          0.00001556  0.         -0.          0.00093802
  -0.         -0.          0.00183564 -0.          0.          0.00108923  0.          0.          0.00108231 -0.00050458 -0.          0.         -0.0009464
  -0.0008578  -0.00033628]
 [-0.          0.          0.         -0.         -0.          0.          0.         -0.          0.         -0.         -0.          0.         -0.
   0.          0.         -0.          0.         -0.         -0.         -0.         -0.         -0.          0.          0.         -0.          0.
   0.          0.        ]
 [-0.          0.          0.         -0.         -0.          0.          0.         -0.          0.         -0.         -0.          0.         -0.
   0.          0.         -0.          0.         -0.         -0.         -0.         -0.         -0.          0.          0.         -0.          0.
   0.          0.        ]
 [ 0.05717078 -0.         -0.          0.01346789  0.0104569  -0.         -0.          0.         -0.          0.00003044  0.         -0.          0.00183564
  -0.         -0.          0.00359219 -0.          0.          0.00213153  0.          0.          0.002118   -0.00098741 -0.          0.         -0.00185202
  -0.00167864 -0.00065808]
 [-0.          0.          0.         -0.         -0.          0.          0.         -0.          0.         -0.         -0.          0.         -0.
   0.          0.         -0.          0.         -0.         -0.         -0.         -0.         -0.          0.          0.         -0.          0.
   0.          0.        ]
 [ 0.         -0.         -0.          0.          0.         -0.         -0.          0.         -0.          0.          0.         -0.          0.
  -0.         -0.          0.         -0.          0.          0.          0.          0.          0.         -0.         -0.          0.         -0.
  -0.         -0.        ]
 [ 0.03392397 -0.         -0.          0.00799157  0.00620491 -0.         -0.          0.         -0.          0.00001806  0.         -0.          0.00108923
  -0.         -0.          0.00213153 -0.          0.          0.00126481  0.          0.          0.00125678 -0.00058591 -0.          0.         -0.00109895
  -0.00099607 -0.00039049]
 [ 0.         -0.         -0.          0.          0.         -0.         -0.          0.         -0.          0.          0.         -0.          0.
  -0.         -0.          0.         -0.          0.          0.          0.          0.          0.         -0.         -0.          0.         -0.
  -0.         -0.        ]
 [ 0.         -0.         -0.          0.          0.         -0.         -0.          0.         -0.          0.          0.         -0.          0.
  -0.         -0.          0.         -0.          0.          0.          0.          0.          0.         -0.         -0.          0.         -0.
  -0.         -0.        ]
 [ 0.0337086  -0.         -0.          0.00794083  0.00616552 -0.         -0.          0.         -0.          0.00001795  0.         -0.          0.00108231
  -0.         -0.          0.002118   -0.          0.          0.00125678  0.          0.          0.0012488  -0.00058219 -0.          0.         -0.00109198
  -0.00098974 -0.00038801]
 [-0.01571497  0.          0.         -0.00370202 -0.00287437  0.          0.         -0.          0.         -0.00000837 -0.          0.         -0.00050458
[...]
 [-0.         -0.          1.41414249 ...  0.          0.          0.        ]
 ...
 [ 0.          0.          0.         ...  2.18400513 -0.00723028  0.00073202]
 [ 0.          0.          0.         ... -0.00723028  1.11921047 -0.13640713]
 [ 0.          0.          0.         ...  0.00073202 -0.13640713  2.90529591]]
E(SUHF) =     -1.14207549
e_a, e_b
[-0.55102376  0.15321906  0.31748917  0.59095619  0.68101686  0.68101686  1.05185992  1.09185077  1.09185077  1.49733854  2.42403893  2.53300877  3.18233834
  3.18233834  3.30214885  3.30214885  3.57731337  3.92419452  3.92419452  3.96593808  3.96593808  4.03356104  4.03356104  4.23747833  5.19244949  5.19244949
  5.24480094  6.42982407] [-0.55102376  0.15321906  0.31748917  0.59095619  0.68101686  0.68101686  1.05185992  1.09185077  1.09185077  1.49733854  2.42403893  2.53300877  3.18233834
  3.18233834  3.30214885  3.30214885  3.57731337  3.92419452  3.92419452  3.96593808  3.96593808  4.03356104  4.03356104  4.23747833  5.19244949  5.19244949
  5.24480094  6.42982407]
P_a, P_b
[[ 0.84011906  0.          0.          0.32028878  0.15207465 -0.         -0.          0.          0.          0.02622284 -0.          0.          0.03253149
   0.          0.          0.06199356  0.          0.          0.00068675  0.         -0.          0.03428363 -0.02274501 -0.          0.         -0.03110954
  -0.00515955 -0.01818487]
 [ 0.          0.          0.          0.          0.         -0.         -0.          0.          0.          0.         -0.          0.          0.
   0.          0.          0.          0.          0.          0.          0.         -0.          0.         -0.         -0.          0.         -0.
  -0.         -0.        ]
 [ 0.          0.          0.          0.          0.         -0.         -0.          0.          0.          0.         -0.          0.          0.
   0.          0.          0.          0.          0.          0.          0.         -0.          0.         -0.         -0.          0.         -0.
  -0.         -0.        ]
 [ 0.32028878  0.          0.          0.12210758  0.05797726 -0.         -0.          0.          0.          0.00999725 -0.          0.          0.01240237
   0.          0.          0.02363456  0.          0.          0.00026182  0.         -0.          0.01307036 -0.00867136 -0.          0.         -0.01186027
  -0.00196704 -0.00693284]
 [ 0.15207465  0.          0.          0.05797726  0.02752788 -0.         -0.          0.          0.          0.00474674 -0.          0.          0.00588871
   0.          0.          0.0112218   0.          0.          0.00012431  0.         -0.          0.00620587 -0.0041172  -0.          0.         -0.00563131
  -0.00093396 -0.00329175]
 [-0.         -0.         -0.         -0.         -0.          0.          0.         -0.         -0.         -0.          0.         -0.         -0.
  -0.         -0.         -0.         -0.         -0.         -0.         -0.          0.         -0.          0.          0.         -0.          0.
   0.          0.        ]
 [-0.         -0.         -0.         -0.         -0.          0.          0.         -0.         -0.         -0.          0.         -0.         -0.
  -0.         -0.         -0.         -0.         -0.         -0.         -0.          0.         -0.          0.          0.         -0.          0.
   0.          0.        ]
 [ 0.          0.          0.          0.          0.         -0.         -0.          0.          0.          0.         -0.          0.          0.
   0.          0.          0.          0.          0.          0.          0.         -0.          0.         -0.         -0.          0.         -0.
  -0.         -0.        ]
 [ 0.          0.          0.          0.          0.         -0.         -0.          0.          0.          0.         -0.          0.          0.
   0.          0.          0.          0.          0.          0.          0.         -0.          0.         -0.         -0.          0.         -0.
  -0.         -0.        ]
 [ 0.02622284  0.          0.          0.00999725  0.00474674 -0.         -0.          0.          0.          0.0008185  -0.          0.          0.00101541
   0.          0.          0.00193502  0.          0.          0.00002144  0.         -0.          0.0010701  -0.00070995 -0.          0.         -0.00097103
  -0.00016105 -0.00056761]
 [-0.         -0.         -0.         -0.         -0.          0.          0.         -0.         -0.         -0.          0.         -0.         -0.
  -0.         -0.         -0.         -0.         -0.         -0.         -0.          0.         -0.          0.          0.         -0.          0.
   0.          0.        ]
 [ 0.          0.          0.          0.          0.         -0.         -0.          0.          0.          0.         -0.          0.          0.
   0.          0.          0.          0.          0.          0.          0.         -0.          0.         -0.         -0.          0.         -0.
  -0.         -0.        ]
 [ 0.03253149  0.          0.          0.01240237  0.00588871 -0.         -0.          0.          0.          0.00101541 -0.          0.          0.0012597
   0.          0.          0.00240054  0.          0.          0.00002659  0.         -0.          0.00132755 -0.00088074 -0.          0.         -0.00120464
  -0.00019979 -0.00070416]
 [ 0.          0.          0.          0.          0.         -0.         -0.          0.          0.          0.         -0.          0.          0.
   0.          0.          0.          0.          0.          0.          0.         -0.          0.         -0.         -0.          0.         -0.
  -0.         -0.        ]
 [ 0.          0.          0.          0.          0.         -0.         -0.          0.          0.          0.         -0.          0.          0.
   0.          0.          0.          0.          0.          0.          0.         -0.          0.         -0.         -0.          0.         -0.
  -0.         -0.        ]
 [ 0.06199356  0.          0.          0.02363456  0.0112218  -0.         -0.          0.          0.          0.00193502 -0.          0.          0.00240054
   0.          0.          0.00457459  0.          0.          0.00005068  0.         -0.          0.00252984 -0.00167839 -0.          0.         -0.00229562
  -0.00038073 -0.00134189]
 [ 0.          0.          0.          0.          0.         -0.         -0.          0.          0.          0.         -0.          0.          0.
   0.          0.          0.          0.          0.          0.          0.         -0.          0.         -0.         -0.          0.         -0.
  -0.         -0.        ]
 [ 0.          0.          0.          0.          0.         -0.         -0.          0.          0.          0.         -0.          0.          0.
   0.          0.          0.          0.          0.          0.          0.         -0.          0.         -0.         -0.          0.         -0.
  -0.         -0.        ]
 [ 0.00068675  0.          0.          0.00026182  0.00012431 -0.         -0.          0.          0.          0.00002144 -0.          0.          0.00002659
   0.          0.          0.00005068  0.          0.          0.00000056  0.         -0.          0.00002802 -0.00001859 -0.          0.         -0.00002543
  -0.00000422 -0.00001487]
 [ 0.          0.          0.          0.          0.         -0.         -0.          0.          0.          0.         -0.          0.          0.
   0.          0.          0.          0.          0.          0.          0.         -0.          0.         -0.         -0.          0.         -0.
  -0.         -0.        ]
 [-0.         -0.         -0.         -0.         -0.          0.          0.         -0.         -0.         -0.          0.         -0.         -0.
  -0.         -0.         -0.         -0.         -0.         -0.         -0.          0.         -0.          0.          0.         -0.          0.
   0.          0.        ]
 [ 0.03428363  0.          0.          0.01307036  0.00620587 -0.         -0.          0.          0.          0.0010701  -0.          0.          0.00132755
   0.          0.          0.00252984  0.          0.          0.00002802  0.         -0.          0.00139905 -0.00092818 -0.          0.         -0.00126952
  -0.00021055 -0.00074209]
 [-0.02274501 -0.         -0.         -0.00867136 -0.0041172   0.          0.         -0.         -0.         -0.00070995  0.         -0.         -0.00088074
  -0.         -0.         -0.00167839 -0.         -0.         -0.00001859 -0.          0.         -0.00092818  0.00061579  0.         -0.          0.00084225
   0.00013969  0.00049233]
 [-0.         -0.         -0.         -0.         -0.          0.          0.         -0.         -0.         -0.          0.         -0.         -0.
  -0.         -0.         -0.         -0.         -0.         -0.         -0.          0.         -0.          0.          0.         -0.          0.
   0.          0.        ]
 [ 0.          0.          0.          0.          0.         -0.         -0.          0.          0.          0.         -0.          0.          0.
   0.          0.          0.          0.          0.          0.          0.         -0.          0.         -0.         -0.          0.         -0.
  -0.         -0.        ]
 [-0.03110954 -0.         -0.         -0.01186027 -0.00563131  0.          0.         -0.         -0.         -0.00097103  0.         -0.         -0.00120464
  -0.         -0.         -0.00229562 -0.         -0.         -0.00002543 -0.          0.         -0.00126952  0.00084225  0.         -0.          0.00115198
   0.00019106  0.00067338]
 [-0.00515955 -0.         -0.         -0.00196704 -0.00093396  0.          0.         -0.         -0.         -0.00016105  0.         -0.         -0.00019979
  -0.         -0.         -0.00038073 -0.         -0.         -0.00000422 -0.          0.         -0.00021055  0.00013969  0.         -0.          0.00019106
   0.00003169  0.00011168]
 [-0.01818487 -0.         -0.         -0.00693284 -0.00329175  0.          0.         -0.         -0.         -0.00056761  0.         -0.         -0.00070416
  -0.         -0.         -0.00134189 -0.         -0.         -0.00001487 -0.          0.         -0.00074209  0.00049233  0.         -0.          0.00067338
   0.00011168  0.00039362]] 
 [[ 0.84011906  0.         -0.         -0.32028878  0.15207465 -0.         -0.          0.         -0.         -0.02622284  0.         -0.          0.03253149
  -0.         -0.          0.06199356 -0.          0.         -0.00068675  0.          0.          0.03428363  0.02274501  0.          0.         -0.03110954
   0.00515955  0.01818487]
 [ 0.          0.         -0.         -0.          0.         -0.         -0.          0.         -0.         -0.          0.         -0.          0.
  -0.         -0.          0.         -0.          0.         -0.          0.          0.          0.          0.          0.          0.         -0.
   0.          0.        ]
 [-0.         -0.          0.          0.         -0.          0.          0.         -0.          0.          0.         -0.          0.         -0.
   0.          0.         -0.          0.         -0.          0.         -0.         -0.         -0.         -0.         -0.         -0.          0.
  -0.         -0.        ]
 [-0.32028878 -0.          0.          0.12210758 -0.05797726  0.          0.         -0.          0.          0.00999725 -0.          0.         -0.01240237
   0.          0.         -0.02363456  0.         -0.          0.00026182 -0.         -0.         -0.01307036 -0.00867136 -0.         -0.          0.01186027
  -0.00196704 -0.00693284]
 [ 0.15207465  0.         -0.         -0.05797726  0.02752788 -0.         -0.          0.         -0.         -0.00474674  0.         -0.          0.00588871
  -0.         -0.          0.0112218  -0.          0.         -0.00012431  0.          0.          0.00620587  0.0041172   0.          0.         -0.00563131
   0.00093396  0.00329175]
 [-0.         -0.          0.          0.         -0.          0.          0.         -0.          0.          0.         -0.          0.         -0.
   0.          0.         -0.          0.         -0.          0.         -0.         -0.         -0.         -0.         -0.         -0.          0.
  -0.         -0.        ]
 [-0.         -0.          0.          0.         -0.          0.          0.         -0.          0.          0.         -0.          0.         -0.
   0.          0.         -0.          0.         -0.          0.         -0.         -0.         -0.         -0.         -0.         -0.          0.
  -0.         -0.        ]
 [ 0.          0.         -0.         -0.          0.         -0.         -0.          0.         -0.         -0.          0.         -0.          0.
  -0.         -0.          0.         -0.          0.         -0.          0.          0.          0.          0.          0.          0.         -0.
   0.          0.        ]
 [-0.         -0.          0.          0.         -0.          0.          0.         -0.          0.          0.         -0.          0.         -0.
   0.          0.         -0.          0.         -0.          0.         -0.         -0.         -0.         -0.         -0.         -0.          0.
  -0.         -0.        ]
 [-0.02622284 -0.          0.          0.00999725 -0.00474674  0.          0.         -0.          0.          0.0008185  -0.          0.         -0.00101541
   0.          0.         -0.00193502  0.         -0.          0.00002144 -0.         -0.         -0.0010701  -0.00070995 -0.         -0.          0.00097103
  -0.00016105 -0.00056761]
 [ 0.          0.         -0.         -0.          0.         -0.         -0.          0.         -0.         -0.          0.         -0.          0.
  -0.         -0.          0.         -0.          0.         -0.          0.          0.          0.          0.          0.          0.         -0.
   0.          0.        ]
 [-0.         -0.          0.          0.         -0.          0.          0.         -0.          0.          0.         -0.          0.         -0.
   0.          0.         -0.          0.         -0.          0.         -0.         -0.         -0.         -0.         -0.         -0.          0.
  -0.         -0.        ]
 [ 0.03253149  0.         -0.         -0.01240237  0.00588871 -0.         -0.          0.         -0.         -0.00101541  0.         -0.          0.0012597
  -0.         -0.          0.00240054 -0.          0.         -0.00002659  0.          0.          0.00132755  0.00088074  0.          0.         -0.00120464
   0.00019979  0.00070416]
 [-0.         -0.          0.          0.         -0.          0.          0.         -0.          0.          0.         -0.          0.         -0.
   0.          0.         -0.          0.         -0.          0.         -0.         -0.         -0.         -0.         -0.         -0.          0.
  -0.         -0.        ]
 [-0.         -0.          0.          0.         -0.          0.          0.         -0.          0.          0.         -0.          0.         -0.
   0.          0.         -0.          0.         -0.          0.         -0.         -0.         -0.         -0.         -0.         -0.          0.
  -0.         -0.        ]
 [ 0.06199356  0.         -0.         -0.02363456  0.0112218  -0.         -0.          0.         -0.         -0.00193502  0.         -0.          0.00240054
  -0.         -0.          0.00457459 -0.          0.         -0.00005068  0.          0.          0.00252984  0.00167839  0.          0.         -0.00229562
   0.00038073  0.00134189]
 [-0.         -0.          0.          0.         -0.          0.          0.         -0.          0.          0.         -0.          0.         -0.
   0.          0.         -0.          0.         -0.          0.         -0.         -0.         -0.         -0.         -0.         -0.          0.
  -0.         -0.        ]
 [ 0.          0.         -0.         -0.          0.         -0.         -0.          0.         -0.         -0.          0.         -0.          0.
  -0.         -0.          0.         -0.          0.         -0.          0.          0.          0.          0.          0.          0.         -0.
   0.          0.        ]
 [-0.00068675 -0.          0.          0.00026182 -0.00012431  0.          0.         -0.          0.          0.00002144 -0.          0.         -0.00002659
   0.          0.         -0.00005068  0.         -0.          0.00000056 -0.         -0.         -0.00002802 -0.00001859 -0.         -0.          0.00002543
  -0.00000422 -0.00001487]
 [ 0.          0.         -0.         -0.          0.         -0.         -0.          0.         -0.         -0.          0.         -0.          0.
  -0.         -0.          0.         -0.          0.         -0.          0.          0.          0.          0.          0.          0.         -0.
   0.          0.        ]
 [ 0.          0.         -0.         -0.          0.         -0.         -0.          0.         -0.         -0.          0.         -0.          0.
  -0.         -0.          0.         -0.          0.         -0.          0.          0.          0.          0.          0.          0.         -0.
   0.          0.        ]
 [ 0.03428363  0.         -0.         -0.01307036  0.00620587 -0.         -0.          0.         -0.         -0.0010701   0.         -0.          0.00132755
  -0.         -0.          0.00252984 -0.          0.         -0.00002802  0.          0.          0.00139905  0.00092818  0.          0.         -0.00126952
   0.00021055  0.00074209]
 [ 0.02274501  0.         -0.         -0.00867136  0.0041172  -0.         -0.          0.         -0.         -0.00070995  0.         -0.          0.00088074
  -0.         -0.          0.00167839 -0.          0.         -0.00001859  0.          0.          0.00092818  0.00061579  0.          0.         -0.00084225
   0.00013969  0.00049233]
 [ 0.          0.         -0.         -0.          0.         -0.         -0.          0.         -0.         -0.          0.         -0.          0.
  -0.         -0.          0.         -0.          0.         -0.          0.          0.          0.          0.          0.          0.         -0.
   0.          0.        ]
 [ 0.          0.         -0.         -0.          0.         -0.         -0.          0.         -0.         -0.          0.         -0.          0.
  -0.         -0.          0.         -0.          0.         -0.          0.          0.          0.          0.          0.          0.         -0.
   0.          0.        ]
 [-0.03110954 -0.          0.          0.01186027 -0.00563131  0.          0.         -0.          0.          0.00097103 -0.          0.         -0.00120464
   0.          0.         -0.00229562  0.         -0.          0.00002543 -0.         -0.         -0.00126952 -0.00084225 -0.         -0.          0.00115198
  -0.00019106 -0.00067338]
 [ 0.00515955  0.         -0.         -0.00196704  0.00093396 -0.         -0.          0.         -0.         -0.00016105  0.         -0.          0.00019979
  -0.         -0.          0.00038073 -0.          0.         -0.00000422  0.          0.          0.00021055  0.00013969  0.          0.         -0.00019106
   0.00003169  0.00011168]
 [ 0.01818487  0.         -0.         -0.00693284  0.00329175 -0.         -0.          0.         -0.         -0.00056761  0.         -0.          0.00070416
  -0.         -0.          0.00134189 -0.          0.         -0.00001487  0.          0.          0.00074209  0.00049233  0.          0.         -0.00067338
   0.00011168  0.00039362]]

***************
SUHF converged at cycle 39
Final E(SUHF) =     -1.14207549, delta E = -8.41871e-09
***** Start DFT Correlation for SUHF+DFT **********
tot grids = 20048
E(SUHF) =     -1.14207549
E_c(TPSS) =     -0.03426418
E(SUHF+DFT) =     -1.17633968
