

#INFO: **** input file is /share/home/srwang/ExSCF/test/pytest/scan_h2/scan_dft.py ****
#import phf
from pyscf import lib
#import scipy
import numpy as np
import sys, os, contextlib

from pyphf import util, sudft

#xyz = 'h2.xyz' #sys.argv[1]
fch = 'test_uhf.fchk' #sys.argv[2]
#bas = '../h2.bas'
bas = 'cc-pvtz'

lib.num_threads(4)

for r in np.arange(0.9, 2.55, 0.1):
    output = 'tpss/sudft_%.1f_diis.out' % r
    os.system("echo '\n' > %s" % output)
    with open(output, 'a', encoding='utf-8') as f:
        with contextlib.redirect_stdout(f):
            xyz = '''H 0.0 0.0 0.0; H 0.0 0.0 %f'''%r
            mf = util.guess_from_fchk(xyz, bas, fch)
            #mf = util.guess(xyz, bas)
            #f.flush()
            mf2 = util.SUHF(mf)
            #mf2.cut_no = False
            mf2.debug = False
            #mf2.max_cycle = 50
            mf2.diis_on = True
            #mf2.output = 'sudft_%.1f.out'%r
            #mf2.kernel()
            
            mf3 = sudft.SUDFT(mf2)
            mf3.suxc = 'TPSS'
            mf3.kernel()
                    
#INFO: ******************** input file end ********************


System: uname_result(system='Linux', node='xc02n18', release='3.10.0-693.el7.x86_64', version='#1 SMP Thu Jul 6 19:56:57 EDT 2017', machine='x86_64', processor='x86_64')  Threads 4
Python 3.7.4 (default, Aug 13 2019, 20:35:49) 
[GCC 7.3.0]
numpy 1.17.2  scipy 1.4.1
Date: Tue Nov 24 03:36:19 2020
PySCF version 1.7.5
PySCF path  /share/home/srwang/pyscf-1.7.5/pyscf

[CONFIG] conf_file None
[INPUT] verbose = 4
[INPUT] num. atoms = 2
[INPUT] num. electrons = 2
[INPUT] charge = 0
[INPUT] spin (= nelec alpha-beta = 2S) = 0
[INPUT] symmetry False subgroup None
[INPUT] Mole.unit = angstrom
[INPUT]  1 H      0.000000000000   0.000000000000   0.000000000000 AA    0.000000000000   0.000000000000   0.000000000000 Bohr
[INPUT]  2 H      0.000000000000   0.000000000000   2.500000000000 AA    0.000000000000   0.000000000000   4.724315311413 Bohr

nuclear repulsion = 0.211670884368
number of shells = 12
number of NR pGTOs = 32
number of NR cGTOs = 28
basis = cc-pvtz
ecp = {}
CPU time:       235.67


******** <class 'pyscf.scf.uhf.UHF'> ********
method = UHF
initial guess = minao
damping factor = 0
level_shift factor = 0
DIIS = <class 'pyscf.scf.diis.CDIIS'>
diis_start_cycle = 1
diis_space = 8
SCF conv_tol = 1e-09
SCF conv_tol_grad = None
SCF max_cycles = 1
direct_scf = True
direct_scf_tol = 1e-13
chkfile to save SCF result = /share/home/srwang/ExSCF/test/pytest/scan_h2/tmpunyph30_
max_memory 4000 MB (current use 132 MB)
number electrons alpha = 1  beta = 1
Set gradient conv threshold to 3.16228e-05
init E= -0.646700926845351
  alpha nocc = 1  HOMO = -0.221311519885192  LUMO = -0.141213558571271
  beta  nocc = 1  HOMO = -0.220137379647341  LUMO = -0.141198757274922
cycle= 1 E= -0.868563401086861  delta_E= -0.222  |g|= 0.0301  |ddm|= 0.478
SCF not converged.
SCF energy = -0.868563401086861 after 1 cycles  <S^2> = 2.0416086e-07  2S+1 = 1.0000004


******** <class 'pyscf.scf.uhf.UHF'> ********
method = UHF
initial guess = minao
damping factor = 0
level_shift factor = 0
DIIS = <class 'pyscf.scf.diis.CDIIS'>
diis_start_cycle = 1
diis_space = 8
SCF conv_tol = 1e-09
SCF conv_tol_grad = None
SCF max_cycles = 1
direct_scf = True
direct_scf_tol = 1e-13
chkfile to save SCF result = /share/home/srwang/ExSCF/test/pytest/scan_h2/tmpunyph30_
max_memory 4000 MB (current use 132 MB)
number electrons alpha = 1  beta = 1
Set gradient conv threshold to 3.16228e-05
init E= -0.840094878579984
  alpha nocc = 1  HOMO = -0.492871857587344  LUMO = -0.0537265882752805
  beta  nocc = 1  HOMO = -0.492871857587342  LUMO = -0.05372658827528
cycle= 1 E= -0.99224975758829  delta_E= -0.152  |g|= 0.0545  |ddm|= 0.145
SCF not converged.
SCF energy = -0.99224975758829 after 1 cycles  <S^2> = 0.87560705  2S+1 = 2.1218926

******** <class 'pyphf.util.SUHF'> ********
max_cycle = 70
verbose: normal
DIIS: <class 'pyscf.scf.diis.CDIIS'>
diis_start_cyc = 40
SVD: S^(-1/2)
[[-0.20205771  0.28311907  0.06184368 -0.          0.          0.         -0.         -0.0821489  -0.02758206  0.         -0.          0.         -0.
  -0.          0.          0.          0.          0.02295308 -0.64877926  0.67691077 -0.1252541  -0.         -0.         -0.         -0.          0.30744335
  -0.8611045   0.765406  ]
 [-0.27041782  0.32166393  0.05322004 -0.         -0.          0.          0.         -0.06614758 -0.00869628 -0.          0.         -0.          0.
   0.          0.         -0.         -0.          0.00683035 -0.03798886 -0.17295189  0.04816337  0.          0.          0.          0.         -0.21860091
   1.66392189 -1.67791651]
 [-0.28257173  0.22719528  0.01322823  0.          0.         -0.         -0.         -0.00192688  0.01454029  0.          0.          0.         -0.
  -0.         -0.          0.         -0.         -0.01458139  0.50777997 -0.6019399   0.10156172 -0.         -0.         -0.         -0.         -0.17879485
  -0.98918377  1.47536455]
 [ 0.          0.         -0.         -0.38676932 -0.05351631  0.39223657  0.05757525  0.         -0.         -0.00005007  0.00393021 -0.         -0.
  -0.         -0.         -0.00005562 -0.00394005 -0.          0.         -0.         -0.         -0.76346044  0.25191213 -0.00714025 -0.80761829 -0.
   0.         -0.        ]
 [ 0.          0.         -0.         -0.05351631  0.38676932  0.05757525 -0.39223657  0.         -0.         -0.00393021 -0.00005007 -0.          0.
   0.         -0.          0.00394005 -0.00005562  0.          0.          0.          0.         -0.25191213 -0.76346044 -0.80761829  0.00714025  0.
   0.         -0.        ]
 [-0.02755132 -0.04702734 -0.36839541  0.          0.          0.          0.         -0.41151098 -0.0262196   0.          0.         -0.          0.
   0.         -0.          0.         -0.          0.0216735  -0.13232866 -0.26205603  0.78771982 -0.          0.          0.         -0.          0.77681007
  -0.03120678 -0.13244426]
 [-0.         -0.         -0.         -0.39093406 -0.05409257  0.38806061  0.05696227  0.          0.         -0.00000013  0.00000985 -0.          0.
   0.         -0.         -0.00000011 -0.00000769 -0.          0.          0.          0.          0.75535041 -0.24923613  0.00721731  0.8163345  -0.
  -0.          0.        ]
 [-0.         -0.         -0.         -0.05409257  0.39093406  0.05696227 -0.38806061  0.         -0.         -0.00000985 -0.00000013 -0.         -0.
  -0.          0.          0.00000769 -0.00000011 -0.         -0.         -0.         -0.          0.24923613  0.75535041  0.8163345  -0.00721731 -0.
   0.         -0.        ]
 [-0.05150178 -0.06842431 -0.39613735  0.          0.          0.         -0.         -0.37585708 -0.00088146 -0.         -0.          0.         -0.
  -0.          0.         -0.          0.         -0.00062863  0.03481262  0.17147393 -0.74287824  0.         -0.         -0.          0.         -0.87980369
   0.08492267  0.26653331]
 [ 0.          0.          0.         -0.         -0.          0.         -0.         -0.         -0.          0.         -0.         -0.          0.70710412
   0.70710945 -0.         -0.         -0.         -0.         -0.         -0.         -0.          0.          0.          0.         -0.         -0.
   0.          0.        ]
 [-0.         -0.         -0.         -0.00029826  0.00215556 -0.00032144  0.00218986 -0.          0.          0.70697832  0.00900699  0.         -0.
   0.          0.          0.70708558 -0.00998214  0.          0.          0.          0.         -0.00139695 -0.00423369  0.00449137 -0.00003971 -0.
   0.         -0.        ]
 [-0.00649876 -0.00623711 -0.0113874  -0.          0.          0.         -0.          0.0155584   0.70535076 -0.          0.         -0.          0.
   0.         -0.          0.         -0.          0.70649268 -0.04118124 -0.02455159  0.02195534 -0.          0.          0.         -0.         -0.03617871
   0.00617925  0.02610542]
 [-0.         -0.         -0.         -0.00215556 -0.00029826 -0.00218986 -0.00032144 -0.          0.          0.00900699 -0.70697832 -0.         -0.
  -0.         -0.         -0.00998214 -0.70708558 -0.          0.         -0.         -0.         -0.00423369  0.00139695  0.00003971  0.00449137 -0.
  -0.          0.        ]
 [ 0.          0.          0.          0.         -0.          0.          0.          0.          0.         -0.         -0.         -0.70710412  0.
   0.          0.70710945  0.         -0.          0.          0.          0.          0.          0.          0.          0.          0.          0.
   0.          0.        ]
 [-0.20205771 -0.28311907  0.06184368 -0.          0.         -0.          0.          0.0821489  -0.02758206 -0.         -0.         -0.          0.
  -0.          0.         -0.          0.         -0.02295308 -0.64877926 -0.67691077 -0.1252541   0.         -0.         -0.          0.         -0.30744335
  -0.8611045  -0.765406  ]
 [-0.27041782 -0.32166393  0.05322004 -0.         -0.         -0.         -0.          0.06614758 -0.00869628  0.          0.          0.         -0.
  -0.         -0.          0.         -0.         -0.00683035 -0.03798886  0.17295189  0.04816337 -0.          0.          0.         -0.          0.21860091
   1.66392189  1.67791651]
 [-0.28257173 -0.22719528  0.01322823  0.          0.         -0.         -0.          0.00192688  0.01454029 -0.         -0.         -0.          0.
   0.         -0.         -0.          0.          0.01458139  0.50777997  0.6019399   0.10156172 -0.          0.          0.         -0.          0.17879485
  -0.98918377 -1.47536455]
 [-0.         -0.         -0.         -0.38676932 -0.05351631 -0.39223657 -0.05757525 -0.          0.         -0.00005007  0.00393021  0.          0.
   0.          0.          0.00005562  0.00394005  0.          0.         -0.         -0.         -0.76346044  0.25191213  0.00714025  0.80761829 -0.
  -0.          0.        ]
 [-0.         -0.         -0.         -0.05351631  0.38676932 -0.05757525  0.39223657 -0.          0.         -0.00393021 -0.00005007 -0.          0.
  -0.         -0.         -0.00394005  0.00005562 -0.          0.          0.          0.         -0.25191213 -0.76346044  0.80761829 -0.00714025  0.
   0.         -0.        ]
 [ 0.02755132 -0.04702734  0.36839541 -0.          0.          0.          0.         -0.41151098  0.0262196  -0.          0.          0.         -0.
  -0.          0.         -0.         -0.          0.0216735   0.13232866 -0.26205603 -0.78771982  0.         -0.         -0.          0.          0.77681007
   0.03120678 -0.13244426]
 [-0.         -0.         -0.         -0.39093406 -0.05409257 -0.38806061 -0.05696227 -0.          0.         -0.00000013  0.00000985  0.         -0.
  -0.          0.          0.00000011  0.00000769 -0.          0.          0.          0.          0.75535041 -0.24923613 -0.00721731 -0.8163345   0.
   0.         -0.        ]
 [-0.         -0.         -0.         -0.05409257  0.39093406 -0.05696227  0.38806061 -0.          0.         -0.00000985 -0.00000013  0.         -0.
   0.         -0.         -0.00000769  0.00000011  0.          0.         -0.         -0.          0.24923613  0.75535041 -0.8163345   0.00721731 -0.
  -0.          0.        ]
 [ 0.05150178 -0.06842431  0.39613735 -0.         -0.          0.          0.         -0.37585708  0.00088146  0.         -0.         -0.          0.
   0.         -0.          0.         -0.         -0.00062863 -0.03481262  0.17147393  0.74287824 -0.          0.          0.         -0.         -0.87980369
  -0.08492267  0.26653331]
 [-0.         -0.         -0.         -0.         -0.         -0.          0.         -0.         -0.          0.         -0.         -0.          0.70710412
  -0.70710945 -0.          0.          0.         -0.         -0.         -0.         -0.          0.          0.         -0.          0.         -0.
  -0.         -0.        ]
 [ 0.          0.          0.          0.00029826 -0.00215556 -0.00032144  0.00218986 -0.         -0.         -0.70697832 -0.00900699 -0.          0.
   0.         -0.          0.70708558 -0.00998214 -0.         -0.         -0.         -0.          0.00139695  0.00423369  0.00449137 -0.00003971  0.
   0.         -0.        ]
 [-0.00649876  0.00623711 -0.0113874  -0.          0.          0.         -0.         -0.0155584   0.70535076  0.         -0.          0.         -0.
  -0.          0.         -0.          0.         -0.70649268 -0.04118124  0.02455159  0.02195534 -0.         -0.         -0.          0.          0.03617871
   0.00617925 -0.02610542]
 [ 0.          0.          0.          0.00215556  0.00029826 -0.00218986 -0.00032144 -0.         -0.         -0.00900699  0.70697832 -0.         -0.
  -0.         -0.         -0.00998214 -0.70708558 -0.         -0.          0.          0.          0.00423369 -0.00139695  0.00003971  0.00449137  0.
  -0.          0.        ]
 [ 0.          0.          0.         -0.          0.          0.         -0.          0.          0.          0.          0.         -0.70710412 -0.
   0.         -0.70710945 -0.          0.          0.          0.          0.          0.         -0.         -0.         -0.         -0.          0.
  -0.         -0.        ]]
C (ortho)
[[-0.81858579 -0.54351061  0.00599398  0.15567307 -0.07217365 -0.          0.         -0.         -0.          0.00598379  0.0388091   0.04467487 -0.00146255
   0.         -0.         -0.         -0.          0.0001225  -0.          0.          0.         -0.         -0.03840504  0.          0.          0.
  -0.          0.00442302]
 [ 0.55907934 -0.76489353 -0.0434534   0.25441301 -0.01376558 -0.          0.          0.         -0.         -0.13572202 -0.05523302  0.1031617  -0.00963149
  -0.          0.          0.          0.          0.01881943 -0.          0.         -0.         -0.         -0.00418207  0.          0.         -0.
  -0.         -0.05464979]
 [ 0.06688245  0.00805619 -0.08368697 -0.13153418 -0.84778078  0.          0.         -0.         -0.          0.08818662 -0.00303044 -0.00608795  0.06482887
   0.         -0.         -0.         -0.          0.04644759 -0.          0.          0.          0.         -0.48516199  0.          0.          0.
  -0.          0.05347329]
 [-0.          0.          0.          0.         -0.          0.04220238 -0.76236242 -0.05588011 -0.39448662 -0.          0.          0.          0.
   0.00194939  0.01234817 -0.          0.         -0.         -0.01277814  0.00493563 -0.         -0.         -0.         -0.28987228 -0.34095443 -0.2102859
   0.11593221 -0.        ]
 [-0.         -0.          0.         -0.          0.          0.76236242  0.04220238  0.39448662 -0.05588011 -0.          0.          0.         -0.
  -0.01234817  0.00194939  0.          0.          0.          0.00493563  0.01277814  0.         -0.          0.         -0.34095443  0.28987228  0.11593221
   0.2102859  -0.        ]
 [ 0.         -0.         -0.          0.          0.         -0.01900013  0.40353752 -0.11312366 -0.75375515  0.         -0.          0.          0.
   0.00136893  0.00822983 -0.          0.         -0.          0.01070714 -0.00403449  0.          0.         -0.          0.14793706  0.17694518 -0.39581685
   0.2139771   0.        ]
 [ 0.          0.         -0.          0.         -0.         -0.40353752 -0.01900013  0.75375515 -0.11312366  0.         -0.         -0.          0.
  -0.00822983  0.00136893  0.          0.          0.         -0.00403449 -0.01070714 -0.          0.         -0.          0.17694518 -0.14793706  0.2139771
   0.39581685 -0.        ]
 [-0.06890516  0.04440103  0.17670206 -0.21062242 -0.08016594 -0.          0.          0.         -0.         -0.81716128  0.02987365 -0.04678365 -0.03356787
   0.          0.          0.          0.          0.07361292  0.          0.         -0.         -0.         -0.04074025  0.          0.         -0.
   0.         -0.48190196]
 [-0.00357674  0.00690145  0.03148417  0.03069937  0.01058609 -0.         -0.          0.          0.         -0.00283275  0.03685644  0.0296099   0.87996726
   0.         -0.         -0.         -0.          0.45294442  0.          0.          0.         -0.          0.12707616 -0.         -0.         -0.
  -0.         -0.00112265]
 [ 0.         -0.          0.          0.          0.          0.00307232  0.00064051  0.00171474  0.00001632  0.         -0.          0.         -0.
   0.74642003 -0.00473446  0.         -0.          0.         -0.32963083 -0.57726914 -0.          0.          0.         -0.01853568  0.02130652  0.00689032
   0.00898741  0.        ]
 [ 0.         -0.         -0.          0.         -0.          0.00064051 -0.00307232  0.00001632 -0.00171474 -0.          0.          0.         -0.
  -0.00473446 -0.74642003  0.         -0.         -0.          0.57726914 -0.32963083 -0.          0.         -0.         -0.02130652 -0.01853568 -0.00898741
   0.00689032  0.        ]
 [ 0.          0.         -0.         -0.         -0.          0.          0.          0.         -0.         -0.         -0.          0.         -0.
  -0.          0.          0.00077934 -0.70960742 -0.         -0.         -0.          0.22249552 -0.66854502 -0.         -0.          0.          0.
   0.         -0.        ]
 [-0.          0.         -0.          0.         -0.         -0.         -0.         -0.         -0.         -0.         -0.         -0.          0.
  -0.         -0.          0.70960742  0.00077934 -0.          0.          0.          0.66854502  0.22249552 -0.          0.         -0.         -0.
   0.          0.        ]
 [-0.          0.         -0.          0.         -0.         -0.          0.          0.         -0.         -0.          0.         -0.          0.
   0.         -0.          0.70459641  0.00077384 -0.         -0.          0.         -0.67329964 -0.22407789 -0.          0.          0.         -0.
   0.          0.        ]
 [ 0.          0.          0.         -0.         -0.          0.          0.          0.         -0.         -0.          0.          0.          0.
   0.         -0.         -0.00077384  0.70459641 -0.         -0.         -0.          0.22407789 -0.67329964 -0.         -0.          0.          0.
   0.         -0.        ]
 [ 0.         -0.          0.          0.          0.         -0.00195106 -0.00035237  0.00443718 -0.00007694  0.         -0.          0.         -0.
   0.66470063 -0.02207524 -0.         -0.          0.          0.35262425  0.65796118  0.         -0.          0.          0.00883414 -0.00962037  0.00899244
   0.01240554  0.        ]
 [ 0.          0.          0.         -0.          0.         -0.00035237  0.00195106 -0.00007694 -0.00443718  0.         -0.         -0.         -0.
  -0.02207524 -0.66470063 -0.         -0.         -0.         -0.65796118  0.35262425 -0.          0.          0.          0.00962037  0.00883414 -0.01240554
   0.00899244  0.        ]
 [ 0.00227888  0.00732257 -0.03653511  0.0352371  -0.00519012 -0.          0.          0.         -0.         -0.04242247 -0.00966674  0.01541575  0.45695827
   0.         -0.         -0.         -0.         -0.87775518 -0.         -0.          0.          0.         -0.03783961 -0.          0.          0.
  -0.         -0.12045813]
 [ 0.03437697  0.18615261  0.58474318  0.5385261  -0.05590378 -0.          0.          0.         -0.         -0.00406959  0.4373932   0.33462382 -0.03963951
   0.          0.         -0.          0.         -0.01561234 -0.         -0.          0.          0.         -0.15410117  0.          0.          0.
  -0.          0.01551028]
 [-0.0738092   0.25460569 -0.51747366  0.45583291 -0.03448723 -0.          0.         -0.         -0.         -0.07489074 -0.35175249  0.48986164 -0.03770636
  -0.          0.          0.          0.          0.07728154 -0.          0.         -0.         -0.         -0.02551846 -0.          0.         -0.
  -0.         -0.27500525]
 [ 0.00820046  0.01248538  0.05109942  0.02361876 -0.501453   -0.          0.          0.         -0.          0.05855218  0.07866842  0.05798401 -0.08720532
  -0.          0.          0.          0.         -0.0709755  -0.         -0.          0.         -0.          0.8440473  -0.         -0.         -0.
  -0.         -0.0843528 ]
 [ 0.         -0.          0.         -0.          0.          0.05619477  0.44392336  0.07623004  0.22855006  0.         -0.         -0.          0.
   0.0051086   0.01454374 -0.          0.         -0.         -0.01883224  0.00357076 -0.         -0.         -0.         -0.38156471 -0.66122337 -0.3773593
   0.12615473  0.        ]
 [-0.          0.         -0.          0.         -0.          0.44392336 -0.05619477  0.22855006 -0.07623004 -0.          0.          0.          0.
   0.01454374 -0.0051086  -0.         -0.         -0.         -0.00357076 -0.01883224 -0.          0.         -0.          0.66122337 -0.38156471 -0.12615473
  -0.3773593  -0.        ]
 [-0.          0.         -0.          0.          0.          0.22678261  0.04635757 -0.44970964 -0.00252686 -0.          0.          0.         -0.
  -0.00754735  0.0000773   0.          0.          0.         -0.00625134 -0.01104751 -0.          0.          0.          0.2659718  -0.3033349   0.46148488
   0.60682454 -0.        ]
 [ 0.         -0.          0.         -0.          0.         -0.04635757  0.22678261  0.00252686 -0.44970964  0.         -0.         -0.         -0.
  -0.0000773  -0.00754735  0.         -0.          0.         -0.01104751  0.00625134 -0.         -0.         -0.         -0.3033349  -0.2659718   0.60682454
  -0.46148488  0.        ]
 [-0.02900794  0.04676516 -0.00745924 -0.01987054 -0.04901896 -0.          0.          0.         -0.         -0.49310337 -0.17970215  0.24305927  0.02446993
  -0.         -0.         -0.         -0.         -0.07102432 -0.         -0.          0.          0.          0.08268341  0.         -0.         -0.
   0.          0.80443573]
 [ 0.02300335 -0.07541993 -0.3887086  -0.38984776  0.09550147  0.         -0.         -0.          0.         -0.00227525  0.66987705  0.48228962 -0.01330799
   0.          0.          0.          0.         -0.00620546 -0.         -0.         -0.          0.         -0.00516311  0.          0.          0.
   0.          0.00071228]
 [-0.00640291 -0.09944157  0.44052008 -0.4432435   0.04483902 -0.         -0.          0.          0.          0.2280284  -0.4368412   0.58055223  0.00696834
  -0.          0.          0.          0.         -0.01095898 -0.         -0.         -0.         -0.         -0.01442335  0.         -0.          0.
   0.         -0.1315003 ]]
[[-0.81858579 -0.54351061  0.00599398  0.15567307  0.07217365 -0.         -0.         -0.         -0.         -0.00598379  0.0388091   0.04467487 -0.00146255
   0.         -0.          0.          0.          0.0001225   0.          0.         -0.          0.          0.03840504  0.          0.          0.
   0.         -0.00442302]
 [-0.55907934  0.76489353  0.0434534  -0.25441301 -0.01376558  0.          0.          0.          0.         -0.13572202  0.05523302 -0.1031617   0.00963149
   0.         -0.          0.          0.         -0.01881943  0.         -0.         -0.         -0.         -0.00418207  0.          0.          0.
   0.         -0.05464979]
 [ 0.06688245  0.00805619 -0.08368697 -0.13153418  0.84778078 -0.         -0.         -0.         -0.         -0.08818662 -0.00303044 -0.00608795  0.06482887
  -0.          0.          0.          0.          0.04644759 -0.          0.         -0.          0.          0.48516199 -0.         -0.          0.
  -0.         -0.05347329]
 [-0.          0.          0.          0.         -0.         -0.76081373 -0.06434266 -0.39841498  0.00278868 -0.          0.          0.         -0.
  -0.01199158  0.00353263 -0.         -0.          0.          0.00191265  0.01356403 -0.         -0.          0.         -0.0709455  -0.44186265 -0.2388016
  -0.025184   -0.        ]
 [ 0.         -0.          0.          0.          0.         -0.06434266  0.76081373  0.00278868  0.39841498 -0.         -0.          0.          0.
   0.00353263  0.01199158  0.          0.          0.         -0.01356403  0.00191265 -0.          0.          0.          0.44186265 -0.0709455  -0.025184
   0.2388016   0.        ]
 [-0.          0.          0.         -0.          0.         -0.40225296 -0.03736432  0.76219609  0.00095461  0.          0.         -0.         -0.
   0.00802205 -0.00229147  0.          0.          0.          0.00169106  0.01131637 -0.         -0.         -0.         -0.03844119 -0.22741426  0.44706633
   0.05088103  0.        ]
 [ 0.          0.         -0.         -0.         -0.         -0.03736432  0.40225296  0.00095461 -0.76219609  0.          0.         -0.         -0.
  -0.00229147 -0.00802205 -0.         -0.          0.         -0.01131637  0.00169106 -0.          0.         -0.          0.22741426 -0.03844119  0.05088103
  -0.44706633 -0.        ]
 [ 0.06890516 -0.04440103 -0.17670206  0.21062242 -0.08016594  0.          0.          0.          0.         -0.81716128 -0.02987365  0.04678365  0.03356787
   0.         -0.          0.          0.         -0.07361292  0.         -0.         -0.         -0.         -0.04074025  0.          0.          0.
   0.         -0.48190196]
 [-0.00357674  0.00690145  0.03148417  0.03069937 -0.01058609 -0.         -0.         -0.         -0.          0.00283275  0.03685644  0.0296099   0.87996726
  -0.         -0.          0.          0.          0.45294442 -0.          0.         -0.          0.         -0.12707616  0.          0.         -0.
  -0.          0.00112265]
 [ 0.         -0.          0.         -0.          0.          0.00020656  0.00313157  0.00026852  0.00169367  0.          0.         -0.         -0.
  -0.31572072 -0.6763769   0.          0.          0.          0.66471846  0.00674595  0.         -0.         -0.          0.0282396  -0.00025324  0.00051128
   0.0113132   0.        ]
 [ 0.         -0.         -0.          0.         -0.         -0.00313157  0.00020656 -0.00169367  0.00026852 -0.         -0.          0.         -0.
   0.6763769  -0.31572072  0.         -0.          0.          0.00674595 -0.66471846  0.          0.          0.         -0.00025324 -0.0282396  -0.0113132
   0.00051128 -0.        ]
 [-0.          0.          0.          0.          0.          0.          0.          0.          0.         -0.          0.          0.          0.
  -0.         -0.         -0.63253237 -0.32163038  0.         -0.         -0.         -0.0008954  -0.70459626 -0.          0.         -0.          0.
   0.         -0.        ]
 [ 0.         -0.          0.         -0.          0.         -0.         -0.          0.         -0.         -0.         -0.          0.          0.
   0.          0.         -0.32163038  0.63253237  0.         -0.         -0.          0.70459626 -0.0008954  -0.         -0.         -0.          0.
  -0.          0.        ]
 [ 0.         -0.          0.         -0.          0.         -0.          0.          0.         -0.         -0.          0.          0.          0.
  -0.          0.          0.31935913 -0.62806564  0.          0.         -0.          0.70960728 -0.00090177 -0.          0.         -0.          0.
  -0.          0.        ]
 [-0.          0.          0.         -0.         -0.         -0.          0.          0.          0.         -0.          0.         -0.          0.
  -0.         -0.         -0.62806564 -0.31935913 -0.          0.         -0.          0.00090177  0.70960728 -0.          0.         -0.          0.
   0.         -0.        ]
 [-0.         -0.          0.         -0.          0.          0.00007732  0.00198111 -0.00057696 -0.00440018  0.          0.         -0.         -0.
   0.26502037  0.60998234 -0.          0.          0.          0.74639214 -0.01247155 -0.          0.         -0.          0.01305277 -0.00046779 -0.00028048
  -0.01531936  0.        ]
 [-0.         -0.          0.          0.          0.         -0.00198111  0.00007732  0.00440018 -0.00057696  0.          0.         -0.          0.
  -0.60998234  0.26502037  0.          0.          0.         -0.01247155 -0.74639214 -0.          0.         -0.         -0.00046779 -0.01305277  0.01531936
  -0.00028048  0.        ]
 [-0.00227888 -0.00732257  0.03653511 -0.0352371  -0.00519012 -0.          0.         -0.          0.         -0.04242247  0.00966674 -0.01541575 -0.45695827
  -0.          0.         -0.         -0.          0.87775518 -0.          0.         -0.          0.         -0.03783961  0.          0.         -0.
   0.         -0.12045813]
 [ 0.03437697  0.18615261  0.58474318  0.5385261   0.05590378  0.         -0.          0.         -0.          0.00406959  0.4373932   0.33462382 -0.03963951
   0.          0.          0.          0.         -0.01561234  0.         -0.         -0.         -0.          0.15410117  0.          0.          0.
   0.         -0.01551028]
 [ 0.0738092  -0.25460569  0.51747366 -0.45583291 -0.03448723  0.         -0.          0.         -0.         -0.07489074  0.35175249 -0.48986164  0.03770636
   0.          0.          0.          0.         -0.07728154  0.         -0.         -0.         -0.         -0.02551846  0.         -0.          0.
   0.         -0.27500525]
 [ 0.00820046  0.01248538  0.05109942  0.02361876  0.501453    0.         -0.          0.         -0.         -0.05855218  0.07866842  0.05798401 -0.08720532
  -0.          0.         -0.         -0.         -0.0709755   0.         -0.         -0.         -0.         -0.8440473   0.         -0.         -0.
   0.          0.0843528 ]
 [-0.          0.         -0.          0.         -0.          0.43177708  0.11744937  0.23728059  0.04176206  0.         -0.          0.          0.
  -0.01532953  0.00161973 -0.         -0.          0.          0.00605325  0.01818686 -0.         -0.          0.         -0.25489191 -0.71960968 -0.38169353
  -0.11236149 -0.        ]
 [ 0.         -0.          0.         -0.          0.         -0.11744937  0.43177708 -0.04176206  0.23728059 -0.          0.         -0.         -0.
  -0.00161973 -0.01532953 -0.          0.         -0.          0.01818686 -0.00605325  0.         -0.         -0.         -0.71960968  0.25489191  0.11236149
  -0.38169353 -0.        ]
 [ 0.         -0.          0.         -0.          0.         -0.01433406 -0.23102795  0.06868727  0.44444033  0.          0.         -0.         -0.
  -0.00316579 -0.00685173 -0.         -0.          0.         -0.01269332 -0.00007933 -0.          0.         -0.          0.40339326 -0.00519032 -0.03144927
  -0.76171862 -0.        ]
 [-0.          0.         -0.          0.         -0.         -0.23102795  0.01433406  0.44444033 -0.06868727  0.         -0.          0.          0.
  -0.00685173  0.00316579 -0.         -0.         -0.          0.00007933 -0.01269332  0.          0.          0.          0.00519032  0.40339326 -0.76171862
   0.03144927 -0.        ]
 [ 0.02900794 -0.04676516  0.00745924  0.01987054 -0.04901896  0.         -0.          0.         -0.         -0.49310337  0.17970215 -0.24305927 -0.02446993
  -0.          0.          0.         -0.          0.07102432 -0.          0.         -0.          0.          0.08268341 -0.         -0.         -0.
  -0.          0.80443573]
 [ 0.02300335 -0.07541993 -0.3887086  -0.38984776 -0.09550147 -0.          0.         -0.          0.          0.00227525  0.66987705  0.48228962 -0.01330799
   0.         -0.          0.         -0.         -0.00620546  0.         -0.          0.         -0.          0.00516311  0.          0.          0.
   0.         -0.00071228]
 [ 0.00640291  0.09944157 -0.44052008  0.4432435   0.04483902 -0.         -0.         -0.         -0.          0.2280284   0.4368412  -0.58055223 -0.00696834
   0.          0.         -0.          0.          0.01095898 -0.          0.          0.          0.         -0.01442335 -0.          0.          0.
   0.         -0.1315003 ]]
grids:  [0.06237655 0.31939555 0.74529195 1.28265786 1.85893479 2.39630071 2.8221971  3.07921611] 
weights:  [0.15900941 0.34931531 0.49276925 0.56970235 0.56970235 0.49276925 0.34931531 0.15900941]
S = 0.0, Sz = 0.0
Wigner small d:  1
value : [1. 1. 1. 1. 1. 1. 1. 1.]
**** Start Cycle 1 ****
dm (ortho)
[[[ 0.67008269 -0.4576544  -0.05474902 ...  0.02374549 -0.01883022  0.00524133]
  [-0.4576544   0.31256971  0.03739259 ... -0.01621774  0.0128607  -0.00357973]
  [-0.05474902  0.03739259  0.00447326 ... -0.00194012  0.00153852 -0.00042824]
  ...
  [ 0.02374549 -0.01621774 -0.00194012 ...  0.00084146 -0.00066728  0.00018574]
  [-0.01883022  0.0128607   0.00153852 ... -0.00066728  0.00052915 -0.00014729]
  [ 0.00524133 -0.00357973 -0.00042824 ...  0.00018574 -0.00014729  0.000041  ]]

 [[ 0.67008269  0.4576544  -0.05474902 ... -0.02374549 -0.01883022 -0.00524133]
  [ 0.4576544   0.31256971 -0.03739259 ... -0.01621774 -0.0128607  -0.00357973]
  [-0.05474902 -0.03739259  0.00447326 ...  0.00194012  0.00153852  0.00042824]
  ...
  [-0.02374549 -0.01621774  0.00194012 ...  0.00084146  0.00066728  0.00018574]
  [-0.01883022 -0.0128607   0.00153852 ...  0.00066728  0.00052915  0.00014729]
  [-0.00524133 -0.00357973  0.00042824 ...  0.00018574  0.00014729  0.000041  ]]]
Fock (ortho)
 (array([[-0.23842375,  0.29130742,  0.13246153, -0.        , -0.        ,  0.        ,  0.        , -0.05954589, -0.01648865,  0.        , -0.        ,
         0.        , -0.        , -0.        ,  0.        ,  0.        ,  0.        ,  0.00629533,  0.1732705 ,  0.03579988, -0.07561401,  0.        ,
        -0.        , -0.        ,  0.        ,  0.00074159,  0.09241679, -0.01170626],
       [ 0.29130742, -0.04056629, -0.05062795,  0.        , -0.        , -0.        , -0.        ,  0.19685459,  0.00747393,  0.        , -0.        ,
         0.        , -0.        , -0.        ,  0.        ,  0.        ,  0.        , -0.02919201,  0.09055562,  0.34862336,  0.00662346, -0.        ,
         0.        ,  0.        , -0.        , -0.02359137, -0.01102805,  0.1544245 ],
       [ 0.13246153, -0.05062795,  1.43453904,  0.        ,  0.        , -0.        , -0.        , -0.05336294,  0.02284623, -0.        ,  0.        ,
        -0.        , -0.        , -0.        , -0.        , -0.        ,  0.        ,  0.00173542,  0.24379008, -0.01340695, -1.3240875 ,  0.        ,
        -0.        , -0.        ,  0.        ,  0.00305096, -0.0263612 , -0.00013099],
       [-0.        ,  0.        ,  0.        ,  1.56690605,  0.        ,  0.06320884,  0.0005216 ,  0.        , -0.        ,  0.00014194, -0.0009377 ,
        -0.        , -0.        , -0.        , -0.        ,  0.00011276, -0.00090927, -0.        , -0.        ,  0.        ,  0.        ,  1.33839347,
        -0.24523115, -0.0010931 , -0.00741644, -0.        ,  0.        ,  0.        ],
       [-0.        , -0.        ,  0.        ,  0.        ,  1.56690605, -0.0005216 ,  0.06320884, -0.        ,  0.        , -0.0009377 , -0.00014194,
        -0.        ,  0.        , -0.        , -0.        , -0.00090927, -0.00011276,  0.        , -0.        ,  0.        ,  0.        , -0.24523115,
        -1.33839347,  0.00741644, -0.0010931 ,  0.        ,  0.        , -0.        ],
       [ 0.        , -0.        , -0.        ,  0.06320884, -0.0005216 ,  1.60627275, -0.        , -0.        ,  0.        , -0.00001798,  0.00011252,
        -0.        , -0.        , -0.        , -0.        ,  0.00100794, -0.00761313,  0.        ,  0.        , -0.        , -0.        ,  0.00806022,
        -0.00140822, -0.20851191, -1.33806952,  0.        ,  0.        , -0.        ],
       [ 0.        , -0.        , -0.        ,  0.0005216 ,  0.06320884, -0.        ,  1.60627275,  0.        ,  0.        ,  0.00011252,  0.00001798,
         0.        , -0.        , -0.        ,  0.        , -0.00761313, -0.00100794, -0.        , -0.        , -0.        , -0.        , -0.00140822,
        -0.00806022,  1.33806952, -0.20851191,  0.        , -0.        ,  0.        ],
       [-0.05954589,  0.19685459, -0.05336294,  0.        , -0.        , -0.        ,  0.        ,  1.69044594, -0.00387429, -0.        , -0.        ,
        -0.        , -0.        , -0.        , -0.        , -0.        , -0.        , -0.00910192, -0.02558133,  0.46378912,  0.00913685, -0.        ,
         0.        ,  0.        , -0.        , -1.26481765,  0.00085944,  0.04315863],
       [-0.01648865,  0.00747393,  0.02284623, -0.        ,  0.        ,  0.        ,  0.        , -0.00387429,  3.43151188,  0.        ,  0.        ,
         0.        , -0.        ,  0.        ,  0.        ,  0.        , -0.        , -0.02572131, -0.13730486,  0.00286185,  0.04083057, -0.        ,
        -0.        ,  0.        ,  0.        ,  0.00125512,  0.03700707,  0.00039872],
       [ 0.        ,  0.        , -0.        ,  0.00014194, -0.0009377 , -0.00001798,  0.00011252, -0.        ,  0.        ,  3.44840919,  0.        ,
        -0.        , -0.        , -0.        ,  0.        , -0.02613394,  0.00070202,  0.        ,  0.        ,  0.        ,  0.        , -0.00469175,
        -0.01363295, -0.00008748, -0.00000034, -0.        ,  0.        , -0.        ],
       [-0.        , -0.        ,  0.        , -0.0009377 , -0.00014194,  0.00011252,  0.00001798, -0.        ,  0.        ,  0.        ,  3.44840919,
        -0.        , -0.        , -0.        , -0.        , -0.00070202, -0.02613394, -0.        ,  0.        ,  0.        ,  0.        ,  0.01363295,
        -0.00469175, -0.00000034,  0.00008748, -0.        , -0.        , -0.        ],
       [ 0.        ,  0.        , -0.        , -0.        , -0.        , -0.        ,  0.        , -0.        ,  0.        , -0.        , -0.        ,
         3.45006136,  0.        ,  0.        ,  0.0261807 ,  0.        , -0.        , -0.        ,  0.        ,  0.        ,  0.        , -0.        ,
        -0.        , -0.        , -0.        , -0.        , -0.        , -0.        ],
       [-0.        , -0.        , -0.        , -0.        ,  0.        , -0.        , -0.        , -0.        , -0.        , -0.        , -0.        ,
         0.        ,  3.45006136, -0.0261807 ,  0.        ,  0.        ,  0.        ,  0.        , -0.        , -0.        , -0.        ,  0.        ,
         0.        ,  0.        , -0.        , -0.        , -0.        ,  0.        ],
       [-0.        , -0.        , -0.        , -0.        , -0.        , -0.        , -0.        , -0.        ,  0.        , -0.        , -0.        ,
         0.        , -0.0261807 ,  3.45032258,  0.        ,  0.        ,  0.        ,  0.        , -0.        , -0.        , -0.        , -0.        ,
         0.        ,  0.        , -0.        , -0.        , -0.        ,  0.        ],
       [ 0.        ,  0.        , -0.        , -0.        , -0.        , -0.        ,  0.        , -0.        ,  0.        ,  0.        , -0.        ,
         0.0261807 ,  0.        ,  0.        ,  3.45032258, -0.        , -0.        , -0.        ,  0.        ,  0.        ,  0.        , -0.        ,
        -0.        , -0.        , -0.        , -0.        , -0.        , -0.        ],
       [ 0.        ,  0.        , -0.        ,  0.00011276, -0.00090927,  0.00100794, -0.00761313, -0.        ,  0.        , -0.02613394, -0.00070202,
         0.        ,  0.        ,  0.        , -0.        ,  3.45276934, -0.        ,  0.        ,  0.        ,  0.        ,  0.        ,  0.00003955,
         0.00012581,  0.01453462, -0.00033373, -0.        ,  0.        , -0.        ],
       [ 0.        ,  0.        ,  0.        , -0.00090927, -0.00011276, -0.00761313, -0.00100794, -0.        , -0.        ,  0.00070202, -0.02613394,
        -0.        ,  0.        ,  0.        , -0.        , -0.        ,  3.45276934, -0.        ,  0.        , -0.        , -0.        , -0.00012581,
         0.00003955, -0.00033373, -0.01453462,  0.        ,  0.        ,  0.        ],
       [ 0.00629533, -0.02919201,  0.00173542, -0.        ,  0.        ,  0.        , -0.        , -0.00910192, -0.02572131,  0.        , -0.        ,
        -0.        ,  0.        ,  0.        , -0.        ,  0.        , -0.        ,  3.45722724,  0.00497339, -0.10838013, -0.00068423,  0.        ,
         0.        ,  0.        , -0.        , -0.11935052,  0.00028429,  0.12126092],
       [ 0.1732705 ,  0.09055562,  0.24379008, -0.        , -0.        ,  0.        , -0.        , -0.02558133, -0.13730486,  0.        ,  0.        ,
         0.        , -0.        , -0.        ,  0.        ,  0.        ,  0.        ,  0.00497339,  1.14377192,  0.05474571, -0.31276024, -0.        ,
        -0.        , -0.        ,  0.        ,  0.01979934,  0.96828843,  0.01223485],
       [ 0.03579988,  0.34862336, -0.01340695,  0.        ,  0.        , -0.        , -0.        ,  0.46378912,  0.00286185,  0.        ,  0.        ,
         0.        , -0.        , -0.        ,  0.        ,  0.        , -0.        , -0.10838013,  0.05474571,  1.47538483,  0.01606974,  0.        ,
        -0.        , -0.        ,  0.        , -0.43223628,  0.01959981,  1.06872884],
       [-0.07561401,  0.00662346, -1.3240875 ,  0.        ,  0.        , -0.        , -0.        ,  0.00913685,  0.04083057,  0.        ,  0.        ,
         0.        , -0.        , -0.        ,  0.        ,  0.        , -0.        , -0.00068423, -0.31276024,  0.01606974,  2.97101959, -0.        ,
         0.        ,  0.        ,  0.        , -0.01705989,  0.14927499,  0.00393431],
       [ 0.        , -0.        ,  0.        ,  1.33839347, -0.24523115,  0.00806022, -0.00140822, -0.        , -0.        , -0.00469175,  0.01363295,
        -0.        ,  0.        , -0.        , -0.        ,  0.00003955, -0.00012581,  0.        , -0.        ,  0.        , -0.        ,  3.05027504,
        -0.        , -0.00726749, -0.02138796,  0.        , -0.        ,  0.        ],
       [-0.        ,  0.        , -0.        , -0.24523115, -1.33839347, -0.00140822, -0.00806022,  0.        , -0.        , -0.01363295, -0.00469175,
        -0.        ,  0.        ,  0.        , -0.        ,  0.00012581,  0.00003955,  0.        , -0.        , -0.        ,  0.        , -0.        ,
         3.05027504, -0.02138796,  0.00726749, -0.        ,  0.        ,  0.        ],
       [-0.        ,  0.        , -0.        , -0.0010931 ,  0.00741644, -0.20851191,  1.33806952,  0.        ,  0.        , -0.00008748, -0.00000034,
        -0.        ,  0.        ,  0.        , -0.        ,  0.01453462, -0.00033373,  0.        , -0.        , -0.        ,  0.        , -0.00726749,
        -0.02138796,  3.10183714, -0.        , -0.        ,  0.        ,  0.        ],
       [ 0.        , -0.        ,  0.        , -0.00741644, -0.0010931 , -1.33806952, -0.20851191, -0.        ,  0.        , -0.00000034,  0.00008748,
        -0.        , -0.        , -0.        , -0.        , -0.00033373, -0.01453462, -0.        ,  0.        ,  0.        ,  0.        , -0.02138796,
         0.00726749, -0.        ,  3.10183714, -0.        , -0.        ,  0.        ],
       [ 0.00074159, -0.02359137,  0.00305096, -0.        ,  0.        ,  0.        ,  0.        , -1.26481765,  0.00125512, -0.        , -0.        ,
        -0.        , -0.        , -0.        , -0.        , -0.        ,  0.        , -0.11935052,  0.01979934, -0.43223628, -0.01705989,  0.        ,
        -0.        , -0.        , -0.        ,  3.16180905,  0.00957852,  0.02019211],
       [ 0.09241679, -0.01102805, -0.0263612 ,  0.        ,  0.        ,  0.        , -0.        ,  0.00085944,  0.03700707,  0.        , -0.        ,
        -0.        , -0.        , -0.        , -0.        ,  0.        ,  0.        ,  0.00028429,  0.96828843,  0.01959981,  0.14927499, -0.        ,
         0.        ,  0.        , -0.        ,  0.00957852,  1.8447227 ,  0.01782881],
       [-0.01170626,  0.1544245 , -0.00013099,  0.        , -0.        , -0.        ,  0.        ,  0.04315863,  0.00039872, -0.        , -0.        ,
        -0.        ,  0.        ,  0.        , -0.        , -0.        ,  0.        ,  0.12126092,  0.01223485,  1.06872884,  0.00393431,  0.        ,
         0.        ,  0.        ,  0.        ,  0.02019211,  0.01782881,  1.62300739]]), array([[-0.23842375, -0.29130742,  0.13246153, -0.        ,  0.        ,  0.        ,  0.        ,  0.05954589, -0.01648865,  0.        ,  0.        ,
        -0.        , -0.        , -0.        , -0.        , -0.        , -0.        , -0.00629533,  0.1732705 , -0.03579988, -0.07561401,  0.        ,
        -0.        , -0.        ,  0.        , -0.00074159,  0.09241679,  0.01170626],
       [-0.29130742, -0.04056629,  0.05062795,  0.        , -0.        , -0.        , -0.        ,  0.19685459, -0.00747393,  0.        ,  0.        ,
        -0.        , -0.        , -0.        , -0.        ,  0.        , -0.        , -0.02919201, -0.09055562,  0.34862336, -0.00662346, -0.        ,
         0.        ,  0.        , -0.        , -0.02359137,  0.01102805,  0.1544245 ],
       [ 0.13246153,  0.05062795,  1.43453904,  0.        ,  0.        , -0.        , -0.        ,  0.05336294,  0.02284623, -0.        ,  0.        ,
         0.        , -0.        , -0.        ,  0.        , -0.        ,  0.        , -0.00173542,  0.24379008,  0.01340695, -1.3240875 ,  0.        ,
        -0.        , -0.        ,  0.        , -0.00305096, -0.0263612 ,  0.00013099],
       [-0.        ,  0.        ,  0.        ,  1.56690605, -0.        , -0.06320884, -0.0005216 ,  0.        , -0.        ,  0.00014194, -0.0009377 ,
         0.        ,  0.        ,  0.        ,  0.        , -0.00011276,  0.00090927, -0.        , -0.        ,  0.        ,  0.        ,  1.33839347,
        -0.24523115,  0.0010931 ,  0.00741644, -0.        ,  0.        ,  0.        ],
       [ 0.        , -0.        ,  0.        , -0.        ,  1.56690605,  0.0005216 , -0.06320884, -0.        ,  0.        , -0.0009377 , -0.00014194,
        -0.        ,  0.        ,  0.        , -0.        ,  0.00090927,  0.00011276,  0.        ,  0.        ,  0.        ,  0.        , -0.24523115,
        -1.33839347, -0.00741644,  0.0010931 ,  0.        ,  0.        , -0.        ],
       [ 0.        , -0.        , -0.        , -0.06320884,  0.0005216 ,  1.60627275,  0.        ,  0.        ,  0.        ,  0.00001798, -0.00011252,
        -0.        , -0.        , -0.        , -0.        ,  0.00100794, -0.00761313,  0.        ,  0.        , -0.        , -0.        , -0.00806022,
         0.00140822, -0.20851191, -1.33806952,  0.        ,  0.        , -0.        ],
       [ 0.        , -0.        , -0.        , -0.0005216 , -0.06320884,  0.        ,  1.60627275,  0.        ,  0.        , -0.00011252, -0.00001798,
         0.        , -0.        , -0.        ,  0.        , -0.00761313, -0.00100794, -0.        , -0.        , -0.        , -0.        ,  0.00140822,
         0.00806022,  1.33806952, -0.20851191, -0.        , -0.        ,  0.        ],
       [ 0.05954589,  0.19685459,  0.05336294,  0.        , -0.        ,  0.        ,  0.        ,  1.69044594,  0.00387429, -0.        ,  0.        ,
         0.        , -0.        , -0.        ,  0.        , -0.        , -0.        , -0.00910192,  0.02558133,  0.46378912, -0.00913685, -0.        ,
         0.        ,  0.        , -0.        , -1.26481765, -0.00085944,  0.04315863],
       [-0.01648865, -0.00747393,  0.02284623, -0.        ,  0.        ,  0.        ,  0.        ,  0.00387429,  3.43151188,  0.        ,  0.        ,
        -0.        , -0.        ,  0.        , -0.        ,  0.        , -0.        ,  0.02572131, -0.13730486, -0.00286185,  0.04083057, -0.        ,
        -0.        ,  0.        ,  0.        , -0.00125512,  0.03700707, -0.00039872],
       [ 0.        ,  0.        , -0.        ,  0.00014194, -0.0009377 ,  0.00001798, -0.00011252, -0.        ,  0.        ,  3.44840919, -0.        ,
         0.        ,  0.        ,  0.        , -0.        ,  0.02613394, -0.00070202,  0.        ,  0.        ,  0.        ,  0.        , -0.00469175,
        -0.01363295,  0.00008748,  0.00000034, -0.        ,  0.        , -0.        ],
       [ 0.        ,  0.        ,  0.        , -0.0009377 , -0.00014194, -0.00011252, -0.00001798,  0.        ,  0.        , -0.        ,  3.44840919,
         0.        ,  0.        ,  0.        ,  0.        ,  0.00070202,  0.02613394,  0.        ,  0.        ,  0.        ,  0.        ,  0.01363295,
        -0.00469175,  0.00000034, -0.00008748, -0.        , -0.        , -0.        ],
       [-0.        , -0.        ,  0.        ,  0.        , -0.        , -0.        ,  0.        ,  0.        , -0.        ,  0.        ,  0.        ,
         3.45006136, -0.        , -0.        , -0.0261807 , -0.        ,  0.        , -0.        , -0.        , -0.        , -0.        , -0.        ,
        -0.        , -0.        , -0.        ,  0.        ,  0.        ,  0.        ],
       [-0.        , -0.        , -0.        ,  0.        ,  0.        , -0.        , -0.        , -0.        , -0.        ,  0.        ,  0.        ,
        -0.        ,  3.45006136,  0.0261807 , -0.        , -0.        , -0.        ,  0.        , -0.        , -0.        , -0.        ,  0.        ,
         0.        ,  0.        , -0.        , -0.        , -0.        ,  0.        ],
       [-0.        , -0.        , -0.        ,  0.        ,  0.        , -0.        , -0.        , -0.        ,  0.        ,  0.        ,  0.        ,
        -0.        ,  0.0261807 ,  3.45032258, -0.        , -0.        , -0.        ,  0.        , -0.        , -0.        , -0.        , -0.        ,
         0.        ,  0.        , -0.        , -0.        , -0.        ,  0.        ],
       [-0.        , -0.        ,  0.        ,  0.        , -0.        , -0.        ,  0.        ,  0.        , -0.        , -0.        ,  0.        ,
        -0.0261807 , -0.        , -0.        ,  3.45032258,  0.        ,  0.        ,  0.        , -0.        , -0.        , -0.        , -0.        ,
        -0.        , -0.        , -0.        , -0.        ,  0.        ,  0.        ],
       [-0.        ,  0.        , -0.        , -0.00011276,  0.00090927,  0.00100794, -0.00761313, -0.        ,  0.        ,  0.02613394,  0.00070202,
        -0.        , -0.        , -0.        ,  0.        ,  3.45276934,  0.        ,  0.        ,  0.        ,  0.        ,  0.        , -0.00003955,
        -0.00012581,  0.01453462, -0.00033373, -0.        ,  0.        , -0.        ],
       [-0.        , -0.        ,  0.        ,  0.00090927,  0.00011276, -0.00761313, -0.00100794, -0.        , -0.        , -0.00070202,  0.02613394,
         0.        , -0.        , -0.        ,  0.        ,  0.        ,  3.45276934, -0.        , -0.        , -0.        , -0.        ,  0.00012581,
        -0.00003955, -0.00033373, -0.01453462,  0.        ,  0.        ,  0.        ],
       [-0.00629533, -0.02919201, -0.00173542, -0.        ,  0.        ,  0.        , -0.        , -0.00910192,  0.02572131,  0.        ,  0.        ,
        -0.        ,  0.        ,  0.        ,  0.        ,  0.        , -0.        ,  3.45722724, -0.00497339, -0.10838013,  0.00068423,  0.        ,
         0.        ,  0.        , -0.        , -0.11935052, -0.00028429,  0.12126092],
       [ 0.1732705 , -0.09055562,  0.24379008, -0.        ,  0.        ,  0.        , -0.        ,  0.02558133, -0.13730486,  0.        ,  0.        ,
        -0.        , -0.        , -0.        , -0.        ,  0.        , -0.        , -0.00497339,  1.14377192, -0.05474571, -0.31276024, -0.        ,
        -0.        , -0.        ,  0.        , -0.01979934,  0.96828843, -0.01223485],
       [-0.03579988,  0.34862336,  0.01340695,  0.        ,  0.        , -0.        , -0.        ,  0.46378912, -0.00286185,  0.        ,  0.        ,
        -0.        , -0.        , -0.        , -0.        ,  0.        , -0.        , -0.10838013, -0.05474571,  1.47538483, -0.01606974,  0.        ,
        -0.        , -0.        ,  0.        , -0.43223628, -0.01959981,  1.06872884],
       [-0.07561401, -0.00662346, -1.3240875 ,  0.        ,  0.        , -0.        , -0.        , -0.00913685,  0.04083057,  0.        ,  0.        ,
        -0.        , -0.        , -0.        , -0.        ,  0.        , -0.        ,  0.00068423, -0.31276024, -0.01606974,  2.97101959,  0.        ,
         0.        ,  0.        ,  0.        ,  0.01705989,  0.14927499, -0.00393431],
       [ 0.        , -0.        ,  0.        ,  1.33839347, -0.24523115, -0.00806022,  0.00140822, -0.        , -0.        , -0.00469175,  0.01363295,
        -0.        ,  0.        , -0.        , -0.        , -0.00003955,  0.00012581,  0.        , -0.        ,  0.        ,  0.        ,  3.05027504,
         0.        ,  0.00726749,  0.02138796, -0.        , -0.        ,  0.        ],
       [-0.        ,  0.        , -0.        , -0.24523115, -1.33839347,  0.00140822,  0.00806022,  0.        , -0.        , -0.01363295, -0.00469175,
        -0.        ,  0.        ,  0.        , -0.        , -0.00012581, -0.00003955,  0.        , -0.        , -0.        ,  0.        ,  0.        ,
         3.05027504,  0.02138796, -0.00726749, -0.        ,  0.        ,  0.        ],
       [-0.        ,  0.        , -0.        ,  0.0010931 , -0.00741644, -0.20851191,  1.33806952,  0.        ,  0.        ,  0.00008748,  0.00000034,
        -0.        ,  0.        ,  0.        , -0.        ,  0.01453462, -0.00033373,  0.        , -0.        , -0.        ,  0.        ,  0.00726749,
         0.02138796,  3.10183714, -0.        , -0.        ,  0.        ,  0.        ],
       [ 0.        , -0.        ,  0.        ,  0.00741644,  0.0010931 , -1.33806952, -0.20851191, -0.        ,  0.        ,  0.00000034, -0.00008748,
        -0.        , -0.        , -0.        , -0.        , -0.00033373, -0.01453462, -0.        ,  0.        ,  0.        ,  0.        ,  0.02138796,
        -0.00726749, -0.        ,  3.10183714, -0.        , -0.        ,  0.        ],
       [-0.00074159, -0.02359137, -0.00305096, -0.        ,  0.        ,  0.        , -0.        , -1.26481765, -0.00125512, -0.        , -0.        ,
         0.        , -0.        , -0.        , -0.        , -0.        ,  0.        , -0.11935052, -0.01979934, -0.43223628,  0.01705989, -0.        ,
        -0.        , -0.        , -0.        ,  3.16180905, -0.00957852,  0.02019211],
       [ 0.09241679,  0.01102805, -0.0263612 ,  0.        ,  0.        ,  0.        , -0.        , -0.00085944,  0.03700707,  0.        , -0.        ,
         0.        , -0.        , -0.        ,  0.        ,  0.        ,  0.        , -0.00028429,  0.96828843, -0.01959981,  0.14927499, -0.        ,
         0.        ,  0.        , -0.        , -0.00957852,  1.8447227 , -0.01782881],
       [ 0.01170626,  0.1544245 ,  0.00013099,  0.        , -0.        , -0.        ,  0.        ,  0.04315863, -0.00039872, -0.        , -0.        ,
         0.        ,  0.        ,  0.        ,  0.        , -0.        ,  0.        ,  0.12126092, -0.01223485,  1.06872884, -0.00393431,  0.        ,
         0.        ,  0.        ,  0.        ,  0.02019211, -0.01782881,  1.62300739]]))
E(UHF) =    -1.203921
NO eigenvalue
[-1. -0. -0. -0. -0. -0. -0. -0. -0. -0. -0. -0. -0.  0.  0.  0.  0.  0.  0.  0.  0.  0.  0.  0.  0.  0.  0.  0.] [-1. -0. -0. -0. -0. -0. -0. -0. -0. -0. -0. -0. -0. -0.  0.  0.  0.  0.  0.  0.  0.  0.  0.  0.  0.  0.  0.  0.]
NO vec
[[ 0.81858579  0.         -0.55801439 ...  0.          0.          0.        ]
 [-0.55907934  0.         -0.82304276 ...  0.          0.          0.        ]
 [-0.06688245  0.         -0.02189563 ...  0.          0.          0.        ]
 ...
 [ 0.         -0.02900794  0.         ...  0.49873633 -0.37093296 -0.01589158]
 [ 0.         -0.02300335  0.         ...  0.00791194 -0.16468814 -0.03274213]
 [ 0.         -0.00640291  0.         ...  0.08371593 -0.0645029  -0.00593854]]
dm(NO)
[[ 1.  0.  0. ...  0.  0.  0.]
 [ 0.  1.  0. ...  0.  0. -0.]
 [ 0.  0.  0. ...  0.  0.  0.]
 ...
 [ 0.  0.  0. ... -0. -0.  0.]
 [ 0. -0.  0. ...  0. -0.  0.]
 [ 0.  0.  0. ...  0. -0.  0.]]
D(g) (NO)
[[ 0.99951369  0.01099813  0.         ... -0.00139857  0.00136938 -0.02886573]
 [-0.01099813  0.99951369  0.02851903 ... -0.          0.         -0.        ]
 [ 0.         -0.02851903  0.99951369 ... -0.00034106  0.00555002 -0.01052733]
 ...
 [ 0.00139857  0.          0.00034106 ...  0.99951369 -0.          0.        ]
 [-0.00136938  0.         -0.00555002 ...  0.          0.99951369  0.        ]
 [ 0.02886573  0.          0.01052733 ...  0.          0.          0.99951369]]
...
N(g) (NO)
[[ 1.00036543 -0.0110075 ]
 [ 0.0110075   1.00036543]]
...
P(g) (NO)
[[ 1.          0.          0.         ...  0.          0.         -0.        ]
 [ 0.          1.          0.         ...  0.          0.         -0.        ]
 [-0.00031392 -0.02852946 -0.         ... -0.         -0.          0.        ]
 ...
 [ 0.00139908 -0.00001539  0.         ... -0.         -0.          0.        ]
 [-0.00136989  0.00001507 -0.         ...  0.          0.         -0.        ]
 [ 0.02887628 -0.00031774  0.         ... -0.         -0.          0.        ]]
...
Pg_ortho
[[ 0.67023158 -0.45775608 -0.05476118 ... -0.00047948 -0.00038023 -0.00010584]
 [-0.45744191  0.31242458  0.03737523 ... -0.00068434 -0.00054268 -0.00015105]
 [-0.05476118  0.0374009   0.00447426 ...  0.00003918  0.00003107  0.00000865]
 ...
 [-0.00100198  0.00068434  0.00008187 ...  0.00084107  0.00066697  0.00018565]
 [ 0.00038023 -0.00025969 -0.00003107 ...  0.00066743  0.00052927  0.00014732]
 [-0.00022117  0.00015105  0.00001807 ...  0.00018565  0.00014722  0.00004098]]
G(g) (NO)
[[ 0.2333795  -0.00180714 -0.06432804 ...  0.0000244   0.00008077 -0.0006492 ]
 [ 0.00180714  0.2333795   0.00069538 ...  0.00562075 -0.00893656 -0.06603772]
 [-0.06426219  0.01686656  0.79980604 ...  0.00035989 -0.00038908  0.00177117]
 ...
 [ 0.00309135  0.0056191   0.00068111 ...  0.73301077  0.02443097 -0.15540407]
 [ 0.00306678 -0.00893319  0.00151061 ...  0.02442927  0.83636664 -0.05827288]
 [-0.01740757 -0.0659703  -0.0023222  ... -0.15540752 -0.05827968  0.82806334]]
...
C(NO)
[[-1.          0.         -0.         ...  0.          0.          0.        ]
 [ 0.         -1.          0.         ...  0.          0.          0.        ]
 [-0.          0.          0.94414788 ...  0.          0.          0.        ]
 ...
 [ 0.         -0.          0.         ... -0.         -0.          0.45999387]
 [ 0.          0.          0.         ... -0.          0.          0.05619724]
 [ 0.          0.          0.         ... -0.         -0.          0.0246311 ]]
detC 0.9999999999999998
detNg [1.00085216 1.0226431  1.13130634 1.45643894 2.28421711 4.15871192 6.82432236 7.98438989]
xg [0.99914857 0.97785825 0.88393388 0.68660619 0.43778676 0.24045907 0.1465347  0.12524438]
ciS 1.124392950595058
[[-0.71864013  0.          0.02832033 ...  0.          0.          0.        ]
 [ 0.         -0.71864013  0.         ... -0.0002144   0.00793315  0.0291633 ]
 [ 0.02832033  0.         -0.62236963 ...  0.          0.          0.        ]
 ...
 [ 0.         -0.0002144   0.         ...  0.91949918 -0.06809138 -0.0391362 ]
 [ 0.          0.00793315  0.         ... -0.06809138  0.59568315  0.06076742]
 [ 0.          0.0291633   0.         ... -0.0391362   0.06076742 -0.66782692]]
ciH -1.350531313509558
S2 = 0.000000
X(g)
[[ 2.          0.         -0.00031392 ... -0.00139908  0.00136989 -0.02887628]
 [ 0.          2.          0.02852946 ... -0.00001539  0.00001507 -0.00031774]
 [-0.00031392 -0.02852946  0.         ...  0.          0.          0.        ]
 ...
 [ 0.00139908 -0.00001539  0.         ...  0.          0.          0.        ]
 [-0.00136989  0.00001507  0.         ...  0.          0.          0.        ]
 [ 0.02887628 -0.00031774  0.         ...  0.          0.          0.        ]]
X(g) int
[[ 2.          0.         -0.28687564 ... -0.03132818  0.03067442 -0.64659661]
 [ 0.          2.          0.63883053 ... -0.01406835  0.01377477 -0.2903631 ]
 [-0.28687564 -0.63883053  0.         ...  0.          0.          0.        ]
 ...
 [ 0.03132818 -0.01406835  0.         ...  0.          0.          0.        ]
 [-0.03067442  0.01377477  0.         ...  0.          0.          0.        ]
 [ 0.64659661 -0.2903631   0.         ...  0.          0.          0.        ]]
Hsp + Hph =  -1.2011204026090894
Feff (mod,ortho)
[[-0.21314664  0.30091595  0.13043345 ...  0.          0.          0.        ]
 [ 0.30091595 -0.06548206 -0.05143841 ...  0.          0.          0.        ]
 [ 0.13043345 -0.05143841  1.43470171 ...  0.          0.          0.        ]
 ...
 [ 0.          0.          0.         ...  3.16186863 -0.00949136  0.02014943]
 [ 0.          0.          0.         ... -0.00949136  1.84482346 -0.01785385]
 [ 0.          0.          0.         ...  0.02014943 -0.01785385  1.62298565]]
E(SUHF) =     -0.98944952
e_a, e_b
[-0.49201769  0.05191693  0.37030108  0.49500764  0.67032939  0.73107118  0.73107118  0.83452627  0.83452627  0.9900186   2.48050849  2.60245314  3.41984921
  3.42401095  3.42401095  3.4241939   3.4241939   3.47491311  3.47637299  3.47637299  3.47655368  3.47655368  3.79909599  3.83480671  3.83480671  3.92531775
  3.92531775  4.09207364] [-0.49201769  0.05191693  0.37030108  0.49500764  0.67032939  0.73107118  0.73107118  0.83452627  0.83452627  0.9900186   2.48050849  2.60245314  3.41984921
  3.42401095  3.42401095  3.4241939   3.4241939   3.47491311  3.47637299  3.47637299  3.47655368  3.47655368  3.79909599  3.83480671  3.83480671  3.92531775
  3.92531775  4.09207364]
P_a, P_b
[[ 0.57045898 -0.48298483 -0.05249183  0.          0.         -0.         -0.          0.06138697  0.00281197  0.          0.         -0.         -0.
  -0.         -0.         -0.         -0.         -0.00228862 -0.0266046   0.0596608  -0.00901985 -0.          0.          0.          0.          0.0249425
  -0.01387842  0.00780872]
 [-0.48298483  0.40892396  0.04444274 -0.         -0.          0.          0.         -0.05197389 -0.00238078 -0.         -0.          0.          0.
   0.          0.          0.          0.          0.00193769  0.02252505 -0.05051242  0.00763674  0.         -0.         -0.         -0.         -0.02111782
   0.01175031 -0.00661133]
 [-0.05249183  0.04444274  0.00483013 -0.         -0.          0.          0.         -0.00564863 -0.00025875 -0.         -0.          0.          0.
   0.          0.          0.          0.          0.00021059  0.00244807 -0.0054898   0.00082998  0.         -0.         -0.         -0.         -0.00229513
   0.00127705 -0.00071853]
 [ 0.         -0.         -0.          0.          0.         -0.         -0.          0.          0.          0.          0.         -0.         -0.
  -0.         -0.         -0.         -0.         -0.         -0.          0.         -0.         -0.          0.          0.          0.          0.
  -0.          0.        ]
 [ 0.         -0.         -0.          0.          0.         -0.         -0.          0.          0.          0.          0.         -0.         -0.
  -0.         -0.         -0.         -0.         -0.         -0.          0.         -0.         -0.          0.          0.          0.          0.
  -0.          0.        ]
 [-0.          0.          0.         -0.         -0.          0.          0.         -0.         -0.         -0.         -0.          0.          0.
   0.          0.          0.          0.          0.          0.         -0.          0.          0.         -0.         -0.         -0.         -0.
   0.         -0.        ]
 [-0.          0.          0.         -0.         -0.          0.          0.         -0.         -0.         -0.         -0.          0.          0.
   0.          0.          0.          0.          0.          0.         -0.          0.          0.         -0.         -0.         -0.         -0.
   0.         -0.        ]
 [ 0.06138697 -0.05197389 -0.00564863  0.          0.         -0.         -0.          0.00660584  0.0003026   0.          0.         -0.         -0.
  -0.         -0.         -0.         -0.         -0.00024628 -0.00286292  0.00642009 -0.00097062 -0.          0.          0.          0.          0.00268406
  -0.00149345  0.00084029]
 [ 0.00281197 -0.00238078 -0.00025875  0.          0.         -0.         -0.          0.0003026   0.00001386  0.          0.         -0.         -0.
  -0.         -0.         -0.         -0.         -0.00001128 -0.00013114  0.00029409 -0.00004446 -0.          0.          0.          0.          0.00012295
  -0.00006841  0.00003849]
 [ 0.         -0.         -0.          0.          0.         -0.         -0.          0.          0.          0.          0.         -0.         -0.
  -0.         -0.         -0.         -0.         -0.         -0.          0.         -0.         -0.          0.          0.          0.          0.
  -0.          0.        ]
 [ 0.         -0.         -0.          0.          0.         -0.         -0.          0.          0.          0.          0.         -0.         -0.
  -0.         -0.         -0.         -0.         -0.         -0.          0.         -0.         -0.          0.          0.          0.          0.
  -0.          0.        ]
 [-0.          0.          0.         -0.         -0.          0.          0.         -0.         -0.         -0.         -0.          0.          0.
   0.          0.          0.          0.          0.          0.         -0.          0.          0.         -0.         -0.         -0.         -0.
   0.         -0.        ]
 [-0.          0.          0.         -0.         -0.          0.          0.         -0.         -0.         -0.         -0.          0.          0.
   0.          0.          0.          0.          0.          0.         -0.          0.          0.         -0.         -0.         -0.         -0.
   0.         -0.        ]
 [-0.          0.          0.         -0.         -0.          0.          0.         -0.         -0.         -0.         -0.          0.          0.
   0.          0.          0.          0.          0.          0.         -0.          0.          0.         -0.         -0.         -0.         -0.
   0.         -0.        ]
 [-0.          0.          0.         -0.         -0.          0.          0.         -0.         -0.         -0.         -0.          0.          0.
   0.          0.          0.          0.          0.          0.         -0.          0.          0.         -0.         -0.         -0.         -0.
   0.         -0.        ]
 [-0.          0.          0.         -0.         -0.          0.          0.         -0.         -0.         -0.         -0.          0.          0.
   0.          0.          0.          0.          0.          0.         -0.          0.          0.         -0.         -0.         -0.         -0.
   0.         -0.        ]
 [-0.          0.          0.         -0.         -0.          0.          0.         -0.         -0.         -0.         -0.          0.          0.
   0.          0.          0.          0.          0.          0.         -0.          0.          0.         -0.         -0.         -0.         -0.
   0.         -0.        ]
 [-0.00228862  0.00193769  0.00021059 -0.         -0.          0.          0.         -0.00024628 -0.00001128 -0.         -0.          0.          0.
   0.          0.          0.          0.          0.00000918  0.00010673 -0.00023935  0.00003619  0.         -0.         -0.         -0.         -0.00010007
   0.00005568 -0.00003133]
 [-0.0266046   0.02252505  0.00244807 -0.         -0.          0.          0.         -0.00286292 -0.00013114 -0.         -0.          0.          0.
   0.          0.          0.          0.          0.00010673  0.00124076 -0.00278241  0.00042066  0.         -0.         -0.         -0.         -0.00116325
   0.00064725 -0.00036418]
 [ 0.0596608  -0.05051242 -0.0054898   0.          0.         -0.         -0.          0.00642009  0.00029409  0.          0.         -0.         -0.
  -0.         -0.         -0.         -0.         -0.00023935 -0.00278241  0.00623956 -0.00094333 -0.          0.          0.          0.          0.00260858
  -0.00145146  0.00081667]
 [-0.00901985  0.00763674  0.00082998 -0.         -0.          0.          0.         -0.00097062 -0.00004446 -0.         -0.          0.          0.
   0.          0.          0.          0.          0.00003619  0.00042066 -0.00094333  0.00014262  0.         -0.         -0.         -0.         -0.00039438
   0.00021944 -0.00012347]
 [-0.          0.          0.         -0.         -0.          0.          0.         -0.         -0.         -0.         -0.          0.          0.
   0.          0.          0.          0.          0.          0.         -0.          0.          0.         -0.         -0.         -0.         -0.
   0.         -0.        ]
 [ 0.         -0.         -0.          0.          0.         -0.         -0.          0.          0.          0.          0.         -0.         -0.
  -0.         -0.         -0.         -0.         -0.         -0.          0.         -0.         -0.          0.          0.          0.          0.
  -0.          0.        ]
 [ 0.         -0.         -0.          0.          0.         -0.         -0.          0.          0.          0.          0.         -0.         -0.
  -0.         -0.         -0.         -0.         -0.         -0.          0.         -0.         -0.          0.          0.          0.          0.
  -0.          0.        ]
 [ 0.         -0.         -0.          0.          0.         -0.         -0.          0.          0.          0.          0.         -0.         -0.
  -0.         -0.         -0.         -0.         -0.         -0.          0.         -0.         -0.          0.          0.          0.          0.
  -0.          0.        ]
 [ 0.0249425  -0.02111782 -0.00229513  0.          0.         -0.         -0.          0.00268406  0.00012295  0.          0.         -0.         -0.
  -0.         -0.         -0.         -0.         -0.00010007 -0.00116325  0.00260858 -0.00039438 -0.          0.          0.          0.          0.00109058
  -0.00060681  0.00034143]
 [-0.01387842  0.01175031  0.00127705 -0.         -0.          0.          0.         -0.00149345 -0.00006841 -0.         -0.          0.          0.
   0.          0.          0.          0.          0.00005568  0.00064725 -0.00145146  0.00021944  0.         -0.         -0.         -0.         -0.00060681
   0.00033764 -0.00018997]
 [ 0.00780872 -0.00661133 -0.00071853  0.          0.         -0.         -0.          0.00084029  0.00003849  0.          0.         -0.         -0.
  -0.         -0.         -0.         -0.         -0.00003133 -0.00036418  0.00081667 -0.00012347 -0.          0.          0.          0.          0.00034143
  -0.00018997  0.00010689]] 
 [[ 0.57045898  0.48298483 -0.05249183  0.          0.          0.         -0.         -0.06138697  0.00281197 -0.         -0.          0.         -0.
  -0.          0.          0.          0.          0.00228862 -0.0266046  -0.0596608  -0.00901985  0.         -0.         -0.          0.         -0.0249425
  -0.01387842 -0.00780872]
 [ 0.48298483  0.40892396 -0.04444274  0.          0.          0.         -0.         -0.05197389  0.00238078 -0.         -0.          0.         -0.
  -0.          0.          0.          0.          0.00193769 -0.02252505 -0.05051242 -0.00763674  0.         -0.         -0.          0.         -0.02111782
  -0.01175031 -0.00661133]
 [-0.05249183 -0.04444274  0.00483013 -0.         -0.         -0.          0.          0.00564863 -0.00025875  0.          0.         -0.          0.
   0.         -0.         -0.         -0.         -0.00021059  0.00244807  0.0054898   0.00082998 -0.          0.          0.         -0.          0.00229513
   0.00127705  0.00071853]
 [ 0.          0.         -0.          0.          0.          0.         -0.         -0.          0.         -0.         -0.          0.         -0.
  -0.          0.          0.          0.          0.         -0.         -0.         -0.          0.         -0.         -0.          0.         -0.
  -0.         -0.        ]
 [ 0.          0.         -0.          0.          0.          0.         -0.         -0.          0.         -0.         -0.          0.         -0.
  -0.          0.          0.          0.          0.         -0.         -0.         -0.          0.         -0.         -0.          0.         -0.
  -0.         -0.        ]
 [ 0.          0.         -0.          0.          0.          0.         -0.         -0.          0.         -0.         -0.          0.         -0.
  -0.          0.          0.          0.          0.         -0.         -0.         -0.          0.         -0.         -0.          0.         -0.
  -0.         -0.        ]
 [-0.         -0.          0.         -0.         -0.         -0.          0.          0.         -0.          0.          0.         -0.          0.
   0.         -0.         -0.         -0.         -0.          0.          0.          0.         -0.          0.          0.         -0.          0.
   0.          0.        ]
 [-0.06138697 -0.05197389  0.00564863 -0.         -0.         -0.          0.          0.00660584 -0.0003026   0.          0.         -0.          0.
   0.         -0.         -0.         -0.         -0.00024628  0.00286292  0.00642009  0.00097062 -0.          0.          0.         -0.          0.00268406
   0.00149345  0.00084029]
 [ 0.00281197  0.00238078 -0.00025875  0.          0.          0.         -0.         -0.0003026   0.00001386 -0.         -0.          0.         -0.
  -0.          0.          0.          0.          0.00001128 -0.00013114 -0.00029409 -0.00004446  0.         -0.         -0.          0.         -0.00012295
  -0.00006841 -0.00003849]
 [-0.         -0.          0.         -0.         -0.         -0.          0.          0.         -0.          0.          0.         -0.          0.
   0.         -0.         -0.         -0.         -0.          0.          0.          0.         -0.          0.          0.         -0.          0.
   0.          0.        ]
 [-0.         -0.          0.         -0.         -0.         -0.          0.          0.         -0.          0.          0.         -0.          0.
   0.         -0.         -0.         -0.         -0.          0.          0.          0.         -0.          0.          0.         -0.          0.
   0.          0.        ]
 [ 0.          0.         -0.          0.          0.          0.         -0.         -0.          0.         -0.         -0.          0.         -0.
  -0.          0.          0.          0.          0.         -0.         -0.         -0.          0.         -0.         -0.          0.         -0.
  -0.         -0.        ]
 [-0.         -0.          0.         -0.         -0.         -0.          0.          0.         -0.          0.          0.         -0.          0.
   0.         -0.         -0.         -0.         -0.          0.          0.          0.         -0.          0.          0.         -0.          0.
   0.          0.        ]
 [-0.         -0.          0.         -0.         -0.         -0.          0.          0.         -0.          0.          0.         -0.          0.
   0.         -0.         -0.         -0.         -0.          0.          0.          0.         -0.          0.          0.         -0.          0.
   0.          0.        ]
 [ 0.          0.         -0.          0.          0.          0.         -0.         -0.          0.         -0.         -0.          0.         -0.
  -0.          0.          0.          0.          0.         -0.         -0.         -0.          0.         -0.         -0.          0.         -0.
  -0.         -0.        ]
 [ 0.          0.         -0.          0.          0.          0.         -0.         -0.          0.         -0.         -0.          0.         -0.
  -0.          0.          0.          0.          0.         -0.         -0.         -0.          0.         -0.         -0.          0.         -0.
  -0.         -0.        ]
 [ 0.          0.         -0.          0.          0.          0.         -0.         -0.          0.         -0.         -0.          0.         -0.
  -0.          0.          0.          0.          0.         -0.         -0.         -0.          0.         -0.         -0.          0.         -0.
  -0.         -0.        ]
 [ 0.00228862  0.00193769 -0.00021059  0.          0.          0.         -0.         -0.00024628  0.00001128 -0.         -0.          0.         -0.
  -0.          0.          0.          0.          0.00000918 -0.00010673 -0.00023935 -0.00003619  0.         -0.         -0.          0.         -0.00010007
  -0.00005568 -0.00003133]
 [-0.0266046  -0.02252505  0.00244807 -0.         -0.         -0.          0.          0.00286292 -0.00013114  0.          0.         -0.          0.
   0.         -0.         -0.         -0.         -0.00010673  0.00124076  0.00278241  0.00042066 -0.          0.          0.         -0.          0.00116325
   0.00064725  0.00036418]
 [-0.0596608  -0.05051242  0.0054898  -0.         -0.         -0.          0.          0.00642009 -0.00029409  0.          0.         -0.          0.
   0.         -0.         -0.         -0.         -0.00023935  0.00278241  0.00623956  0.00094333 -0.          0.          0.         -0.          0.00260858
   0.00145146  0.00081667]
 [-0.00901985 -0.00763674  0.00082998 -0.         -0.         -0.          0.          0.00097062 -0.00004446  0.          0.         -0.          0.
   0.         -0.         -0.         -0.         -0.00003619  0.00042066  0.00094333  0.00014262 -0.          0.          0.         -0.          0.00039438
   0.00021944  0.00012347]
 [ 0.          0.         -0.          0.          0.          0.         -0.         -0.          0.         -0.         -0.          0.         -0.
  -0.          0.          0.          0.          0.         -0.         -0.         -0.          0.         -0.         -0.          0.         -0.
  -0.         -0.        ]
 [-0.         -0.          0.         -0.         -0.         -0.          0.          0.         -0.          0.          0.         -0.          0.
   0.         -0.         -0.         -0.         -0.          0.          0.          0.         -0.          0.          0.         -0.          0.
   0.          0.        ]
 [-0.         -0.          0.         -0.         -0.         -0.          0.          0.         -0.          0.          0.         -0.          0.
   0.         -0.         -0.         -0.         -0.          0.          0.          0.         -0.          0.          0.         -0.          0.
   0.          0.        ]
 [ 0.          0.         -0.          0.          0.          0.         -0.         -0.          0.         -0.         -0.          0.         -0.
  -0.          0.          0.          0.          0.         -0.         -0.         -0.          0.         -0.         -0.          0.         -0.
  -0.         -0.        ]
 [-0.0249425  -0.02111782  0.00229513 -0.         -0.         -0.          0.          0.00268406 -0.00012295  0.          0.         -0.          0.
   0.         -0.         -0.         -0.         -0.00010007  0.00116325  0.00260858  0.00039438 -0.          0.          0.         -0.          0.00109058
   0.00060681  0.00034143]
 [-0.01387842 -0.01175031  0.00127705 -0.         -0.         -0.          0.          0.00149345 -0.00006841  0.          0.         -0.          0.
   0.         -0.         -0.         -0.         -0.00005568  0.00064725  0.00145146  0.00021944 -0.          0.          0.         -0.          0.00060681
   0.00033764  0.00018997]
 [-0.00780872 -0.00661133  0.00071853 -0.         -0.         -0.          0.          0.00084029 -0.00003849  0.          0.         -0.          0.
   0.         -0.         -0.         -0.         -0.00003133  0.00036418  0.00081667  0.00012347 -0.          0.          0.         -0.          0.00034143
[...]
Feff (mod,ortho)
[[-0.21255162  0.31099538  0.13651897 ...  0.          0.          0.        ]
 [ 0.31099538 -0.05729658 -0.05829909 ...  0.          0.          0.        ]
 [ 0.13651897 -0.05829909  1.44143119 ...  0.          0.          0.        ]
 ...
 [ 0.          0.          0.         ...  3.16509438 -0.0102141   0.01985188]
 [ 0.          0.          0.         ... -0.0102141   1.84871845 -0.01930415]
 [ 0.          0.          0.         ...  0.01985188 -0.01930415  1.6271672 ]]
E(SUHF) =     -1.00401171
e_a, e_b
[-0.49927136  0.06084754  0.36792345  0.50248632  0.67410474  0.73245766  0.73245766  0.84004597  0.84004597  0.9930285   2.48403976  2.61679803  3.42539599
  3.42923952  3.42923952  3.42951001  3.42951001  3.4828541   3.48534715  3.48534715  3.48567194  3.48567194  3.80697871  3.84157273  3.84157273  3.9383269
  3.9383269   4.10271896] [-0.49927136  0.06084754  0.36792345  0.50248632  0.67410474  0.73245766  0.73245766  0.84004597  0.84004597  0.9930285   2.48403976  2.61679803  3.42539599
  3.42923952  3.42923952  3.42951001  3.42951001  3.4828541   3.48534715  3.48534715  3.48567194  3.48567194  3.80697871  3.84157273  3.84157273  3.9383269
  3.9383269   4.10271896]
P_a, P_b
[[ 0.57001363 -0.4826968  -0.0577716   0.         -0.         -0.         -0.          0.06335067  0.00363999  0.         -0.         -0.          0.
   0.         -0.          0.          0.         -0.00258125 -0.01550876  0.05733707 -0.01034408  0.         -0.          0.          0.          0.02550931
  -0.01877851  0.00962762]
 [-0.4826968   0.40875549  0.04892193 -0.          0.          0.          0.         -0.05364638 -0.0030824  -0.          0.          0.         -0.
  -0.          0.         -0.         -0.          0.00218584  0.01313307 -0.04855397  0.00875953 -0.          0.         -0.         -0.         -0.0216017
   0.01590195 -0.00815282]
 [-0.0577716   0.04892193  0.00585522 -0.          0.          0.          0.         -0.00642067 -0.00036892 -0.          0.          0.         -0.
  -0.          0.         -0.         -0.          0.00026161  0.00157183 -0.00581118  0.00104839 -0.          0.         -0.         -0.         -0.0025854
   0.00190323 -0.00097577]
 [ 0.         -0.         -0.          0.         -0.         -0.         -0.          0.          0.          0.         -0.         -0.          0.
   0.         -0.          0.          0.         -0.         -0.          0.         -0.          0.         -0.          0.          0.          0.
  -0.          0.        ]
 [-0.          0.          0.         -0.          0.          0.          0.         -0.         -0.         -0.          0.          0.         -0.
  -0.          0.         -0.         -0.          0.          0.         -0.          0.         -0.          0.         -0.         -0.         -0.
   0.         -0.        ]
 [-0.          0.          0.         -0.          0.          0.          0.         -0.         -0.         -0.          0.          0.         -0.
  -0.          0.         -0.         -0.          0.          0.         -0.          0.         -0.          0.         -0.         -0.         -0.
   0.         -0.        ]
 [-0.          0.          0.         -0.          0.          0.          0.         -0.         -0.         -0.          0.          0.         -0.
  -0.          0.         -0.         -0.          0.          0.         -0.          0.         -0.          0.         -0.         -0.         -0.
   0.         -0.        ]
 [ 0.06335067 -0.05364638 -0.00642067  0.         -0.         -0.         -0.          0.00704072  0.00040454  0.         -0.         -0.          0.
   0.         -0.          0.          0.         -0.00028688 -0.00172363  0.00637238 -0.00114963  0.         -0.          0.          0.          0.00283508
  -0.00208702  0.00107   ]
 [ 0.00363999 -0.0030824  -0.00036892  0.         -0.         -0.         -0.          0.00040454  0.00002324  0.         -0.         -0.          0.
   0.         -0.          0.          0.         -0.00001648 -0.00009904  0.00036614 -0.00006606  0.         -0.          0.          0.          0.0001629
  -0.00011992  0.00006148]
 [ 0.         -0.         -0.          0.         -0.         -0.         -0.          0.          0.          0.         -0.         -0.          0.
   0.         -0.          0.          0.         -0.         -0.          0.         -0.          0.         -0.          0.          0.          0.
  -0.          0.        ]
 [-0.          0.          0.         -0.          0.          0.          0.         -0.         -0.         -0.          0.          0.         -0.
  -0.          0.         -0.         -0.          0.          0.         -0.          0.         -0.          0.         -0.         -0.         -0.
   0.         -0.        ]
 [-0.          0.          0.         -0.          0.          0.          0.         -0.         -0.         -0.          0.          0.         -0.
  -0.          0.         -0.         -0.          0.          0.         -0.          0.         -0.          0.         -0.         -0.         -0.
   0.         -0.        ]
 [ 0.         -0.         -0.          0.         -0.         -0.         -0.          0.          0.          0.         -0.         -0.          0.
   0.         -0.          0.          0.         -0.         -0.          0.         -0.          0.         -0.          0.          0.          0.
  -0.          0.        ]
 [ 0.         -0.         -0.          0.         -0.         -0.         -0.          0.          0.          0.         -0.         -0.          0.
   0.         -0.          0.          0.         -0.         -0.          0.         -0.          0.         -0.          0.          0.          0.
  -0.          0.        ]
 [-0.          0.          0.         -0.          0.          0.          0.         -0.         -0.         -0.          0.          0.         -0.
  -0.          0.         -0.         -0.          0.          0.         -0.          0.         -0.          0.         -0.         -0.         -0.
   0.         -0.        ]
 [ 0.         -0.         -0.          0.         -0.         -0.         -0.          0.          0.          0.         -0.         -0.          0.
   0.         -0.          0.          0.         -0.         -0.          0.         -0.          0.         -0.          0.          0.          0.
  -0.          0.        ]
 [ 0.         -0.         -0.          0.         -0.         -0.         -0.          0.          0.          0.         -0.         -0.          0.
   0.         -0.          0.          0.         -0.         -0.          0.         -0.          0.         -0.          0.          0.          0.
  -0.          0.        ]
 [-0.00258125  0.00218584  0.00026161 -0.          0.          0.          0.         -0.00028688 -0.00001648 -0.          0.          0.         -0.
  -0.          0.         -0.         -0.          0.00001169  0.00007023 -0.00025965  0.00004684 -0.          0.         -0.         -0.         -0.00011552
   0.00008504 -0.0000436 ]
 [-0.01550876  0.01313307  0.00157183 -0.          0.          0.          0.         -0.00172363 -0.00009904 -0.          0.          0.         -0.
  -0.          0.         -0.         -0.          0.00007023  0.00042196 -0.00156001  0.00028144 -0.          0.         -0.         -0.         -0.00069405
   0.00051092 -0.00026195]
 [ 0.05733707 -0.04855397 -0.00581118  0.         -0.         -0.         -0.          0.00637238  0.00036614  0.         -0.         -0.          0.
   0.         -0.          0.          0.         -0.00025965 -0.00156001  0.00576748 -0.0010405   0.         -0.          0.          0.          0.00256595
  -0.00188891  0.00096843]
 [-0.01034408  0.00875953  0.00104839 -0.          0.          0.          0.         -0.00114963 -0.00006606 -0.          0.          0.         -0.
  -0.          0.         -0.         -0.          0.00004684  0.00028144 -0.0010405   0.00018771 -0.          0.         -0.         -0.         -0.00046292
   0.00034077 -0.00017471]
 [ 0.         -0.         -0.          0.         -0.         -0.         -0.          0.          0.          0.         -0.         -0.          0.
   0.         -0.          0.          0.         -0.         -0.          0.         -0.          0.         -0.          0.          0.          0.
  -0.          0.        ]
 [-0.          0.          0.         -0.          0.          0.          0.         -0.         -0.         -0.          0.          0.         -0.
  -0.          0.         -0.         -0.          0.          0.         -0.          0.         -0.          0.         -0.         -0.         -0.
   0.         -0.        ]
 [ 0.         -0.         -0.          0.         -0.         -0.         -0.          0.          0.          0.         -0.         -0.          0.
   0.         -0.          0.          0.         -0.         -0.          0.         -0.          0.         -0.          0.          0.          0.
  -0.          0.        ]
 [ 0.         -0.         -0.          0.         -0.         -0.         -0.          0.          0.          0.         -0.         -0.          0.
   0.         -0.          0.          0.         -0.         -0.          0.         -0.          0.         -0.          0.          0.          0.
  -0.          0.        ]
 [ 0.02550931 -0.0216017  -0.0025854   0.         -0.         -0.         -0.          0.00283508  0.0001629   0.         -0.         -0.          0.
   0.         -0.          0.          0.         -0.00011552 -0.00069405  0.00256595 -0.00046292  0.         -0.          0.          0.          0.0011416
  -0.00084038  0.00043086]
 [-0.01877851  0.01590195  0.00190323 -0.          0.          0.          0.         -0.00208702 -0.00011992 -0.          0.          0.         -0.
  -0.          0.         -0.         -0.          0.00008504  0.00051092 -0.00188891  0.00034077 -0.          0.         -0.         -0.         -0.00084038
   0.00061864 -0.00031717]
 [ 0.00962762 -0.00815282 -0.00097577  0.         -0.         -0.         -0.          0.00107     0.00006148  0.         -0.         -0.          0.
   0.         -0.          0.          0.         -0.0000436  -0.00026195  0.00096843 -0.00017471  0.         -0.          0.          0.          0.00043086
  -0.00031717  0.00016261]] 
 [[ 0.57001363  0.4826968  -0.0577716   0.          0.          0.         -0.         -0.06335067  0.00363999 -0.          0.         -0.         -0.
  -0.         -0.         -0.          0.          0.00258125 -0.01550876 -0.05733707 -0.01034408  0.         -0.         -0.          0.         -0.02550931
  -0.01877851 -0.00962762]
 [ 0.4826968   0.40875549 -0.04892193  0.          0.          0.         -0.         -0.05364638  0.0030824  -0.          0.         -0.         -0.
  -0.         -0.         -0.          0.          0.00218584 -0.01313307 -0.04855397 -0.00875953  0.         -0.         -0.          0.         -0.0216017
  -0.01590195 -0.00815282]
 [-0.0577716  -0.04892193  0.00585522 -0.         -0.         -0.          0.          0.00642067 -0.00036892  0.         -0.          0.          0.
   0.          0.          0.         -0.         -0.00026161  0.00157183  0.00581118  0.00104839 -0.          0.          0.         -0.          0.0025854
   0.00190323  0.00097577]
 [ 0.          0.         -0.          0.          0.          0.         -0.         -0.          0.         -0.          0.         -0.         -0.
  -0.         -0.         -0.          0.          0.         -0.         -0.         -0.          0.         -0.         -0.          0.         -0.
  -0.         -0.        ]
 [ 0.          0.         -0.          0.          0.          0.         -0.         -0.          0.         -0.          0.         -0.         -0.
  -0.         -0.         -0.          0.          0.         -0.         -0.         -0.          0.         -0.         -0.          0.         -0.
  -0.         -0.        ]
 [ 0.          0.         -0.          0.          0.          0.         -0.         -0.          0.         -0.          0.         -0.         -0.
  -0.         -0.         -0.          0.          0.         -0.         -0.         -0.          0.         -0.         -0.          0.         -0.
  -0.         -0.        ]
 [-0.         -0.          0.         -0.         -0.         -0.          0.          0.         -0.          0.         -0.          0.          0.
   0.          0.          0.         -0.         -0.          0.          0.          0.         -0.          0.          0.         -0.          0.
   0.          0.        ]
 [-0.06335067 -0.05364638  0.00642067 -0.         -0.         -0.          0.          0.00704072 -0.00040454  0.         -0.          0.          0.
   0.          0.          0.         -0.         -0.00028688  0.00172363  0.00637238  0.00114963 -0.          0.          0.         -0.          0.00283508
   0.00208702  0.00107   ]
 [ 0.00363999  0.0030824  -0.00036892  0.          0.          0.         -0.         -0.00040454  0.00002324 -0.          0.         -0.         -0.
  -0.         -0.         -0.          0.          0.00001648 -0.00009904 -0.00036614 -0.00006606  0.         -0.         -0.          0.         -0.0001629
  -0.00011992 -0.00006148]
 [-0.         -0.          0.         -0.         -0.         -0.          0.          0.         -0.          0.         -0.          0.          0.
   0.          0.          0.         -0.         -0.          0.          0.          0.         -0.          0.          0.         -0.          0.
   0.          0.        ]
 [ 0.          0.         -0.          0.          0.          0.         -0.         -0.          0.         -0.          0.         -0.         -0.
  -0.         -0.         -0.          0.          0.         -0.         -0.         -0.          0.         -0.         -0.          0.         -0.
  -0.         -0.        ]
 [-0.         -0.          0.         -0.         -0.         -0.          0.          0.         -0.          0.         -0.          0.          0.
   0.          0.          0.         -0.         -0.          0.          0.          0.         -0.          0.          0.         -0.          0.
   0.          0.        ]
 [-0.         -0.          0.         -0.         -0.         -0.          0.          0.         -0.          0.         -0.          0.          0.
   0.          0.          0.         -0.         -0.          0.          0.          0.         -0.          0.          0.         -0.          0.
   0.          0.        ]
 [-0.         -0.          0.         -0.         -0.         -0.          0.          0.         -0.          0.         -0.          0.          0.
   0.          0.          0.         -0.         -0.          0.          0.          0.         -0.          0.          0.         -0.          0.
   0.          0.        ]
 [-0.         -0.          0.         -0.         -0.         -0.          0.          0.         -0.          0.         -0.          0.          0.
   0.          0.          0.         -0.         -0.          0.          0.          0.         -0.          0.          0.         -0.          0.
   0.          0.        ]
 [-0.         -0.          0.         -0.         -0.         -0.          0.          0.         -0.          0.         -0.          0.          0.
   0.          0.          0.         -0.         -0.          0.          0.          0.         -0.          0.          0.         -0.          0.
   0.          0.        ]
 [ 0.          0.         -0.          0.          0.          0.         -0.         -0.          0.         -0.          0.         -0.         -0.
  -0.         -0.         -0.          0.          0.         -0.         -0.         -0.          0.         -0.         -0.          0.         -0.
  -0.         -0.        ]
 [ 0.00258125  0.00218584 -0.00026161  0.          0.          0.         -0.         -0.00028688  0.00001648 -0.          0.         -0.         -0.
  -0.         -0.         -0.          0.          0.00001169 -0.00007023 -0.00025965 -0.00004684  0.         -0.         -0.          0.         -0.00011552
  -0.00008504 -0.0000436 ]
 [-0.01550876 -0.01313307  0.00157183 -0.         -0.         -0.          0.          0.00172363 -0.00009904  0.         -0.          0.          0.
   0.          0.          0.         -0.         -0.00007023  0.00042196  0.00156001  0.00028144 -0.          0.          0.         -0.          0.00069405
   0.00051092  0.00026195]
 [-0.05733707 -0.04855397  0.00581118 -0.         -0.         -0.          0.          0.00637238 -0.00036614  0.         -0.          0.          0.
   0.          0.          0.         -0.         -0.00025965  0.00156001  0.00576748  0.0010405  -0.          0.          0.         -0.          0.00256595
   0.00188891  0.00096843]
 [-0.01034408 -0.00875953  0.00104839 -0.         -0.         -0.          0.          0.00114963 -0.00006606  0.         -0.          0.          0.
   0.          0.          0.         -0.         -0.00004684  0.00028144  0.0010405   0.00018771 -0.          0.          0.         -0.          0.00046292
   0.00034077  0.00017471]
 [ 0.          0.         -0.          0.          0.          0.         -0.         -0.          0.         -0.          0.         -0.         -0.
  -0.         -0.         -0.          0.          0.         -0.         -0.         -0.          0.         -0.         -0.          0.         -0.
  -0.         -0.        ]
 [-0.         -0.          0.         -0.         -0.         -0.          0.          0.         -0.          0.         -0.          0.          0.
   0.          0.          0.         -0.         -0.          0.          0.          0.         -0.          0.          0.         -0.          0.
   0.          0.        ]
 [-0.         -0.          0.         -0.         -0.         -0.          0.          0.         -0.          0.         -0.          0.          0.
   0.          0.          0.         -0.         -0.          0.          0.          0.         -0.          0.          0.         -0.          0.
   0.          0.        ]
 [ 0.          0.         -0.          0.          0.          0.         -0.         -0.          0.         -0.          0.         -0.         -0.
  -0.         -0.         -0.          0.          0.         -0.         -0.         -0.          0.         -0.         -0.          0.         -0.
  -0.         -0.        ]
 [-0.02550931 -0.0216017   0.0025854  -0.         -0.         -0.          0.          0.00283508 -0.0001629   0.         -0.          0.          0.
   0.          0.          0.         -0.         -0.00011552  0.00069405  0.00256595  0.00046292 -0.          0.          0.         -0.          0.0011416
   0.00084038  0.00043086]
 [-0.01877851 -0.01590195  0.00190323 -0.         -0.         -0.          0.          0.00208702 -0.00011992  0.         -0.          0.          0.
   0.          0.          0.         -0.         -0.00008504  0.00051092  0.00188891  0.00034077 -0.          0.          0.         -0.          0.00084038
   0.00061864  0.00031717]
 [-0.00962762 -0.00815282  0.00097577 -0.         -0.         -0.          0.          0.00107    -0.00006148  0.         -0.          0.          0.
   0.          0.          0.         -0.         -0.0000436   0.00026195  0.00096843  0.00017471 -0.          0.          0.         -0.          0.00043086
   0.00031717  0.00016261]]

***************
SUHF converged at cycle 8
Final E(SUHF) =     -1.00401171, delta E = -2.51784e-09
***** Start DFT Correlation for SUHF+DFT **********
tot grids = 20048
E(SUHF) =     -1.00401171
E_c(TPSS) =     -0.00121626
E(SUHF+DFT) =     -1.00522796
