

#INFO: **** input file is /share/home/srwang/ExSCF/test/pytest/scan_h2/scan_dft.py ****
#import phf
from pyscf import lib
#import scipy
import numpy as np
import sys, os, contextlib

from pyphf import util, sudft

#xyz = 'h2.xyz' #sys.argv[1]
fch = 'test_uhf.fchk' #sys.argv[2]
#bas = '../h2.bas'
bas = 'cc-pvtz'

lib.num_threads(4)

for r in np.arange(0.9, 2.55, 0.1):
    output = 'tpss/sudft_%.1f_diis.out' % r
    os.system("echo '\n' > %s" % output)
    with open(output, 'a', encoding='utf-8') as f:
        with contextlib.redirect_stdout(f):
            xyz = '''H 0.0 0.0 0.0; H 0.0 0.0 %f'''%r
            mf = util.guess_from_fchk(xyz, bas, fch)
            #mf = util.guess(xyz, bas)
            #f.flush()
            mf2 = util.SUHF(mf)
            #mf2.cut_no = False
            mf2.debug = False
            #mf2.max_cycle = 50
            mf2.diis_on = True
            #mf2.output = 'sudft_%.1f.out'%r
            #mf2.kernel()
            
            mf3 = sudft.SUDFT(mf2)
            mf3.suxc = 'TPSS'
            mf3.kernel()
                    
#INFO: ******************** input file end ********************


System: uname_result(system='Linux', node='xc02n18', release='3.10.0-693.el7.x86_64', version='#1 SMP Thu Jul 6 19:56:57 EDT 2017', machine='x86_64', processor='x86_64')  Threads 4
Python 3.7.4 (default, Aug 13 2019, 20:35:49) 
[GCC 7.3.0]
numpy 1.17.2  scipy 1.4.1
Date: Tue Nov 24 03:36:01 2020
PySCF version 1.7.5
PySCF path  /share/home/srwang/pyscf-1.7.5/pyscf

[CONFIG] conf_file None
[INPUT] verbose = 4
[INPUT] num. atoms = 2
[INPUT] num. electrons = 2
[INPUT] charge = 0
[INPUT] spin (= nelec alpha-beta = 2S) = 0
[INPUT] symmetry False subgroup None
[INPUT] Mole.unit = angstrom
[INPUT]  1 H      0.000000000000   0.000000000000   0.000000000000 AA    0.000000000000   0.000000000000   0.000000000000 Bohr
[INPUT]  2 H      0.000000000000   0.000000000000   1.700000000000 AA    0.000000000000   0.000000000000   3.212534411761 Bohr

nuclear repulsion = 0.311280712305882
number of shells = 12
number of NR pGTOs = 32
number of NR cGTOs = 28
basis = cc-pvtz
ecp = {}
CPU time:       163.06


******** <class 'pyscf.scf.uhf.UHF'> ********
method = UHF
initial guess = minao
damping factor = 0
level_shift factor = 0
DIIS = <class 'pyscf.scf.diis.CDIIS'>
diis_start_cycle = 1
diis_space = 8
SCF conv_tol = 1e-09
SCF conv_tol_grad = None
SCF max_cycles = 1
direct_scf = True
direct_scf_tol = 1e-13
chkfile to save SCF result = /share/home/srwang/ExSCF/test/pytest/scan_h2/tmpq6bd4n7c
max_memory 4000 MB (current use 132 MB)
number electrons alpha = 1  beta = 1
Set gradient conv threshold to 3.16228e-05
init E= -0.664856667642613
  alpha nocc = 1  HOMO = -0.288928840011912  LUMO = -0.0633091069070816
  beta  nocc = 1  HOMO = -0.287288464157981  LUMO = -0.0627487552615637
cycle= 1 E= -0.968277426508764  delta_E= -0.303  |g|= 0.0353  |ddm|= 0.389
SCF not converged.
SCF energy = -0.968277426508764 after 1 cycles  <S^2> = 3.967331e-07  2S+1 = 1.0000008


******** <class 'pyscf.scf.uhf.UHF'> ********
method = UHF
initial guess = minao
damping factor = 0
level_shift factor = 0
DIIS = <class 'pyscf.scf.diis.CDIIS'>
diis_start_cycle = 1
diis_space = 8
SCF conv_tol = 1e-09
SCF conv_tol_grad = None
SCF max_cycles = 1
direct_scf = True
direct_scf_tol = 1e-13
chkfile to save SCF result = /share/home/srwang/ExSCF/test/pytest/scan_h2/tmpq6bd4n7c
max_memory 4000 MB (current use 132 MB)
number electrons alpha = 1  beta = 1
Set gradient conv threshold to 3.16228e-05
init E= -0.955713470252798
  alpha nocc = 1  HOMO = -0.488915970412142  LUMO = 0.022626458451514
  beta  nocc = 1  HOMO = -0.488915970412141  LUMO = 0.0226264584515151
cycle= 1 E= -1.00757219452955  delta_E= -0.0519  |g|= 0.0295  |ddm|= 0.0545
SCF not converged.
SCF energy = -1.00757219452955 after 1 cycles  <S^2> = 0.59762935  2S+1 = 1.8413358

******** <class 'pyphf.util.SUHF'> ********
max_cycle = 70
verbose: normal
DIIS: <class 'pyscf.scf.diis.CDIIS'>
diis_start_cyc = 40
SVD: S^(-1/2)
[[-0.1535005   0.29706411  0.09500719  0.         -0.         -0.         -0.          0.221995   -0.00196856 -0.         -0.         -0.          0.
   0.          0.         -0.         -0.          0.12678694 -0.6838631   0.62853925  0.         -0.         -0.05793242  0.         -0.          0.48098717
  -0.82745891  0.7568462 ]
 [-0.23414603  0.30977344  0.09246304 -0.          0.          0.          0.          0.1295276  -0.01246385  0.          0.         -0.          0.
  -0.          0.          0.          0.          0.0043751  -0.05906093 -0.25352722 -0.          0.          0.01716144 -0.          0.         -0.66664431
   1.65235573 -1.65884454]
 [-0.25414055  0.17665859  0.11083767  0.         -0.         -0.         -0.          0.012387    0.03226432 -0.         -0.          0.         -0.
   0.         -0.         -0.          0.         -0.01847769  0.48403376 -0.56418745  0.         -0.         -0.09404584  0.         -0.         -0.64213064
  -0.96654417  1.76971003]
 [ 0.          0.         -0.          0.17861008  0.31109313 -0.41262019  0.09545705  0.         -0.          0.02276773 -0.06989191  0.         -0.
   0.          0.         -0.02137564 -0.08326783  0.          0.          0.          0.75856446 -0.27452477  0.          0.67571872 -0.43987812  0.
   0.         -0.        ]
 [ 0.         -0.          0.         -0.31109313  0.17861008  0.09545705  0.41262019 -0.          0.          0.06989191  0.02276773 -0.         -0.
  -0.         -0.         -0.08326783  0.02137564  0.          0.          0.         -0.27452477 -0.75856446  0.          0.43987812  0.67571872  0.
   0.          0.        ]
 [-0.05982568 -0.13123103 -0.3064264  -0.         -0.          0.          0.          0.45914829  0.11088453 -0.         -0.          0.          0.
  -0.          0.         -0.         -0.          0.25279948 -0.0301485  -0.41655151  0.         -0.         -0.85069864 -0.          0.          0.70765263
   0.08629553 -0.08338488]
 [ 0.          0.         -0.          0.19937026  0.34725205 -0.37090414  0.08580631  0.          0.          0.00381923 -0.01172421  0.         -0.
   0.         -0.         -0.00064401 -0.0025087  -0.          0.         -0.         -0.68735809  0.24875515 -0.         -0.7624134   0.49631446 -0.
  -0.          0.        ]
 [-0.         -0.         -0.         -0.34725205  0.19937026  0.08580631  0.37090414 -0.         -0.          0.01172421  0.00381923  0.          0.
   0.          0.         -0.0025087   0.00064401 -0.         -0.         -0.          0.24875515  0.68735809 -0.         -0.49631446 -0.7624134  -0.
  -0.         -0.        ]
 [-0.11957245 -0.17871209 -0.36883148 -0.         -0.          0.         -0.          0.27300599  0.04887716  0.         -0.         -0.         -0.
   0.         -0.          0.         -0.         -0.00061076 -0.02447904  0.35300704 -0.          0.          0.68739726  0.         -0.         -1.50281511
  -0.14647491  0.19434708]
 [ 0.          0.          0.         -0.          0.         -0.          0.          0.          0.         -0.         -0.         -0.70559919 -0.
  -0.70862408 -0.          0.         -0.          0.          0.          0.          0.          0.          0.          0.          0.          0.
   0.          0.        ]
 [-0.         -0.         -0.         -0.03939034  0.02261545 -0.01174084 -0.05075063  0.         -0.         -0.65534212 -0.21348177  0.         -0.
   0.         -0.         -0.69533076  0.17849799 -0.          0.          0.         -0.02482765 -0.06860354  0.         -0.05088599 -0.0781685   0.
   0.          0.        ]
 [-0.02627107 -0.00382282 -0.07489604 -0.          0.         -0.          0.         -0.20527853 -0.66450439  0.          0.          0.         -0.
   0.         -0.         -0.          0.          0.70338376  0.01980409  0.02347704  0.         -0.         -0.09610993 -0.         -0.         -0.35505998
  -0.07184474 -0.04947811]
 [ 0.          0.         -0.          0.02261545  0.03939034  0.05075063 -0.01174084 -0.          0.         -0.21348177  0.65534212  0.          0.
   0.          0.         -0.17849799 -0.69533076  0.          0.          0.          0.06860354 -0.02482765  0.         -0.0781685   0.05088599 -0.
  -0.          0.        ]
 [ 0.          0.          0.          0.         -0.          0.         -0.          0.          0.         -0.          0.          0.         -0.70559919
   0.         -0.70862408  0.         -0.          0.          0.          0.          0.          0.          0.         -0.          0.          0.
   0.          0.        ]
 [-0.1535005  -0.29706411  0.09500719  0.          0.         -0.         -0.         -0.221995   -0.00196856 -0.         -0.          0.         -0.
   0.         -0.         -0.         -0.         -0.12678694 -0.6838631  -0.62853925  0.         -0.         -0.05793242  0.          0.         -0.48098717
  -0.82745891 -0.7568462 ]
 [-0.23414603 -0.30977344  0.09246304  0.          0.         -0.          0.         -0.1295276  -0.01246385  0.          0.         -0.          0.
  -0.          0.          0.         -0.         -0.0043751  -0.05906093  0.25352722 -0.          0.          0.01716144 -0.         -0.          0.66664431
   1.65235573  1.65884454]
 [-0.25414055 -0.17665859  0.11083767  0.          0.         -0.          0.         -0.012387    0.03226432  0.         -0.          0.         -0.
  -0.         -0.         -0.          0.          0.01847769  0.48403376  0.56418745  0.         -0.         -0.09404584 -0.          0.          0.64213064
  -0.96654417 -1.76971003]
 [ 0.          0.         -0.          0.17861008  0.31109313  0.41262019 -0.09545705 -0.         -0.          0.02276773 -0.06989191 -0.         -0.
  -0.         -0.          0.02137564  0.08326783  0.          0.          0.          0.75856446 -0.27452477  0.         -0.67571872  0.43987812 -0.
  -0.          0.        ]
 [-0.         -0.         -0.         -0.31109313  0.17861008 -0.09545705 -0.41262019  0.          0.          0.06989191  0.02276773 -0.          0.
  -0.          0.          0.08326783 -0.02137564  0.          0.          0.         -0.27452477 -0.75856446  0.         -0.43987812 -0.67571872  0.
  -0.         -0.        ]
 [ 0.05982568 -0.13123103  0.3064264   0.         -0.          0.         -0.          0.45914829 -0.11088453  0.          0.         -0.          0.
  -0.          0.          0.          0.          0.25279948  0.0301485  -0.41655151 -0.          0.          0.85069864  0.         -0.          0.70765263
  -0.08629553 -0.08338488]
 [ 0.          0.         -0.          0.19937026  0.34725205  0.37090414 -0.08580631 -0.         -0.          0.00381923 -0.01172421  0.         -0.
   0.         -0.          0.00064401  0.0025087   0.         -0.         -0.         -0.68735809  0.24875515 -0.          0.7624134  -0.49631446 -0.
   0.         -0.        ]
 [-0.         -0.         -0.         -0.34725205  0.19937026 -0.08580631 -0.37090414  0.          0.          0.01172421  0.00381923  0.         -0.
   0.          0.          0.0025087  -0.00064401  0.         -0.         -0.          0.24875515  0.68735809 -0.          0.49631446  0.7624134  -0.
   0.          0.        ]
 [ 0.11957245 -0.17871209  0.36883148  0.          0.         -0.          0.          0.27300599 -0.04887716 -0.          0.          0.         -0.
   0.         -0.         -0.          0.         -0.00061076  0.02447904  0.35300704  0.         -0.         -0.68739726 -0.         -0.         -1.50281511
   0.14647491  0.19434708]
 [ 0.          0.         -0.          0.         -0.         -0.          0.         -0.         -0.         -0.          0.         -0.70559919 -0.
   0.70862408  0.          0.          0.         -0.         -0.          0.         -0.          0.          0.          0.         -0.         -0.
  -0.         -0.        ]
 [ 0.          0.          0.          0.03939034 -0.02261545 -0.01174084 -0.05075063  0.          0.          0.65534212  0.21348177 -0.          0.
  -0.         -0.         -0.69533076  0.17849799 -0.         -0.         -0.          0.02482765  0.06860354 -0.         -0.05088599 -0.0781685  -0.
  -0.          0.        ]
 [-0.02627107  0.00382282 -0.07489604  0.          0.          0.         -0.          0.20527853 -0.66450439  0.          0.          0.          0.
  -0.          0.          0.          0.         -0.70338376  0.01980409 -0.02347704  0.         -0.         -0.09610993  0.          0.          0.35505998
  -0.07184474  0.04947811]
 [-0.         -0.          0.         -0.02261545 -0.03939034  0.05075063 -0.01174084 -0.         -0.          0.21348177 -0.65534212  0.         -0.
   0.          0.         -0.17849799 -0.69533076  0.          0.         -0.         -0.06860354  0.02482765 -0.         -0.0781685   0.05088599 -0.
  -0.          0.        ]
 [ 0.          0.          0.         -0.          0.         -0.          0.          0.          0.         -0.          0.          0.         -0.70559919
  -0.          0.70862408  0.         -0.          0.          0.         -0.         -0.         -0.         -0.         -0.         -0.         -0.
  -0.         -0.        ]]
C (ortho)
[[-0.87901399 -0.39795274  0.01708237  0.1597814   0.          0.         -0.18782097 -0.         -0.          0.0232625   0.01097698  0.01176866 -0.04694019
  -0.         -0.         -0.         -0.          0.         -0.          0.         -0.         -0.00431289 -0.          0.          0.          0.
   0.06957884 -0.00246459]
 [ 0.40487334 -0.79038921 -0.05576225  0.33824292  0.         -0.          0.0438087  -0.          0.         -0.20845855 -0.01430562  0.141255   -0.00710721
  -0.          0.          0.         -0.         -0.         -0.          0.          0.         -0.16094039 -0.          0.         -0.          0.
  -0.01556195  0.046027  ]
 [ 0.20854842  0.08192332  0.18221282  0.11807332  0.          0.         -0.86389521  0.         -0.          0.04079139 -0.06809326 -0.02306797 -0.14214305
  -0.         -0.         -0.          0.          0.          0.          0.          0.         -0.02565244 -0.          0.          0.          0.
   0.35857011 -0.00838986]
 [-0.         -0.         -0.         -0.         -0.55842093  0.66660594  0.         -0.13020448 -0.00154428 -0.         -0.         -0.         -0.
  -0.0096347   0.02400645  0.          0.          0.         -0.         -0.02921453 -0.00182744 -0.          0.12839241 -0.44840848 -0.08704951  0.01373419
   0.          0.        ]
 [-0.          0.         -0.         -0.          0.66660594  0.55842093  0.         -0.00154428  0.13020448  0.          0.          0.         -0.
  -0.02400645 -0.0096347   0.         -0.         -0.         -0.         -0.00182744  0.02921453 -0.          0.44840848  0.12839241  0.01373419  0.08704951
   0.          0.        ]
 [ 0.          0.          0.         -0.         -0.01630494 -0.12980942 -0.         -0.57758397  0.60722054  0.          0.          0.         -0.
  -0.00161516  0.00062065 -0.          0.          0.         -0.          0.12109032 -0.11504337  0.         -0.06563534  0.03331258 -0.27748793  0.4126082
   0.         -0.        ]
 [-0.          0.         -0.          0.          0.12980942 -0.01630494  0.         -0.60722054 -0.57758397  0.          0.          0.          0.
   0.00062065  0.00161516 -0.         -0.          0.          0.          0.11504337  0.12109032 -0.          0.03331258  0.06563534 -0.4126082  -0.27748793
   0.          0.        ]
 [ 0.10712872 -0.12121356 -0.13665422  0.25101103 -0.          0.          0.05891316  0.          0.          0.76589513  0.01405915  0.00453607  0.00412022
   0.         -0.         -0.          0.          0.          0.         -0.         -0.          0.34068822  0.         -0.          0.         -0.
   0.02588458 -0.43024412]
 [ 0.0075444   0.01810024  0.07101838  0.03616586 -0.         -0.          0.10259796  0.          0.          0.00151842 -0.18645984 -0.06058023 -0.94553393
   0.         -0.         -0.          0.          0.          0.         -0.         -0.          0.03760231 -0.          0.         -0.         -0.
  -0.22064934  0.01278762]
 [-0.          0.          0.          0.         -0.00488205  0.00018258  0.         -0.00212207 -0.00240572  0.          0.         -0.          0.
  -0.43806368 -0.89666979 -0.          0.         -0.          0.          0.0248334   0.03120242 -0.         -0.02597879 -0.04169269  0.00526753  0.00425631
   0.          0.        ]
 [-0.         -0.         -0.          0.          0.00018258  0.00488205  0.         -0.00240572  0.00212207  0.          0.          0.          0.
   0.89666979 -0.43806368 -0.          0.          0.          0.          0.03120242 -0.0248334  -0.          0.04169269 -0.02597879  0.00425631 -0.00526753
   0.         -0.        ]
 [ 0.         -0.          0.          0.          0.          0.          0.         -0.         -0.         -0.         -0.         -0.          0.
  -0.          0.         -0.94269879  0.01336998 -0.33318518 -0.01130788 -0.         -0.         -0.          0.         -0.          0.          0.
   0.          0.        ]
 [ 0.          0.         -0.          0.         -0.          0.          0.         -0.          0.          0.          0.          0.         -0.
   0.         -0.         -0.01336998 -0.94269879  0.01130788 -0.33318518 -0.          0.         -0.         -0.          0.         -0.          0.
   0.         -0.        ]
 [ 0.         -0.          0.          0.          0.          0.          0.         -0.          0.         -0.         -0.         -0.          0.
  -0.          0.         -0.33334348  0.0047277   0.9422511   0.03197879 -0.          0.         -0.          0.          0.          0.          0.
   0.          0.        ]
 [-0.         -0.          0.          0.         -0.          0.         -0.         -0.          0.          0.          0.         -0.          0.
   0.          0.         -0.0047277  -0.33334348 -0.03197879  0.9422511  -0.          0.          0.          0.          0.         -0.          0.
  -0.          0.        ]
 [-0.         -0.         -0.          0.          0.00277643 -0.00028141  0.         -0.02090944 -0.02086477 -0.         -0.         -0.          0.
  -0.01727349 -0.04192579  0.          0.         -0.         -0.         -0.64374912 -0.71091671 -0.          0.05165437  0.09600784 -0.20867148 -0.14771104
   0.         -0.        ]
 [ 0.         -0.         -0.          0.          0.00028141  0.00277643  0.          0.02086477 -0.02090944 -0.          0.          0.          0.
  -0.04192579  0.01727349 -0.         -0.          0.          0.          0.71091671 -0.64374912 -0.          0.09600784 -0.05165437  0.14771104 -0.20867148
  -0.          0.        ]
 [ 0.01387976 -0.00155995 -0.0379344   0.06192829 -0.         -0.          0.00134285 -0.          0.         -0.07597266 -0.07217113  0.36795592  0.00811198
  -0.         -0.         -0.          0.          0.          0.         -0.         -0.          0.75474118  0.         -0.          0.         -0.
   0.0824188   0.52121397]
 [-0.0032712   0.12902059  0.67500435  0.35921114  0.          0.          0.18237895  0.          0.         -0.00240484  0.58537649  0.13307024 -0.04937772
  -0.          0.         -0.          0.          0.          0.         -0.         -0.         -0.00704152 -0.         -0.          0.         -0.
   0.0503608  -0.00378479]
 [-0.0730661   0.3527114  -0.33486032  0.47327597 -0.         -0.          0.00952622 -0.          0.          0.12370822 -0.11280083  0.5508173  -0.01921266
  -0.          0.          0.          0.         -0.          0.          0.          0.         -0.42166335 -0.          0.         -0.          0.
  -0.03509359  0.15236655]
 [ 0.          0.          0.          0.         -0.0023779  -0.46997327 -0.          0.05944925 -0.04911702  0.          0.         -0.          0.
  -0.03225419  0.01707012  0.         -0.          0.         -0.         -0.04794449  0.03568953 -0.          0.71721262 -0.47975104 -0.1006035   0.11658716
  -0.          0.        ]
 [-0.          0.         -0.         -0.          0.46997327 -0.0023779   0.          0.04911702  0.05944925 -0.         -0.          0.         -0.
   0.01707012  0.03225419  0.          0.          0.          0.         -0.03568953 -0.04794449 -0.         -0.47975104 -0.71721262 -0.11658716 -0.1006035
   0.         -0.        ]
 [-0.01049152 -0.01111945 -0.13763426 -0.09634452 -0.         -0.          0.35707033  0.          0.         -0.02474151  0.01473277 -0.00001331 -0.19074136
  -0.          0.         -0.          0.          0.          0.          0.          0.         -0.08239936  0.          0.          0.          0.
   0.89422805 -0.01991708]
 [ 0.         -0.          0.         -0.         -0.06088377 -0.04546679 -0.          0.02302894  0.52284274  0.          0.         -0.          0.
  -0.00439012 -0.00205359 -0.         -0.         -0.          0.         -0.00141835  0.21509325 -0.          0.12732688  0.04428878 -0.17069258 -0.79166337
   0.          0.        ]
 [-0.         -0.         -0.          0.         -0.04546679  0.06088377  0.          0.52284274 -0.02302894 -0.         -0.          0.          0.
   0.00205359 -0.00439012 -0.          0.          0.         -0.          0.21509325  0.00141835  0.         -0.04428878  0.12732688 -0.79166337  0.17069258
   0.         -0.        ]
 [-0.04355293  0.12572521 -0.07472596  0.10528568 -0.         -0.         -0.02570336 -0.          0.         -0.54195503 -0.06959182  0.29284823 -0.00808951
  -0.         -0.         -0.          0.          0.          0.         -0.         -0.          0.27498671  0.         -0.          0.         -0.
   0.00510053 -0.71059067]
 [ 0.02877051 -0.06592194 -0.47900399 -0.28021523 -0.         -0.         -0.20179314  0.         -0.         -0.0069206   0.75720791  0.14944375 -0.20943928
  -0.         -0.         -0.          0.          0.          0.         -0.         -0.          0.00820482  0.          0.         -0.         -0.
  -0.08039418  0.00041796]
 [ 0.00306511 -0.18400132  0.34132968 -0.57101663 -0.          0.         -0.01603299  0.         -0.          0.22866058 -0.1450896   0.64116565 -0.01744882
  -0.          0.         -0.          0.          0.          0.          0.          0.         -0.16118521 -0.          0.         -0.          0.
  -0.01715436 -0.1109129 ]]
[[-0.87901399 -0.39795274  0.01708237  0.1597814  -0.         -0.          0.18782097 -0.         -0.         -0.0232625   0.01097698  0.01176866 -0.04694019
   0.         -0.          0.         -0.          0.         -0.          0.         -0.          0.00431289 -0.         -0.          0.         -0.
  -0.06957884  0.00246459]
 [-0.40487334  0.79038921  0.05576225 -0.33824292  0.          0.          0.0438087   0.         -0.         -0.20845855  0.01430562 -0.141255    0.00710721
   0.          0.          0.          0.          0.         -0.          0.          0.         -0.16094039  0.         -0.          0.         -0.
  -0.01556195  0.046027  ]
 [ 0.20854842  0.08192332  0.18221282  0.11807332 -0.          0.          0.86389521 -0.         -0.         -0.04079139 -0.06809326 -0.02306797 -0.14214305
  -0.          0.          0.         -0.          0.         -0.         -0.         -0.          0.02565244 -0.         -0.          0.         -0.
  -0.35857011  0.00838986]
 [ 0.          0.          0.         -0.         -0.04132925 -0.86861344  0.         -0.04651064  0.12162381 -0.         -0.         -0.         -0.
  -0.00493447 -0.02539268  0.          0.         -0.         -0.         -0.01139408  0.026963   -0.         -0.40662697  0.22849351 -0.06345914  0.06114885
   0.         -0.        ]
 [ 0.          0.          0.          0.          0.86861344 -0.04132925  0.          0.12162381  0.04651064 -0.          0.         -0.          0.
   0.02539268 -0.00493447 -0.         -0.         -0.          0.         -0.026963   -0.01139408  0.          0.22849351  0.40662697  0.06114885  0.06345914
  -0.          0.        ]
 [-0.         -0.          0.         -0.          0.09151744 -0.09349274 -0.         -0.36980323 -0.75204095  0.         -0.          0.         -0.
  -0.00101987  0.0013978   0.         -0.          0.          0.         -0.15697392  0.05707039  0.         -0.01725137  0.07155498 -0.00911394 -0.49715392
   0.         -0.        ]
 [-0.         -0.         -0.          0.         -0.09349274 -0.09151744  0.          0.75204095 -0.36980323 -0.          0.         -0.          0.
   0.0013978   0.00101987  0.          0.          0.         -0.          0.05707039  0.15697392  0.         -0.07155498 -0.01725137  0.49715392 -0.00911394
   0.          0.        ]
 [-0.10712872  0.12121356  0.13665422 -0.25101103  0.          0.          0.05891316  0.          0.          0.76589513 -0.01405915 -0.00453607 -0.00412022
   0.          0.         -0.          0.         -0.         -0.          0.         -0.          0.34068822 -0.          0.         -0.          0.
   0.02588458 -0.43024412]
 [ 0.0075444   0.01810024  0.07101838  0.03616586  0.          0.         -0.10259796  0.         -0.         -0.00151842 -0.18645984 -0.06058023 -0.94553393
  -0.          0.          0.         -0.          0.         -0.         -0.          0.         -0.03760231  0.          0.         -0.          0.
   0.22064934 -0.01278762]
 [-0.         -0.         -0.          0.         -0.00377674 -0.00309903  0.         -0.00299147  0.00115836 -0.          0.          0.          0.
   0.85453598  0.51544618  0.         -0.          0.          0.         -0.01685148 -0.036143   -0.         -0.04656582 -0.01564615  0.00675599  0.00046854
   0.          0.        ]
 [-0.         -0.         -0.          0.          0.00309903 -0.00377674  0.          0.00115836  0.00299147 -0.          0.          0.          0.
  -0.51544618  0.85453598  0.          0.         -0.          0.          0.036143   -0.01685148 -0.         -0.01564615  0.04656582  0.00046854 -0.00675599
  -0.          0.        ]
 [-0.          0.         -0.          0.         -0.          0.          0.          0.          0.          0.          0.         -0.         -0.
   0.         -0.         -0.92859973  0.16297949 -0.33219824  0.02801002  0.          0.         -0.         -0.         -0.          0.         -0.
  -0.          0.        ]
 [-0.          0.         -0.          0.         -0.         -0.          0.          0.         -0.         -0.          0.          0.          0.
  -0.          0.         -0.16297949 -0.92859973 -0.02801002 -0.33219824  0.         -0.         -0.         -0.          0.         -0.         -0.
   0.          0.        ]
 [-0.          0.         -0.          0.          0.          0.         -0.          0.          0.          0.          0.         -0.         -0.
   0.         -0.          0.32835798 -0.05763045 -0.93946002  0.07921263  0.          0.         -0.         -0.         -0.          0.         -0.
  -0.          0.        ]
 [ 0.         -0.         -0.          0.          0.         -0.          0.          0.         -0.         -0.         -0.          0.          0.
  -0.          0.          0.05763045  0.32835798 -0.07921263 -0.93946002  0.          0.         -0.          0.          0.         -0.         -0.
   0.         -0.        ]
 [ 0.          0.         -0.          0.         -0.0020404  -0.00190381  0.          0.02681183 -0.01239633 -0.          0.         -0.          0.
  -0.03726018 -0.02584229 -0.          0.         -0.         -0.         -0.34918125 -0.89324574  0.         -0.10534274 -0.02808176  0.25565657  0.00143402
   0.         -0.        ]
 [-0.         -0.         -0.         -0.         -0.00190381  0.0020404   0.          0.01239633  0.02681183  0.          0.         -0.          0.
  -0.02584229  0.03726018 -0.         -0.         -0.         -0.         -0.89324574  0.34918125  0.          0.02808176 -0.10534274 -0.00143402  0.25565657
  -0.          0.        ]
 [-0.01387976  0.00155995  0.0379344  -0.06192829 -0.          0.          0.00134285  0.         -0.         -0.07597266  0.07217113 -0.36795592 -0.00811198
   0.          0.         -0.          0.         -0.          0.          0.         -0.          0.75474118 -0.          0.         -0.          0.
   0.0824188   0.52121397]
 [-0.0032712   0.12902059  0.67500435  0.35921114 -0.          0.         -0.18237895  0.         -0.          0.00240484  0.58537649  0.13307024 -0.04937772
   0.         -0.          0.          0.          0.         -0.          0.          0.          0.00704152  0.         -0.          0.         -0.
  -0.0503608   0.00378479]
 [ 0.0730661  -0.3527114   0.33486032 -0.47327597 -0.          0.          0.00952622  0.          0.          0.12370822  0.11280083 -0.5508173   0.01921266
  -0.         -0.          0.         -0.          0.         -0.         -0.          0.         -0.42166335  0.         -0.          0.         -0.
  -0.03509359  0.15236655]
 [ 0.          0.          0.          0.         -0.28622851  0.37276503  0.         -0.02550726 -0.07277414 -0.         -0.          0.          0.
   0.01782893 -0.03184103 -0.          0.         -0.         -0.         -0.05332656  0.02699433 -0.         -0.3011168   0.80863075 -0.01561299  0.15319877
   0.         -0.        ]
 [ 0.         -0.         -0.         -0.          0.37276503  0.28622851 -0.          0.07277414 -0.02550726  0.          0.         -0.         -0.
  -0.03184103 -0.01782893  0.          0.          0.         -0.          0.02699433  0.05332656 -0.         -0.80863075 -0.3011168  -0.15319877 -0.01561299
  -0.          0.        ]
 [-0.01049152 -0.01111945 -0.13763426 -0.09634452 -0.          0.         -0.35707033  0.          0.          0.02474151  0.01473277 -0.00001331 -0.19074136
   0.          0.          0.         -0.          0.         -0.         -0.         -0.          0.08239936  0.          0.          0.         -0.
  -0.89422805  0.01991708]
 [-0.          0.          0.         -0.          0.07598461  0.00063313 -0.         -0.49850271 -0.15934211  0.         -0.          0.          0.
  -0.0048019   0.0006574   0.          0.          0.         -0.          0.19314808  0.09466223  0.         -0.07250101 -0.11365401  0.59363277  0.55087836
   0.          0.        ]
 [-0.          0.          0.         -0.         -0.00063313  0.07598461 -0.         -0.15934211  0.49850271 -0.         -0.          0.          0.
  -0.0006574  -0.0048019   0.          0.          0.         -0.         -0.09466223  0.19314808  0.         -0.11365401  0.07250101  0.55087836 -0.59363277
   0.         -0.        ]
 [ 0.04355293 -0.12572521  0.07472596 -0.10528568 -0.          0.         -0.02570336  0.         -0.         -0.54195503  0.06959182 -0.29284823  0.00808951
  -0.          0.         -0.          0.         -0.          0.          0.         -0.          0.27498671 -0.          0.         -0.          0.
   0.00510053 -0.71059067]
 [ 0.02877051 -0.06592194 -0.47900399 -0.28021523 -0.         -0.          0.20179314 -0.         -0.          0.0069206   0.75720791  0.14944375 -0.20943928
  -0.         -0.          0.         -0.          0.         -0.          0.          0.         -0.00820482  0.          0.          0.          0.
   0.08039418 -0.00041796]
 [-0.00306511  0.18400132 -0.34132968  0.57101663 -0.         -0.         -0.01603299 -0.          0.          0.22866058  0.1450896  -0.64116565  0.01744882
  -0.         -0.          0.         -0.          0.         -0.          0.          0.         -0.16118521  0.         -0.          0.         -0.
  -0.01715436 -0.1109129 ]]
grids:  [0.06237655 0.31939555 0.74529195 1.28265786 1.85893479 2.39630071 2.8221971  3.07921611] 
weights:  [0.15900941 0.34931531 0.49276925 0.56970235 0.56970235 0.49276925 0.34931531 0.15900941]
S = 0.0, Sz = 0.0
Wigner small d:  1
value : [1. 1. 1. 1. 1. 1. 1. 1.]
**** Start Cycle 1 ****
dm (ortho)
[[[ 0.77266559 -0.35588933 -0.18331698 ...  0.03828364 -0.02528968 -0.00269427]
  [-0.35588933  0.16392242  0.0844357  ... -0.01763342  0.01164841  0.00124098]
  [-0.18331698  0.0844357   0.04349244 ... -0.0090829   0.00600004  0.00063922]
  ...
  [ 0.03828364 -0.01763342 -0.0090829  ...  0.00189686 -0.00125304 -0.00013349]
  [-0.02528968  0.01164841  0.00600004 ... -0.00125304  0.00082774  0.00008818]
  [-0.00269427  0.00124098  0.00063922 ... -0.00013349  0.00008818  0.00000939]]

 [[ 0.77266559  0.35588933 -0.18331698 ... -0.03828364 -0.02528968  0.00269427]
  [ 0.35588933  0.16392242 -0.0844357  ... -0.01763342 -0.01164841  0.00124098]
  [-0.18331698 -0.0844357   0.04349244 ...  0.0090829   0.00600004 -0.00063922]
  ...
  [-0.03828364 -0.01763342  0.0090829  ...  0.00189686  0.00125304 -0.00013349]
  [-0.02528968 -0.01164841  0.00600004 ...  0.00125304  0.00082774 -0.00008818]
  [ 0.00269427  0.00124098 -0.00063922 ... -0.00013349 -0.00008818  0.00000939]]]
Fock (ortho)
 (array([[-0.27651246,  0.21877202,  0.34186583,  0.        , -0.        ,  0.        , -0.        ,  0.09517021,  0.06424305,  0.        , -0.        ,
        -0.        ,  0.        ,  0.        , -0.        ,  0.        , -0.        ,  0.02375275,  0.05073   ,  0.01260084, -0.        ,  0.        ,
         0.22239524,  0.        , -0.        , -0.01273743,  0.04949818, -0.00916792],
       [ 0.21877202,  0.22880021, -0.08771023,  0.        ,  0.        , -0.        ,  0.        , -0.47803489,  0.00426829,  0.        , -0.        ,
        -0.        ,  0.        ,  0.        , -0.        ,  0.        , -0.        , -0.1892636 ,  0.08258207,  0.56016904,  0.        ,  0.        ,
         0.00158178,  0.        , -0.        , -0.04674658, -0.00795968,  0.17255914],
       [ 0.34186583, -0.08771023,  1.17339309,  0.        , -0.        ,  0.        , -0.        ,  0.01357111,  0.0778349 ,  0.        , -0.        ,
        -0.        , -0.        ,  0.        ,  0.        ,  0.        , -0.        ,  0.00766762, -0.06346807, -0.01099377, -0.        ,  0.        ,
         1.1628337 ,  0.        , -0.        ,  0.00012804, -0.07998122,  0.00056415],
       [ 0.        ,  0.        ,  0.        ,  1.41114322, -0.        ,  0.03583961,  0.03858477,  0.        , -0.        ,  0.00110119,  0.00121893,
         0.        , -0.        ,  0.        , -0.        , -0.00476235,  0.00464077, -0.        , -0.        , -0.        ,  1.01586306,  0.8597804 ,
         0.        ,  0.00021944,  0.00392306,  0.        , -0.        , -0.        ],
       [-0.        ,  0.        , -0.        , -0.        ,  1.41114322,  0.03858477, -0.03583961, -0.        ,  0.        , -0.00121893,  0.00110119,
        -0.        , -0.        , -0.        ,  0.        ,  0.00464077,  0.00476235,  0.        , -0.        ,  0.        ,  0.8597804 , -1.01586306,
         0.        , -0.00392306,  0.00021944, -0.        ,  0.        , -0.        ],
       [ 0.        , -0.        ,  0.        ,  0.03583961,  0.03858477,  1.76656655,  0.        ,  0.        ,  0.        ,  0.00067126, -0.00764567,
        -0.        , -0.        , -0.        , -0.        ,  0.00046961,  0.01961278, -0.        ,  0.        , -0.        ,  0.01013456, -0.00122092,
         0.        , -0.95749324,  0.99460417, -0.        , -0.        ,  0.        ],
       [-0.        ,  0.        , -0.        ,  0.03858477, -0.03583961,  0.        ,  1.76656655, -0.        , -0.        , -0.00764567, -0.00067126,
         0.        ,  0.        ,  0.        ,  0.        , -0.01961278,  0.00046961,  0.        , -0.        ,  0.        ,  0.00122092,  0.01013456,
        -0.        ,  0.99460417,  0.95749324, -0.        ,  0.        , -0.        ],
       [ 0.09517021, -0.47803489,  0.01357111,  0.        , -0.        ,  0.        , -0.        ,  2.10234906, -0.01525619,  0.        ,  0.        ,
        -0.        ,  0.        , -0.        , -0.        ,  0.        ,  0.        , -0.12188114,  0.04203337, -0.66633523, -0.        , -0.        ,
         0.01492222, -0.        ,  0.        ,  1.29156142,  0.00134865,  0.1533509 ],
       [ 0.06424305,  0.00426829,  0.0778349 , -0.        ,  0.        ,  0.        , -0.        , -0.01525619,  3.17979877, -0.        , -0.        ,
        -0.        , -0.        ,  0.        ,  0.        , -0.        ,  0.        ,  0.01657044, -0.14912003,  0.00220837,  0.        , -0.        ,
        -0.22875354, -0.        , -0.        , -0.00160176,  0.30417663, -0.0001034 ],
       [ 0.        ,  0.        ,  0.        ,  0.00110119, -0.00121893,  0.00067126, -0.00764567,  0.        , -0.        ,  3.27366856,  0.        ,
         0.        , -0.        ,  0.        ,  0.        , -0.02055561, -0.00130977,  0.        , -0.        , -0.        ,  0.00093989,  0.02906971,
        -0.        , -0.00157635, -0.00127165, -0.        , -0.        , -0.        ],
       [-0.        , -0.        , -0.        ,  0.00121893,  0.00110119, -0.00764567, -0.00067126,  0.        , -0.        ,  0.        ,  3.27366856,
         0.        , -0.        ,  0.        , -0.        , -0.00130977,  0.02055561, -0.        ,  0.        , -0.        ,  0.02906971, -0.00093989,
         0.        ,  0.00127165, -0.00157635, -0.        , -0.        , -0.        ],
       [-0.        , -0.        , -0.        ,  0.        , -0.        , -0.        ,  0.        , -0.        , -0.        ,  0.        ,  0.        ,
         3.42860406,  0.        , -0.02222144, -0.        ,  0.        , -0.        ,  0.        , -0.        , -0.        , -0.        , -0.        ,
        -0.        , -0.        ,  0.        , -0.        , -0.        , -0.        ],
       [ 0.        ,  0.        , -0.        , -0.        , -0.        , -0.        ,  0.        ,  0.        , -0.        , -0.        , -0.        ,
         0.        ,  3.42860406,  0.        , -0.02222144,  0.        , -0.        , -0.        ,  0.        , -0.        ,  0.        ,  0.        ,
        -0.        , -0.        ,  0.        , -0.        , -0.        , -0.        ],
       [ 0.        ,  0.        ,  0.        ,  0.        , -0.        , -0.        ,  0.        , -0.        ,  0.        ,  0.        ,  0.        ,
        -0.02222144,  0.        ,  3.47769128,  0.        ,  0.        , -0.        ,  0.        , -0.        ,  0.        ,  0.        , -0.        ,
         0.        , -0.        ,  0.        , -0.        , -0.        , -0.        ],
       [-0.        , -0.        ,  0.        , -0.        ,  0.        , -0.        ,  0.        , -0.        ,  0.        ,  0.        , -0.        ,
        -0.        , -0.02222144,  0.        ,  3.47769128,  0.        , -0.        ,  0.        , -0.        , -0.        ,  0.        ,  0.        ,
         0.        , -0.        ,  0.        ,  0.        ,  0.        ,  0.        ],
       [ 0.        ,  0.        ,  0.        , -0.00476235,  0.00464077,  0.00046961, -0.01961278,  0.        , -0.        , -0.02055561, -0.00130977,
         0.        ,  0.        ,  0.        ,  0.        ,  3.65638276, -0.        , -0.        ,  0.        ,  0.        , -0.00037242, -0.0038693 ,
        -0.        ,  0.09177554,  0.08421259, -0.        , -0.        , -0.        ],
       [-0.        , -0.        , -0.        ,  0.00464077,  0.00476235,  0.01961278,  0.00046961,  0.        ,  0.        , -0.00130977,  0.02055561,
        -0.        , -0.        , -0.        , -0.        , -0.        ,  3.65638276, -0.        , -0.        , -0.        ,  0.0038693 , -0.00037242,
         0.        ,  0.08421259, -0.09177554,  0.        , -0.        ,  0.        ],
       [ 0.02375275, -0.1892636 ,  0.00766762, -0.        ,  0.        , -0.        ,  0.        , -0.12188114,  0.01657044,  0.        , -0.        ,
         0.        , -0.        ,  0.        ,  0.        , -0.        , -0.        ,  3.87727646,  0.01545512, -0.29180303, -0.        ,  0.        ,
         0.0099865 , -0.        , -0.        , -0.59006854,  0.0034142 , -0.13374172],
       [ 0.05073   ,  0.08258207, -0.06346807, -0.        , -0.        ,  0.        , -0.        ,  0.04203337, -0.14912003, -0.        ,  0.        ,
        -0.        ,  0.        , -0.        , -0.        ,  0.        , -0.        ,  0.01545512,  1.16668731,  0.04085441, -0.        ,  0.        ,
         0.23898864, -0.        , -0.        ,  0.01033153,  0.97014894,  0.01009047],
       [ 0.01260084,  0.56016904, -0.01099377, -0.        ,  0.        , -0.        ,  0.        , -0.66633523,  0.00220837, -0.        , -0.        ,
        -0.        , -0.        ,  0.        , -0.        ,  0.        , -0.        , -0.29180303,  0.04085441,  1.8066804 ,  0.        , -0.        ,
        -0.00917571,  0.        , -0.        , -0.55656714,  0.01673862,  1.03415034],
       [-0.        ,  0.        , -0.        ,  1.01586306,  0.8597804 ,  0.01013456,  0.00122092, -0.        ,  0.        ,  0.00093989,  0.02906971,
        -0.        ,  0.        ,  0.        ,  0.        , -0.00037242,  0.0038693 , -0.        , -0.        ,  0.        ,  3.14017657, -0.        ,
        -0.        , -0.0109965 ,  0.01457085, -0.        ,  0.        , -0.        ],
       [ 0.        ,  0.        ,  0.        ,  0.8597804 , -1.01586306, -0.00122092,  0.01013456, -0.        , -0.        ,  0.02906971, -0.00093989,
        -0.        ,  0.        , -0.        ,  0.        , -0.0038693 , -0.00037242,  0.        ,  0.        , -0.        ,  0.        ,  3.14017657,
         0.        ,  0.01457085,  0.0109965 , -0.        , -0.        ,  0.        ],
       [ 0.22239524,  0.00158178,  1.1628337 ,  0.        ,  0.        ,  0.        , -0.        ,  0.01492222, -0.22875354, -0.        ,  0.        ,
        -0.        , -0.        ,  0.        ,  0.        , -0.        ,  0.        ,  0.0099865 ,  0.23898864, -0.00917571, -0.        ,  0.        ,
         3.53035924,  0.        , -0.        ,  0.01083065, -0.15850548,  0.00098357],
       [ 0.        ,  0.        ,  0.        ,  0.00021944, -0.00392306, -0.95749324,  0.99460417, -0.        , -0.        , -0.00157635,  0.00127165,
        -0.        , -0.        , -0.        , -0.        ,  0.09177554,  0.08421259, -0.        , -0.        ,  0.        , -0.0109965 ,  0.01457085,
         0.        ,  3.11890294, -0.        ,  0.        ,  0.        , -0.        ],
       [-0.        , -0.        , -0.        ,  0.00392306,  0.00021944,  0.99460417,  0.95749324,  0.        , -0.        , -0.00127165, -0.00157635,
         0.        ,  0.        ,  0.        ,  0.        ,  0.08421259, -0.09177554, -0.        , -0.        , -0.        ,  0.01457085,  0.0109965 ,
        -0.        , -0.        ,  3.11890294, -0.        ,  0.        ,  0.        ],
       [-0.01273743, -0.04674658,  0.00012804,  0.        , -0.        , -0.        , -0.        ,  1.29156142, -0.00160176, -0.        , -0.        ,
        -0.        , -0.        , -0.        ,  0.        , -0.        ,  0.        , -0.59006854,  0.01033153, -0.55656714, -0.        , -0.        ,
         0.01083065,  0.        , -0.        ,  3.28582247,  0.00682897,  0.53408438],
       [ 0.04949818, -0.00795968, -0.07998122, -0.        ,  0.        , -0.        ,  0.        ,  0.00134865,  0.30417663, -0.        , -0.        ,
        -0.        , -0.        , -0.        ,  0.        , -0.        , -0.        ,  0.0034142 ,  0.97014894,  0.01673862,  0.        , -0.        ,
        -0.15850548,  0.        ,  0.        ,  0.00682897,  1.78537268,  0.01385819],
       [-0.00916792,  0.17255914,  0.00056415, -0.        , -0.        ,  0.        , -0.        ,  0.1533509 , -0.0001034 , -0.        , -0.        ,
        -0.        , -0.        , -0.        ,  0.        , -0.        ,  0.        , -0.13374172,  0.01009047,  1.03415034, -0.        ,  0.        ,
         0.00098357, -0.        ,  0.        ,  0.53408438,  0.01385819,  1.56337716]]), array([[-0.27651246, -0.21877202,  0.34186583,  0.        ,  0.        , -0.        , -0.        , -0.09517021,  0.06424305,  0.        , -0.        ,
        -0.        , -0.        ,  0.        ,  0.        ,  0.        , -0.        , -0.02375275,  0.05073   , -0.01260084, -0.        ,  0.        ,
         0.22239524,  0.        , -0.        ,  0.01273743,  0.04949818,  0.00916792],
       [-0.21877202,  0.22880021,  0.08771023,  0.        ,  0.        , -0.        ,  0.        , -0.47803489, -0.00426829, -0.        , -0.        ,
        -0.        , -0.        ,  0.        ,  0.        ,  0.        , -0.        , -0.1892636 , -0.08258207,  0.56016904,  0.        ,  0.        ,
        -0.00158178,  0.        , -0.        , -0.04674658,  0.00795968,  0.17255914],
       [ 0.34186583,  0.08771023,  1.17339309, -0.        , -0.        ,  0.        , -0.        , -0.01357111,  0.0778349 ,  0.        , -0.        ,
        -0.        ,  0.        ,  0.        , -0.        ,  0.        , -0.        , -0.00766762, -0.06346807,  0.01099377, -0.        ,  0.        ,
         1.1628337 ,  0.        , -0.        , -0.00012804, -0.07998122, -0.00056415],
       [ 0.        ,  0.        , -0.        ,  1.41114322, -0.        , -0.03583961, -0.03858477,  0.        , -0.        ,  0.00110119,  0.00121893,
         0.        ,  0.        ,  0.        , -0.        ,  0.00476235, -0.00464077, -0.        , -0.        , -0.        ,  1.01586306,  0.8597804 ,
         0.        , -0.00021944, -0.00392306,  0.        , -0.        , -0.        ],
       [ 0.        ,  0.        , -0.        , -0.        ,  1.41114322, -0.03858477,  0.03583961, -0.        ,  0.        , -0.00121893,  0.00110119,
        -0.        ,  0.        , -0.        ,  0.        , -0.00464077, -0.00476235,  0.        , -0.        ,  0.        ,  0.8597804 , -1.01586306,
         0.        ,  0.00392306, -0.00021944, -0.        ,  0.        , -0.        ],
       [-0.        , -0.        ,  0.        , -0.03583961, -0.03858477,  1.76656655,  0.        ,  0.        ,  0.        , -0.00067126,  0.00764567,
        -0.        , -0.        , -0.        , -0.        ,  0.00046961,  0.01961278, -0.        ,  0.        , -0.        , -0.01013456,  0.00122092,
         0.        , -0.95749324,  0.99460417, -0.        , -0.        ,  0.        ],
       [-0.        ,  0.        , -0.        , -0.03858477,  0.03583961,  0.        ,  1.76656655, -0.        , -0.        ,  0.00764567,  0.00067126,
         0.        ,  0.        ,  0.        ,  0.        , -0.01961278,  0.00046961,  0.        , -0.        ,  0.        , -0.00122092, -0.01013456,
        -0.        ,  0.99460417,  0.95749324, -0.        ,  0.        , -0.        ],
       [-0.09517021, -0.47803489, -0.01357111,  0.        , -0.        ,  0.        , -0.        ,  2.10234906,  0.01525619, -0.        , -0.        ,
        -0.        , -0.        , -0.        ,  0.        ,  0.        ,  0.        , -0.12188114, -0.04203337, -0.66633523, -0.        , -0.        ,
        -0.01492222, -0.        ,  0.        ,  1.29156142, -0.00134865,  0.1533509 ],
       [ 0.06424305, -0.00426829,  0.0778349 , -0.        ,  0.        ,  0.        , -0.        ,  0.01525619,  3.17979877, -0.        , -0.        ,
        -0.        ,  0.        ,  0.        ,  0.        ,  0.        , -0.        , -0.01657044, -0.14912003, -0.00220837,  0.        , -0.        ,
        -0.22875354, -0.        , -0.        ,  0.00160176,  0.30417663,  0.0001034 ],
       [ 0.        , -0.        ,  0.        ,  0.00110119, -0.00121893, -0.00067126,  0.00764567, -0.        , -0.        ,  3.27366856,  0.        ,
         0.        ,  0.        ,  0.        ,  0.        ,  0.02055561,  0.00130977,  0.        , -0.        , -0.        ,  0.00093989,  0.02906971,
        -0.        ,  0.00157635,  0.00127165, -0.        , -0.        , -0.        ],
       [-0.        , -0.        , -0.        ,  0.00121893,  0.00110119,  0.00764567,  0.00067126, -0.        , -0.        ,  0.        ,  3.27366856,
         0.        , -0.        ,  0.        , -0.        ,  0.00130977, -0.02055561,  0.        ,  0.        , -0.        ,  0.02906971, -0.00093989,
         0.        , -0.00127165,  0.00157635, -0.        , -0.        , -0.        ],
       [-0.        , -0.        , -0.        ,  0.        , -0.        , -0.        ,  0.        , -0.        , -0.        ,  0.        ,  0.        ,
         3.42860406,  0.        ,  0.02222144,  0.        ,  0.        , -0.        ,  0.        , -0.        , -0.        , -0.        , -0.        ,
        -0.        , -0.        ,  0.        , -0.        , -0.        , -0.        ],
       [-0.        , -0.        ,  0.        ,  0.        ,  0.        , -0.        ,  0.        , -0.        ,  0.        ,  0.        , -0.        ,
         0.        ,  3.42860406, -0.        ,  0.02222144,  0.        , -0.        , -0.        , -0.        , -0.        ,  0.        ,  0.        ,
         0.        , -0.        ,  0.        ,  0.        ,  0.        ,  0.        ],
       [ 0.        ,  0.        ,  0.        ,  0.        , -0.        , -0.        ,  0.        , -0.        ,  0.        ,  0.        ,  0.        ,
         0.02222144, -0.        ,  3.47769128,  0.        ,  0.        , -0.        ,  0.        , -0.        ,  0.        ,  0.        , -0.        ,
         0.        , -0.        ,  0.        , -0.        , -0.        , -0.        ],
       [ 0.        ,  0.        , -0.        , -0.        ,  0.        , -0.        ,  0.        ,  0.        ,  0.        ,  0.        , -0.        ,
         0.        ,  0.02222144,  0.        ,  3.47769128,  0.        , -0.        ,  0.        ,  0.        ,  0.        ,  0.        ,  0.        ,
         0.        , -0.        ,  0.        , -0.        , -0.        , -0.        ],
       [ 0.        ,  0.        ,  0.        ,  0.00476235, -0.00464077,  0.00046961, -0.01961278,  0.        ,  0.        ,  0.02055561,  0.00130977,
         0.        ,  0.        ,  0.        ,  0.        ,  3.65638276, -0.        , -0.        ,  0.        ,  0.        ,  0.00037242,  0.0038693 ,
        -0.        ,  0.09177554,  0.08421259, -0.        , -0.        , -0.        ],
       [-0.        , -0.        , -0.        , -0.00464077, -0.00476235,  0.01961278,  0.00046961,  0.        , -0.        ,  0.00130977, -0.02055561,
        -0.        , -0.        , -0.        , -0.        , -0.        ,  3.65638276,  0.        , -0.        , -0.        , -0.0038693 ,  0.00037242,
        -0.        ,  0.08421259, -0.09177554,  0.        , -0.        ,  0.        ],
       [-0.02375275, -0.1892636 , -0.00766762, -0.        ,  0.        , -0.        ,  0.        , -0.12188114, -0.01657044,  0.        ,  0.        ,
         0.        , -0.        ,  0.        ,  0.        , -0.        ,  0.        ,  3.87727646, -0.01545512, -0.29180303,  0.        ,  0.        ,
        -0.0099865 , -0.        , -0.        , -0.59006854, -0.0034142 , -0.13374172],
       [ 0.05073   , -0.08258207, -0.06346807, -0.        , -0.        ,  0.        , -0.        , -0.04203337, -0.14912003, -0.        ,  0.        ,
        -0.        , -0.        , -0.        ,  0.        ,  0.        , -0.        , -0.01545512,  1.16668731, -0.04085441, -0.        ,  0.        ,
         0.23898864, -0.        , -0.        , -0.01033153,  0.97014894, -0.01009047],
       [-0.01260084,  0.56016904,  0.01099377, -0.        ,  0.        , -0.        ,  0.        , -0.66633523, -0.00220837, -0.        , -0.        ,
        -0.        , -0.        ,  0.        ,  0.        ,  0.        , -0.        , -0.29180303, -0.04085441,  1.8066804 ,  0.        , -0.        ,
         0.00917571,  0.        , -0.        , -0.55656714, -0.01673862,  1.03415034],
       [-0.        ,  0.        , -0.        ,  1.01586306,  0.8597804 , -0.01013456, -0.00122092, -0.        ,  0.        ,  0.00093989,  0.02906971,
        -0.        ,  0.        ,  0.        ,  0.        ,  0.00037242, -0.0038693 ,  0.        , -0.        ,  0.        ,  3.14017657, -0.        ,
        -0.        ,  0.0109965 , -0.01457085, -0.        ,  0.        , -0.        ],
       [ 0.        ,  0.        ,  0.        ,  0.8597804 , -1.01586306,  0.00122092, -0.01013456, -0.        , -0.        ,  0.02906971, -0.00093989,
        -0.        ,  0.        , -0.        ,  0.        ,  0.0038693 ,  0.00037242,  0.        ,  0.        , -0.        ,  0.        ,  3.14017657,
         0.        , -0.01457085, -0.0109965 , -0.        , -0.        ,  0.        ],
       [ 0.22239524, -0.00158178,  1.1628337 ,  0.        ,  0.        ,  0.        , -0.        , -0.01492222, -0.22875354, -0.        ,  0.        ,
        -0.        ,  0.        ,  0.        ,  0.        , -0.        , -0.        , -0.0099865 ,  0.23898864,  0.00917571, -0.        ,  0.        ,
         3.53035924,  0.        , -0.        , -0.01083065, -0.15850548, -0.00098357],
       [ 0.        ,  0.        ,  0.        , -0.00021944,  0.00392306, -0.95749324,  0.99460417, -0.        , -0.        ,  0.00157635, -0.00127165,
        -0.        , -0.        , -0.        , -0.        ,  0.09177554,  0.08421259, -0.        , -0.        ,  0.        ,  0.0109965 , -0.01457085,
         0.        ,  3.11890294, -0.        ,  0.        ,  0.        , -0.        ],
       [-0.        , -0.        , -0.        , -0.00392306, -0.00021944,  0.99460417,  0.95749324,  0.        , -0.        ,  0.00127165,  0.00157635,
         0.        ,  0.        ,  0.        ,  0.        ,  0.08421259, -0.09177554, -0.        , -0.        , -0.        , -0.01457085, -0.0109965 ,
        -0.        , -0.        ,  3.11890294, -0.        ,  0.        ,  0.        ],
       [ 0.01273743, -0.04674658, -0.00012804,  0.        , -0.        , -0.        , -0.        ,  1.29156142,  0.00160176, -0.        , -0.        ,
        -0.        ,  0.        , -0.        , -0.        , -0.        ,  0.        , -0.59006854, -0.01033153, -0.55656714, -0.        , -0.        ,
        -0.01083065,  0.        , -0.        ,  3.28582247, -0.00682897,  0.53408438],
       [ 0.04949818,  0.00795968, -0.07998122, -0.        ,  0.        , -0.        ,  0.        , -0.00134865,  0.30417663, -0.        , -0.        ,
        -0.        ,  0.        , -0.        , -0.        , -0.        , -0.        , -0.0034142 ,  0.97014894, -0.01673862,  0.        , -0.        ,
        -0.15850548,  0.        ,  0.        , -0.00682897,  1.78537268, -0.01385819],
       [ 0.00916792,  0.17255914, -0.00056415, -0.        , -0.        ,  0.        , -0.        ,  0.1533509 ,  0.0001034 , -0.        , -0.        ,
        -0.        ,  0.        , -0.        , -0.        , -0.        ,  0.        , -0.13374172, -0.01009047,  1.03415034, -0.        ,  0.        ,
        -0.00098357, -0.        ,  0.        ,  0.53408438, -0.01385819,  1.56337716]]))
E(UHF) =    -1.318853
NO eigenvalue
[-1. -0. -0. -0. -0. -0. -0. -0. -0. -0. -0. -0. -0. -0. -0. -0. -0.  0.  0.  0.  0.  0.  0.  0.  0.  0.  0.  0.] [-1. -0. -0. -0. -0. -0. -0. -0. -0. -0. -0. -0. -0.  0.  0.  0.  0.  0.  0.  0.  0.  0.  0.  0.  0.  0.  0.  0.]
NO vec
[[ 0.87901399  0.          0.00055783 ...  0.          0.          0.        ]
 [-0.40487334  0.          0.49071201 ...  0.          0.          0.        ]
 [-0.20854842  0.         -0.715767   ...  0.          0.          0.        ]
 ...
 [ 0.         -0.04355293  0.         ... -0.49954282 -0.36976894 -0.04345717]
 [ 0.         -0.02877051  0.         ... -0.16920233 -0.28753338 -0.06013716]
 [ 0.          0.00306511  0.         ...  0.00837117  0.01115089 -0.00686825]]
dm(NO)
[[ 1.  0. -0. ...  0.  0.  0.]
 [ 0.  1.  0. ... -0. -0. -0.]
 [ 0.  0.  0. ...  0.  0.  0.]
 ...
 [ 0. -0.  0. ... -0.  0. -0.]
 [ 0. -0.  0. ...  0.  0.  0.]
 [ 0.  0.  0. ...  0.  0. -0.]]
D(g) (NO)
[[ 0.99951369  0.01978035  0.         ...  0.00315102 -0.0029521  -0.01096542]
 [-0.01978035  0.99951369 -0.00942414 ...  0.         -0.          0.        ]
 [ 0.          0.00942414  0.99951369 ...  0.01327477  0.00497099 -0.00663007]
 ...
 [-0.00315102  0.         -0.01327477 ...  0.99951369 -0.          0.        ]
 [ 0.0029521  -0.         -0.00497099 ... -0.          0.99951369  0.        ]
 [ 0.01096542  0.          0.00663007 ...  0.          0.          0.99951369]]
...
N(g) (NO)
[[ 1.00009487 -0.01979186]
 [ 0.01979186  1.00009487]]
...
P(g) (NO)
[[ 1.         -0.         -0.         ...  0.          0.          0.        ]
 [-0.          1.          0.         ... -0.         -0.         -0.        ]
 [ 0.00018652  0.00942504 -0.         ... -0.         -0.         -0.        ]
 ...
 [-0.00315132  0.00006236  0.         ... -0.         -0.         -0.        ]
 [ 0.00295238 -0.00005843 -0.         ...  0.          0.          0.        ]
 [ 0.01096646 -0.00021703 -0.         ...  0.          0.          0.        ]]
...
Pg_ortho
[[ 0.77283996 -0.35596964 -0.18335835 ... -0.00043658 -0.0002884   0.00003073]
 [-0.35553035  0.16375708  0.08435053 ... -0.00089875 -0.0005937   0.00006325]
 [-0.18335835  0.08445475  0.04350226 ...  0.00010358  0.00006842 -0.00000729]
 ...
 [-0.00195126  0.00089875  0.00046294 ...  0.00189494  0.00125178 -0.00013336]
 [ 0.0002884  -0.00013284 -0.00006842 ...  0.00125332  0.00082793 -0.0000882 ]
 [ 0.00013732 -0.00006325 -0.00003258 ... -0.00013336 -0.0000881   0.00000939]]
G(g) (NO)
[[ 0.3599153  -0.00204098 -0.00638317 ...  0.00017714 -0.0007604  -0.00082346]
 [ 0.00204098  0.3599153  -0.00085782 ... -0.00160785 -0.00702446  0.00962781]
 [-0.0064303  -0.00696665  0.95574408 ... -0.00107651 -0.0005103  -0.00038421]
 ...
 [ 0.00176487 -0.00162529 -0.00035152 ...  0.93503836 -0.07258477  0.00508331]
 [-0.00326665 -0.00699002  0.00122095 ... -0.07258729  0.85133852 -0.00938662]
 [-0.00743789  0.00968     0.00087365 ...  0.00508696 -0.00939916  0.92349224]]
...
C(NO)
[[-1.          0.         -0.         ...  0.          0.          0.        ]
 [ 0.         -1.          0.         ... -0.          0.          0.        ]
 [-0.          0.         -0.25850283 ...  0.          0.          0.        ]
 ...
 [ 0.         -0.          0.         ... -0.          0.26454688  0.74718222]
 [ 0.          0.          0.         ... -0.          0.06865032  0.05552733]
 [ 0.         -0.          0.         ... -0.         -0.25368702  0.10409519]]
detC 1.000000000000001
detNg [1.00058147 1.01534433 1.08603431 1.27210461 1.62266071 2.07645755 2.39530662 2.48168652]
xg [0.99941887 0.98488756 0.92078122 0.78609887 0.61627178 0.48158943 0.41748309 0.40295178]
ciS 1.4023706483916947
[[-0.83936391  0.          0.01242897 ...  0.          0.          0.        ]
 [ 0.         -0.83936391  0.         ...  0.00316147  0.00096902 -0.01561493]
 [ 0.01242897  0.          0.51553331 ...  0.          0.          0.        ]
 ...
 [ 0.          0.00316147  0.         ...  3.08312882  0.23059306  0.48189988]
 [ 0.          0.00096902  0.         ...  0.23059306  0.42518721 -0.0979266 ]
 [ 0.         -0.01561493  0.         ...  0.48189988 -0.0979266   0.22516213]]
ciH -1.8699406224710484
S2 = 0.000000
X(g)
[[ 2.          0.          0.00018652 ...  0.00315132 -0.00295238 -0.01096646]
 [-0.          2.         -0.00942504 ...  0.00006236 -0.00005843 -0.00021703]
 [ 0.00018652  0.00942504  0.         ...  0.          0.          0.        ]
 ...
 [-0.00315132  0.00006236  0.         ...  0.          0.          0.        ]
 [ 0.00295238 -0.00005843  0.         ...  0.          0.          0.        ]
 [ 0.01096646 -0.00021703  0.         ...  0.          0.          0.        ]]
X(g) int
[[ 2.          0.          0.13670088 ...  0.05659232 -0.05301976 -0.19693883]
 [ 0.          2.         -0.16925755 ...  0.04570679 -0.04282141 -0.15905767]
 [ 0.13670088  0.16925755  0.         ...  0.          0.          0.        ]
 ...
 [-0.05659232  0.04570679  0.         ...  0.          0.          0.        ]
 [ 0.05301976 -0.04282141  0.         ...  0.          0.          0.        ]
 [ 0.19693883 -0.15905767  0.         ...  0.          0.          0.        ]]
Hsp + Hph =  -1.3334139762662498
Feff (mod,ortho)
[[-0.25902609  0.2343975   0.33595127 ...  0.          0.          0.        ]
 [ 0.2343975   0.21069628 -0.09060405 ...  0.          0.          0.        ]
 [ 0.33595127 -0.09060405  1.1752153  ...  0.          0.          0.        ]
 ...
 [ 0.          0.          0.         ...  3.28588819 -0.00675852  0.53399761]
 [ 0.          0.          0.         ... -0.00675852  1.78543707 -0.01391741]
 [ 0.          0.          0.         ...  0.53399761 -0.01391741  1.56338905]]
E(SUHF) =     -1.02213326
e_a, e_b
[-0.48296808  0.06231536  0.3618266   0.47191128  0.68204085  0.68204085  0.75452124  0.90928207  0.90928207  1.26807471  2.46220739  2.66956132  3.20811415
  3.27152586  3.27152586  3.42003904  3.42003904  3.4862563   3.4862563   3.63240719  3.63240719  3.83809954  3.85920429  3.85920429  4.01238037  4.01238037
  4.10143891  4.70830196] [-0.48296808  0.06231536  0.3618266   0.47191128  0.68204085  0.68204085  0.75452124  0.90928207  0.90928207  1.26807471  2.46220739  2.66956132  3.20811415
  3.27152586  3.27152586  3.42003904  3.42003904  3.4862563   3.4862563   3.63240719  3.63240719  3.83809954  3.85920429  3.85920429  4.01238037  4.01238037
  4.10143891  4.70830196]
P_a, P_b
[[ 0.71721777 -0.39325711 -0.17325152  0.          0.         -0.          0.         -0.10703775 -0.00691884  0.          0.         -0.         -0.
  -0.          0.          0.         -0.         -0.01444925 -0.00527654  0.06499886 -0.          0.          0.00992474 -0.          0.          0.04132356
  -0.01938994  0.00081632]
 [-0.39325711  0.21562649  0.09499541 -0.         -0.          0.         -0.          0.05868978  0.00379367 -0.         -0.          0.          0.
   0.         -0.         -0.          0.          0.00792266  0.00289318 -0.03563947  0.         -0.         -0.00544183  0.         -0.         -0.02265809
   0.01063169 -0.00044759]
 [-0.17325152  0.09499541  0.04185073 -0.         -0.          0.         -0.          0.0258561   0.00167132 -0.         -0.          0.          0.
   0.         -0.         -0.          0.          0.00349037  0.00127461 -0.01570116  0.         -0.         -0.00239743  0.         -0.         -0.00998214
   0.00468385 -0.00019719]
 [ 0.         -0.         -0.          0.          0.         -0.          0.         -0.         -0.          0.          0.         -0.         -0.
  -0.          0.          0.         -0.         -0.         -0.          0.         -0.          0.          0.         -0.          0.          0.
  -0.          0.        ]
 [ 0.         -0.         -0.          0.          0.         -0.          0.         -0.         -0.          0.          0.         -0.         -0.
  -0.          0.          0.         -0.         -0.         -0.          0.         -0.          0.          0.         -0.          0.          0.
  -0.          0.        ]
 [-0.          0.          0.         -0.         -0.          0.         -0.          0.          0.         -0.         -0.          0.          0.
   0.         -0.         -0.          0.          0.          0.         -0.          0.         -0.         -0.          0.         -0.         -0.
   0.         -0.        ]
 [ 0.         -0.         -0.          0.          0.         -0.          0.         -0.         -0.          0.          0.         -0.         -0.
  -0.          0.          0.         -0.         -0.         -0.          0.         -0.          0.          0.         -0.          0.          0.
  -0.          0.        ]
 [-0.10703775  0.05868978  0.0258561  -0.         -0.          0.         -0.          0.01597434  0.00103257 -0.         -0.          0.          0.
   0.         -0.         -0.          0.          0.00215641  0.00078747 -0.00970045  0.         -0.         -0.00148117  0.         -0.         -0.00616714
   0.00289376 -0.00012183]
 [-0.00691884  0.00379367  0.00167132 -0.         -0.          0.         -0.          0.00103257  0.00006674 -0.         -0.          0.          0.
   0.         -0.         -0.          0.          0.00013939  0.0000509  -0.00062703  0.         -0.         -0.00009574  0.         -0.         -0.00039864
   0.00018705 -0.00000787]
 [ 0.         -0.         -0.          0.          0.         -0.          0.         -0.         -0.          0.          0.         -0.         -0.
  -0.          0.          0.         -0.         -0.         -0.          0.         -0.          0.          0.         -0.          0.          0.
  -0.          0.        ]
 [ 0.         -0.         -0.          0.          0.         -0.          0.         -0.         -0.          0.          0.         -0.         -0.
  -0.          0.          0.         -0.         -0.         -0.          0.         -0.          0.          0.         -0.          0.          0.
  -0.          0.        ]
 [-0.          0.          0.         -0.         -0.          0.         -0.          0.          0.         -0.         -0.          0.          0.
   0.         -0.         -0.          0.          0.          0.         -0.          0.         -0.         -0.          0.         -0.         -0.
   0.         -0.        ]
 [-0.          0.          0.         -0.         -0.          0.         -0.          0.          0.         -0.         -0.          0.          0.
   0.         -0.         -0.          0.          0.          0.         -0.          0.         -0.         -0.          0.         -0.         -0.
   0.         -0.        ]
 [-0.          0.          0.         -0.         -0.          0.         -0.          0.          0.         -0.         -0.          0.          0.
   0.         -0.         -0.          0.          0.          0.         -0.          0.         -0.         -0.          0.         -0.         -0.
   0.         -0.        ]
 [ 0.         -0.         -0.          0.          0.         -0.          0.         -0.         -0.          0.          0.         -0.         -0.
  -0.          0.          0.         -0.         -0.         -0.          0.         -0.          0.          0.         -0.          0.          0.
  -0.          0.        ]
 [ 0.         -0.         -0.          0.          0.         -0.          0.         -0.         -0.          0.          0.         -0.         -0.
  -0.          0.          0.         -0.         -0.         -0.          0.         -0.          0.          0.         -0.          0.          0.
  -0.          0.        ]
 [-0.          0.          0.         -0.         -0.          0.         -0.          0.          0.         -0.         -0.          0.          0.
   0.         -0.         -0.          0.          0.          0.         -0.          0.         -0.         -0.          0.         -0.         -0.
   0.         -0.        ]
 [-0.01444925  0.00792266  0.00349037 -0.         -0.          0.         -0.          0.00215641  0.00013939 -0.         -0.          0.          0.
   0.         -0.         -0.          0.          0.0002911   0.0001063  -0.00130948  0.         -0.         -0.00019995  0.         -0.         -0.00083252
   0.00039063 -0.00001645]
 [-0.00527654  0.00289318  0.00127461 -0.         -0.          0.         -0.          0.00078747  0.0000509  -0.         -0.          0.          0.
   0.         -0.         -0.          0.          0.0001063   0.00003882 -0.00047819  0.         -0.         -0.00007302  0.         -0.         -0.00030402
   0.00014265 -0.00000601]
 [ 0.06499886 -0.03563947 -0.01570116  0.          0.         -0.          0.         -0.00970045 -0.00062703  0.          0.         -0.         -0.
  -0.          0.          0.         -0.         -0.00130948 -0.00047819  0.00589061 -0.          0.          0.00089944 -0.          0.          0.00374501
  -0.00175724  0.00007398]
 [-0.          0.          0.         -0.         -0.          0.         -0.          0.          0.         -0.         -0.          0.          0.
   0.         -0.         -0.          0.          0.          0.         -0.          0.         -0.         -0.          0.         -0.         -0.
   0.         -0.        ]
 [ 0.         -0.         -0.          0.          0.         -0.          0.         -0.         -0.          0.          0.         -0.         -0.
  -0.          0.          0.         -0.         -0.         -0.          0.         -0.          0.          0.         -0.          0.          0.
  -0.          0.        ]
 [ 0.00992474 -0.00544183 -0.00239743  0.          0.         -0.          0.         -0.00148117 -0.00009574  0.          0.         -0.         -0.
  -0.          0.          0.         -0.         -0.00019995 -0.00007302  0.00089944 -0.          0.          0.00013734 -0.          0.          0.00057183
  -0.00026831  0.0000113 ]
 [-0.          0.          0.         -0.         -0.          0.         -0.          0.          0.         -0.         -0.          0.          0.
   0.         -0.         -0.          0.          0.          0.         -0.          0.         -0.         -0.          0.         -0.         -0.
   0.         -0.        ]
 [ 0.         -0.         -0.          0.          0.         -0.          0.         -0.         -0.          0.          0.         -0.         -0.
  -0.          0.          0.         -0.         -0.         -0.          0.         -0.          0.          0.         -0.          0.          0.
  -0.          0.        ]
 [ 0.04132356 -0.02265809 -0.00998214  0.          0.         -0.          0.         -0.00616714 -0.00039864  0.          0.         -0.         -0.
  -0.          0.          0.         -0.         -0.00083252 -0.00030402  0.00374501 -0.          0.          0.00057183 -0.          0.          0.00238092
  -0.00111718  0.00004703]
 [-0.01938994  0.01063169  0.00468385 -0.         -0.          0.         -0.          0.00289376  0.00018705 -0.         -0.          0.          0.
   0.         -0.         -0.          0.          0.00039063  0.00014265 -0.00175724  0.         -0.         -0.00026831  0.         -0.         -0.00111718
   0.00052421 -0.00002207]
 [ 0.00081632 -0.00044759 -0.00019719  0.          0.         -0.          0.         -0.00012183 -0.00000787  0.          0.         -0.         -0.
  -0.          0.          0.         -0.         -0.00001645 -0.00000601  0.00007398 -0.          0.          0.0000113  -0.          0.          0.00004703
  -0.00002207  0.00000093]] 
 [[ 0.71721777  0.39325711 -0.17325152 -0.         -0.          0.         -0.          0.10703775 -0.00691884 -0.          0.          0.          0.
   0.         -0.         -0.          0.          0.01444925 -0.00527654 -0.06499886 -0.          0.          0.00992474  0.          0.         -0.04132356
  -0.01938994 -0.00081632]
 [ 0.39325711  0.21562649 -0.09499541 -0.         -0.          0.         -0.          0.05868978 -0.00379367 -0.          0.          0.          0.
   0.         -0.         -0.          0.          0.00792266 -0.00289318 -0.03563947 -0.          0.          0.00544183  0.          0.         -0.02265809
  -0.01063169 -0.00044759]
 [-0.17325152 -0.09499541  0.04185073  0.          0.         -0.          0.         -0.0258561   0.00167132  0.         -0.         -0.         -0.
  -0.          0.          0.         -0.         -0.00349037  0.00127461  0.01570116  0.         -0.         -0.00239743 -0.         -0.          0.00998214
   0.00468385  0.00019719]
 [-0.         -0.          0.          0.          0.         -0.          0.         -0.          0.          0.         -0.         -0.         -0.
  -0.          0.          0.         -0.         -0.          0.          0.          0.         -0.         -0.         -0.         -0.          0.
   0.          0.        ]
 [-0.         -0.          0.          0.          0.         -0.          0.         -0.          0.          0.         -0.         -0.         -0.
  -0.          0.          0.         -0.         -0.          0.          0.          0.         -0.         -0.         -0.         -0.          0.
   0.          0.        ]
 [ 0.          0.         -0.         -0.         -0.          0.         -0.          0.         -0.         -0.          0.          0.          0.
   0.         -0.         -0.          0.          0.         -0.         -0.         -0.          0.          0.          0.          0.         -0.
  -0.         -0.        ]
 [-0.         -0.          0.          0.          0.         -0.          0.         -0.          0.          0.         -0.         -0.         -0.
  -0.          0.          0.         -0.         -0.          0.          0.          0.         -0.         -0.         -0.         -0.          0.
   0.          0.        ]
 [ 0.10703775  0.05868978 -0.0258561  -0.         -0.          0.         -0.          0.01597434 -0.00103257 -0.          0.          0.          0.
   0.         -0.         -0.          0.          0.00215641 -0.00078747 -0.00970045 -0.          0.          0.00148117  0.          0.         -0.00616714
  -0.00289376 -0.00012183]
 [-0.00691884 -0.00379367  0.00167132  0.          0.         -0.          0.         -0.00103257  0.00006674  0.         -0.         -0.         -0.
  -0.          0.          0.         -0.         -0.00013939  0.0000509   0.00062703  0.         -0.         -0.00009574 -0.         -0.          0.00039864
   0.00018705  0.00000787]
 [-0.         -0.          0.          0.          0.         -0.          0.         -0.          0.          0.         -0.         -0.         -0.
  -0.          0.          0.         -0.         -0.          0.          0.          0.         -0.         -0.         -0.         -0.          0.
   0.          0.        ]
 [ 0.          0.         -0.         -0.         -0.          0.         -0.          0.         -0.         -0.          0.          0.          0.
   0.         -0.         -0.          0.          0.         -0.         -0.         -0.          0.          0.          0.          0.         -0.
  -0.         -0.        ]
 [ 0.          0.         -0.         -0.         -0.          0.         -0.          0.         -0.         -0.          0.          0.          0.
   0.         -0.         -0.          0.          0.         -0.         -0.         -0.          0.          0.          0.          0.         -0.
  -0.         -0.        ]
 [ 0.          0.         -0.         -0.         -0.          0.         -0.          0.         -0.         -0.          0.          0.          0.
   0.         -0.         -0.          0.          0.         -0.         -0.         -0.          0.          0.          0.          0.         -0.
  -0.         -0.        ]
 [ 0.          0.         -0.         -0.         -0.          0.         -0.          0.         -0.         -0.          0.          0.          0.
   0.         -0.         -0.          0.          0.         -0.         -0.         -0.          0.          0.          0.          0.         -0.
  -0.         -0.        ]
 [-0.         -0.          0.          0.          0.         -0.          0.         -0.          0.          0.         -0.         -0.         -0.
  -0.          0.          0.         -0.         -0.          0.          0.          0.         -0.         -0.         -0.         -0.          0.
   0.          0.        ]
 [-0.         -0.          0.          0.          0.         -0.          0.         -0.          0.          0.         -0.         -0.         -0.
  -0.          0.          0.         -0.         -0.          0.          0.          0.         -0.         -0.         -0.         -0.          0.
   0.          0.        ]
 [ 0.          0.         -0.         -0.         -0.          0.         -0.          0.         -0.         -0.          0.          0.          0.
   0.         -0.         -0.          0.          0.         -0.         -0.         -0.          0.          0.          0.          0.         -0.
  -0.         -0.        ]
 [ 0.01444925  0.00792266 -0.00349037 -0.         -0.          0.         -0.          0.00215641 -0.00013939 -0.          0.          0.          0.
   0.         -0.         -0.          0.          0.0002911  -0.0001063  -0.00130948 -0.          0.          0.00019995  0.          0.         -0.00083252
  -0.00039063 -0.00001645]
 [-0.00527654 -0.00289318  0.00127461  0.          0.         -0.          0.         -0.00078747  0.0000509   0.         -0.         -0.         -0.
  -0.          0.          0.         -0.         -0.0001063   0.00003882  0.00047819  0.         -0.         -0.00007302 -0.         -0.          0.00030402
   0.00014265  0.00000601]
 [-0.06499886 -0.03563947  0.01570116  0.          0.         -0.          0.         -0.00970045  0.00062703  0.         -0.         -0.         -0.
  -0.          0.          0.         -0.         -0.00130948  0.00047819  0.00589061  0.         -0.         -0.00089944 -0.         -0.          0.00374501
   0.00175724  0.00007398]
 [-0.         -0.          0.          0.          0.         -0.          0.         -0.          0.          0.         -0.         -0.         -0.
  -0.          0.          0.         -0.         -0.          0.          0.          0.         -0.         -0.         -0.         -0.          0.
   0.          0.        ]
 [ 0.          0.         -0.         -0.         -0.          0.         -0.          0.         -0.         -0.          0.          0.          0.
   0.         -0.         -0.          0.          0.         -0.         -0.         -0.          0.          0.          0.          0.         -0.
  -0.         -0.        ]
 [ 0.00992474  0.00544183 -0.00239743 -0.         -0.          0.         -0.          0.00148117 -0.00009574 -0.          0.          0.          0.
   0.         -0.         -0.          0.          0.00019995 -0.00007302 -0.00089944 -0.          0.          0.00013734  0.          0.         -0.00057183
  -0.00026831 -0.0000113 ]
 [ 0.          0.         -0.         -0.         -0.          0.         -0.          0.         -0.         -0.          0.          0.          0.
   0.         -0.         -0.          0.          0.         -0.         -0.         -0.          0.          0.          0.          0.         -0.
  -0.         -0.        ]
 [ 0.          0.         -0.         -0.         -0.          0.         -0.          0.         -0.         -0.          0.          0.          0.
   0.         -0.         -0.          0.          0.         -0.         -0.         -0.          0.          0.          0.          0.         -0.
  -0.         -0.        ]
 [-0.04132356 -0.02265809  0.00998214  0.          0.         -0.          0.         -0.00616714  0.00039864  0.         -0.         -0.         -0.
  -0.          0.          0.         -0.         -0.00083252  0.00030402  0.00374501  0.         -0.         -0.00057183 -0.         -0.          0.00238092
   0.00111718  0.00004703]
 [-0.01938994 -0.01063169  0.00468385  0.          0.         -0.          0.         -0.00289376  0.00018705  0.         -0.         -0.         -0.
  -0.          0.          0.         -0.         -0.00039063  0.00014265  0.00175724  0.         -0.         -0.00026831 -0.         -0.          0.00111718
   0.00052421  0.00002207]
 [-0.00081632 -0.00044759  0.00019719  0.          0.         -0.          0.         -0.00012183  0.00000787  0.         -0.         -0.         -0.
[...]
Feff (mod,ortho)
[[-0.22901239  0.26456335  0.33871001 ...  0.          0.          0.        ]
 [ 0.26456335  0.20116523 -0.10557474 ...  0.          0.          0.        ]
 [ 0.33871001 -0.10557474  1.18049681 ...  0.          0.          0.        ]
 ...
 [ 0.          0.          0.         ...  3.28964528 -0.00844561  0.53387869]
 [ 0.          0.          0.         ... -0.00844561  1.79104284 -0.01700831]
 [ 0.          0.          0.         ...  0.53387869 -0.01700831  1.56784146]]
E(SUHF) =     -1.03722429
e_a, e_b
[-0.49943871  0.07898393  0.35670506  0.48724722  0.6843976   0.6843976   0.75884429  0.91473105  0.91473105  1.27294609  2.46704255  2.68543104  3.21493992
  3.27945525  3.27945525  3.42496881  3.42496881  3.49745823  3.49745823  3.63772317  3.63772317  3.8437723   3.86775445  3.86775445  4.02833955  4.02833955
  4.11376778  4.71916451] [-0.49943871  0.07898393  0.35670506  0.48724722  0.6843976   0.6843976   0.75884429  0.91473105  0.91473105  1.27294609  2.46704255  2.68543104  3.21493992
  3.27945525  3.27945525  3.42496881  3.42496881  3.49745823  3.49745823  3.63772317  3.63772317  3.8437723   3.86775445  3.86775445  4.02833955  4.02833955
  4.11376778  4.71916451]
P_a, P_b
[[ 0.66883328 -0.41519805 -0.16742396  0.         -0.         -0.         -0.         -0.12342036 -0.00566159  0.          0.          0.         -0.
  -0.          0.          0.          0.         -0.01795473  0.00580054  0.05374507 -0.          0.          0.01081432  0.          0.          0.04269829
  -0.02231858  0.01130123]
 [-0.41519805  0.25774647  0.10393338 -0.          0.          0.          0.          0.07661684  0.0035146  -0.         -0.         -0.          0.
   0.         -0.         -0.         -0.          0.01114593 -0.00360086 -0.03336384  0.         -0.         -0.00671331 -0.         -0.         -0.02650623
   0.01385492 -0.00701557]
 [-0.16742396  0.10393338  0.04190997 -0.          0.          0.          0.          0.03089488  0.00141722 -0.         -0.         -0.          0.
   0.         -0.         -0.         -0.          0.00449447 -0.00145201 -0.01345359  0.         -0.         -0.00270707 -0.         -0.         -0.01068834
   0.00558684 -0.00282895]
 [ 0.         -0.         -0.          0.         -0.         -0.         -0.         -0.         -0.          0.          0.          0.         -0.
  -0.          0.          0.          0.         -0.          0.          0.         -0.          0.          0.          0.          0.          0.
  -0.          0.        ]
 [-0.          0.          0.         -0.          0.          0.          0.          0.          0.         -0.         -0.         -0.          0.
   0.         -0.         -0.         -0.          0.         -0.         -0.          0.         -0.         -0.         -0.         -0.         -0.
   0.         -0.        ]
 [-0.          0.          0.         -0.          0.          0.          0.          0.          0.         -0.         -0.         -0.          0.
   0.         -0.         -0.         -0.          0.         -0.         -0.          0.         -0.         -0.         -0.         -0.         -0.
   0.         -0.        ]
 [-0.          0.          0.         -0.          0.          0.          0.          0.          0.         -0.         -0.         -0.          0.
   0.         -0.         -0.         -0.          0.         -0.         -0.          0.         -0.         -0.         -0.         -0.         -0.
   0.         -0.        ]
 [-0.12342036  0.07661684  0.03089488 -0.          0.          0.          0.          0.02277486  0.00104474 -0.         -0.         -0.          0.
   0.         -0.         -0.         -0.          0.0033132  -0.00107038 -0.00991762  0.         -0.         -0.00199558 -0.         -0.         -0.00787915
   0.00411847 -0.00208542]
 [-0.00566159  0.0035146   0.00141722 -0.          0.          0.          0.          0.00104474  0.00004792 -0.         -0.         -0.          0.
   0.         -0.         -0.         -0.          0.00015198 -0.0000491  -0.00045495  0.         -0.         -0.00009154 -0.         -0.         -0.00036144
   0.00018892 -0.00009566]
 [ 0.         -0.         -0.          0.         -0.         -0.         -0.         -0.         -0.          0.          0.          0.         -0.
  -0.          0.          0.          0.         -0.          0.          0.         -0.          0.          0.          0.          0.          0.
  -0.          0.        ]
 [ 0.         -0.         -0.          0.         -0.         -0.         -0.         -0.         -0.          0.          0.          0.         -0.
  -0.          0.          0.          0.         -0.          0.          0.         -0.          0.          0.          0.          0.          0.
  -0.          0.        ]
 [ 0.         -0.         -0.          0.         -0.         -0.         -0.         -0.         -0.          0.          0.          0.         -0.
  -0.          0.          0.          0.         -0.          0.          0.         -0.          0.          0.          0.          0.          0.
  -0.          0.        ]
 [-0.          0.          0.         -0.          0.          0.          0.          0.          0.         -0.         -0.         -0.          0.
   0.         -0.         -0.         -0.          0.         -0.         -0.          0.         -0.         -0.         -0.         -0.         -0.
   0.         -0.        ]
 [-0.          0.          0.         -0.          0.          0.          0.          0.          0.         -0.         -0.         -0.          0.
   0.         -0.         -0.         -0.          0.         -0.         -0.          0.         -0.         -0.         -0.         -0.         -0.
   0.         -0.        ]
 [ 0.         -0.         -0.          0.         -0.         -0.         -0.         -0.         -0.          0.          0.          0.         -0.
  -0.          0.          0.          0.         -0.          0.          0.         -0.          0.          0.          0.          0.          0.
  -0.          0.        ]
 [ 0.         -0.         -0.          0.         -0.         -0.         -0.         -0.         -0.          0.          0.          0.         -0.
  -0.          0.          0.          0.         -0.          0.          0.         -0.          0.          0.          0.          0.          0.
  -0.          0.        ]
 [ 0.         -0.         -0.          0.         -0.         -0.         -0.         -0.         -0.          0.          0.          0.         -0.
  -0.          0.          0.          0.         -0.          0.          0.         -0.          0.          0.          0.          0.          0.
  -0.          0.        ]
 [-0.01795473  0.01114593  0.00449447 -0.          0.          0.          0.          0.0033132   0.00015198 -0.         -0.         -0.          0.
   0.         -0.         -0.         -0.          0.00048199 -0.00015571 -0.00144278  0.         -0.         -0.00029031 -0.         -0.         -0.00114623
   0.00059914 -0.00030338]
 [ 0.00580054 -0.00360086 -0.00145201  0.         -0.         -0.         -0.         -0.00107038 -0.0000491   0.          0.          0.         -0.
  -0.          0.          0.          0.         -0.00015571  0.00005031  0.00046611 -0.          0.          0.00009379  0.          0.          0.00037031
  -0.00019356  0.00009801]
 [ 0.05374507 -0.03336384 -0.01345359  0.         -0.         -0.         -0.         -0.00991762 -0.00045495  0.          0.          0.         -0.
  -0.          0.          0.          0.         -0.00144278  0.00046611  0.00431876 -0.          0.          0.000869    0.          0.          0.00343108
  -0.00179344  0.00090813]
 [-0.          0.          0.         -0.          0.          0.          0.          0.          0.         -0.         -0.         -0.          0.
   0.         -0.         -0.         -0.          0.         -0.         -0.          0.         -0.         -0.         -0.         -0.         -0.
   0.         -0.        ]
 [ 0.         -0.         -0.          0.         -0.         -0.         -0.         -0.         -0.          0.          0.          0.         -0.
  -0.          0.          0.          0.         -0.          0.          0.         -0.          0.          0.          0.          0.          0.
  -0.          0.        ]
 [ 0.01081432 -0.00671331 -0.00270707  0.         -0.         -0.         -0.         -0.00199558 -0.00009154  0.          0.          0.         -0.
  -0.          0.          0.          0.         -0.00029031  0.00009379  0.000869   -0.          0.          0.00017486  0.          0.          0.00069039
  -0.00036087  0.00018273]
 [ 0.         -0.         -0.          0.         -0.         -0.         -0.         -0.         -0.          0.          0.          0.         -0.
  -0.          0.          0.          0.         -0.          0.          0.         -0.          0.          0.          0.          0.          0.
  -0.          0.        ]
 [ 0.         -0.         -0.          0.         -0.         -0.         -0.         -0.         -0.          0.          0.          0.         -0.
  -0.          0.          0.          0.         -0.          0.          0.         -0.          0.          0.          0.          0.          0.
  -0.          0.        ]
 [ 0.04269829 -0.02650623 -0.01068834  0.         -0.         -0.         -0.         -0.00787915 -0.00036144  0.          0.          0.         -0.
  -0.          0.          0.          0.         -0.00114623  0.00037031  0.00343108 -0.          0.          0.00069039  0.          0.          0.00272586
  -0.00142482  0.00072147]
 [-0.02231858  0.01385492  0.00558684 -0.          0.          0.          0.          0.00411847  0.00018892 -0.         -0.         -0.          0.
   0.         -0.         -0.         -0.          0.00059914 -0.00019356 -0.00179344  0.         -0.         -0.00036087 -0.         -0.         -0.00142482
   0.00074476 -0.00037712]
 [ 0.01130123 -0.00701557 -0.00282895  0.         -0.         -0.         -0.         -0.00208542 -0.00009566  0.          0.          0.         -0.
  -0.          0.          0.          0.         -0.00030338  0.00009801  0.00090813 -0.          0.          0.00018273  0.          0.          0.00072147
  -0.00037712  0.00019096]] 
 [[ 0.66883328  0.41519805 -0.16742396 -0.         -0.          0.         -0.          0.12342036 -0.00566159 -0.          0.         -0.          0.
   0.         -0.         -0.          0.          0.01795473  0.00580054 -0.05374507 -0.          0.          0.01081432  0.          0.         -0.04269829
  -0.02231858 -0.01130123]
 [ 0.41519805  0.25774647 -0.10393338 -0.         -0.          0.         -0.          0.07661684 -0.0035146  -0.          0.         -0.          0.
   0.         -0.         -0.          0.          0.01114593  0.00360086 -0.03336384 -0.          0.          0.00671331  0.          0.         -0.02650623
  -0.01385492 -0.00701557]
 [-0.16742396 -0.10393338  0.04190997  0.          0.         -0.          0.         -0.03089488  0.00141722  0.         -0.          0.         -0.
  -0.          0.          0.         -0.         -0.00449447 -0.00145201  0.01345359  0.         -0.         -0.00270707 -0.         -0.          0.01068834
   0.00558684  0.00282895]
 [-0.         -0.          0.          0.          0.         -0.          0.         -0.          0.          0.         -0.          0.         -0.
  -0.          0.          0.         -0.         -0.         -0.          0.          0.         -0.         -0.         -0.         -0.          0.
   0.          0.        ]
 [-0.         -0.          0.          0.          0.         -0.          0.         -0.          0.          0.         -0.          0.         -0.
  -0.          0.          0.         -0.         -0.         -0.          0.          0.         -0.         -0.         -0.         -0.          0.
   0.          0.        ]
 [ 0.          0.         -0.         -0.         -0.          0.         -0.          0.         -0.         -0.          0.         -0.          0.
   0.         -0.         -0.          0.          0.          0.         -0.         -0.          0.          0.          0.          0.         -0.
  -0.         -0.        ]
 [-0.         -0.          0.          0.          0.         -0.          0.         -0.          0.          0.         -0.          0.         -0.
  -0.          0.          0.         -0.         -0.         -0.          0.          0.         -0.         -0.         -0.         -0.          0.
   0.          0.        ]
 [ 0.12342036  0.07661684 -0.03089488 -0.         -0.          0.         -0.          0.02277486 -0.00104474 -0.          0.         -0.          0.
   0.         -0.         -0.          0.          0.0033132   0.00107038 -0.00991762 -0.          0.          0.00199558  0.          0.         -0.00787915
  -0.00411847 -0.00208542]
 [-0.00566159 -0.0035146   0.00141722  0.          0.         -0.          0.         -0.00104474  0.00004792  0.         -0.          0.         -0.
  -0.          0.          0.         -0.         -0.00015198 -0.0000491   0.00045495  0.         -0.         -0.00009154 -0.         -0.          0.00036144
   0.00018892  0.00009566]
 [-0.         -0.          0.          0.          0.         -0.          0.         -0.          0.          0.         -0.          0.         -0.
  -0.          0.          0.         -0.         -0.         -0.          0.          0.         -0.         -0.         -0.         -0.          0.
   0.          0.        ]
 [ 0.          0.         -0.         -0.         -0.          0.         -0.          0.         -0.         -0.          0.         -0.          0.
   0.         -0.         -0.          0.          0.          0.         -0.         -0.          0.          0.          0.          0.         -0.
  -0.         -0.        ]
 [-0.         -0.          0.          0.          0.         -0.          0.         -0.          0.          0.         -0.          0.         -0.
  -0.          0.          0.         -0.         -0.         -0.          0.          0.         -0.         -0.         -0.         -0.          0.
   0.          0.        ]
 [ 0.          0.         -0.         -0.         -0.          0.         -0.          0.         -0.         -0.          0.         -0.          0.
   0.         -0.         -0.          0.          0.          0.         -0.         -0.          0.          0.          0.          0.         -0.
  -0.         -0.        ]
 [ 0.          0.         -0.         -0.         -0.          0.         -0.          0.         -0.         -0.          0.         -0.          0.
   0.         -0.         -0.          0.          0.          0.         -0.         -0.          0.          0.          0.          0.         -0.
  -0.         -0.        ]
 [-0.         -0.          0.          0.          0.         -0.          0.         -0.          0.          0.         -0.          0.         -0.
  -0.          0.          0.         -0.         -0.         -0.          0.          0.         -0.         -0.         -0.         -0.          0.
   0.          0.        ]
 [-0.         -0.          0.          0.          0.         -0.          0.         -0.          0.          0.         -0.          0.         -0.
  -0.          0.          0.         -0.         -0.         -0.          0.          0.         -0.         -0.         -0.         -0.          0.
   0.          0.        ]
 [ 0.          0.         -0.         -0.         -0.          0.         -0.          0.         -0.         -0.          0.         -0.          0.
   0.         -0.         -0.          0.          0.          0.         -0.         -0.          0.          0.          0.          0.         -0.
  -0.         -0.        ]
 [ 0.01795473  0.01114593 -0.00449447 -0.         -0.          0.         -0.          0.0033132  -0.00015198 -0.          0.         -0.          0.
   0.         -0.         -0.          0.          0.00048199  0.00015571 -0.00144278 -0.          0.          0.00029031  0.          0.         -0.00114623
  -0.00059914 -0.00030338]
 [ 0.00580054  0.00360086 -0.00145201 -0.         -0.          0.         -0.          0.00107038 -0.0000491  -0.          0.         -0.          0.
   0.         -0.         -0.          0.          0.00015571  0.00005031 -0.00046611 -0.          0.          0.00009379  0.          0.         -0.00037031
  -0.00019356 -0.00009801]
 [-0.05374507 -0.03336384  0.01345359  0.          0.         -0.          0.         -0.00991762  0.00045495  0.         -0.          0.         -0.
  -0.          0.          0.         -0.         -0.00144278 -0.00046611  0.00431876  0.         -0.         -0.000869   -0.         -0.          0.00343108
   0.00179344  0.00090813]
 [-0.         -0.          0.          0.          0.         -0.          0.         -0.          0.          0.         -0.          0.         -0.
  -0.          0.          0.         -0.         -0.         -0.          0.          0.         -0.         -0.         -0.         -0.          0.
   0.          0.        ]
 [ 0.          0.         -0.         -0.         -0.          0.         -0.          0.         -0.         -0.          0.         -0.          0.
   0.         -0.         -0.          0.          0.          0.         -0.         -0.          0.          0.          0.          0.         -0.
  -0.         -0.        ]
 [ 0.01081432  0.00671331 -0.00270707 -0.         -0.          0.         -0.          0.00199558 -0.00009154 -0.          0.         -0.          0.
   0.         -0.         -0.          0.          0.00029031  0.00009379 -0.000869   -0.          0.          0.00017486  0.          0.         -0.00069039
  -0.00036087 -0.00018273]
 [ 0.          0.         -0.         -0.         -0.          0.         -0.          0.         -0.         -0.          0.         -0.          0.
   0.         -0.         -0.          0.          0.          0.         -0.         -0.          0.          0.          0.          0.         -0.
  -0.         -0.        ]
 [ 0.          0.         -0.         -0.         -0.          0.         -0.          0.         -0.         -0.          0.         -0.          0.
   0.         -0.         -0.          0.          0.          0.         -0.         -0.          0.          0.          0.          0.         -0.
  -0.         -0.        ]
 [-0.04269829 -0.02650623  0.01068834  0.          0.         -0.          0.         -0.00787915  0.00036144  0.         -0.          0.         -0.
  -0.          0.          0.         -0.         -0.00114623 -0.00037031  0.00343108  0.         -0.         -0.00069039 -0.         -0.          0.00272586
   0.00142482  0.00072147]
 [-0.02231858 -0.01385492  0.00558684  0.          0.         -0.          0.         -0.00411847  0.00018892  0.         -0.          0.         -0.
  -0.          0.          0.         -0.         -0.00059914 -0.00019356  0.00179344  0.         -0.         -0.00036087 -0.         -0.          0.00142482
   0.00074476  0.00037712]
 [-0.01130123 -0.00701557  0.00282895  0.          0.         -0.          0.         -0.00208542  0.00009566  0.         -0.          0.         -0.
  -0.          0.          0.         -0.         -0.00030338 -0.00009801  0.00090813  0.         -0.         -0.00018273 -0.         -0.          0.00072147
   0.00037712  0.00019096]]

***************
SUHF converged at cycle 13
Final E(SUHF) =     -1.03722429, delta E = -6.1525e-09
***** Start DFT Correlation for SUHF+DFT **********
tot grids = 20048
E(SUHF) =     -1.03722429
E_c(TPSS) =     -0.01271691
E(SUHF+DFT) =     -1.04994121
