

#INFO: **** input file is /share/home/srwang/ExSCF/test/pytest/scan_h2/scan_dft.py ****
#import phf
from pyscf import lib
#import scipy
import numpy as np
import sys, os, contextlib

from pyphf import util, sudft

#xyz = 'h2.xyz' #sys.argv[1]
fch = 'test_uhf.fchk' #sys.argv[2]
#bas = '../h2.bas'
bas = 'cc-pvtz'

lib.num_threads(4)

for r in np.arange(0.9, 2.55, 0.1):
    output = 'tpss/sudft_%.1f_diis.out' % r
    os.system("echo '\n' > %s" % output)
    with open(output, 'a', encoding='utf-8') as f:
        with contextlib.redirect_stdout(f):
            xyz = '''H 0.0 0.0 0.0; H 0.0 0.0 %f'''%r
            mf = util.guess_from_fchk(xyz, bas, fch)
            #mf = util.guess(xyz, bas)
            #f.flush()
            mf2 = util.SUHF(mf)
            #mf2.cut_no = False
            mf2.debug = False
            #mf2.max_cycle = 50
            mf2.diis_on = True
            #mf2.output = 'sudft_%.1f.out'%r
            #mf2.kernel()
            
            mf3 = sudft.SUDFT(mf2)
            mf3.suxc = 'TPSS'
            mf3.kernel()
                    
#INFO: ******************** input file end ********************


System: uname_result(system='Linux', node='xc02n18', release='3.10.0-693.el7.x86_64', version='#1 SMP Thu Jul 6 19:56:57 EDT 2017', machine='x86_64', processor='x86_64')  Threads 4
Python 3.7.4 (default, Aug 13 2019, 20:35:49) 
[GCC 7.3.0]
numpy 1.17.2  scipy 1.4.1
Date: Tue Nov 24 03:35:54 2020
PySCF version 1.7.5
PySCF path  /share/home/srwang/pyscf-1.7.5/pyscf

[CONFIG] conf_file None
[INPUT] verbose = 4
[INPUT] num. atoms = 2
[INPUT] num. electrons = 2
[INPUT] charge = 0
[INPUT] spin (= nelec alpha-beta = 2S) = 0
[INPUT] symmetry False subgroup None
[INPUT] Mole.unit = angstrom
[INPUT]  1 H      0.000000000000   0.000000000000   0.000000000000 AA    0.000000000000   0.000000000000   0.000000000000 Bohr
[INPUT]  2 H      0.000000000000   0.000000000000   1.500000000000 AA    0.000000000000   0.000000000000   2.834589186848 Bohr

nuclear repulsion = 0.35278480728
number of shells = 12
number of NR pGTOs = 32
number of NR cGTOs = 28
basis = cc-pvtz
ecp = {}
CPU time:       136.51


******** <class 'pyscf.scf.uhf.UHF'> ********
method = UHF
initial guess = minao
damping factor = 0
level_shift factor = 0
DIIS = <class 'pyscf.scf.diis.CDIIS'>
diis_start_cycle = 1
diis_space = 8
SCF conv_tol = 1e-09
SCF conv_tol_grad = None
SCF max_cycles = 1
direct_scf = True
direct_scf_tol = 1e-13
chkfile to save SCF result = /share/home/srwang/ExSCF/test/pytest/scan_h2/tmp4i2bcld4
max_memory 4000 MB (current use 132 MB)
number electrons alpha = 1  beta = 1
Set gradient conv threshold to 3.16228e-05
init E= -0.678905848408087
  alpha nocc = 1  HOMO = -0.32022525914988  LUMO = -0.0296005649735038
  beta  nocc = 1  HOMO = -0.318344508550324  LUMO = -0.0289420115975277
cycle= 1 E= -1.00312122288711  delta_E= -0.324  |g|= 0.035  |ddm|= 0.366
SCF not converged.
SCF energy = -1.00312122288711 after 1 cycles  <S^2> = 4.0827205e-07  2S+1 = 1.0000008


******** <class 'pyscf.scf.uhf.UHF'> ********
method = UHF
initial guess = minao
damping factor = 0
level_shift factor = 0
DIIS = <class 'pyscf.scf.diis.CDIIS'>
diis_start_cycle = 1
diis_space = 8
SCF conv_tol = 1e-09
SCF conv_tol_grad = None
SCF max_cycles = 1
direct_scf = True
direct_scf_tol = 1e-13
chkfile to save SCF result = /share/home/srwang/ExSCF/test/pytest/scan_h2/tmp4i2bcld4
max_memory 4000 MB (current use 132 MB)
number electrons alpha = 1  beta = 1
Set gradient conv threshold to 3.16228e-05
init E= -1.00417048025524
  alpha nocc = 1  HOMO = -0.489567507741935  LUMO = 0.0588243949859689
  beta  nocc = 1  HOMO = -0.489567507741935  LUMO = 0.0588243949859691
cycle= 1 E= -1.02202018228964  delta_E= -0.0178  |g|= 0.0113  |ddm|= 0.0194
SCF not converged.
SCF energy = -1.02202018228964 after 1 cycles  <S^2> = 0.48772141  2S+1 = 1.7178142

******** <class 'pyphf.util.SUHF'> ********
max_cycle = 70
verbose: normal
DIIS: <class 'pyscf.scf.diis.CDIIS'>
diis_start_cyc = 40
SVD: S^(-1/2)
[[-0.145074    0.08532486  0.29669569 -0.          0.          0.          0.          0.24485769 -0.03203445 -0.          0.          0.         -0.
  -0.          0.          0.         -0.          0.20208216 -0.67836077  0.63449802  0.          0.         -0.17677521 -0.         -0.          0.82549355
  -0.02386553  0.92826259]
 [-0.22528951  0.09663871  0.29856042 -0.         -0.          0.         -0.          0.12714387 -0.01684866 -0.         -0.         -0.         -0.
  -0.          0.         -0.         -0.         -0.00751712 -0.06789009 -0.27097173 -0.         -0.          0.02585307  0.          0.         -1.6357489
   0.09717459 -2.10080402]
 [-0.23722823  0.1433534   0.15724332  0.          0.         -0.          0.          0.01095127  0.04250032  0.         -0.         -0.          0.
  -0.         -0.          0.          0.         -0.02401977  0.48363539 -0.53672885 -0.         -0.         -0.05426578  0.          0.          0.95292504
  -1.75956865  1.0463883 ]
 [ 0.          0.         -0.         -0.33335704  0.04545214  0.40800916  0.15644132  0.         -0.          0.03648393  0.10464381  0.         -0.
   0.         -0.          0.02586335  0.15316836 -0.          0.          0.         -0.33235977 -0.74425097 -0.          0.686221    0.39607976  0.
  -0.         -0.        ]
 [ 0.         -0.          0.          0.04545214  0.33335704 -0.15644132  0.40800916 -0.         -0.         -0.10464381  0.03648393 -0.         -0.
  -0.         -0.          0.15316836 -0.02586335  0.          0.          0.         -0.74425097  0.33235977  0.          0.39607976 -0.686221    0.
  -0.         -0.        ]
 [-0.06710198 -0.30161382 -0.14841928 -0.         -0.          0.         -0.          0.45274238  0.10101109  0.         -0.         -0.         -0.
   0.          0.         -0.          0.          0.3699197   0.05723807 -0.43163603 -0.         -0.         -0.88418292  0.          0.         -0.10367329
   0.5483213   0.30425627]
 [ 0.          0.         -0.         -0.39408112  0.05373167  0.34707215  0.13307648 -0.         -0.          0.01336288  0.03832763 -0.         -0.
  -0.          0.          0.00048645  0.00288084 -0.         -0.         -0.          0.28877216  0.64664552  0.         -0.84250658 -0.4862862  -0.
   0.          0.        ]
 [ 0.         -0.          0.          0.05373167  0.39408112 -0.13307648  0.34707215  0.         -0.         -0.03832763  0.01336288 -0.         -0.
  -0.         -0.          0.00288084 -0.00048645  0.          0.         -0.          0.64664552 -0.28877216 -0.         -0.4862862   0.84250658 -0.
   0.          0.        ]
 [-0.12899586 -0.34556392 -0.21095178 -0.          0.          0.          0.          0.21660158  0.10124805 -0.         -0.          0.          0.
  -0.         -0.         -0.         -0.         -0.01081809 -0.05544426  0.41223937  0.          0.          0.71892451 -0.         -0.          0.20864106
  -1.59021664 -1.09804314]
 [ 0.          0.          0.         -0.          0.          0.         -0.          0.          0.         -0.         -0.         -0.70209934  0.
  -0.71222292 -0.         -0.          0.          0.          0.         -0.          0.          0.         -0.          0.          0.          0.
   0.         -0.        ]
 [ 0.         -0.          0.          0.01085261  0.07959566  0.03361027 -0.08765778  0.          0.          0.62802345 -0.21895959 -0.          0.
  -0.          0.          0.724339   -0.12230878 -0.         -0.          0.         -0.084546    0.03775566  0.         -0.08182077  0.14175713 -0.
   0.          0.        ]
 [-0.03356399 -0.09958226 -0.0018537  -0.          0.         -0.         -0.         -0.3009264  -0.6399033   0.          0.          0.          0.
   0.         -0.         -0.          0.          0.70913579  0.06813137  0.02958609  0.         -0.         -0.02125567 -0.          0.          0.08168096
  -0.36205919 -0.4268187 ]
 [ 0.          0.         -0.         -0.07959566  0.01085261 -0.08765778 -0.03361027 -0.         -0.         -0.21895959 -0.62802345  0.          0.
   0.         -0.          0.12230878  0.724339   -0.         -0.          0.         -0.03775566 -0.084546   -0.         -0.14175713 -0.08182077 -0.
   0.          0.        ]
 [ 0.          0.          0.          0.         -0.         -0.         -0.          0.          0.         -0.         -0.         -0.         -0.70209934
  -0.          0.71222292 -0.          0.          0.          0.         -0.         -0.          0.         -0.          0.          0.         -0.
  -0.         -0.        ]
 [-0.145074    0.08532486 -0.29669569  0.         -0.         -0.          0.         -0.24485769 -0.03203445 -0.          0.         -0.         -0.
  -0.          0.          0.         -0.         -0.20208216 -0.67836077 -0.63449802 -0.         -0.         -0.17677521  0.          0.          0.82549355
   0.02386553 -0.92826259]
 [-0.22528951  0.09663871 -0.29856042  0.         -0.         -0.         -0.         -0.12714387 -0.01684866  0.         -0.          0.          0.
   0.         -0.          0.         -0.          0.00751712 -0.06789009  0.27097173  0.          0.          0.02585307  0.         -0.         -1.6357489
  -0.09717459  2.10080402]
 [-0.23722823  0.1433534  -0.15724332  0.         -0.          0.         -0.         -0.01095127  0.04250032  0.         -0.          0.         -0.
   0.          0.         -0.          0.          0.02401977  0.48363539  0.53672885  0.          0.         -0.05426578 -0.         -0.          0.95292504
   1.75956865 -1.0463883 ]
 [ 0.          0.         -0.         -0.33335704  0.04545214 -0.40800916 -0.15644132  0.          0.          0.03648393  0.10464381 -0.         -0.
  -0.          0.         -0.02586335 -0.15316836 -0.          0.          0.         -0.33235977 -0.74425097 -0.         -0.686221   -0.39607976 -0.
   0.         -0.        ]
 [ 0.         -0.          0.          0.04545214  0.33335704  0.15644132 -0.40800916 -0.          0.         -0.10464381  0.03648393  0.          0.
   0.         -0.         -0.15316836  0.02586335  0.          0.          0.         -0.74425097  0.33235977  0.         -0.39607976  0.686221   -0.
   0.          0.        ]
 [ 0.06710198  0.30161382 -0.14841928 -0.         -0.         -0.         -0.          0.45274238 -0.10101109  0.         -0.          0.         -0.
   0.          0.         -0.          0.          0.3699197  -0.05723807 -0.43163603 -0.         -0.          0.88418292  0.         -0.          0.10367329
   0.5483213   0.30425627]
 [ 0.          0.         -0.         -0.39408112  0.05373167 -0.34707215 -0.13307648  0.          0.          0.01336288  0.03832763  0.          0.
   0.          0.         -0.00048645 -0.00288084 -0.          0.         -0.          0.28877216  0.64664552  0.          0.84250658  0.4862862   0.
  -0.         -0.        ]
 [ 0.         -0.          0.          0.05373167  0.39408112  0.13307648 -0.34707215 -0.          0.         -0.03832763  0.01336288  0.         -0.
  -0.         -0.         -0.00288084  0.00048645  0.          0.         -0.          0.64664552 -0.28877216 -0.          0.4862862  -0.84250658  0.
  -0.         -0.        ]
 [ 0.12899586  0.34556392 -0.21095178  0.          0.         -0.          0.          0.21660158 -0.10124805  0.          0.         -0.          0.
  -0.         -0.          0.          0.         -0.01081809  0.05544426  0.41223937  0.          0.         -0.71892451 -0.          0.         -0.20864106
  -1.59021664 -1.09804314]
 [ 0.          0.         -0.         -0.          0.          0.         -0.         -0.         -0.          0.          0.         -0.70209934  0.
   0.71222292  0.          0.         -0.         -0.         -0.          0.          0.         -0.          0.         -0.          0.         -0.
   0.          0.        ]
 [-0.          0.         -0.         -0.01085261 -0.07959566  0.03361027 -0.08765778 -0.          0.         -0.62802345  0.21895959  0.         -0.
  -0.         -0.          0.724339   -0.12230878  0.          0.         -0.          0.084546   -0.03775566  0.         -0.08182077  0.14175713 -0.
   0.          0.        ]
 [-0.03356399 -0.09958226  0.0018537   0.          0.         -0.          0.          0.3009264  -0.6399033  -0.          0.         -0.         -0.
  -0.          0.          0.         -0.         -0.70913579  0.06813137 -0.02958609 -0.          0.         -0.02125567 -0.         -0.          0.08168096
   0.36205919  0.4268187 ]
 [-0.         -0.          0.          0.07959566 -0.01085261 -0.08765778 -0.03361027  0.          0.          0.21895959  0.62802345  0.         -0.
   0.         -0.          0.12230878  0.724339   -0.         -0.         -0.          0.03775566  0.084546    0.         -0.14175713 -0.08182077 -0.
   0.          0.        ]
 [ 0.          0.          0.          0.         -0.          0.         -0.          0.          0.          0.         -0.         -0.         -0.70209934
   0.         -0.71222292 -0.         -0.          0.          0.          0.          0.         -0.          0.         -0.          0.          0.
   0.          0.        ]]
C (ortho)
[[-0.89383482 -0.3414796   0.03518481  0.16058695  0.          0.         -0.21549501 -0.          0.          0.02610247 -0.0046779   0.00793015 -0.08330644
   0.          0.         -0.          0.          0.          0.         -0.         -0.          0.         -0.         -0.00232285  0.         -0.
   0.05722673 -0.00062313]
 [ 0.24010445  0.09255761  0.25045419  0.10905212  0.          0.         -0.82618222 -0.         -0.          0.03490883 -0.09008224 -0.03280218 -0.29953197
   0.          0.         -0.          0.          0.          0.         -0.         -0.          0.         -0.         -0.01805035 -0.         -0.
   0.27591915 -0.0004557 ]
 [ 0.35577827 -0.78499567 -0.04924067  0.40226203  0.          0.          0.04139956  0.          0.         -0.18762904 -0.0195764   0.14057352 -0.00486221
  -0.          0.          0.          0.         -0.          0.         -0.          0.          0.         -0.         -0.18820151 -0.         -0.
  -0.02014101 -0.00723834]
 [-0.         -0.          0.          0.         -0.51577652 -0.7189043  -0.         -0.08994711 -0.05187161 -0.          0.         -0.         -0.
  -0.06676868 -0.03011859 -0.         -0.         -0.         -0.         -0.0874274   0.05789632 -0.39131636  0.18648437 -0.         -0.0318714   0.03299433
   0.         -0.        ]
 [-0.         -0.          0.          0.          0.7189043  -0.51577652  0.         -0.05187161  0.08994711  0.         -0.         -0.          0.
  -0.03011859  0.06676868 -0.          0.         -0.         -0.          0.05789632  0.0874274   0.18648437  0.39131636  0.          0.03299433  0.0318714
  -0.         -0.        ]
 [ 0.          0.         -0.          0.          0.03901887  0.09446293  0.         -0.79401351 -0.23908762  0.         -0.         -0.          0.
   0.00138375  0.00027062  0.         -0.          0.          0.          0.20723775 -0.22012539 -0.02727129  0.021844    0.         -0.23422182  0.3929994
   0.         -0.        ]
 [-0.         -0.          0.          0.          0.09446293 -0.03901887  0.          0.23908762 -0.79401351  0.         -0.         -0.         -0.
  -0.00027062  0.00138375  0.          0.         -0.         -0.          0.22012539  0.20723775 -0.021844   -0.02727129  0.         -0.3929994  -0.23422182
  -0.         -0.        ]
 [ 0.09581963 -0.11620984 -0.10119649  0.24871573 -0.          0.          0.05072536  0.          0.          0.74670836  0.02249346 -0.02645605  0.00628698
  -0.         -0.         -0.         -0.          0.         -0.          0.         -0.         -0.          0.          0.47626116  0.          0.
   0.04819211 -0.33863639]
 [ 0.00219285  0.02251365  0.09213809  0.02926079 -0.         -0.          0.22309033  0.          0.         -0.0040788  -0.04627472 -0.0272166  -0.87815792
   0.         -0.         -0.          0.          0.          0.          0.         -0.          0.         -0.          0.05190058  0.          0.
  -0.40438847  0.00946781]
 [ 0.          0.          0.          0.         -0.01781513  0.03443171  0.          0.00108971 -0.00070883 -0.          0.          0.         -0.
  -0.77635459  0.62275958  0.         -0.         -0.          0.         -0.00439057 -0.03836801  0.00202136 -0.07694518  0.         -0.00745094 -0.02163111
   0.          0.        ]
 [-0.         -0.         -0.          0.          0.03443171  0.01781513 -0.          0.00070883  0.00108971 -0.         -0.         -0.         -0.
  -0.62275958 -0.77635459 -0.         -0.          0.          0.          0.03836801 -0.00439057  0.07694518  0.00202136 -0.          0.02163111 -0.00745094
   0.         -0.        ]
 [-0.          0.          0.          0.         -0.          0.          0.         -0.          0.         -0.         -0.         -0.          0.
  -0.          0.         -0.98377178  0.1011248  -0.14571344 -0.02710087  0.         -0.         -0.         -0.         -0.         -0.         -0.
   0.          0.        ]
 [ 0.          0.          0.          0.         -0.         -0.          0.          0.         -0.          0.          0.          0.         -0.
   0.          0.         -0.1011248  -0.98377178  0.02710087 -0.14571344 -0.          0.          0.          0.         -0.         -0.         -0.
   0.         -0.        ]
 [-0.          0.          0.          0.         -0.          0.         -0.         -0.         -0.         -0.         -0.         -0.          0.
   0.          0.         -0.14743534  0.01515531  0.97228227  0.1808323  -0.          0.         -0.          0.         -0.          0.          0.
   0.          0.        ]
 [ 0.          0.          0.          0.         -0.          0.          0.         -0.          0.          0.          0.          0.         -0.
  -0.          0.          0.01515531  0.14743534  0.1808323  -0.97228227 -0.         -0.          0.         -0.         -0.         -0.          0.
   0.         -0.        ]
 [ 0.         -0.          0.         -0.         -0.00177639  0.00119087 -0.         -0.01696712  0.03170793 -0.          0.         -0.         -0.
  -0.00890259  0.02153581 -0.          0.         -0.         -0.          0.47715301  0.67307285 -0.11954021 -0.23159959 -0.          0.37012261  0.33546695
   0.         -0.        ]
 [ 0.          0.          0.          0.         -0.00119087 -0.00177639  0.          0.03170793  0.01696712 -0.          0.          0.          0.
   0.02153581  0.00890259  0.         -0.          0.         -0.          0.67307285 -0.47715301 -0.23159959  0.11954021 -0.          0.33546695 -0.37012261
  -0.          0.        ]
 [ 0.01428385  0.00130916 -0.0328235   0.06873209 -0.         -0.          0.00096192 -0.         -0.         -0.08316959 -0.10950624  0.45204015  0.00325726
   0.         -0.         -0.         -0.          0.         -0.          0.          0.         -0.          0.          0.57698618  0.          0.
   0.06352085  0.65862295]
 [-0.01409351  0.1153351   0.71266105  0.28106839 -0.          0.          0.16111057  0.          0.         -0.00050056  0.58374359  0.15738661  0.08992885
   0.         -0.          0.         -0.         -0.         -0.         -0.          0.          0.         -0.         -0.00335622 -0.          0.
   0.00476616 -0.00296583]
 [-0.06671613  0.38751301 -0.25861766  0.45873625 -0.          0.          0.00855706  0.          0.          0.19753794 -0.13084107  0.54008815 -0.01733413
   0.          0.          0.          0.         -0.          0.         -0.         -0.          0.         -0.         -0.46642279 -0.         -0.
  -0.04572738 -0.01448614]
 [-0.          0.         -0.          0.          0.42342564 -0.14875968  0.         -0.01390449  0.05716092  0.         -0.          0.         -0.
   0.00822797 -0.05869572  0.         -0.          0.          0.         -0.16724492 -0.1412666  -0.57173297 -0.63989104 -0.         -0.07585667 -0.03983976
   0.          0.        ]
 [-0.          0.         -0.          0.          0.14875968  0.42342564  0.          0.05716092  0.01390449  0.         -0.          0.         -0.
  -0.05869572 -0.00822797 -0.          0.         -0.         -0.         -0.1412666   0.16724492 -0.63989104  0.57173297 -0.         -0.03983976  0.07585667
  -0.         -0.        ]
 [-0.01345901 -0.00383406 -0.09341237 -0.05541017 -0.         -0.          0.35709964  0.         -0.         -0.0216585   0.08126819  0.015222   -0.32670552
   0.          0.         -0.          0.          0.          0.         -0.          0.          0.          0.         -0.08370549 -0.         -0.
   0.85988014 -0.00675052]
 [ 0.         -0.          0.         -0.         -0.05891809 -0.01754768 -0.          0.20648549  0.50418903 -0.          0.         -0.         -0.
  -0.00214625 -0.00404279  0.         -0.          0.         -0.          0.40812258  0.03028526 -0.02552159 -0.00555382  0.         -0.7213162   0.1043861
   0.         -0.        ]
 [ 0.         -0.          0.          0.          0.01754768 -0.05891809 -0.          0.50418903 -0.20648549 -0.         -0.         -0.          0.
  -0.00404279  0.00214625  0.         -0.          0.          0.          0.03028526 -0.40812258 -0.00555382  0.02552159 -0.          0.1043861   0.7213162
  -0.          0.        ]
 [-0.02987937  0.06264338  0.49597802  0.21557146 -0.          0.          0.25039837  0.          0.          0.00797767 -0.76303682 -0.18237115  0.12939867
  -0.          0.          0.         -0.         -0.         -0.         -0.          0.          0.         -0.         -0.00922182 -0.         -0.
   0.08741184  0.00069716]
 [-0.03739332  0.25790635 -0.22521547  0.47405991  0.          0.         -0.00955837  0.          0.         -0.57622737  0.03529216 -0.14501292  0.00567573
  -0.         -0.         -0.         -0.          0.         -0.          0.         -0.         -0.          0.          0.39701358  0.          0.
   0.03316421 -0.37878195]
 [-0.01785761 -0.10329649  0.18328012 -0.41152447  0.         -0.         -0.02422688 -0.         -0.         -0.16369478 -0.1699704   0.63429789 -0.01432231
  -0.         -0.         -0.          0.          0.          0.          0.          0.         -0.          0.          0.13980216  0.          0.
   0.00723851 -0.55466936]]
[[-0.89383482 -0.3414796   0.03518481  0.16058695 -0.         -0.          0.21549501 -0.         -0.         -0.02610247 -0.0046779   0.00793015 -0.08330644
   0.         -0.         -0.         -0.         -0.         -0.         -0.          0.         -0.         -0.          0.00232285 -0.         -0.
  -0.05722673  0.00062313]
 [ 0.24010445  0.09255761  0.25045419  0.10905212  0.         -0.          0.82618222  0.         -0.         -0.03490883 -0.09008224 -0.03280218 -0.29953197
  -0.         -0.         -0.         -0.         -0.         -0.          0.          0.          0.         -0.          0.01805035 -0.         -0.
  -0.27591915  0.0004557 ]
 [-0.35577827  0.78499567  0.04924067 -0.40226203  0.         -0.          0.04139956 -0.          0.         -0.18762904  0.0195764  -0.14057352  0.00486221
  -0.          0.         -0.          0.         -0.          0.          0.         -0.         -0.          0.         -0.18820151  0.         -0.
  -0.02014101 -0.00723834]
 [ 0.         -0.         -0.          0.          0.37518694 -0.80130117 -0.         -0.00258634 -0.10380008  0.         -0.          0.         -0.
  -0.01910682  0.0707115   0.          0.          0.          0.         -0.10140014 -0.02671231 -0.41654341 -0.11998542 -0.         -0.02775889  0.03652199
  -0.         -0.        ]
 [-0.          0.          0.         -0.          0.80130117  0.37518694  0.          0.10380008 -0.00258634 -0.         -0.          0.          0.
  -0.0707115  -0.01910682  0.          0.          0.          0.         -0.02671231  0.10140014 -0.11998542  0.41654341  0.          0.03652199  0.02775889
  -0.         -0.        ]
 [-0.          0.         -0.          0.          0.06334959 -0.08020315  0.         -0.169384    0.81174467 -0.          0.         -0.         -0.
  -0.0006692   0.00124104  0.          0.          0.         -0.         -0.30221892 -0.00814868  0.03489777  0.00174046  0.          0.18625143 -0.41787414
   0.         -0.        ]
 [-0.          0.         -0.          0.         -0.08020315 -0.06334959 -0.          0.81174467  0.169384    0.         -0.         -0.         -0.
   0.00124104  0.0006692  -0.         -0.         -0.         -0.          0.00814868 -0.30221892 -0.00174046  0.03489777  0.          0.41787414  0.18625143
  -0.         -0.        ]
 [-0.09581963  0.11620984  0.10119649 -0.24871573  0.         -0.          0.05072536 -0.          0.          0.74670836 -0.02249346  0.02645605 -0.00628698
   0.          0.          0.         -0.          0.         -0.         -0.          0.          0.         -0.          0.47626116 -0.          0.
   0.04819211 -0.33863639]
 [ 0.00219285  0.02251365  0.09213809  0.02926079 -0.         -0.         -0.22309033 -0.          0.          0.0040788  -0.04627472 -0.0272166  -0.87815792
  -0.          0.          0.         -0.         -0.         -0.          0.          0.         -0.         -0.         -0.05190058 -0.          0.
   0.40438847 -0.00946781]
 [-0.          0.         -0.          0.         -0.03874633  0.00128212  0.         -0.00114337  0.00061854 -0.          0.         -0.          0.
  -0.97400418  0.20462597 -0.          0.         -0.         -0.          0.0257121  -0.0288144   0.05254793 -0.05624376  0.         -0.00994939 -0.02060173
   0.          0.        ]
 [-0.         -0.          0.         -0.          0.00128212  0.03874633  0.          0.00061854  0.00114337 -0.          0.         -0.          0.
   0.20462597  0.97400418 -0.         -0.         -0.          0.          0.0288144   0.0257121   0.05624376  0.05254793 -0.          0.02060173 -0.00994939
  -0.          0.        ]
 [-0.         -0.         -0.          0.         -0.          0.         -0.         -0.         -0.         -0.          0.         -0.         -0.
   0.         -0.         -0.96207664  0.22900146 -0.14799003  0.00811267 -0.          0.         -0.          0.          0.         -0.         -0.
  -0.          0.        ]
 [-0.          0.         -0.          0.         -0.         -0.          0.         -0.          0.         -0.         -0.          0.          0.
  -0.          0.         -0.22900146 -0.96207664 -0.00811267 -0.14799003 -0.          0.         -0.         -0.          0.          0.         -0.
   0.          0.        ]
 [-0.         -0.         -0.          0.         -0.          0.         -0.         -0.          0.         -0.          0.         -0.         -0.
   0.         -0.          0.14418395 -0.03431986 -0.98747295  0.05413228 -0.          0.         -0.          0.          0.          0.          0.
   0.          0.        ]
 [-0.          0.          0.         -0.         -0.          0.         -0.         -0.          0.          0.          0.         -0.         -0.
  -0.          0.         -0.03431986 -0.14418395  0.05413228  0.98747295  0.         -0.          0.         -0.         -0.          0.         -0.
  -0.          0.        ]
 [-0.          0.         -0.          0.          0.00190705  0.00096793  0.         -0.0359613  -0.00024653 -0.          0.         -0.         -0.
   0.02229216  0.00679021 -0.         -0.         -0.         -0.          0.18472923 -0.80410022 -0.06415046  0.25261225  0.         -0.40709424 -0.28948765
   0.         -0.        ]
 [-0.          0.          0.          0.         -0.00096793  0.00190705 -0.          0.00024653 -0.0359613  -0.          0.         -0.          0.
  -0.00679021  0.02229216  0.         -0.          0.          0.         -0.80410022 -0.18472923  0.25261225  0.06415046 -0.         -0.28948765  0.40709424
   0.          0.        ]
 [-0.01428385 -0.00130916  0.0328235  -0.06873209  0.         -0.          0.00096192  0.         -0.         -0.08316959  0.10950624 -0.45204015 -0.00325726
   0.         -0.          0.         -0.          0.         -0.          0.          0.         -0.         -0.          0.57698618 -0.          0.
   0.06352085  0.65862295]
 [-0.01409351  0.1153351   0.71266105  0.28106839  0.         -0.         -0.16111057 -0.          0.          0.00050056  0.58374359  0.15738661  0.08992885
  -0.         -0.         -0.         -0.         -0.         -0.          0.          0.         -0.         -0.          0.00335622 -0.         -0.
  -0.00476616  0.00296583]
 [ 0.06671613 -0.38751301  0.25861766 -0.45873625  0.         -0.          0.00855706  0.          0.          0.19753794  0.13084107 -0.54008815  0.01733413
  -0.         -0.         -0.          0.         -0.          0.          0.         -0.          0.          0.         -0.46642279  0.         -0.
  -0.04572738 -0.01448614]
 [ 0.         -0.          0.         -0.          0.33669988  0.29673541  0.          0.05685699  0.01509931  0.          0.         -0.          0.
   0.05057855  0.03089819 -0.          0.         -0.         -0.         -0.00588914 -0.2188434  -0.00345675 -0.85809509 -0.         -0.08002487 -0.03061797
  -0.          0.        ]
 [ 0.         -0.          0.         -0.         -0.29673541  0.33669988  0.         -0.01509931  0.05685699  0.          0.         -0.          0.
  -0.03089819  0.05057855  0.          0.          0.          0.         -0.2188434   0.00588914 -0.85809509  0.00345675 -0.         -0.03061797  0.08002487
  -0.         -0.        ]
 [-0.01345901 -0.00383406 -0.09341237 -0.05541017 -0.          0.         -0.35709964  0.         -0.          0.0216585   0.08126819  0.015222   -0.32670552
   0.         -0.         -0.          0.         -0.          0.         -0.          0.         -0.          0.          0.08370549 -0.         -0.
  -0.85988014  0.00675052]
 [-0.          0.          0.         -0.          0.01348096  0.05997939 -0.         -0.34423711 -0.42230753 -0.          0.          0.         -0.
  -0.00176169 -0.00422457  0.          0.          0.         -0.         -0.24904337 -0.32474396  0.01541626  0.02108401  0.          0.70397726 -0.1887049
   0.         -0.        ]
 [-0.          0.          0.          0.         -0.05997939  0.01348096  0.          0.42230753 -0.34423711 -0.         -0.          0.          0.
   0.00422457 -0.00176169  0.          0.          0.          0.         -0.32474396  0.24904337  0.02108401 -0.01541626 -0.         -0.1887049  -0.70397726
   0.          0.        ]
 [-0.02987937  0.06264338  0.49597802  0.21557146  0.         -0.         -0.25039837 -0.          0.         -0.00797767 -0.76303682 -0.18237115  0.12939867
  -0.         -0.         -0.         -0.         -0.          0.          0.         -0.          0.          0.          0.00922182 -0.         -0.
  -0.08741184 -0.00069716]
 [ 0.03739332 -0.25790635  0.22521547 -0.47405991  0.         -0.         -0.00955837  0.          0.         -0.57622737 -0.03529216  0.14501292 -0.00567573
  -0.          0.          0.         -0.          0.         -0.         -0.          0.         -0.         -0.          0.39701358 -0.          0.
   0.03316421 -0.37878195]
 [ 0.01785761  0.10329649 -0.18328012  0.41152447 -0.          0.         -0.02422688  0.         -0.         -0.16369478  0.1699704  -0.63429789  0.01432231
   0.         -0.         -0.          0.         -0.          0.          0.          0.         -0.         -0.          0.13980216 -0.          0.
   0.00723851 -0.55466936]]
grids:  [0.06237655 0.31939555 0.74529195 1.28265786 1.85893479 2.39630071 2.8221971  3.07921611] 
weights:  [0.15900941 0.34931531 0.49276925 0.56970235 0.56970235 0.49276925 0.34931531 0.15900941]
S = 0.0, Sz = 0.0
Wigner small d:  1
value : [1. 1. 1. 1. 1. 1. 1. 1.]
**** Start Cycle 1 ****
dm (ortho)
[[[ 0.79894069 -0.21461372 -0.31800701 ...  0.02670722  0.03342345  0.01596175]
  [-0.21461372  0.05765015  0.08542395 ... -0.00717417 -0.0089783  -0.00428769]
  [-0.31800701  0.08542395  0.12657818 ... -0.01063043 -0.01330373 -0.00635335]
  ...
  [ 0.02670722 -0.00717417 -0.01063043 ...  0.00089278  0.00111729  0.00053357]
  [ 0.03342345 -0.0089783  -0.01330373 ...  0.00111729  0.00139826  0.00066776]
  [ 0.01596175 -0.00428769 -0.00635335 ...  0.00053357  0.00066776  0.00031889]]

 [[ 0.79894069 -0.21461372  0.31800701 ...  0.02670722 -0.03342345 -0.01596175]
  [-0.21461372  0.05765015 -0.08542395 ... -0.00717417  0.0089783   0.00428769]
  [ 0.31800701 -0.08542395  0.12657818 ...  0.01063043 -0.01330373 -0.00635335]
  ...
  [ 0.02670722 -0.00717417  0.01063043 ...  0.00089278 -0.00111729 -0.00053357]
  [-0.03342345  0.0089783  -0.01330373 ... -0.00111729  0.00139826  0.00066776]
  [-0.01596175  0.00428769 -0.00635335 ... -0.00053357  0.00066776  0.00031889]]]
Fock (ortho)
 (array([[-0.28591381,  0.406677  ,  0.19654672,  0.        , -0.        , -0.        , -0.        ,  0.08826472,  0.09458852,  0.        , -0.        ,
         0.        ,  0.        ,  0.        ,  0.        , -0.        ,  0.        ,  0.02725379, -0.02979539,  0.0106296 ,  0.        , -0.        ,
         0.22032701,  0.        , -0.        , -0.04234075, -0.00716226, -0.01453395],
       [ 0.406677  ,  1.19175928, -0.08336712, -0.        , -0.        ,  0.        , -0.        ,  0.00715361,  0.21567877, -0.        , -0.        ,
         0.        , -0.        ,  0.        , -0.        , -0.        , -0.        ,  0.00802639, -0.25400799, -0.00796497,  0.        , -0.        ,
         1.05085535,  0.        , -0.        ,  0.06203304,  0.00046861,  0.00095941],
       [ 0.19654672, -0.08336712,  0.30533186,  0.        ,  0.        , -0.        ,  0.        , -0.50864716,  0.01181764, -0.        ,  0.        ,
        -0.        ,  0.        , -0.        ,  0.        ,  0.        , -0.        , -0.25541226,  0.0768039 ,  0.60150991,  0.        ,  0.        ,
         0.00761024, -0.        , -0.        ,  0.00661591, -0.11388453,  0.13111753],
       [ 0.        , -0.        ,  0.        ,  1.33257304, -0.        ,  0.04562802,  0.01071364,  0.        , -0.        ,  0.02668857,  0.05241259,
         0.        , -0.        , -0.        ,  0.        ,  0.00030706,  0.00966281, -0.        , -0.        , -0.        ,  0.36188331,  1.23755509,
         0.        ,  0.00165649,  0.00128293, -0.        ,  0.        ,  0.        ],
       [-0.        , -0.        ,  0.        , -0.        ,  1.33257304,  0.01071364, -0.04562802, -0.        , -0.        ,  0.05241259, -0.02668857,
        -0.        ,  0.        , -0.        ,  0.        , -0.00966281,  0.00030706, -0.        ,  0.        ,  0.        , -1.23755509,  0.36188331,
         0.        , -0.00128293,  0.00165649, -0.        ,  0.        ,  0.        ],
       [-0.        ,  0.        , -0.        ,  0.04562802,  0.01071364,  1.8651653 ,  0.        , -0.        ,  0.        , -0.00792376, -0.00937678,
         0.        ,  0.        ,  0.        , -0.        , -0.00366476,  0.01818531, -0.        ,  0.        ,  0.        ,  0.00056655,  0.01050873,
         0.        ,  0.88465787,  1.09134041,  0.        ,  0.        , -0.        ],
       [-0.        , -0.        ,  0.        ,  0.01071364, -0.04562802,  0.        ,  1.8651653 , -0.        , -0.        ,  0.00937678, -0.00792376,
         0.        ,  0.        , -0.        ,  0.        ,  0.01818531,  0.00366476, -0.        ,  0.        ,  0.        ,  0.01050873, -0.00056655,
        -0.        ,  1.09134041, -0.88465787,  0.        ,  0.        , -0.        ],
       [ 0.08826472,  0.00715361, -0.50864716,  0.        , -0.        , -0.        , -0.        ,  2.28083976, -0.01377946, -0.        ,  0.        ,
        -0.        ,  0.        ,  0.        ,  0.        ,  0.        , -0.        , -0.12813559,  0.03781794, -0.65882445, -0.        , -0.        ,
         0.01679517,  0.        ,  0.        , -0.00198401,  0.91282919,  0.94590955],
       [ 0.09458852,  0.21567877,  0.01181764, -0.        , -0.        ,  0.        , -0.        , -0.01377946,  3.17136237, -0.        , -0.        ,
        -0.        , -0.        , -0.        , -0.        , -0.        , -0.        ,  0.01379051, -0.27850286,  0.00348511, -0.        ,  0.        ,
        -0.55007551, -0.        ,  0.        , -0.34025484, -0.00087262, -0.00073355],
       [ 0.        , -0.        , -0.        ,  0.02668857,  0.05241259, -0.00792376,  0.00937678, -0.        , -0.        ,  3.16637168, -0.        ,
        -0.        , -0.        , -0.        , -0.        , -0.01482738,  0.00815323, -0.        , -0.        , -0.        ,  0.07155745, -0.06739727,
        -0.        ,  0.0005017 , -0.00263697, -0.        , -0.        , -0.        ],
       [-0.        , -0.        ,  0.        ,  0.05241259, -0.02668857, -0.00937678, -0.00792376,  0.        , -0.        , -0.        ,  3.16637168,
         0.        , -0.        ,  0.        ,  0.        ,  0.00815323,  0.01482738,  0.        ,  0.        ,  0.        , -0.06739727, -0.07155745,
         0.        , -0.00263697, -0.0005017 ,  0.        , -0.        , -0.        ],
       [ 0.        ,  0.        , -0.        ,  0.        , -0.        ,  0.        ,  0.        , -0.        , -0.        , -0.        ,  0.        ,
         3.39256186,  0.        , -0.02032069, -0.        ,  0.        , -0.        ,  0.        , -0.        ,  0.        , -0.        , -0.        ,
         0.        , -0.        , -0.        , -0.        , -0.        ,  0.        ],
       [ 0.        , -0.        ,  0.        , -0.        ,  0.        ,  0.        ,  0.        ,  0.        , -0.        , -0.        , -0.        ,
         0.        ,  3.39256186,  0.        ,  0.02032069, -0.        ,  0.        , -0.        ,  0.        , -0.        ,  0.        , -0.        ,
        -0.        , -0.        , -0.        ,  0.        ,  0.        , -0.        ],
       [ 0.        ,  0.        , -0.        , -0.        , -0.        ,  0.        , -0.        ,  0.        , -0.        , -0.        ,  0.        ,
        -0.02032069,  0.        ,  3.51957949,  0.        , -0.        ,  0.        ,  0.        , -0.        ,  0.        ,  0.        , -0.        ,
         0.        , -0.        , -0.        , -0.        , -0.        ,  0.        ],
       [ 0.        , -0.        ,  0.        ,  0.        ,  0.        , -0.        ,  0.        ,  0.        , -0.        , -0.        ,  0.        ,
        -0.        ,  0.02032069,  0.        ,  3.51957949,  0.        ,  0.        , -0.        ,  0.        ,  0.        , -0.        , -0.        ,
        -0.        ,  0.        ,  0.        ,  0.        ,  0.        , -0.        ],
       [-0.        , -0.        ,  0.        ,  0.00030706, -0.00966281, -0.00366476,  0.01818531,  0.        , -0.        , -0.01482738,  0.00815323,
         0.        , -0.        , -0.        ,  0.        ,  3.86659705, -0.        ,  0.        ,  0.        ,  0.        ,  0.00551232, -0.00142351,
         0.        , -0.10461289,  0.1265568 , -0.        ,  0.        ,  0.        ],
       [ 0.        , -0.        , -0.        ,  0.00966281,  0.00030706,  0.01818531,  0.00366476, -0.        , -0.        ,  0.00815323,  0.01482738,
        -0.        ,  0.        ,  0.        ,  0.        , -0.        ,  3.86659705, -0.        , -0.        , -0.        ,  0.00142351,  0.00551232,
        -0.        , -0.1265568 , -0.10461289, -0.        , -0.        , -0.        ],
       [ 0.02725379,  0.00802639, -0.25541226, -0.        , -0.        , -0.        , -0.        , -0.12813559,  0.01379051, -0.        ,  0.        ,
         0.        , -0.        ,  0.        , -0.        ,  0.        , -0.        ,  4.13959063,  0.01699504, -0.44684164, -0.        ,  0.        ,
         0.01202814,  0.        ,  0.        , -0.00517545, -0.44108595, -0.70154888],
       [-0.02979539, -0.25400799,  0.0768039 , -0.        ,  0.        ,  0.        ,  0.        ,  0.03781794, -0.27850286, -0.        ,  0.        ,
        -0.        ,  0.        , -0.        ,  0.        ,  0.        , -0.        ,  0.01699504,  1.19362072,  0.03765644, -0.        ,  0.        ,
         0.06946805,  0.        , -0.        , -0.975182  , -0.00041992,  0.01009408],
       [ 0.0106296 , -0.00796497,  0.60150991, -0.        ,  0.        ,  0.        ,  0.        , -0.65882445,  0.00348511, -0.        ,  0.        ,
         0.        , -0.        ,  0.        ,  0.        ,  0.        , -0.        , -0.44684164,  0.03765644,  1.89552744, -0.        , -0.        ,
        -0.00489859,  0.        ,  0.        , -0.01591058, -0.96659853,  0.60716858],
       [ 0.        ,  0.        ,  0.        ,  0.36188331, -1.23755509,  0.00056655,  0.01050873, -0.        , -0.        ,  0.07155745, -0.06739727,
        -0.        ,  0.        ,  0.        , -0.        ,  0.00551232,  0.00142351, -0.        , -0.        , -0.        ,  3.218246  , -0.        ,
         0.        ,  0.01303677, -0.0094519 , -0.        , -0.        ,  0.        ],
       [-0.        , -0.        ,  0.        ,  1.23755509,  0.36188331,  0.01050873, -0.00056655, -0.        ,  0.        , -0.06739727, -0.07155745,
        -0.        , -0.        , -0.        , -0.        , -0.00142351,  0.00551232,  0.        ,  0.        , -0.        , -0.        ,  3.218246  ,
         0.        ,  0.0094519 ,  0.01303677, -0.        , -0.        ,  0.        ],
       [ 0.22032701,  1.05085535,  0.00761024,  0.        ,  0.        ,  0.        , -0.        ,  0.01679517, -0.55007551, -0.        ,  0.        ,
         0.        , -0.        ,  0.        , -0.        ,  0.        , -0.        ,  0.01202814,  0.06946805, -0.00489859,  0.        ,  0.        ,
         3.63646651, -0.        , -0.        ,  0.07733746,  0.00573704,  0.00699244],
       [ 0.        ,  0.        , -0.        ,  0.00165649, -0.00128293,  0.88465787,  1.09134041,  0.        , -0.        ,  0.0005017 , -0.00263697,
        -0.        , -0.        , -0.        ,  0.        , -0.10461289, -0.1265568 ,  0.        ,  0.        ,  0.        ,  0.01303677,  0.0094519 ,
        -0.        ,  3.0914291 ,  0.        ,  0.        ,  0.        , -0.        ],
       [-0.        , -0.        , -0.        ,  0.00128293,  0.00165649,  1.09134041, -0.88465787,  0.        ,  0.        , -0.00263697, -0.0005017 ,
        -0.        , -0.        , -0.        ,  0.        ,  0.1265568 , -0.10461289,  0.        , -0.        ,  0.        , -0.0094519 ,  0.01303677,
        -0.        ,  0.        ,  3.0914291 ,  0.        ,  0.        , -0.        ],
       [-0.04234075,  0.06203304,  0.00661591, -0.        , -0.        ,  0.        ,  0.        , -0.00198401, -0.34025484, -0.        ,  0.        ,
        -0.        ,  0.        , -0.        ,  0.        , -0.        , -0.        , -0.00517545, -0.975182  , -0.01591058, -0.        , -0.        ,
         0.07733746,  0.        ,  0.        ,  1.80229175,  0.00306621, -0.01257092],
       [-0.00716226,  0.00046861, -0.11388453,  0.        ,  0.        ,  0.        ,  0.        ,  0.91282919, -0.00087262, -0.        , -0.        ,
        -0.        ,  0.        , -0.        ,  0.        ,  0.        , -0.        , -0.44108595, -0.00041992, -0.96659853, -0.        , -0.        ,
         0.00573704,  0.        ,  0.        ,  0.00306621,  1.99185588,  1.0415532 ],
       [-0.01453395,  0.00095941,  0.13111753,  0.        ,  0.        , -0.        , -0.        ,  0.94590955, -0.00073355, -0.        , -0.        ,
         0.        , -0.        ,  0.        , -0.        ,  0.        , -0.        , -0.70154888,  0.01009408,  0.60716858,  0.        ,  0.        ,
         0.00699244, -0.        , -0.        , -0.01257092,  1.0415532 ,  2.92237657]]), array([[-0.28591381,  0.406677  , -0.19654672,  0.        , -0.        , -0.        , -0.        , -0.08826472,  0.09458852, -0.        , -0.        ,
         0.        , -0.        ,  0.        , -0.        , -0.        , -0.        , -0.02725379, -0.02979539, -0.0106296 ,  0.        , -0.        ,
         0.22032701,  0.        , -0.        , -0.04234075,  0.00716226,  0.01453395],
       [ 0.406677  ,  1.19175928,  0.08336712, -0.        , -0.        ,  0.        , -0.        , -0.00715361,  0.21567877, -0.        , -0.        ,
         0.        ,  0.        ,  0.        ,  0.        , -0.        , -0.        , -0.00802639, -0.25400799,  0.00796497,  0.        , -0.        ,
         1.05085535,  0.        , -0.        ,  0.06203304, -0.00046861, -0.00095941],
       [-0.19654672,  0.08336712,  0.30533186,  0.        ,  0.        , -0.        ,  0.        , -0.50864716, -0.01181764, -0.        ,  0.        ,
        -0.        , -0.        , -0.        , -0.        ,  0.        , -0.        , -0.25541226, -0.0768039 ,  0.60150991,  0.        ,  0.        ,
        -0.00761024, -0.        , -0.        , -0.00661591, -0.11388453,  0.13111753],
       [ 0.        , -0.        ,  0.        ,  1.33257304, -0.        , -0.04562802, -0.01071364,  0.        , -0.        ,  0.02668857,  0.05241259,
         0.        ,  0.        , -0.        ,  0.        , -0.00030706, -0.00966281, -0.        , -0.        , -0.        ,  0.36188331,  1.23755509,
         0.        , -0.00165649, -0.00128293, -0.        ,  0.        ,  0.        ],
       [-0.        , -0.        ,  0.        , -0.        ,  1.33257304, -0.01071364,  0.04562802, -0.        , -0.        ,  0.05241259, -0.02668857,
        -0.        ,  0.        , -0.        ,  0.        ,  0.00966281, -0.00030706, -0.        ,  0.        ,  0.        , -1.23755509,  0.36188331,
         0.        ,  0.00128293, -0.00165649, -0.        ,  0.        ,  0.        ],
       [-0.        ,  0.        , -0.        , -0.04562802, -0.01071364,  1.8651653 ,  0.        , -0.        ,  0.        ,  0.00792376,  0.00937678,
         0.        ,  0.        ,  0.        , -0.        , -0.00366476,  0.01818531, -0.        ,  0.        ,  0.        , -0.00056655, -0.01050873,
         0.        ,  0.88465787,  1.09134041,  0.        ,  0.        , -0.        ],
       [-0.        , -0.        ,  0.        , -0.01071364,  0.04562802, -0.        ,  1.8651653 , -0.        , -0.        , -0.00937678,  0.00792376,
         0.        ,  0.        , -0.        ,  0.        ,  0.01818531,  0.00366476, -0.        ,  0.        ,  0.        , -0.01050873,  0.00056655,
        -0.        ,  1.09134041, -0.88465787,  0.        ,  0.        , -0.        ],
       [-0.08826472, -0.00715361, -0.50864716,  0.        , -0.        , -0.        , -0.        ,  2.28083976,  0.01377946, -0.        , -0.        ,
        -0.        , -0.        , -0.        , -0.        ,  0.        , -0.        , -0.12813559, -0.03781794, -0.65882445, -0.        , -0.        ,
        -0.01679517,  0.        ,  0.        ,  0.00198401,  0.91282919,  0.94590955],
       [ 0.09458852,  0.21567877, -0.01181764, -0.        , -0.        ,  0.        , -0.        ,  0.01377946,  3.17136237, -0.        , -0.        ,
        -0.        , -0.        , -0.        , -0.        , -0.        , -0.        , -0.01379051, -0.27850286, -0.00348511, -0.        ,  0.        ,
        -0.55007551, -0.        ,  0.        , -0.34025484,  0.00087262,  0.00073355],
       [-0.        , -0.        , -0.        ,  0.02668857,  0.05241259,  0.00792376, -0.00937678, -0.        , -0.        ,  3.16637168, -0.        ,
        -0.        ,  0.        , -0.        ,  0.        ,  0.01482738, -0.00815323, -0.        , -0.        , -0.        ,  0.07155745, -0.06739727,
        -0.        , -0.0005017 ,  0.00263697, -0.        , -0.        , -0.        ],
       [-0.        , -0.        ,  0.        ,  0.05241259, -0.02668857,  0.00937678,  0.00792376, -0.        , -0.        , -0.        ,  3.16637168,
         0.        , -0.        ,  0.        ,  0.        , -0.00815323, -0.01482738,  0.        ,  0.        ,  0.        , -0.06739727, -0.07155745,
         0.        ,  0.00263697,  0.0005017 ,  0.        , -0.        , -0.        ],
       [ 0.        ,  0.        , -0.        ,  0.        , -0.        ,  0.        ,  0.        , -0.        , -0.        , -0.        ,  0.        ,
         3.39256186,  0.        ,  0.02032069, -0.        ,  0.        , -0.        ,  0.        , -0.        ,  0.        , -0.        , -0.        ,
         0.        , -0.        , -0.        , -0.        , -0.        ,  0.        ],
       [-0.        ,  0.        , -0.        ,  0.        ,  0.        ,  0.        ,  0.        , -0.        , -0.        ,  0.        , -0.        ,
         0.        ,  3.39256186,  0.        , -0.02032069, -0.        , -0.        , -0.        , -0.        , -0.        ,  0.        , -0.        ,
        -0.        , -0.        , -0.        , -0.        ,  0.        ,  0.        ],
       [ 0.        ,  0.        , -0.        , -0.        , -0.        ,  0.        , -0.        , -0.        , -0.        , -0.        ,  0.        ,
         0.02032069,  0.        ,  3.51957949,  0.        , -0.        ,  0.        ,  0.        , -0.        ,  0.        ,  0.        , -0.        ,
         0.        , -0.        , -0.        , -0.        , -0.        ,  0.        ],
       [-0.        ,  0.        , -0.        ,  0.        ,  0.        , -0.        ,  0.        , -0.        , -0.        ,  0.        ,  0.        ,
        -0.        , -0.02032069,  0.        ,  3.51957949,  0.        ,  0.        , -0.        , -0.        , -0.        , -0.        , -0.        ,
        -0.        ,  0.        ,  0.        , -0.        ,  0.        ,  0.        ],
       [-0.        , -0.        ,  0.        , -0.00030706,  0.00966281, -0.00366476,  0.01818531,  0.        , -0.        ,  0.01482738, -0.00815323,
         0.        , -0.        , -0.        ,  0.        ,  3.86659705, -0.        , -0.        ,  0.        ,  0.        , -0.00551232,  0.00142351,
         0.        , -0.10461289,  0.1265568 , -0.        ,  0.        ,  0.        ],
       [-0.        , -0.        , -0.        , -0.00966281, -0.00030706,  0.01818531,  0.00366476, -0.        , -0.        , -0.00815323, -0.01482738,
        -0.        , -0.        ,  0.        ,  0.        , -0.        ,  3.86659705, -0.        , -0.        , -0.        , -0.00142351, -0.00551232,
        -0.        , -0.1265568 , -0.10461289, -0.        , -0.        , -0.        ],
       [-0.02725379, -0.00802639, -0.25541226, -0.        , -0.        , -0.        , -0.        , -0.12813559, -0.01379051, -0.        ,  0.        ,
         0.        , -0.        ,  0.        , -0.        , -0.        , -0.        ,  4.13959063, -0.01699504, -0.44684164, -0.        ,  0.        ,
        -0.01202814,  0.        ,  0.        ,  0.00517545, -0.44108595, -0.70154888],
       [-0.02979539, -0.25400799, -0.0768039 , -0.        ,  0.        ,  0.        ,  0.        , -0.03781794, -0.27850286, -0.        ,  0.        ,
        -0.        , -0.        , -0.        , -0.        ,  0.        , -0.        , -0.01699504,  1.19362072, -0.03765644, -0.        , -0.        ,
         0.06946805,  0.        , -0.        , -0.975182  ,  0.00041992, -0.01009408],
       [-0.0106296 ,  0.00796497,  0.60150991, -0.        ,  0.        ,  0.        ,  0.        , -0.65882445, -0.00348511, -0.        ,  0.        ,
         0.        , -0.        ,  0.        , -0.        ,  0.        , -0.        , -0.44684164, -0.03765644,  1.89552744, -0.        , -0.        ,
         0.00489859,  0.        ,  0.        ,  0.01591058, -0.96659853,  0.60716858],
       [ 0.        ,  0.        ,  0.        ,  0.36188331, -1.23755509, -0.00056655, -0.01050873, -0.        , -0.        ,  0.07155745, -0.06739727,
        -0.        ,  0.        ,  0.        , -0.        , -0.00551232, -0.00142351, -0.        , -0.        , -0.        ,  3.218246  , -0.        ,
         0.        , -0.01303677,  0.0094519 , -0.        , -0.        ,  0.        ],
       [-0.        , -0.        ,  0.        ,  1.23755509,  0.36188331, -0.01050873,  0.00056655, -0.        ,  0.        , -0.06739727, -0.07155745,
        -0.        , -0.        , -0.        , -0.        ,  0.00142351, -0.00551232,  0.        , -0.        , -0.        , -0.        ,  3.218246  ,
         0.        , -0.0094519 , -0.01303677, -0.        , -0.        ,  0.        ],
       [ 0.22032701,  1.05085535, -0.00761024,  0.        ,  0.        ,  0.        , -0.        , -0.01679517, -0.55007551, -0.        ,  0.        ,
         0.        , -0.        ,  0.        , -0.        ,  0.        , -0.        , -0.01202814,  0.06946805,  0.00489859,  0.        ,  0.        ,
         3.63646651, -0.        , -0.        ,  0.07733746, -0.00573704, -0.00699244],
       [ 0.        ,  0.        , -0.        , -0.00165649,  0.00128293,  0.88465787,  1.09134041,  0.        , -0.        , -0.0005017 ,  0.00263697,
        -0.        , -0.        , -0.        ,  0.        , -0.10461289, -0.1265568 ,  0.        ,  0.        ,  0.        , -0.01303677, -0.0094519 ,
        -0.        ,  3.0914291 ,  0.        ,  0.        ,  0.        , -0.        ],
       [-0.        , -0.        , -0.        , -0.00128293, -0.00165649,  1.09134041, -0.88465787,  0.        ,  0.        ,  0.00263697,  0.0005017 ,
        -0.        , -0.        , -0.        ,  0.        ,  0.1265568 , -0.10461289,  0.        , -0.        ,  0.        ,  0.0094519 , -0.01303677,
        -0.        ,  0.        ,  3.0914291 ,  0.        ,  0.        , -0.        ],
       [-0.04234075,  0.06203304, -0.00661591, -0.        , -0.        ,  0.        ,  0.        ,  0.00198401, -0.34025484, -0.        ,  0.        ,
        -0.        , -0.        , -0.        , -0.        , -0.        , -0.        ,  0.00517545, -0.975182  ,  0.01591058, -0.        , -0.        ,
         0.07733746,  0.        ,  0.        ,  1.80229175, -0.00306621,  0.01257092],
       [ 0.00716226, -0.00046861, -0.11388453,  0.        ,  0.        ,  0.        ,  0.        ,  0.91282919,  0.00087262, -0.        , -0.        ,
        -0.        ,  0.        , -0.        ,  0.        ,  0.        , -0.        , -0.44108595,  0.00041992, -0.96659853, -0.        , -0.        ,
        -0.00573704,  0.        ,  0.        , -0.00306621,  1.99185588,  1.0415532 ],
       [ 0.01453395, -0.00095941,  0.13111753,  0.        ,  0.        , -0.        , -0.        ,  0.94590955,  0.00073355, -0.        , -0.        ,
         0.        ,  0.        ,  0.        ,  0.        ,  0.        , -0.        , -0.70154888, -0.01009408,  0.60716858,  0.        ,  0.        ,
        -0.00699244, -0.        , -0.        ,  0.01257092,  1.0415532 ,  2.92237657]]))
E(UHF) =    -1.374805
NO eigenvalue
[-1. -0. -0. -0. -0. -0. -0. -0. -0. -0. -0. -0. -0. -0. -0.  0.  0.  0.  0.  0.  0.  0.  0.  0.  0.  0.  0.  0.] [-1. -0. -0. -0. -0. -0. -0. -0. -0. -0. -0. -0. -0.  0.  0.  0.  0.  0.  0.  0.  0.  0.  0.  0.  0.  0.  0.  0.]
NO vec
[[ 0.89383482  0.         -0.4300588  ...  0.          0.          0.        ]
 [-0.24010445  0.         -0.22759465 ...  0.          0.          0.        ]
 [-0.35577827  0.         -0.8064344  ...  0.          0.          0.        ]
 ...
 [ 0.          0.02987937  0.         ...  0.39357044  0.06214561  0.0727191 ]
 [ 0.         -0.03739332  0.         ...  0.0812271  -0.01521666 -0.05626277]
 [ 0.         -0.01785761  0.         ...  0.0504317  -0.16373519 -0.0448181 ]]
dm(NO)
[[ 1.  0.  0. ...  0.  0.  0.]
 [ 0.  1.  0. ...  0. -0.  0.]
 [ 0.  0.  0. ...  0.  0.  0.]
 ...
 [ 0.  0.  0. ... -0.  0. -0.]
 [ 0.  0.  0. ...  0. -0.  0.]
 [ 0.  0.  0. ... -0.  0.  0.]]
D(g) (NO)
[[ 0.99951369  0.02231896  0.         ...  0.00258379 -0.00990135  0.01845403]
 [-0.02231896  0.99951369  0.02043842 ...  0.         -0.          0.        ]
 [-0.         -0.02043842  0.99951369 ...  0.00363442 -0.01519963  0.01668368]
 ...
 [-0.00258379  0.         -0.00363442 ...  0.99951369  0.         -0.        ]
 [ 0.00990135 -0.          0.01519963 ...  0.          0.99951369  0.        ]
 [-0.01845403  0.         -0.01668368 ... -0.          0.          0.99951369]]
...
N(g) (NO)
[[ 0.99998794 -0.02232955]
 [ 0.02232955  0.99998794]]
...
P(g) (NO)
[[ 1.          0.          0.         ...  0.          0.          0.        ]
 [-0.          1.         -0.         ...  0.         -0.          0.        ]
 [-0.00045638 -0.02043817 -0.         ... -0.          0.         -0.        ]
 ...
 [-0.00258376  0.00005769 -0.         ...  0.         -0.          0.        ]
 [ 0.00990123 -0.00022109  0.         ... -0.          0.         -0.        ]
 [-0.01845381  0.00041207 -0.         ...  0.         -0.          0.        ]]
...
Pg_ortho
[[ 0.79909883 -0.2146562  -0.31806995 ...  0.00023674 -0.00029627 -0.00014149]
 [-0.2146562   0.05766156  0.08544085 ... -0.00006359  0.00007958  0.00003801]
 [-0.31762709  0.08532189  0.12642696 ...  0.00056874 -0.00071177 -0.00033991]
 ...
 [-0.00023674  0.00006359  0.00009423 ...  0.00089295 -0.00111751 -0.00053368]
 [-0.00178821  0.00048035  0.00071177 ... -0.00111595  0.00139659  0.00066696]
 [-0.00085398  0.0002294   0.00033991 ... -0.00053294  0.00066696  0.00031851]]
G(g) (NO)
[[ 0.40418985 -0.00184938 -0.09964433 ...  0.00004541 -0.00010287  0.00193034]
 [ 0.00184938  0.40418985  0.00167711 ...  0.0327635  -0.00992741  0.07390769]
 [-0.09949748  0.01109815  0.87206755 ...  0.00076533 -0.00048213 -0.00200208]
 ...
 [ 0.00250091  0.03274928  0.00139219 ...  0.91849823 -0.00969636  0.01600524]
 [-0.00430154 -0.00988131 -0.00151805 ... -0.00969945  0.80791055  0.06880053]
 [ 0.01115891  0.07376676  0.0011934  ...  0.01600465  0.06878489  0.98817078]]
...
C(NO)
[[-1.          0.         -0.         ...  0.          0.          0.        ]
 [ 0.         -1.          0.         ... -0.         -0.         -0.        ]
 [-0.          0.          0.87618235 ...  0.          0.          0.        ]
 ...
 [ 0.         -0.          0.         ...  0.         -0.21706384 -0.12095832]
 [ 0.          0.          0.         ...  0.         -0.0039433   0.16660782]
 [ 0.         -0.          0.         ...  0.          0.00876734  0.25812013]]
detC 0.9999999999999992
detNg [1.00047448 1.01248717 1.06911843 1.21147996 1.45593912 1.73331699 1.90617156 1.95025733]
xg [0.99952574 0.98766684 0.93535007 0.82543669 0.6868419  0.57692852 0.52461175 0.51275285]
ciS 1.512278589652991
[[-0.88947677  0.          0.09237219 ...  0.          0.          0.        ]
 [ 0.         -0.88947677  0.         ... -0.03132451  0.00871616 -0.06686777]
 [ 0.09237219  0.         -0.62133684 ...  0.          0.          0.        ]
 ...
 [ 0.         -0.03132451  0.         ...  1.66043686  0.4580284  -0.27100736]
 [ 0.          0.00871616  0.         ...  0.4580284   0.48103469  0.56562024]
 [ 0.         -0.06686777  0.         ... -0.27100736  0.56562024 -0.20223735]]
ciH -2.111007148528363
S2 = 0.000000
X(g)
[[ 2.          0.         -0.00045638 ...  0.00258376 -0.00990123  0.01845381]
 [-0.          2.          0.02043817 ...  0.00005769 -0.00022109  0.00041207]
 [-0.00045638 -0.02043817  0.         ...  0.          0.          0.        ]
 ...
 [-0.00258376  0.00005769  0.         ...  0.          0.          0.        ]
 [ 0.00990123 -0.00022109  0.         ...  0.          0.          0.        ]
 [-0.01845381  0.00041207  0.         ...  0.          0.          0.        ]]
X(g) int
[[ 2.          0.         -0.31020416 ...  0.04303228 -0.16490415  0.30734663]
 [-0.          2.          0.34039596 ...  0.03921548 -0.15027779  0.28008618]
 [-0.31020416 -0.34039596  0.         ...  0.          0.          0.        ]
 ...
 [-0.04303228  0.03921548  0.         ...  0.          0.          0.        ]
 [ 0.16490415 -0.15027779  0.         ...  0.          0.          0.        ]
 [-0.30734663  0.28008618  0.         ...  0.          0.          0.        ]]
Hsp + Hph =  -1.3959115489512794
Feff (mod,ortho)
[[-0.26696856  0.39991366  0.21771497 ...  0.          0.          0.        ]
 [ 0.39991366  1.1940258  -0.088387   ...  0.          0.          0.        ]
 [ 0.21771497 -0.088387    0.28547888 ...  0.          0.          0.        ]
 ...
 [ 0.          0.          0.         ...  1.80233258 -0.00312314  0.01260862]
 [ 0.          0.          0.         ... -0.00312314  1.99193445  1.04150951]
 [ 0.          0.          0.         ...  0.01260862  1.04150951  2.92231693]]
E(SUHF) =     -1.04312674
e_a, e_b
[-0.48778816  0.07325569  0.35546966  0.47490152  0.66995914  0.66995914  0.81920475  0.94579257  0.94579257  1.33836754  2.52133221  2.69866502  3.12823519
  3.16445745  3.16445745  3.38939009  3.38939009  3.52275126  3.52275126  3.78979042  3.78979042  3.88181604  3.88181604  4.00338959  4.08856654  4.08856654
  4.25791275  5.06216319] [-0.48778816  0.07325569  0.35546966  0.47490152  0.66995914  0.66995914  0.81920475  0.94579257  0.94579257  1.33836754  2.52133221  2.69866502  3.12823519
  3.16445745  3.16445745  3.38939009  3.38939009  3.52275126  3.52275126  3.78979042  3.78979042  3.88181604  3.88181604  4.00338959  4.08856654  4.08856654
  4.25791275  5.06216319]
P_a, P_b
[[ 0.75858171 -0.20497952 -0.35402399  0.         -0.          0.         -0.         -0.09802688 -0.00272778 -0.          0.         -0.         -0.
  -0.         -0.         -0.         -0.         -0.01530037  0.00631894  0.06067316  0.          0.          0.01142605 -0.         -0.          0.02263073
   0.03410428  0.02020224]
 [-0.20497952  0.05538837  0.0956623  -0.          0.         -0.          0.          0.02648825  0.00073709  0.         -0.          0.          0.
   0.          0.          0.          0.          0.00413438 -0.00170747 -0.01639475 -0.         -0.         -0.00308748  0.          0.         -0.00611514
  -0.00921546 -0.00545893]
 [-0.35402399  0.0956623   0.16522015 -0.          0.         -0.          0.          0.04574836  0.00127303  0.         -0.          0.          0.
   0.          0.          0.          0.          0.00714056 -0.002949   -0.02831568 -0.         -0.         -0.00533245  0.          0.         -0.01056158
  -0.01591619 -0.00942822]
 [ 0.         -0.         -0.          0.         -0.          0.         -0.         -0.         -0.         -0.          0.         -0.         -0.
  -0.         -0.         -0.         -0.         -0.          0.          0.          0.          0.          0.         -0.         -0.          0.
   0.          0.        ]
 [-0.          0.          0.         -0.          0.         -0.          0.          0.          0.          0.         -0.          0.          0.
   0.          0.          0.          0.          0.         -0.         -0.         -0.         -0.         -0.          0.          0.         -0.
  -0.         -0.        ]
 [ 0.         -0.         -0.          0.         -0.          0.         -0.         -0.         -0.         -0.          0.         -0.         -0.
  -0.         -0.         -0.         -0.         -0.          0.          0.          0.          0.          0.         -0.         -0.          0.
   0.          0.        ]
 [-0.          0.          0.         -0.          0.         -0.          0.          0.          0.          0.         -0.          0.          0.
   0.          0.          0.          0.          0.         -0.         -0.         -0.         -0.         -0.          0.          0.         -0.
  -0.         -0.        ]
 [-0.09802688  0.02648825  0.04574836 -0.          0.         -0.          0.          0.01266742  0.00035249  0.         -0.          0.          0.
   0.          0.          0.          0.          0.00197717 -0.00081656 -0.00784042 -0.         -0.         -0.00147652  0.          0.         -0.00292443
  -0.00440709 -0.00261061]
 [-0.00272778  0.00073709  0.00127303 -0.          0.         -0.          0.          0.00035249  0.00000981  0.         -0.          0.          0.
   0.          0.          0.          0.          0.00005502 -0.00002272 -0.00021817 -0.         -0.         -0.00004109  0.          0.         -0.00008138
  -0.00012264 -0.00007265]
 [-0.          0.          0.         -0.          0.         -0.          0.          0.          0.          0.         -0.          0.          0.
   0.          0.          0.          0.          0.         -0.         -0.         -0.         -0.         -0.          0.          0.         -0.
  -0.         -0.        ]
 [ 0.         -0.         -0.          0.         -0.          0.         -0.         -0.         -0.         -0.          0.         -0.         -0.
  -0.         -0.         -0.         -0.         -0.          0.          0.          0.          0.          0.         -0.         -0.          0.
   0.          0.        ]
 [-0.          0.          0.         -0.          0.         -0.          0.          0.          0.          0.         -0.          0.          0.
   0.          0.          0.          0.          0.         -0.         -0.         -0.         -0.         -0.          0.          0.         -0.
  -0.         -0.        ]
 [-0.          0.          0.         -0.          0.         -0.          0.          0.          0.          0.         -0.          0.          0.
   0.          0.          0.          0.          0.         -0.         -0.         -0.         -0.         -0.          0.          0.         -0.
  -0.         -0.        ]
 [-0.          0.          0.         -0.          0.         -0.          0.          0.          0.          0.         -0.          0.          0.
   0.          0.          0.          0.          0.         -0.         -0.         -0.         -0.         -0.          0.          0.         -0.
  -0.         -0.        ]
 [-0.          0.          0.         -0.          0.         -0.          0.          0.          0.          0.         -0.          0.          0.
   0.          0.          0.          0.          0.         -0.         -0.         -0.         -0.         -0.          0.          0.         -0.
  -0.         -0.        ]
 [-0.          0.          0.         -0.          0.         -0.          0.          0.          0.          0.         -0.          0.          0.
   0.          0.          0.          0.          0.         -0.         -0.         -0.         -0.         -0.          0.          0.         -0.
  -0.         -0.        ]
 [-0.          0.          0.         -0.          0.         -0.          0.          0.          0.          0.         -0.          0.          0.
   0.          0.          0.          0.          0.         -0.         -0.         -0.         -0.         -0.          0.          0.         -0.
  -0.         -0.        ]
 [-0.01530037  0.00413438  0.00714056 -0.          0.         -0.          0.          0.00197717  0.00005502  0.         -0.          0.          0.
   0.          0.          0.          0.          0.0003086  -0.00012745 -0.00122376 -0.         -0.         -0.00023046  0.          0.         -0.00045646
  -0.00068787 -0.00040747]
 [ 0.00631894 -0.00170747 -0.002949    0.         -0.          0.         -0.         -0.00081656 -0.00002272 -0.          0.         -0.         -0.
  -0.         -0.         -0.         -0.         -0.00012745  0.00005264  0.0005054   0.          0.          0.00009518 -0.         -0.          0.00018851
   0.00028409  0.00016828]
 [ 0.06067316 -0.01639475 -0.02831568  0.         -0.          0.         -0.         -0.00784042 -0.00021817 -0.          0.         -0.         -0.
  -0.         -0.         -0.         -0.         -0.00122376  0.0005054   0.00485278  0.          0.          0.00091388 -0.         -0.          0.00181006
   0.00272774  0.00161582]
 [ 0.         -0.         -0.          0.         -0.          0.         -0.         -0.         -0.         -0.          0.         -0.         -0.
  -0.         -0.         -0.         -0.         -0.          0.          0.          0.          0.          0.         -0.         -0.          0.
   0.          0.        ]
 [ 0.         -0.         -0.          0.         -0.          0.         -0.         -0.         -0.         -0.          0.         -0.         -0.
  -0.         -0.         -0.         -0.         -0.          0.          0.          0.          0.          0.         -0.         -0.          0.
   0.          0.        ]
 [ 0.01142605 -0.00308748 -0.00533245  0.         -0.          0.         -0.         -0.00147652 -0.00004109 -0.          0.         -0.         -0.
  -0.         -0.         -0.         -0.         -0.00023046  0.00009518  0.00091388  0.          0.          0.0001721  -0.         -0.          0.00034087
   0.00051369  0.00030429]
 [-0.          0.          0.         -0.          0.         -0.          0.          0.          0.          0.         -0.          0.          0.
   0.          0.          0.          0.          0.         -0.         -0.         -0.         -0.         -0.          0.          0.         -0.
  -0.         -0.        ]
 [-0.          0.          0.         -0.          0.         -0.          0.          0.          0.          0.         -0.          0.          0.
   0.          0.          0.          0.          0.         -0.         -0.         -0.         -0.         -0.          0.          0.         -0.
  -0.         -0.        ]
 [ 0.02263073 -0.00611514 -0.01056158  0.         -0.          0.         -0.         -0.00292443 -0.00008138 -0.          0.         -0.         -0.
  -0.         -0.         -0.         -0.         -0.00045646  0.00018851  0.00181006  0.          0.          0.00034087 -0.         -0.          0.00067514
   0.00101743  0.00060269]
 [ 0.03410428 -0.00921546 -0.01591619  0.         -0.          0.         -0.         -0.00440709 -0.00012264 -0.          0.         -0.         -0.
  -0.         -0.         -0.         -0.         -0.00068787  0.00028409  0.00272774  0.          0.          0.00051369 -0.         -0.          0.00101743
   0.00153326  0.00090825]
 [ 0.02020224 -0.00545893 -0.00942822  0.         -0.          0.         -0.         -0.00261061 -0.00007265 -0.          0.         -0.         -0.
  -0.         -0.         -0.         -0.         -0.00040747  0.00016828  0.00161582  0.          0.          0.00030429 -0.         -0.          0.00060269
   0.00090825  0.00053802]] 
 [[ 0.75858171 -0.20497952  0.35402399 -0.         -0.          0.          0.          0.09802688 -0.00272778  0.          0.          0.          0.
   0.          0.          0.          0.          0.01530037  0.00631894 -0.06067316 -0.         -0.          0.01142605  0.          0.          0.02263073
  -0.03410428 -0.02020224]
 [-0.20497952  0.05538837 -0.0956623   0.          0.         -0.         -0.         -0.02648825  0.00073709 -0.         -0.         -0.         -0.
  -0.         -0.         -0.         -0.         -0.00413438 -0.00170747  0.01639475  0.          0.         -0.00308748 -0.         -0.         -0.00611514
   0.00921546  0.00545893]
 [ 0.35402399 -0.0956623   0.16522015 -0.         -0.          0.          0.          0.04574836 -0.00127303  0.          0.          0.          0.
   0.          0.          0.          0.          0.00714056  0.002949   -0.02831568 -0.         -0.          0.00533245  0.          0.          0.01056158
  -0.01591619 -0.00942822]
 [-0.          0.         -0.          0.          0.         -0.         -0.         -0.          0.         -0.         -0.         -0.         -0.
  -0.         -0.         -0.         -0.         -0.         -0.          0.          0.          0.         -0.         -0.         -0.         -0.
   0.          0.        ]
 [-0.          0.         -0.          0.          0.         -0.         -0.         -0.          0.         -0.         -0.         -0.         -0.
  -0.         -0.         -0.         -0.         -0.         -0.          0.          0.          0.         -0.         -0.         -0.         -0.
   0.          0.        ]
 [ 0.         -0.          0.         -0.         -0.          0.          0.          0.         -0.          0.          0.          0.          0.
   0.          0.          0.          0.          0.          0.         -0.         -0.         -0.          0.          0.          0.          0.
  -0.         -0.        ]
 [ 0.         -0.          0.         -0.         -0.          0.          0.          0.         -0.          0.          0.          0.          0.
   0.          0.          0.          0.          0.          0.         -0.         -0.         -0.          0.          0.          0.          0.
  -0.         -0.        ]
 [ 0.09802688 -0.02648825  0.04574836 -0.         -0.          0.          0.          0.01266742 -0.00035249  0.          0.          0.          0.
   0.          0.          0.          0.          0.00197717  0.00081656 -0.00784042 -0.         -0.          0.00147652  0.          0.          0.00292443
  -0.00440709 -0.00261061]
 [-0.00272778  0.00073709 -0.00127303  0.          0.         -0.         -0.         -0.00035249  0.00000981 -0.         -0.         -0.         -0.
  -0.         -0.         -0.         -0.         -0.00005502 -0.00002272  0.00021817  0.          0.         -0.00004109 -0.         -0.         -0.00008138
   0.00012264  0.00007265]
 [ 0.         -0.          0.         -0.         -0.          0.          0.          0.         -0.          0.          0.          0.          0.
   0.          0.          0.          0.          0.          0.         -0.         -0.         -0.          0.          0.          0.          0.
  -0.         -0.        ]
 [ 0.         -0.          0.         -0.         -0.          0.          0.          0.         -0.          0.          0.          0.          0.
   0.          0.          0.          0.          0.          0.         -0.         -0.         -0.          0.          0.          0.          0.
  -0.         -0.        ]
 [ 0.         -0.          0.         -0.         -0.          0.          0.          0.         -0.          0.          0.          0.          0.
   0.          0.          0.          0.          0.          0.         -0.         -0.         -0.          0.          0.          0.          0.
  -0.         -0.        ]
 [ 0.         -0.          0.         -0.         -0.          0.          0.          0.         -0.          0.          0.          0.          0.
   0.          0.          0.          0.          0.          0.         -0.         -0.         -0.          0.          0.          0.          0.
  -0.         -0.        ]
 [ 0.         -0.          0.         -0.         -0.          0.          0.          0.         -0.          0.          0.          0.          0.
   0.          0.          0.          0.          0.          0.         -0.         -0.         -0.          0.          0.          0.          0.
  -0.         -0.        ]
 [ 0.         -0.          0.         -0.         -0.          0.          0.          0.         -0.          0.          0.          0.          0.
   0.          0.          0.          0.          0.          0.         -0.         -0.         -0.          0.          0.          0.          0.
  -0.         -0.        ]
 [ 0.         -0.          0.         -0.         -0.          0.          0.          0.         -0.          0.          0.          0.          0.
   0.          0.          0.          0.          0.          0.         -0.         -0.         -0.          0.          0.          0.          0.
  -0.         -0.        ]
 [ 0.         -0.          0.         -0.         -0.          0.          0.          0.         -0.          0.          0.          0.          0.
   0.          0.          0.          0.          0.          0.         -0.         -0.         -0.          0.          0.          0.          0.
  -0.         -0.        ]
 [ 0.01530037 -0.00413438  0.00714056 -0.         -0.          0.          0.          0.00197717 -0.00005502  0.          0.          0.          0.
   0.          0.          0.          0.          0.0003086   0.00012745 -0.00122376 -0.         -0.          0.00023046  0.          0.          0.00045646
  -0.00068787 -0.00040747]
 [ 0.00631894 -0.00170747  0.002949   -0.         -0.          0.          0.          0.00081656 -0.00002272  0.          0.          0.          0.
   0.          0.          0.          0.          0.00012745  0.00005264 -0.0005054  -0.         -0.          0.00009518  0.          0.          0.00018851
  -0.00028409 -0.00016828]
 [-0.06067316  0.01639475 -0.02831568  0.          0.         -0.         -0.         -0.00784042  0.00021817 -0.         -0.         -0.         -0.
  -0.         -0.         -0.         -0.         -0.00122376 -0.0005054   0.00485278  0.          0.         -0.00091388 -0.         -0.         -0.00181006
   0.00272774  0.00161582]
 [-0.          0.         -0.          0.          0.         -0.         -0.         -0.          0.         -0.         -0.         -0.         -0.
  -0.         -0.         -0.         -0.         -0.         -0.          0.          0.          0.         -0.         -0.         -0.         -0.
   0.          0.        ]
 [-0.          0.         -0.          0.          0.         -0.         -0.         -0.          0.         -0.         -0.         -0.         -0.
  -0.         -0.         -0.         -0.         -0.         -0.          0.          0.          0.         -0.         -0.         -0.         -0.
   0.          0.        ]
 [ 0.01142605 -0.00308748  0.00533245 -0.         -0.          0.          0.          0.00147652 -0.00004109  0.          0.          0.          0.
   0.          0.          0.          0.          0.00023046  0.00009518 -0.00091388 -0.         -0.          0.0001721   0.          0.          0.00034087
  -0.00051369 -0.00030429]
 [ 0.         -0.          0.         -0.         -0.          0.          0.          0.         -0.          0.          0.          0.          0.
   0.          0.          0.          0.          0.          0.         -0.         -0.         -0.          0.          0.          0.          0.
  -0.         -0.        ]
 [ 0.         -0.          0.         -0.         -0.          0.          0.          0.         -0.          0.          0.          0.          0.
   0.          0.          0.          0.          0.          0.         -0.         -0.         -0.          0.          0.          0.          0.
  -0.         -0.        ]
 [ 0.02263073 -0.00611514  0.01056158 -0.         -0.          0.          0.          0.00292443 -0.00008138  0.          0.          0.          0.
   0.          0.          0.          0.          0.00045646  0.00018851 -0.00181006 -0.         -0.          0.00034087  0.          0.          0.00067514
  -0.00101743 -0.00060269]
 [-0.03410428  0.00921546 -0.01591619  0.          0.         -0.         -0.         -0.00440709  0.00012264 -0.         -0.         -0.         -0.
  -0.         -0.         -0.         -0.         -0.00068787 -0.00028409  0.00272774  0.          0.         -0.00051369 -0.         -0.         -0.00101743
   0.00153326  0.00090825]
 [-0.02020224  0.00545893 -0.00942822  0.          0.         -0.         -0.         -0.00261061  0.00007265 -0.         -0.         -0.         -0.
  -0.         -0.         -0.         -0.         -0.00040747 -0.00016828  0.00161582  0.          0.         -0.00030429 -0.         -0.         -0.00060269
[...]
Feff (mod,ortho)
[[-0.22761947  0.39992664  0.2566041  ...  0.          0.          0.        ]
 [ 0.39992664  1.2012259  -0.10582046 ...  0.          0.          0.        ]
 [ 0.2566041  -0.10582046  0.27144698 ...  0.          0.          0.        ]
 ...
 [ 0.          0.          0.         ...  1.80902479 -0.00386925  0.01661528]
 [ 0.          0.          0.         ... -0.00386925  1.99658475  1.04195443]
 [ 0.          0.          0.         ...  0.01661528  1.04195443  2.92802404]]
E(SUHF) =     -1.05752713
e_a, e_b
[-0.50280648  0.09045898  0.35079189  0.49182079  0.67394892  0.67394892  0.82531     0.95209309  0.95209309  1.3444674   2.52573868  2.71831853  3.13512739
  3.17333148  3.17333148  3.39679117  3.39679117  3.53387829  3.53387829  3.79419735  3.79419735  3.8967271   3.8967271   4.01359143  4.10448026  4.10448026
  4.2737376   5.07272499] [-0.50280648  0.09045898  0.35079189  0.49182079  0.67394892  0.67394892  0.82531     0.95209309  0.95209309  1.3444674   2.52573868  2.71831853  3.13512739
  3.17333148  3.17333148  3.39679117  3.39679117  3.53387829  3.53387829  3.79419735  3.79419735  3.8967271   3.8967271   4.01359143  4.10448026  4.10448026
  4.2737376   5.07272499]
P_a, P_b
[[ 0.70085071 -0.19398346 -0.38971514  0.         -0.          0.         -0.         -0.12172922 -0.0006925  -0.          0.         -0.         -0.
  -0.         -0.         -0.         -0.         -0.02141691  0.0160943   0.04509206  0.          0.          0.01246437 -0.         -0.          0.02488611
   0.02674677  0.03304491]
 [-0.19398346  0.05369129  0.10786647 -0.          0.         -0.          0.          0.03369256  0.00019167  0.         -0.          0.          0.
   0.          0.          0.          0.          0.00592783 -0.00445463 -0.01248071 -0.         -0.         -0.00344992  0.          0.         -0.00688805
  -0.00740305 -0.00914626]
 [-0.38971514  0.10786647  0.21670505 -0.          0.         -0.          0.          0.06768876  0.00038507  0.         -0.          0.          0.
   0.          0.          0.          0.          0.01190909 -0.0089494  -0.02507389 -0.         -0.         -0.00693094  0.          0.         -0.01383817
  -0.01487281 -0.01837496]
 [ 0.         -0.         -0.          0.         -0.          0.         -0.         -0.         -0.         -0.          0.         -0.         -0.
  -0.         -0.         -0.         -0.         -0.          0.          0.          0.          0.          0.         -0.         -0.          0.
   0.          0.        ]
 [-0.          0.          0.         -0.          0.         -0.          0.          0.          0.          0.         -0.          0.          0.
   0.          0.          0.          0.          0.         -0.         -0.         -0.         -0.         -0.          0.          0.         -0.
  -0.         -0.        ]
 [ 0.         -0.         -0.          0.         -0.          0.         -0.         -0.         -0.         -0.          0.         -0.         -0.
  -0.         -0.         -0.         -0.         -0.          0.          0.          0.          0.          0.         -0.         -0.          0.
   0.          0.        ]
 [-0.          0.          0.         -0.          0.         -0.          0.          0.          0.          0.         -0.          0.          0.
   0.          0.          0.          0.          0.         -0.         -0.         -0.         -0.         -0.          0.          0.         -0.
  -0.         -0.        ]
 [-0.12172922  0.03369256  0.06768876 -0.          0.         -0.          0.          0.02114288  0.00012028  0.         -0.          0.          0.
   0.          0.          0.          0.          0.00371986 -0.00279538 -0.00783194 -0.         -0.         -0.00216491  0.          0.         -0.00432241
  -0.00464559 -0.0057395 ]
 [-0.0006925   0.00019167  0.00038507 -0.          0.         -0.          0.          0.00012028  0.00000068  0.         -0.          0.          0.
   0.          0.          0.          0.          0.00002116 -0.0000159  -0.00004456 -0.         -0.         -0.00001232  0.          0.         -0.00002459
  -0.00002643 -0.00003265]
 [-0.          0.          0.         -0.          0.         -0.          0.          0.          0.          0.         -0.          0.          0.
   0.          0.          0.          0.          0.         -0.         -0.         -0.         -0.         -0.          0.          0.         -0.
  -0.         -0.        ]
 [ 0.         -0.         -0.          0.         -0.          0.         -0.         -0.         -0.         -0.          0.         -0.         -0.
  -0.         -0.         -0.         -0.         -0.          0.          0.          0.          0.          0.         -0.         -0.          0.
   0.          0.        ]
 [-0.          0.          0.         -0.          0.         -0.          0.          0.          0.          0.         -0.          0.          0.
   0.          0.          0.          0.          0.         -0.         -0.         -0.         -0.         -0.          0.          0.         -0.
  -0.         -0.        ]
 [-0.          0.          0.         -0.          0.         -0.          0.          0.          0.          0.         -0.          0.          0.
   0.          0.          0.          0.          0.         -0.         -0.         -0.         -0.         -0.          0.          0.         -0.
  -0.         -0.        ]
 [-0.          0.          0.         -0.          0.         -0.          0.          0.          0.          0.         -0.          0.          0.
   0.          0.          0.          0.          0.         -0.         -0.         -0.         -0.         -0.          0.          0.         -0.
  -0.         -0.        ]
 [-0.          0.          0.         -0.          0.         -0.          0.          0.          0.          0.         -0.          0.          0.
   0.          0.          0.          0.          0.         -0.         -0.         -0.         -0.         -0.          0.          0.         -0.
  -0.         -0.        ]
 [-0.          0.          0.         -0.          0.         -0.          0.          0.          0.          0.         -0.          0.          0.
   0.          0.          0.          0.          0.         -0.         -0.         -0.         -0.         -0.          0.          0.         -0.
  -0.         -0.        ]
 [-0.          0.          0.         -0.          0.         -0.          0.          0.          0.          0.         -0.          0.          0.
   0.          0.          0.          0.          0.         -0.         -0.         -0.         -0.         -0.          0.          0.         -0.
  -0.         -0.        ]
 [-0.02141691  0.00592783  0.01190909 -0.          0.         -0.          0.          0.00371986  0.00002116  0.         -0.          0.          0.
   0.          0.          0.          0.          0.00065447 -0.00049182 -0.00137794 -0.         -0.         -0.00038089  0.          0.         -0.00076048
  -0.00081734 -0.0010098 ]
 [ 0.0160943  -0.00445463 -0.0089494   0.         -0.          0.         -0.         -0.00279538 -0.0000159  -0.          0.         -0.         -0.
  -0.         -0.         -0.         -0.         -0.00049182  0.00036959  0.00103549  0.          0.          0.00028623 -0.         -0.          0.00057148
   0.00061421  0.00075884]
 [ 0.04509206 -0.01248071 -0.02507389  0.         -0.          0.         -0.         -0.00783194 -0.00004456 -0.          0.         -0.         -0.
  -0.         -0.         -0.         -0.         -0.00137794  0.00103549  0.00290118  0.          0.          0.00080195 -0.         -0.          0.00160115
   0.00172086  0.00212608]
 [ 0.         -0.         -0.          0.         -0.          0.         -0.         -0.         -0.         -0.          0.         -0.         -0.
  -0.         -0.         -0.         -0.         -0.          0.          0.          0.          0.          0.         -0.         -0.          0.
   0.          0.        ]
 [ 0.         -0.         -0.          0.         -0.          0.         -0.         -0.         -0.         -0.          0.         -0.         -0.
  -0.         -0.         -0.         -0.         -0.          0.          0.          0.          0.          0.         -0.         -0.          0.
   0.          0.        ]
 [ 0.01246437 -0.00344992 -0.00693094  0.         -0.          0.         -0.         -0.00216491 -0.00001232 -0.          0.         -0.         -0.
  -0.         -0.         -0.         -0.         -0.00038089  0.00028623  0.00080195  0.          0.          0.00022167 -0.         -0.          0.00044259
   0.00047568  0.00058769]
 [-0.          0.          0.         -0.          0.         -0.          0.          0.          0.          0.         -0.          0.          0.
   0.          0.          0.          0.          0.         -0.         -0.         -0.         -0.         -0.          0.          0.         -0.
  -0.         -0.        ]
 [-0.          0.          0.         -0.          0.         -0.          0.          0.          0.          0.         -0.          0.          0.
   0.          0.          0.          0.          0.         -0.         -0.         -0.         -0.         -0.          0.          0.         -0.
  -0.         -0.        ]
 [ 0.02488611 -0.00688805 -0.01383817  0.         -0.          0.         -0.         -0.00432241 -0.00002459 -0.          0.         -0.         -0.
  -0.         -0.         -0.         -0.         -0.00076048  0.00057148  0.00160115  0.          0.          0.00044259 -0.         -0.          0.00088367
   0.00094974  0.00117337]
 [ 0.02674677 -0.00740305 -0.01487281  0.         -0.          0.         -0.         -0.00464559 -0.00002643 -0.          0.         -0.         -0.
  -0.         -0.         -0.         -0.         -0.00081734  0.00061421  0.00172086  0.          0.          0.00047568 -0.         -0.          0.00094974
   0.00102075  0.0012611 ]
 [ 0.03304491 -0.00914626 -0.01837496  0.         -0.          0.         -0.         -0.0057395  -0.00003265 -0.          0.         -0.         -0.
  -0.         -0.         -0.         -0.         -0.0010098   0.00075884  0.00212608  0.          0.          0.00058769 -0.         -0.          0.00117337
   0.0012611   0.00155806]] 
 [[ 0.70085071 -0.19398346  0.38971514 -0.          0.          0.          0.          0.12172922 -0.0006925   0.         -0.          0.          0.
   0.          0.          0.          0.          0.02141691  0.0160943  -0.04509206 -0.         -0.          0.01246437  0.          0.          0.02488611
  -0.02674677 -0.03304491]
 [-0.19398346  0.05369129 -0.10786647  0.         -0.         -0.         -0.         -0.03369256  0.00019167 -0.          0.         -0.         -0.
  -0.         -0.         -0.         -0.         -0.00592783 -0.00445463  0.01248071  0.          0.         -0.00344992 -0.         -0.         -0.00688805
   0.00740305  0.00914626]
 [ 0.38971514 -0.10786647  0.21670505 -0.          0.          0.          0.          0.06768876 -0.00038507  0.         -0.          0.          0.
   0.          0.          0.          0.          0.01190909  0.0089494  -0.02507389 -0.         -0.          0.00693094  0.          0.          0.01383817
  -0.01487281 -0.01837496]
 [-0.          0.         -0.          0.         -0.         -0.         -0.         -0.          0.         -0.          0.         -0.         -0.
  -0.         -0.         -0.         -0.         -0.         -0.          0.          0.          0.         -0.         -0.         -0.         -0.
   0.          0.        ]
 [ 0.         -0.          0.         -0.          0.          0.          0.          0.         -0.          0.         -0.          0.          0.
   0.          0.          0.          0.          0.          0.         -0.         -0.         -0.          0.          0.          0.          0.
  -0.         -0.        ]
 [ 0.         -0.          0.         -0.          0.          0.          0.          0.         -0.          0.         -0.          0.          0.
   0.          0.          0.          0.          0.          0.         -0.         -0.         -0.          0.          0.          0.          0.
  -0.         -0.        ]
 [ 0.         -0.          0.         -0.          0.          0.          0.          0.         -0.          0.         -0.          0.          0.
   0.          0.          0.          0.          0.          0.         -0.         -0.         -0.          0.          0.          0.          0.
  -0.         -0.        ]
 [ 0.12172922 -0.03369256  0.06768876 -0.          0.          0.          0.          0.02114288 -0.00012028  0.         -0.          0.          0.
   0.          0.          0.          0.          0.00371986  0.00279538 -0.00783194 -0.         -0.          0.00216491  0.          0.          0.00432241
  -0.00464559 -0.0057395 ]
 [-0.0006925   0.00019167 -0.00038507  0.         -0.         -0.         -0.         -0.00012028  0.00000068 -0.          0.         -0.         -0.
  -0.         -0.         -0.         -0.         -0.00002116 -0.0000159   0.00004456  0.          0.         -0.00001232 -0.         -0.         -0.00002459
   0.00002643  0.00003265]
 [ 0.         -0.          0.         -0.          0.          0.          0.          0.         -0.          0.         -0.          0.          0.
   0.          0.          0.          0.          0.          0.         -0.         -0.         -0.          0.          0.          0.          0.
  -0.         -0.        ]
 [-0.          0.         -0.          0.         -0.         -0.         -0.         -0.          0.         -0.          0.         -0.         -0.
  -0.         -0.         -0.         -0.         -0.         -0.          0.          0.          0.         -0.         -0.         -0.         -0.
   0.          0.        ]
 [ 0.         -0.          0.         -0.          0.          0.          0.          0.         -0.          0.         -0.          0.          0.
   0.          0.          0.          0.          0.          0.         -0.         -0.         -0.          0.          0.          0.          0.
  -0.         -0.        ]
 [ 0.         -0.          0.         -0.          0.          0.          0.          0.         -0.          0.         -0.          0.          0.
   0.          0.          0.          0.          0.          0.         -0.         -0.         -0.          0.          0.          0.          0.
  -0.         -0.        ]
 [ 0.         -0.          0.         -0.          0.          0.          0.          0.         -0.          0.         -0.          0.          0.
   0.          0.          0.          0.          0.          0.         -0.         -0.         -0.          0.          0.          0.          0.
  -0.         -0.        ]
 [ 0.         -0.          0.         -0.          0.          0.          0.          0.         -0.          0.         -0.          0.          0.
   0.          0.          0.          0.          0.          0.         -0.         -0.         -0.          0.          0.          0.          0.
  -0.         -0.        ]
 [ 0.         -0.          0.         -0.          0.          0.          0.          0.         -0.          0.         -0.          0.          0.
   0.          0.          0.          0.          0.          0.         -0.         -0.         -0.          0.          0.          0.          0.
  -0.         -0.        ]
 [ 0.         -0.          0.         -0.          0.          0.          0.          0.         -0.          0.         -0.          0.          0.
   0.          0.          0.          0.          0.          0.         -0.         -0.         -0.          0.          0.          0.          0.
  -0.         -0.        ]
 [ 0.02141691 -0.00592783  0.01190909 -0.          0.          0.          0.          0.00371986 -0.00002116  0.         -0.          0.          0.
   0.          0.          0.          0.          0.00065447  0.00049182 -0.00137794 -0.         -0.          0.00038089  0.          0.          0.00076048
  -0.00081734 -0.0010098 ]
 [ 0.0160943  -0.00445463  0.0089494  -0.          0.          0.          0.          0.00279538 -0.0000159   0.         -0.          0.          0.
   0.          0.          0.          0.          0.00049182  0.00036959 -0.00103549 -0.         -0.          0.00028623  0.          0.          0.00057148
  -0.00061421 -0.00075884]
 [-0.04509206  0.01248071 -0.02507389  0.         -0.         -0.         -0.         -0.00783194  0.00004456 -0.          0.         -0.         -0.
  -0.         -0.         -0.         -0.         -0.00137794 -0.00103549  0.00290118  0.          0.         -0.00080195 -0.         -0.         -0.00160115
   0.00172086  0.00212608]
 [-0.          0.         -0.          0.         -0.         -0.         -0.         -0.          0.         -0.          0.         -0.         -0.
  -0.         -0.         -0.         -0.         -0.         -0.          0.          0.          0.         -0.         -0.         -0.         -0.
   0.          0.        ]
 [-0.          0.         -0.          0.         -0.         -0.         -0.         -0.          0.         -0.          0.         -0.         -0.
  -0.         -0.         -0.         -0.         -0.         -0.          0.          0.          0.         -0.         -0.         -0.         -0.
   0.          0.        ]
 [ 0.01246437 -0.00344992  0.00693094 -0.          0.          0.          0.          0.00216491 -0.00001232  0.         -0.          0.          0.
   0.          0.          0.          0.          0.00038089  0.00028623 -0.00080195 -0.         -0.          0.00022167  0.          0.          0.00044259
  -0.00047568 -0.00058769]
 [ 0.         -0.          0.         -0.          0.          0.          0.          0.         -0.          0.         -0.          0.          0.
   0.          0.          0.          0.          0.          0.         -0.         -0.         -0.          0.          0.          0.          0.
  -0.         -0.        ]
 [ 0.         -0.          0.         -0.          0.          0.          0.          0.         -0.          0.         -0.          0.          0.
   0.          0.          0.          0.          0.          0.         -0.         -0.         -0.          0.          0.          0.          0.
  -0.         -0.        ]
 [ 0.02488611 -0.00688805  0.01383817 -0.          0.          0.          0.          0.00432241 -0.00002459  0.         -0.          0.          0.
   0.          0.          0.          0.          0.00076048  0.00057148 -0.00160115 -0.         -0.          0.00044259  0.          0.          0.00088367
  -0.00094974 -0.00117337]
 [-0.02674677  0.00740305 -0.01487281  0.         -0.         -0.         -0.         -0.00464559  0.00002643 -0.          0.         -0.         -0.
  -0.         -0.         -0.         -0.         -0.00081734 -0.00061421  0.00172086  0.          0.         -0.00047568 -0.         -0.         -0.00094974
   0.00102075  0.0012611 ]
 [-0.03304491  0.00914626 -0.01837496  0.         -0.         -0.         -0.         -0.0057395   0.00003265 -0.          0.         -0.         -0.
  -0.         -0.         -0.         -0.         -0.0010098  -0.00075884  0.00212608  0.          0.         -0.00058769 -0.         -0.         -0.00117337
   0.0012611   0.00155806]]

***************
SUHF converged at cycle 16
Final E(SUHF) =     -1.05752713, delta E = -9.60315e-09
***** Start DFT Correlation for SUHF+DFT **********
tot grids = 20048
E(SUHF) =     -1.05752713
E_c(TPSS) =     -0.01839044
E(SUHF+DFT) =     -1.07591758
