

#INFO: **** input file is /share/home/srwang/ExSCF/test/pytest/scan_h2/scan_dft.py ****
#import phf
from pyscf import lib
#import scipy
import numpy as np
import sys, os, contextlib

from pyphf import util, sudft

#xyz = 'h2.xyz' #sys.argv[1]
fch = 'test_uhf.fchk' #sys.argv[2]
#bas = '../h2.bas'
bas = 'cc-pvtz'

lib.num_threads(4)

for r in np.arange(0.9, 2.55, 0.1):
    output = 'tpss/sudft_%.1f_diis.out' % r
    os.system("echo '\n' > %s" % output)
    with open(output, 'a', encoding='utf-8') as f:
        with contextlib.redirect_stdout(f):
            xyz = '''H 0.0 0.0 0.0; H 0.0 0.0 %f'''%r
            mf = util.guess_from_fchk(xyz, bas, fch)
            #mf = util.guess(xyz, bas)
            #f.flush()
            mf2 = util.SUHF(mf)
            #mf2.cut_no = False
            mf2.debug = False
            #mf2.max_cycle = 50
            mf2.diis_on = True
            #mf2.output = 'sudft_%.1f.out'%r
            #mf2.kernel()
            
            mf3 = sudft.SUDFT(mf2)
            mf3.suxc = 'TPSS'
            mf3.kernel()
                    
#INFO: ******************** input file end ********************


System: uname_result(system='Linux', node='xc02n18', release='3.10.0-693.el7.x86_64', version='#1 SMP Thu Jul 6 19:56:57 EDT 2017', machine='x86_64', processor='x86_64')  Threads 4
Python 3.7.4 (default, Aug 13 2019, 20:35:49) 
[GCC 7.3.0]
numpy 1.17.2  scipy 1.4.1
Date: Tue Nov 24 03:35:28 2020
PySCF version 1.7.5
PySCF path  /share/home/srwang/pyscf-1.7.5/pyscf

[CONFIG] conf_file None
[INPUT] verbose = 4
[INPUT] num. atoms = 2
[INPUT] num. electrons = 2
[INPUT] charge = 0
[INPUT] spin (= nelec alpha-beta = 2S) = 0
[INPUT] symmetry False subgroup None
[INPUT] Mole.unit = angstrom
[INPUT]  1 H      0.000000000000   0.000000000000   0.000000000000 AA    0.000000000000   0.000000000000   0.000000000000 Bohr
[INPUT]  2 H      0.000000000000   0.000000000000   1.000000000000 AA    0.000000000000   0.000000000000   1.889726124565 Bohr

nuclear repulsion = 0.52917721092
number of shells = 12
number of NR pGTOs = 32
number of NR cGTOs = 28
basis = cc-pvtz
ecp = {}
CPU time:        32.50


******** <class 'pyscf.scf.uhf.UHF'> ********
method = UHF
initial guess = minao
damping factor = 0
level_shift factor = 0
DIIS = <class 'pyscf.scf.diis.CDIIS'>
diis_start_cycle = 1
diis_space = 8
SCF conv_tol = 1e-09
SCF conv_tol_grad = None
SCF max_cycles = 1
direct_scf = True
direct_scf_tol = 1e-13
chkfile to save SCF result = /share/home/srwang/ExSCF/test/pytest/scan_h2/tmpdk2gurl_
max_memory 4000 MB (current use 132 MB)
number electrons alpha = 1  beta = 1
Set gradient conv threshold to 3.16228e-05
init E= -0.753847083746816
  alpha nocc = 1  HOMO = -0.449035299313777  LUMO = 0.0782140344719777
  beta  nocc = 1  HOMO = -0.44525913507718  LUMO = 0.0789212455995759
cycle= 1 E= -1.10117863940732  delta_E= -0.347  |g|= 0.0314  |ddm|= 0.327
SCF not converged.
SCF energy = -1.10117863940732 after 1 cycles  <S^2> = 2.4987994e-07  2S+1 = 1.0000005


******** <class 'pyscf.scf.uhf.UHF'> ********
method = UHF
initial guess = minao
damping factor = 0
level_shift factor = 0
DIIS = <class 'pyscf.scf.diis.CDIIS'>
diis_start_cycle = 1
diis_space = 8
SCF conv_tol = 1e-09
SCF conv_tol_grad = None
SCF max_cycles = 1
direct_scf = True
direct_scf_tol = 1e-13
chkfile to save SCF result = /share/home/srwang/ExSCF/test/pytest/scan_h2/tmpdk2gurl_
max_memory 4000 MB (current use 132 MB)
number electrons alpha = 1  beta = 1
Set gradient conv threshold to 3.16228e-05
init E= -1.16157987233707
  alpha nocc = 1  HOMO = -0.512402562789846  LUMO = 0.176733594154166
  beta  nocc = 1  HOMO = -0.512402562789847  LUMO = 0.176733594154163
cycle= 1 E= -1.08773944078048  delta_E= 0.0738  |g|= 0.0555  |ddm|= 0.0897
SCF not converged.
SCF energy = -1.08773944078048 after 1 cycles  <S^2> = 0.20893904  2S+1 = 1.3549008

******** <class 'pyphf.util.SUHF'> ********
max_cycle = 70
verbose: normal
DIIS: <class 'pyscf.scf.diis.CDIIS'>
diis_start_cyc = 40
SVD: S^(-1/2)
[[-0.14617541  0.         -0.         -0.2784682   0.00330328 -0.          0.          0.          0.         -0.1673554  -0.16637221 -0.          0.
   0.          0.          0.5458093   0.          0.          0.          0.         -0.77503289  0.52976356 -0.61951449 -0.         -0.          0.86020288
  -0.40536716  0.42766631]
 [-0.21243221  0.         -0.         -0.22880618 -0.09213069 -0.          0.          0.          0.         -0.01399236 -0.00136771  0.          0.
   0.         -0.          0.10356017 -0.         -0.         -0.         -0.          0.30476849 -0.02548063 -0.00598712 -0.         -0.         -1.56578287
   0.53337152 -7.04276703]
 [-0.20033735  0.          0.         -0.09278292 -0.20513688 -0.          0.          0.         -0.          0.02226298  0.07392054  0.          0.
   0.          0.         -0.46132955  0.         -0.          0.         -0.          0.41163684  0.11903992  0.1169417   0.          0.          0.90129456
  -2.71162582  0.16885175]
 [ 0.         -0.02563452 -0.26397023  0.         -0.         -0.155066   -0.42874149  0.0709503   0.11734978  0.         -0.          0.         -0.
   0.          0.         -0.         -0.16720772  0.57449678 -0.09253224  0.83935459  0.          0.         -0.         -0.04492536  0.53455772  0.
   0.         -0.        ]
 [ 0.         -0.26397023  0.02563452 -0.         -0.          0.42874149 -0.155066   -0.11734978  0.0709503  -0.          0.          0.          0.
   0.         -0.         -0.          0.57449678  0.16720772  0.83935459  0.09253224  0.         -0.         -0.          0.53455772  0.04492536 -0.
   0.          0.        ]
 [-0.07612827 -0.          0.          0.15319047  0.35274654 -0.          0.          0.         -0.         -0.33019662  0.06267651  0.          0.
  -0.         -0.         -0.33754699 -0.          0.          0.          0.          0.36280684  1.03298179 -0.82469768 -0.         -0.         -0.12447543
   0.33563256 -0.34376411]
 [ 0.         -0.03258101 -0.33550135  0.          0.         -0.10510352 -0.2906004   0.10678001  0.1766111  -0.         -0.         -0.         -0.
  -0.         -0.         -0.          0.04496089 -0.15447784  0.0709679  -0.64374568 -0.         -0.          0.          0.11163842 -1.32836279  0.
  -0.         -0.        ]
 [-0.         -0.33550135  0.03258101 -0.         -0.          0.2906004  -0.10510352 -0.1766111   0.10678001 -0.          0.          0.          0.
   0.          0.         -0.         -0.15447784 -0.04496089 -0.64374568 -0.0709679   0.          0.          0.         -1.32836279 -0.11163842  0.
   0.          0.        ]
 [-0.11210448 -0.          0.          0.29571922  0.2565245  -0.          0.          0.          0.         -0.10761651  0.24327419  0.          0.
   0.          0.          0.20301958  0.          0.         -0.          0.         -0.52113729 -0.19964384  0.99184375  0.          0.          0.32161697
  -0.99533743 -4.53306513]
 [ 0.          0.         -0.          0.          0.          0.         -0.         -0.          0.          0.          0.         -0.65354045 -0.08431498
  -0.76760385 -0.00670763  0.          0.          0.         -0.          0.          0.          0.          0.         -0.          0.         -0.
  -0.          0.        ]
 [-0.         -0.18214791  0.01768864 -0.         -0.         -0.24831843  0.0898111   0.49536724 -0.29950169  0.         -0.         -0.         -0.
   0.         -0.          0.          0.81113302  0.23608087 -0.03067331 -0.00338149  0.          0.          0.         -0.63159099 -0.05308024  0.
   0.         -0.        ]
 [-0.03841771 -0.          0.          0.0676723   0.11905241  0.         -0.         -0.         -0.          0.51229494 -0.57896618  0.          0.
  -0.         -0.         -0.16722516 -0.         -0.         -0.         -0.         -0.13837957  0.79105641  0.52045075  0.          0.         -0.00675121
   0.00722554 -1.23380926]
 [ 0.         -0.01768864 -0.18214791  0.          0.          0.0898111   0.24831843 -0.29950169 -0.49536724 -0.          0.         -0.          0.
  -0.          0.          0.         -0.23608087  0.81113302  0.00338149 -0.03067331  0.         -0.          0.          0.05308024 -0.63159099  0.
  -0.          0.        ]
 [ 0.          0.          0.          0.          0.          0.          0.         -0.          0.          0.          0.          0.08431498 -0.65354045
   0.00670763 -0.76760385  0.          0.          0.         -0.         -0.          0.          0.          0.         -0.          0.          0.
   0.          0.        ]
 [-0.14617541  0.          0.          0.2784682   0.00330328  0.          0.         -0.          0.          0.1673554  -0.16637221 -0.         -0.
  -0.         -0.          0.5458093   0.         -0.          0.         -0.          0.77503289 -0.52976356 -0.61951449 -0.         -0.          0.86020288
   0.40536716 -0.42766631]
 [-0.21243221  0.         -0.          0.22880618 -0.09213069  0.         -0.          0.          0.          0.01399236 -0.00136771 -0.         -0.
  -0.          0.          0.10356017  0.          0.          0.          0.         -0.30476849  0.02548063 -0.00598712 -0.         -0.         -1.56578287
  -0.53337152  7.04276703]
 [-0.20033735  0.         -0.          0.09278292 -0.20513688 -0.         -0.          0.         -0.         -0.02226298  0.07392054 -0.         -0.
  -0.         -0.         -0.46132955 -0.         -0.         -0.         -0.         -0.41163684 -0.11903992  0.1169417   0.          0.          0.90129456
   2.71162582 -0.16885175]
 [ 0.         -0.02563452 -0.26397023  0.          0.          0.155066    0.42874149  0.0709503   0.11734978  0.         -0.         -0.          0.
   0.         -0.         -0.          0.16720772 -0.57449678 -0.09253224  0.83935459  0.         -0.          0.          0.04492536 -0.53455772  0.
  -0.          0.        ]
 [-0.         -0.26397023  0.02563452 -0.         -0.         -0.42874149  0.155066   -0.11734978  0.0709503   0.         -0.         -0.         -0.
  -0.         -0.         -0.         -0.57449678 -0.16720772  0.83935459  0.09253224 -0.          0.          0.         -0.53455772 -0.04492536  0.
   0.         -0.        ]
 [ 0.07612827  0.         -0.          0.15319047 -0.35274654 -0.          0.          0.          0.         -0.33019662 -0.06267651  0.          0.
  -0.         -0.          0.33754699  0.         -0.          0.          0.          0.36280684  1.03298179  0.82469768  0.          0.          0.12447543
   0.33563256 -0.34376411]
 [ 0.         -0.03258101 -0.33550135  0.          0.          0.10510352  0.2906004   0.10678001  0.1766111   0.         -0.          0.          0.
  -0.          0.         -0.         -0.04496089  0.15447784  0.0709679  -0.64374568 -0.          0.         -0.         -0.11163842  1.32836279 -0.
   0.         -0.        ]
 [-0.         -0.33550135  0.03258101 -0.         -0.         -0.2906004   0.10510352 -0.1766111   0.10678001  0.         -0.         -0.         -0.
   0.          0.         -0.          0.15447784  0.04496089 -0.64374568 -0.0709679   0.         -0.         -0.          1.32836279  0.11163842 -0.
  -0.          0.        ]
 [ 0.11210448  0.         -0.          0.29571922 -0.2565245   0.          0.         -0.         -0.         -0.10761651 -0.24327419  0.          0.
   0.          0.         -0.20301958 -0.          0.          0.          0.         -0.52113729 -0.19964384 -0.99184375 -0.         -0.         -0.32161697
  -0.99533743 -4.53306513]
 [ 0.          0.         -0.         -0.         -0.          0.         -0.         -0.          0.          0.         -0.         -0.65354045 -0.08431498
   0.76760385  0.00670763  0.         -0.          0.          0.         -0.          0.          0.          0.         -0.          0.          0.
   0.         -0.        ]
 [ 0.          0.18214791 -0.01768864  0.          0.         -0.24831843  0.0898111  -0.49536724  0.29950169  0.         -0.          0.          0.
  -0.         -0.         -0.          0.81113302  0.23608087  0.03067331  0.00338149  0.         -0.          0.         -0.63159099 -0.05308024  0.
   0.         -0.        ]
 [-0.03841771 -0.          0.         -0.0676723   0.11905241  0.          0.         -0.         -0.         -0.51229494 -0.57896618 -0.         -0.
  -0.          0.         -0.16722516 -0.         -0.         -0.         -0.          0.13837957 -0.79105641  0.52045075  0.          0.         -0.00675121
  -0.00722554  1.23380926]
 [-0.          0.01768864  0.18214791 -0.         -0.          0.0898111   0.24831843  0.29950169  0.49536724  0.         -0.          0.          0.
  -0.          0.         -0.         -0.23608087  0.81113302 -0.00338149  0.03067331  0.         -0.          0.          0.05308024 -0.63159099  0.
  -0.          0.        ]
 [ 0.          0.         -0.          0.          0.          0.          0.         -0.          0.          0.          0.          0.08431498 -0.65354045
  -0.00670763  0.76760385  0.          0.         -0.          0.          0.         -0.         -0.         -0.         -0.          0.         -0.
  -0.         -0.        ]]
C (ortho)
[[-0.94536658 -0.19232994  0.04360337  0.13502565 -0.         -0.         -0.17607837  0.          0.         -0.02170475  0.02917406  0.03178816 -0.
  -0.          0.         -0.         -0.12315874 -0.         -0.          0.         -0.          0.          0.         -0.00445899 -0.         -0.
  -0.02508798  0.00209436]
 [ 0.          0.         -0.         -0.         -0.30844973 -0.80253107  0.         -0.05394841  0.02382886  0.         -0.         -0.         -0.
  -0.         -0.45400242  0.11936788 -0.          0.          0.         -0.15201883 -0.09000441 -0.05163285 -0.0552389   0.          0.00543954  0.00032417
   0.          0.        ]
 [-0.          0.         -0.         -0.         -0.80253107  0.30844973  0.         -0.02382886 -0.05394841  0.         -0.         -0.         -0.
   0.         -0.11936788 -0.45400242  0.         -0.          0.          0.09000441 -0.15201883 -0.0552389   0.05163285 -0.         -0.00032417  0.00543954
  -0.          0.        ]
 [-0.22843336  0.69824397  0.03125866 -0.65421166  0.          0.         -0.03803516 -0.         -0.          0.00159067  0.03232808 -0.11569837 -0.
   0.          0.         -0.         -0.0065456   0.          0.         -0.         -0.          0.          0.         -0.08336605  0.         -0.
  -0.00056658  0.09181548]
 [-0.21730594 -0.06957662 -0.41332745 -0.05887778  0.         -0.          0.65740146 -0.         -0.          0.01986457 -0.17532531 -0.08184664  0.
   0.         -0.          0.          0.54808274 -0.          0.         -0.          0.         -0.         -0.          0.01719736  0.         -0.
   0.05393663 -0.00472678]
 [ 0.         -0.          0.         -0.         -0.00433612  0.0562693   0.         -0.50030303  0.58086579  0.         -0.          0.          0.
   0.          0.00449885 -0.00379665  0.         -0.         -0.          0.2187639   0.01989959 -0.18112117 -0.56969338 -0.         -0.05455493  0.02206386
   0.         -0.        ]
 [ 0.          0.         -0.         -0.         -0.0562693  -0.00433612  0.          0.58086579  0.50030303 -0.         -0.          0.          0.
  -0.         -0.00379665 -0.00449885  0.         -0.         -0.          0.01989959 -0.2187639   0.56969338 -0.18112117 -0.          0.02206386  0.05455493
  -0.          0.        ]
 [ 0.         -0.         -0.         -0.          0.08574839 -0.30546904 -0.         -0.00940914  0.01665431 -0.          0.          0.          0.
   0.          0.49543655 -0.62140222  0.          0.          0.         -0.48354473  0.05147072 -0.01947419 -0.17462302  0.         -0.00492403  0.00323369
  -0.          0.        ]
 [-0.         -0.         -0.          0.          0.30546904  0.08574839 -0.          0.01665431  0.00940914 -0.         -0.         -0.         -0.
   0.         -0.62140222 -0.49543655 -0.         -0.          0.          0.05147072  0.48354473  0.17462302 -0.01947419 -0.          0.00323369  0.00492403
  -0.         -0.        ]
 [-0.01842169 -0.0510924   0.0325221  -0.11378168  0.         -0.         -0.02559088  0.          0.          0.63948852  0.05802468 -0.16804974  0.
  -0.          0.         -0.         -0.02277646 -0.          0.          0.          0.         -0.         -0.          0.73231112 -0.          0.
  -0.013271   -0.0697406 ]
 [-0.02191062  0.02547329  0.15813942  0.00459262  0.          0.          0.49758277 -0.         -0.          0.01568407  0.5340506   0.22362884  0.
  -0.         -0.          0.         -0.22100862 -0.          0.         -0.         -0.         -0.         -0.         -0.00965454 -0.         -0.
  -0.58467494  0.00213713]
 [ 0.         -0.          0.          0.          0.         -0.         -0.         -0.          0.          0.         -0.         -0.          0.2339159
  -0.97187701  0.         -0.         -0.          0.00422292 -0.02684413  0.         -0.         -0.         -0.         -0.          0.          0.
   0.          0.        ]
 [ 0.         -0.          0.          0.          0.          0.         -0.          0.          0.         -0.         -0.         -0.         -0.97187701
  -0.2339159   0.          0.         -0.         -0.02684413 -0.00422292  0.         -0.          0.         -0.         -0.          0.          0.
   0.          0.        ]
 [ 0.         -0.         -0.          0.          0.          0.         -0.         -0.          0.         -0.         -0.         -0.          0.00316206
  -0.02698966  0.          0.         -0.         -0.03644639  0.99896608  0.         -0.         -0.         -0.         -0.          0.         -0.
  -0.         -0.        ]
 [-0.         -0.          0.          0.          0.          0.         -0.          0.          0.         -0.         -0.         -0.         -0.02698966
  -0.00316206 -0.          0.         -0.          0.99896608  0.03644639  0.         -0.          0.         -0.          0.          0.          0.
  -0.          0.        ]
 [ 0.04029832 -0.06900506 -0.72451341 -0.10880006 -0.          0.          0.00117582 -0.         -0.          0.00603484 -0.20356268 -0.08295165 -0.
   0.          0.          0.         -0.61101519  0.         -0.         -0.         -0.         -0.          0.         -0.01884236 -0.         -0.
  -0.18655119  0.00217249]
 [ 0.         -0.         -0.         -0.          0.00013492 -0.01030243 -0.          0.1315609  -0.13437028 -0.          0.          0.          0.
   0.          0.00890213 -0.00658852 -0.         -0.         -0.          0.11052307  0.01721608 -0.10623577 -0.27257748 -0.          0.88335953 -0.29323577
  -0.         -0.        ]
 [-0.          0.         -0.          0.         -0.01030243 -0.00013492  0.          0.13437028  0.1315609  -0.         -0.          0.          0.
   0.          0.00658852  0.00890213  0.          0.          0.         -0.01721608  0.11052307 -0.27257748  0.10623577  0.          0.29323577  0.88335953
  -0.         -0.        ]
 [ 0.         -0.         -0.         -0.         -0.06291157 -0.38901348  0.         -0.02577843  0.01850226  0.          0.          0.          0.
   0.          0.34392548 -0.17199002 -0.         -0.         -0.          0.73887036  0.25139429  0.1526595   0.25177533 -0.         -0.00373391  0.00055319
  -0.         -0.        ]
 [-0.          0.         -0.          0.         -0.38901348  0.06291157  0.         -0.01850226 -0.02577843  0.         -0.          0.          0.
  -0.          0.17199002  0.34392548 -0.          0.          0.         -0.25139429  0.73887036  0.25177533 -0.1526595   0.         -0.00055319 -0.00373391
  -0.          0.        ]
 [ 0.03846055 -0.45074334  0.10128207 -0.29739026  0.          0.         -0.00548994 -0.         -0.          0.22187764  0.25159928 -0.62478172 -0.
   0.          0.          0.          0.00223292  0.         -0.         -0.          0.          0.          0.         -0.42891408  0.          0.
   0.00270346  0.09878461]
 [ 0.01743808 -0.10860332  0.01782375 -0.05545952  0.         -0.         -0.00498281  0.          0.          0.27854719 -0.14546696  0.34573425  0.
  -0.         -0.          0.          0.01161299 -0.          0.         -0.          0.         -0.          0.         -0.0857507  -0.         -0.
   0.00180789  0.87103978]
 [-0.02816251  0.01028255  0.06408478 -0.00149064  0.         -0.          0.39046684 -0.         -0.          0.01450645  0.24931334  0.10396131 -0.
   0.         -0.          0.         -0.41159855 -0.          0.         -0.         -0.          0.          0.          0.00349643  0.          0.
   0.77454481  0.00263031]
 [-0.          0.          0.          0.         -0.00731047 -0.03878818  0.          0.50461398 -0.34269796  0.          0.          0.          0.
  -0.          0.00318983 -0.00149298 -0.         -0.         -0.          0.23437658  0.08659376 -0.35597342 -0.5541277  -0.         -0.35811564  0.04359138
   0.          0.        ]
 [-0.          0.          0.         -0.         -0.03878818  0.00731047  0.          0.34269796  0.50461398 -0.          0.         -0.         -0.
  -0.          0.00149298  0.00318983 -0.          0.          0.         -0.08659376  0.23437658 -0.5541277   0.35597342  0.         -0.04359138 -0.35811564
   0.         -0.        ]
 [-0.0295135   0.04628101  0.4901624   0.0792779   0.         -0.          0.36644963 -0.         -0.         -0.00247061 -0.66160757 -0.25830753  0.
   0.          0.         -0.         -0.30319159 -0.          0.         -0.         -0.          0.          0.         -0.01086671 -0.          0.
  -0.14021645 -0.00043444]
 [-0.02862393  0.49536619 -0.14189476  0.64874415  0.          0.          0.00102794 -0.          0.          0.32311794  0.14434575 -0.34565789  0.
  -0.          0.         -0.          0.00378849 -0.          0.         -0.          0.          0.          0.         -0.21818562  0.         -0.
   0.00124684  0.14299544]
 [-0.01296822 -0.00175147  0.01485658 -0.082649    0.          0.         -0.01795738 -0.          0.          0.59871849 -0.17935966  0.43229445 -0.
   0.         -0.          0.          0.01409054  0.         -0.         -0.         -0.          0.          0.         -0.46577989 -0.          0.
   0.00681268 -0.44468714]]
[[-0.94536658 -0.19232994  0.04360337  0.13502565  0.          0.          0.17607837  0.          0.         -0.02170475  0.02917406  0.03178816  0.
   0.          0.          0.          0.12315874 -0.          0.          0.         -0.          0.         -0.         -0.00445899 -0.         -0.
  -0.02508798  0.00209436]
 [ 0.         -0.          0.         -0.         -0.54675935 -0.66351457  0.         -0.03846925 -0.04470304 -0.         -0.          0.         -0.
   0.          0.45763811  0.10456697  0.          0.         -0.          0.10365312 -0.14306135  0.02232124 -0.07224299 -0.         -0.00526075 -0.00142063
  -0.         -0.        ]
 [ 0.         -0.          0.          0.         -0.66351457  0.54675935  0.          0.04470304 -0.03846925 -0.         -0.         -0.          0.
  -0.         -0.10456697  0.45763811 -0.         -0.         -0.         -0.14306135 -0.10365312 -0.07224299 -0.02232124  0.          0.00142063 -0.00526075
   0.         -0.        ]
 [ 0.22843336 -0.69824397 -0.03125866  0.65421166 -0.         -0.         -0.03803516 -0.          0.         -0.00159067 -0.03232808  0.11569837  0.
  -0.         -0.         -0.         -0.0065456   0.          0.          0.         -0.          0.         -0.          0.08336605  0.          0.
   0.00056658 -0.09181548]
 [-0.21730594 -0.06957662 -0.41332745 -0.05887778 -0.         -0.         -0.65740146 -0.         -0.          0.01986457 -0.17532531 -0.08184664  0.
  -0.         -0.         -0.         -0.54808274 -0.         -0.         -0.          0.         -0.          0.          0.01719736  0.         -0.
   0.05393663 -0.00472678]
 [ 0.          0.          0.          0.         -0.01370965 -0.05474561 -0.          0.70112624  0.31004868  0.         -0.         -0.          0.
   0.          0.00574591 -0.00128014  0.         -0.         -0.          0.19278183 -0.10530339 -0.40463414  0.44003027  0.         -0.05789595  0.01054102
   0.          0.        ]
 [ 0.         -0.         -0.          0.          0.05474561 -0.01370965  0.          0.31004868 -0.70112624  0.          0.         -0.          0.
   0.         -0.00128014 -0.00574591  0.         -0.          0.          0.10530339  0.19278183 -0.44003027 -0.40463414  0.          0.01054102  0.05789595
  -0.         -0.        ]
 [-0.         -0.         -0.         -0.         -0.01541954 -0.31690119  0.         -0.01866908 -0.00416697 -0.          0.         -0.          0.
  -0.         -0.72696044  0.32113333 -0.          0.         -0.          0.46409747 -0.1451836   0.1419211  -0.1035898  -0.          0.00547752 -0.00216784
  -0.         -0.        ]
 [-0.         -0.         -0.         -0.          0.31690119 -0.01541954 -0.         -0.00416697  0.01866908  0.         -0.          0.          0.
   0.          0.32113333  0.72696044  0.          0.          0.          0.1451836   0.46409747  0.1035898   0.1419211  -0.         -0.00216784 -0.00547752
  -0.          0.        ]
 [ 0.01842169  0.0510924  -0.0325221   0.11378168 -0.          0.         -0.02559088  0.         -0.         -0.63948852 -0.05802468  0.16804974 -0.
  -0.         -0.          0.         -0.02277646  0.          0.         -0.          0.         -0.          0.         -0.73231112 -0.          0.
   0.013271    0.0697406 ]
 [-0.02191062  0.02547329  0.15813942  0.00459262 -0.          0.         -0.49758277 -0.         -0.          0.01568407  0.5340506   0.22362884  0.
   0.          0.         -0.          0.22100862 -0.          0.          0.         -0.         -0.          0.         -0.00965454 -0.         -0.
  -0.58467494  0.00213713]
 [ 0.          0.         -0.          0.          0.         -0.          0.          0.          0.          0.          0.         -0.         -0.95653077
   0.2903626  -0.          0.         -0.          0.00353849 -0.02694289  0.          0.          0.         -0.         -0.          0.          0.
   0.         -0.        ]
 [-0.          0.          0.          0.          0.          0.          0.          0.          0.         -0.          0.         -0.         -0.2903626
  -0.95653077  0.         -0.          0.         -0.02694289 -0.00353849  0.          0.          0.          0.          0.          0.         -0.
   0.         -0.        ]
 [ 0.          0.         -0.          0.          0.          0.          0.          0.          0.          0.          0.         -0.          0.02675849
  -0.00473533  0.         -0.         -0.          0.01101552 -0.99957002  0.          0.         -0.         -0.          0.          0.         -0.
   0.         -0.        ]
 [ 0.         -0.         -0.          0.          0.          0.          0.          0.         -0.         -0.         -0.          0.          0.00473533
   0.02675849 -0.          0.          0.         -0.99957002 -0.01101552  0.          0.          0.         -0.          0.         -0.          0.
   0.          0.        ]
 [ 0.04029832 -0.06900506 -0.72451341 -0.10880006 -0.          0.         -0.00117582  0.          0.          0.00603484 -0.20356268 -0.08295165  0.
  -0.         -0.         -0.          0.61101519  0.          0.         -0.         -0.         -0.         -0.         -0.01884236 -0.         -0.
  -0.18655119  0.00217249]
 [ 0.          0.         -0.          0.          0.00313518  0.00981473  0.         -0.16678623 -0.08686769 -0.          0.         -0.         -0.
   0.          0.01094159 -0.00171412  0.         -0.         -0.          0.09454653 -0.05977203 -0.183885    0.22753204  0.          0.92447284 -0.10798721
  -0.         -0.        ]
 [-0.         -0.         -0.         -0.          0.00981473 -0.00313518  0.          0.08686769 -0.16678623  0.         -0.         -0.          0.
  -0.          0.00171412  0.01094159 -0.          0.         -0.         -0.05977203 -0.09454653  0.22753204  0.183885   -0.          0.10798721  0.92447284
  -0.          0.        ]
 [ 0.          0.          0.          0.         -0.18288709 -0.34905825  0.         -0.02519126 -0.01929408 -0.          0.         -0.          0.
  -0.         -0.38447008 -0.00693264  0.         -0.          0.         -0.57782905  0.5246352  -0.14278173  0.25750557  0.          0.0037685   0.00021559
  -0.         -0.        ]
 [-0.         -0.          0.         -0.         -0.34905825  0.18288709  0.          0.01929408 -0.02519126  0.         -0.          0.         -0.
   0.          0.00693264 -0.38447008  0.          0.          0.          0.5246352   0.57782905  0.25750557  0.14278173 -0.         -0.00021559  0.0037685
  -0.         -0.        ]
 [-0.03846055  0.45074334 -0.10128207  0.29739026  0.          0.         -0.00548994  0.          0.         -0.22187764 -0.25159928  0.62478172 -0.
  -0.         -0.         -0.          0.00223292  0.         -0.          0.          0.          0.         -0.          0.42891408  0.          0.
  -0.00270346 -0.09878461]
 [-0.01743808  0.10860332 -0.01782375  0.05545952  0.         -0.         -0.00498281  0.         -0.         -0.27854719  0.14546696 -0.34573425  0.
   0.          0.         -0.          0.01161299 -0.          0.         -0.         -0.          0.          0.          0.0857507   0.         -0.
  -0.00180789 -0.87103978]
 [-0.02816251  0.01028255  0.06408478 -0.00149064 -0.         -0.         -0.39046684 -0.          0.          0.01450645  0.24931334  0.10396131  0.
  -0.         -0.         -0.          0.41159855  0.         -0.          0.          0.         -0.         -0.          0.00349643  0.          0.
   0.77454481  0.00263031]
 [-0.         -0.          0.         -0.          0.01921969  0.03447563  0.         -0.47447517 -0.38334119 -0.          0.          0.         -0.
   0.          0.00351852  0.00015486  0.         -0.         -0.          0.18056748 -0.17270278 -0.30432349  0.58409058  0.         -0.35951408 -0.02994413
   0.         -0.        ]
 [-0.         -0.          0.          0.          0.03447563 -0.01921969 -0.          0.38334119 -0.47447517  0.          0.          0.          0.
   0.         -0.00015486  0.00351852  0.          0.         -0.         -0.17270278 -0.18056748  0.58409058  0.30432349 -0.          0.02994413 -0.35951408
   0.          0.        ]
 [-0.0295135   0.04628101  0.4901624   0.0792779  -0.         -0.         -0.36644963 -0.         -0.         -0.00247061 -0.66160757 -0.25830753 -0.
   0.         -0.          0.          0.30319159  0.         -0.         -0.          0.         -0.         -0.         -0.01086671 -0.          0.
  -0.14021645 -0.00043444]
 [ 0.02862393 -0.49536619  0.14189476 -0.64874415  0.          0.          0.00102794  0.         -0.         -0.32311794 -0.14434575  0.34565789 -0.
   0.         -0.         -0.          0.00378849  0.         -0.         -0.          0.          0.         -0.          0.21818562  0.         -0.
  -0.00124684 -0.14299544]
 [ 0.01296822  0.00175147 -0.01485658  0.082649    0.          0.         -0.01795738  0.         -0.         -0.59871849  0.17935966 -0.43229445  0.
  -0.          0.         -0.          0.01409054 -0.          0.          0.         -0.          0.         -0.          0.46577989 -0.         -0.
  -0.00681268  0.44468714]]
grids:  [0.06237655 0.31939555 0.74529195 1.28265786 1.85893479 2.39630071 2.8221971  3.07921611] 
weights:  [0.15900941 0.34931531 0.49276925 0.56970235 0.56970235 0.49276925 0.34931531 0.15900941]
S = 0.0, Sz = 0.0
Wigner small d:  1
value : [1. 1. 1. 1. 1. 1. 1. 1.]
**** Start Cycle 1 ****
dm (ortho)
[[[ 0.89371797 -0.          0.         ...  0.02790108  0.0270601   0.01225973]
  [-0.          0.         -0.         ... -0.         -0.         -0.        ]
  [ 0.         -0.          0.         ...  0.          0.          0.        ]
  ...
  [ 0.02790108 -0.          0.         ...  0.00087105  0.00084479  0.00038274]
  [ 0.0270601  -0.          0.         ...  0.00084479  0.00081933  0.0003712 ]
  [ 0.01225973 -0.          0.         ...  0.00038274  0.0003712   0.00016817]]

 [[ 0.89371797 -0.         -0.         ...  0.02790108 -0.0270601  -0.01225973]
  [-0.          0.          0.         ... -0.          0.          0.        ]
  [-0.          0.          0.         ... -0.          0.          0.        ]
  ...
  [ 0.02790108 -0.         -0.         ...  0.00087105 -0.00084479 -0.00038274]
  [-0.0270601   0.          0.         ... -0.00084479  0.00081933  0.0003712 ]
  [-0.01225973  0.          0.         ... -0.00038274  0.0003712   0.00016817]]]
Fock (ortho)
 (array([[-0.39592389,  0.        , -0.        , -0.14627952, -0.4850632 , -0.        ,  0.        ,  0.        ,  0.        , -0.03552671,  0.12006296,
         0.        ,  0.        ,  0.        , -0.        ,  0.27898894,  0.        , -0.        ,  0.        , -0.        , -0.01568523,  0.01955328,
         0.01602872,  0.        , -0.        ,  0.00853215, -0.00410971, -0.00833491],
       [ 0.        ,  1.34127493, -0.        ,  0.        , -0.        ,  0.02462016, -0.01170662, -0.50096217,  0.37346098, -0.        ,  0.        ,
         0.        ,  0.        , -0.        ,  0.        ,  0.        ,  0.00981823,  0.00392192, -0.95936181, -0.20107979, -0.        ,  0.        ,
        -0.        , -0.00346803, -0.00063341,  0.        , -0.        ,  0.        ],
       [-0.        , -0.        ,  1.34127493,  0.        ,  0.        , -0.01170662, -0.02462016,  0.37346098,  0.50096217, -0.        , -0.        ,
         0.        ,  0.        , -0.        , -0.        , -0.        , -0.00392192,  0.00981823,  0.20107979, -0.95936181, -0.        ,  0.        ,
        -0.        ,  0.00063341, -0.00346803, -0.        ,  0.        , -0.        ],
       [-0.14627952,  0.        ,  0.        ,  0.38730217, -0.04086536, -0.        ,  0.        ,  0.        ,  0.        , -0.19784967, -0.02761693,
         0.        ,  0.        , -0.        ,  0.        ,  0.05163945,  0.        , -0.        ,  0.        ,  0.        ,  0.47938641,  0.42266243,
        -0.01725502,  0.        , -0.        , -0.00162006,  0.07826594, -0.20963442],
       [-0.4850632 , -0.        ,  0.        , -0.04086536,  1.6071183 ,  0.        , -0.        , -0.        , -0.        ,  0.01364223, -0.55065439,
        -0.        , -0.        ,  0.        , -0.        , -0.99060185, -0.        ,  0.        , -0.        ,  0.        ,  0.00179592, -0.00944553,
        -0.45279968, -0.        , -0.        , -0.0973045 , -0.00116516,  0.00009343],
       [-0.        ,  0.02462016, -0.01170662, -0.        ,  0.        ,  2.25665563,  0.        ,  0.01708674, -0.00340605,  0.        , -0.        ,
        -0.        , -0.        ,  0.        , -0.        , -0.        ,  0.3729005 , -0.0238283 , -0.0100023 ,  0.0024185 , -0.        , -0.        ,
        -0.        ,  1.35056534, -0.36390301, -0.        , -0.        ,  0.        ],
       [ 0.        , -0.01170662, -0.02462016,  0.        , -0.        ,  0.        ,  2.25665563,  0.00340605,  0.01708674, -0.        ,  0.        ,
        -0.        , -0.        ,  0.        ,  0.        ,  0.        , -0.0238283 , -0.3729005 ,  0.0024185 ,  0.0100023 ,  0.        , -0.        ,
         0.        , -0.36390301, -1.35056534,  0.        , -0.        ,  0.        ],
       [ 0.        , -0.50096217,  0.37346098,  0.        , -0.        ,  0.01708674,  0.00340605,  3.14632266, -0.        , -0.        ,  0.        ,
        -0.        , -0.        ,  0.        , -0.        ,  0.        , -0.00608259,  0.00162183, -0.57143209,  0.26484247,  0.        , -0.        ,
        -0.        ,  0.00138857, -0.00068789,  0.        ,  0.        , -0.        ],
       [ 0.        ,  0.37346098,  0.50096217,  0.        , -0.        , -0.00340605,  0.01708674,  0.        ,  3.14632266,  0.        ,  0.        ,
         0.        ,  0.        , -0.        , -0.        , -0.        ,  0.00162183,  0.00608259,  0.26484247,  0.57143209,  0.        , -0.        ,
        -0.        , -0.00068789, -0.00138857,  0.        , -0.        ,  0.        ],
       [-0.03552671, -0.        , -0.        , -0.19784967,  0.01364223,  0.        , -0.        , -0.        ,  0.        ,  2.91164456,  0.00664398,
         0.        , -0.        ,  0.        ,  0.        ,  0.01262117, -0.        , -0.        , -0.        , -0.        , -0.7866885 , -0.5389062 ,
        -0.01211948, -0.        , -0.        ,  0.00459689, -0.28525125, -0.8501707 ],
       [ 0.12006296,  0.        , -0.        , -0.02761693, -0.55065439, -0.        ,  0.        ,  0.        ,  0.        ,  0.00664398,  2.96228822,
        -0.        , -0.        ,  0.        ,  0.        ,  0.65547376,  0.        ,  0.        ,  0.        ,  0.        , -0.01106942,  0.01016086,
        -1.34551893, -0.        , -0.        , -0.18456307, -0.00079257, -0.00045893],
       [ 0.        ,  0.        ,  0.        ,  0.        , -0.        , -0.        , -0.        , -0.        ,  0.        ,  0.        , -0.        ,
         3.19363853,  0.        , -0.01340386,  0.00161032, -0.        ,  0.        , -0.        ,  0.        , -0.        , -0.        ,  0.        ,
         0.        ,  0.        , -0.        ,  0.        ,  0.        , -0.        ],
       [ 0.        ,  0.        ,  0.        ,  0.        , -0.        , -0.        , -0.        , -0.        ,  0.        , -0.        , -0.        ,
         0.        ,  3.19363853, -0.00161032, -0.01340386,  0.        , -0.        ,  0.        ,  0.        ,  0.        , -0.        ,  0.        ,
         0.        ,  0.        , -0.        ,  0.        ,  0.        , -0.        ],
       [ 0.        , -0.        , -0.        , -0.        ,  0.        ,  0.        ,  0.        ,  0.        , -0.        ,  0.        ,  0.        ,
        -0.01340386, -0.00161032,  3.81147235,  0.        , -0.        ,  0.        , -0.        ,  0.        , -0.        , -0.        , -0.        ,
         0.        ,  0.        ,  0.        ,  0.        ,  0.        , -0.        ],
       [-0.        ,  0.        , -0.        ,  0.        , -0.        , -0.        ,  0.        , -0.        , -0.        ,  0.        ,  0.        ,
         0.00161032, -0.01340386,  0.        ,  3.81147235,  0.        , -0.        , -0.        ,  0.        ,  0.        , -0.        , -0.        ,
        -0.        , -0.        , -0.        ,  0.        ,  0.        , -0.        ],
       [ 0.27898894,  0.        , -0.        ,  0.05163945, -0.99060185, -0.        ,  0.        ,  0.        , -0.        ,  0.01262117,  0.65547376,
        -0.        ,  0.        , -0.        ,  0.        ,  1.75289604,  0.        , -0.        ,  0.        , -0.        ,  0.02684724, -0.00509483,
        -0.01093671,  0.        ,  0.        ,  1.03845925,  0.00340064, -0.00080852],
       [ 0.        ,  0.00981823, -0.00392192,  0.        , -0.        ,  0.3729005 , -0.0238283 , -0.00608259,  0.00162183, -0.        ,  0.        ,
         0.        , -0.        ,  0.        , -0.        ,  0.        ,  4.67189793, -0.        , -0.00746743,  0.0013082 ,  0.        ,  0.        ,
         0.        , -0.62796487,  0.12689034, -0.        ,  0.        , -0.        ],
       [-0.        ,  0.00392192,  0.00981823, -0.        ,  0.        , -0.0238283 , -0.3729005 ,  0.00162183,  0.00608259, -0.        ,  0.        ,
        -0.        ,  0.        , -0.        , -0.        , -0.        , -0.        ,  4.67189793, -0.0013082 , -0.00746743,  0.        , -0.        ,
         0.        , -0.12689034, -0.62796487,  0.        ,  0.        , -0.        ],
       [ 0.        , -0.95936181,  0.20107979,  0.        , -0.        , -0.0100023 ,  0.0024185 , -0.57143209,  0.26484247, -0.        ,  0.        ,
         0.        ,  0.        ,  0.        ,  0.        ,  0.        , -0.00746743, -0.0013082 ,  3.31815431,  0.        ,  0.        ,  0.        ,
        -0.        , -0.00814685,  0.00021149, -0.        ,  0.        ,  0.        ],
       [-0.        , -0.20107979, -0.95936181,  0.        ,  0.        ,  0.0024185 ,  0.0100023 ,  0.26484247,  0.57143209, -0.        ,  0.        ,
        -0.        ,  0.        , -0.        ,  0.        , -0.        ,  0.0013082 , -0.00746743,  0.        ,  3.31815431,  0.        ,  0.        ,
         0.        , -0.00021149, -0.00814685,  0.        ,  0.        , -0.        ],
       [-0.01568523, -0.        , -0.        ,  0.47938641,  0.00179592, -0.        ,  0.        ,  0.        ,  0.        , -0.7866885 , -0.01106942,
        -0.        , -0.        , -0.        , -0.        ,  0.02684724,  0.        ,  0.        ,  0.        ,  0.        ,  2.13404246,  0.1399717 ,
        -0.00392454,  0.        ,  0.        ,  0.0138453 ,  1.0874756 , -0.05992997],
       [ 0.01955328,  0.        ,  0.        ,  0.42266243, -0.00944553, -0.        , -0.        , -0.        , -0.        , -0.5389062 ,  0.01016086,
         0.        ,  0.        , -0.        , -0.        , -0.00509483,  0.        , -0.        ,  0.        ,  0.        ,  0.1399717 ,  5.21952229,
         0.00889063,  0.        , -0.        , -0.00561157,  0.59161447, -1.53814615],
       [ 0.01602872, -0.        , -0.        , -0.01725502, -0.45279968, -0.        ,  0.        , -0.        , -0.        , -0.01211948, -1.34551893,
         0.        ,  0.        ,  0.        , -0.        , -0.01093671,  0.        ,  0.        , -0.        ,  0.        , -0.00392454,  0.00889063,
         3.90249263,  0.        ,  0.        , -0.43579243, -0.00076188,  0.00273034],
       [ 0.        , -0.00346803,  0.00063341,  0.        , -0.        ,  1.35056534, -0.36390301,  0.00138857, -0.00068789, -0.        , -0.        ,
         0.        ,  0.        ,  0.        , -0.        ,  0.        , -0.62796487, -0.12689034, -0.00814685, -0.00021149,  0.        ,  0.        ,
         0.        ,  3.01822674, -0.        , -0.        , -0.        ,  0.        ],
       [-0.        , -0.00063341, -0.00346803, -0.        , -0.        , -0.36390301, -1.35056534, -0.00068789, -0.00138857, -0.        , -0.        ,
        -0.        , -0.        ,  0.        , -0.        ,  0.        ,  0.12689034, -0.62796487,  0.00021149, -0.00814685,  0.        , -0.        ,
         0.        , -0.        ,  3.01822674, -0.        ,  0.        ,  0.        ],
       [ 0.00853215,  0.        , -0.        , -0.00162006, -0.0973045 , -0.        ,  0.        ,  0.        ,  0.        ,  0.00459689, -0.18456307,
         0.        ,  0.        ,  0.        ,  0.        ,  1.03845925, -0.        ,  0.        , -0.        ,  0.        ,  0.0138453 , -0.00561157,
        -0.43579243, -0.        , -0.        ,  1.90361821,  0.00483402, -0.00170033],
       [-0.00410971, -0.        ,  0.        ,  0.07826594, -0.00116516, -0.        , -0.        ,  0.        , -0.        , -0.28525125, -0.00079257,
         0.        ,  0.        ,  0.        ,  0.        ,  0.00340064,  0.        ,  0.        ,  0.        ,  0.        ,  1.0874756 ,  0.59161447,
        -0.00076188, -0.        ,  0.        ,  0.00483402,  1.120855  , -0.17867282],
       [-0.00833491,  0.        , -0.        , -0.20963442,  0.00009343,  0.        ,  0.        , -0.        ,  0.        , -0.8501707 , -0.00045893,
        -0.        , -0.        , -0.        , -0.        , -0.00080852, -0.        , -0.        ,  0.        , -0.        , -0.05992997, -1.53814615,
         0.00273034,  0.        ,  0.        , -0.00170033, -0.17867282,  3.22087043]]), array([[-0.39592389,  0.        , -0.        ,  0.14627952, -0.4850632 , -0.        ,  0.        ,  0.        ,  0.        ,  0.03552671,  0.12006296,
        -0.        , -0.        , -0.        ,  0.        ,  0.27898894,  0.        , -0.        ,  0.        , -0.        ,  0.01568523, -0.01955328,
         0.01602872,  0.        , -0.        ,  0.00853215,  0.00410971,  0.00833491],
       [ 0.        ,  1.34127493, -0.        ,  0.        , -0.        , -0.02462016,  0.01170662, -0.50096217,  0.37346098, -0.        ,  0.        ,
         0.        ,  0.        , -0.        ,  0.        ,  0.        , -0.00981823, -0.00392192, -0.95936181, -0.20107979, -0.        ,  0.        ,
        -0.        ,  0.00346803,  0.00063341,  0.        , -0.        ,  0.        ],
       [-0.        , -0.        ,  1.34127493,  0.        ,  0.        ,  0.01170662,  0.02462016,  0.37346098,  0.50096217, -0.        , -0.        ,
         0.        ,  0.        , -0.        ,  0.        , -0.        ,  0.00392192, -0.00981823,  0.20107979, -0.95936181, -0.        ,  0.        ,
        -0.        , -0.00063341,  0.00346803, -0.        ,  0.        ,  0.        ],
       [ 0.14627952,  0.        ,  0.        ,  0.38730217,  0.04086536, -0.        ,  0.        ,  0.        , -0.        , -0.19784967,  0.02761693,
         0.        ,  0.        , -0.        , -0.        , -0.05163945,  0.        , -0.        ,  0.        ,  0.        ,  0.47938641,  0.42266243,
         0.01725502,  0.        , -0.        ,  0.00162006,  0.07826594, -0.20963442],
       [-0.4850632 , -0.        ,  0.        ,  0.04086536,  1.6071183 ,  0.        , -0.        , -0.        , -0.        , -0.01364223, -0.55065439,
        -0.        , -0.        ,  0.        ,  0.        , -0.99060185, -0.        ,  0.        , -0.        ,  0.        , -0.00179592,  0.00944553,
        -0.45279968, -0.        , -0.        , -0.0973045 ,  0.00116516, -0.00009343],
       [-0.        , -0.02462016,  0.01170662, -0.        ,  0.        ,  2.25665563,  0.        , -0.01708674,  0.00340605,  0.        , -0.        ,
        -0.        , -0.        ,  0.        , -0.        , -0.        ,  0.3729005 , -0.0238283 ,  0.0100023 , -0.0024185 , -0.        , -0.        ,
        -0.        ,  1.35056534, -0.36390301, -0.        , -0.        ,  0.        ],
       [ 0.        ,  0.01170662,  0.02462016,  0.        , -0.        ,  0.        ,  2.25665563, -0.00340605, -0.01708674, -0.        ,  0.        ,
        -0.        , -0.        ,  0.        ,  0.        ,  0.        , -0.0238283 , -0.3729005 , -0.0024185 , -0.0100023 ,  0.        , -0.        ,
         0.        , -0.36390301, -1.35056534,  0.        , -0.        ,  0.        ],
       [ 0.        , -0.50096217,  0.37346098,  0.        , -0.        , -0.01708674, -0.00340605,  3.14632266,  0.        ,  0.        ,  0.        ,
        -0.        , -0.        ,  0.        , -0.        ,  0.        ,  0.00608259, -0.00162183, -0.57143209,  0.26484247,  0.        , -0.        ,
        -0.        , -0.00138857,  0.00068789,  0.        ,  0.        , -0.        ],
       [ 0.        ,  0.37346098,  0.50096217, -0.        , -0.        ,  0.00340605, -0.01708674,  0.        ,  3.14632266,  0.        ,  0.        ,
         0.        ,  0.        , -0.        , -0.        , -0.        , -0.00162183, -0.00608259,  0.26484247,  0.57143209,  0.        , -0.        ,
        -0.        ,  0.00068789,  0.00138857,  0.        , -0.        ,  0.        ],
       [ 0.03552671, -0.        , -0.        , -0.19784967, -0.01364223,  0.        , -0.        ,  0.        ,  0.        ,  2.91164456, -0.00664398,
         0.        , -0.        ,  0.        , -0.        , -0.01262117, -0.        , -0.        , -0.        , -0.        , -0.7866885 , -0.5389062 ,
         0.01211948, -0.        , -0.        , -0.00459689, -0.28525125, -0.8501707 ],
       [ 0.12006296,  0.        , -0.        ,  0.02761693, -0.55065439, -0.        ,  0.        ,  0.        ,  0.        , -0.00664398,  2.96228822,
        -0.        , -0.        ,  0.        ,  0.        ,  0.65547376,  0.        ,  0.        ,  0.        ,  0.        ,  0.01106942, -0.01016086,
        -1.34551893, -0.        , -0.        , -0.18456307,  0.00079257,  0.00045893],
       [-0.        ,  0.        ,  0.        ,  0.        , -0.        , -0.        , -0.        , -0.        ,  0.        ,  0.        , -0.        ,
         3.19363853,  0.        ,  0.01340386, -0.00161032, -0.        ,  0.        , -0.        ,  0.        , -0.        , -0.        ,  0.        ,
         0.        ,  0.        , -0.        ,  0.        ,  0.        , -0.        ],
       [-0.        ,  0.        ,  0.        ,  0.        , -0.        , -0.        , -0.        , -0.        ,  0.        , -0.        , -0.        ,
         0.        ,  3.19363853,  0.00161032,  0.01340386,  0.        , -0.        ,  0.        ,  0.        ,  0.        , -0.        ,  0.        ,
         0.        ,  0.        , -0.        ,  0.        ,  0.        , -0.        ],
       [-0.        , -0.        , -0.        , -0.        ,  0.        ,  0.        ,  0.        ,  0.        , -0.        ,  0.        ,  0.        ,
         0.01340386,  0.00161032,  3.81147235,  0.        , -0.        ,  0.        , -0.        ,  0.        , -0.        , -0.        , -0.        ,
         0.        ,  0.        ,  0.        ,  0.        ,  0.        , -0.        ],
       [ 0.        ,  0.        ,  0.        , -0.        ,  0.        , -0.        ,  0.        , -0.        , -0.        , -0.        ,  0.        ,
        -0.00161032,  0.01340386,  0.        ,  3.81147235, -0.        , -0.        , -0.        ,  0.        ,  0.        , -0.        , -0.        ,
         0.        , -0.        , -0.        ,  0.        ,  0.        , -0.        ],
       [ 0.27898894,  0.        , -0.        , -0.05163945, -0.99060185, -0.        ,  0.        ,  0.        , -0.        , -0.01262117,  0.65547376,
        -0.        ,  0.        , -0.        , -0.        ,  1.75289604,  0.        , -0.        ,  0.        , -0.        , -0.02684724,  0.00509483,
        -0.01093671,  0.        ,  0.        ,  1.03845925, -0.00340064,  0.00080852],
       [ 0.        , -0.00981823,  0.00392192,  0.        , -0.        ,  0.3729005 , -0.0238283 ,  0.00608259, -0.00162183, -0.        ,  0.        ,
         0.        , -0.        ,  0.        , -0.        ,  0.        ,  4.67189793, -0.        ,  0.00746743, -0.0013082 ,  0.        ,  0.        ,
         0.        , -0.62796487,  0.12689034, -0.        ,  0.        , -0.        ],
       [-0.        , -0.00392192, -0.00981823, -0.        ,  0.        , -0.0238283 , -0.3729005 , -0.00162183, -0.00608259, -0.        ,  0.        ,
        -0.        ,  0.        , -0.        , -0.        , -0.        , -0.        ,  4.67189793,  0.0013082 ,  0.00746743,  0.        , -0.        ,
         0.        , -0.12689034, -0.62796487,  0.        ,  0.        , -0.        ],
       [ 0.        , -0.95936181,  0.20107979,  0.        , -0.        ,  0.0100023 , -0.0024185 , -0.57143209,  0.26484247, -0.        ,  0.        ,
         0.        ,  0.        ,  0.        ,  0.        ,  0.        ,  0.00746743,  0.0013082 ,  3.31815431,  0.        ,  0.        ,  0.        ,
        -0.        ,  0.00814685, -0.00021149, -0.        ,  0.        ,  0.        ],
       [-0.        , -0.20107979, -0.95936181,  0.        ,  0.        , -0.0024185 , -0.0100023 ,  0.26484247,  0.57143209, -0.        ,  0.        ,
        -0.        ,  0.        , -0.        ,  0.        , -0.        , -0.0013082 ,  0.00746743,  0.        ,  3.31815431,  0.        ,  0.        ,
         0.        ,  0.00021149,  0.00814685,  0.        ,  0.        , -0.        ],
       [ 0.01568523, -0.        , -0.        ,  0.47938641, -0.00179592, -0.        ,  0.        ,  0.        ,  0.        , -0.7866885 ,  0.01106942,
        -0.        , -0.        , -0.        , -0.        , -0.02684724,  0.        ,  0.        ,  0.        ,  0.        ,  2.13404246,  0.1399717 ,
         0.00392454,  0.        ,  0.        , -0.0138453 ,  1.0874756 , -0.05992997],
       [-0.01955328,  0.        ,  0.        ,  0.42266243,  0.00944553, -0.        , -0.        , -0.        , -0.        , -0.5389062 , -0.01016086,
         0.        ,  0.        , -0.        , -0.        ,  0.00509483,  0.        , -0.        ,  0.        ,  0.        ,  0.1399717 ,  5.21952229,
        -0.00889063,  0.        , -0.        ,  0.00561157,  0.59161447, -1.53814615],
       [ 0.01602872, -0.        , -0.        ,  0.01725502, -0.45279968, -0.        ,  0.        , -0.        , -0.        ,  0.01211948, -1.34551893,
         0.        ,  0.        ,  0.        ,  0.        , -0.01093671,  0.        ,  0.        , -0.        ,  0.        ,  0.00392454, -0.00889063,
         3.90249263,  0.        ,  0.        , -0.43579243,  0.00076188, -0.00273034],
       [ 0.        ,  0.00346803, -0.00063341,  0.        , -0.        ,  1.35056534, -0.36390301, -0.00138857,  0.00068789, -0.        , -0.        ,
         0.        ,  0.        ,  0.        , -0.        ,  0.        , -0.62796487, -0.12689034,  0.00814685,  0.00021149,  0.        ,  0.        ,
         0.        ,  3.01822674, -0.        , -0.        , -0.        ,  0.        ],
       [-0.        ,  0.00063341,  0.00346803, -0.        , -0.        , -0.36390301, -1.35056534,  0.00068789,  0.00138857, -0.        , -0.        ,
        -0.        , -0.        ,  0.        , -0.        ,  0.        ,  0.12689034, -0.62796487, -0.00021149,  0.00814685,  0.        , -0.        ,
         0.        , -0.        ,  3.01822674, -0.        ,  0.        ,  0.        ],
       [ 0.00853215,  0.        , -0.        ,  0.00162006, -0.0973045 , -0.        ,  0.        ,  0.        ,  0.        , -0.00459689, -0.18456307,
         0.        ,  0.        ,  0.        ,  0.        ,  1.03845925, -0.        ,  0.        , -0.        ,  0.        , -0.0138453 ,  0.00561157,
        -0.43579243, -0.        , -0.        ,  1.90361821, -0.00483402,  0.00170033],
       [ 0.00410971, -0.        ,  0.        ,  0.07826594,  0.00116516, -0.        , -0.        ,  0.        , -0.        , -0.28525125,  0.00079257,
         0.        ,  0.        ,  0.        ,  0.        , -0.00340064,  0.        ,  0.        ,  0.        ,  0.        ,  1.0874756 ,  0.59161447,
         0.00076188, -0.        ,  0.        , -0.00483402,  1.120855  , -0.17867282],
       [ 0.00833491,  0.        ,  0.        , -0.20963442, -0.00009343,  0.        ,  0.        , -0.        ,  0.        , -0.8501707 ,  0.00045893,
        -0.        , -0.        , -0.        , -0.        ,  0.00080852, -0.        , -0.        ,  0.        , -0.        , -0.05992997, -1.53814615,
        -0.00273034,  0.        ,  0.        ,  0.00170033, -0.17867282,  3.22087043]]))
E(UHF) =    -1.616917
NO eigenvalue
[-1. -0. -0. -0. -0. -0. -0. -0. -0. -0. -0. -0. -0. -0.  0.  0.  0.  0.  0.  0.  0.  0.  0.  0.  0.  0.  0.  0.] [-1. -0. -0. -0. -0. -0. -0. -0. -0. -0. -0. -0. -0. -0. -0. -0. -0.  0.  0.  0.  0.  0.  0.  0.  0.  0.  0.  0.]
NO vec
[[ 0.94536658  0.         -0.31786916 ...  0.          0.          0.        ]
 [-0.          0.          0.09410129 ...  0.          0.          0.        ]
 [ 0.          0.          0.         ...  0.          0.          0.        ]
 ...
 [ 0.          0.0295135   0.         ... -0.25552944  0.3166747   0.04717603]
 [ 0.         -0.02862393  0.         ...  0.21686143  0.1212866  -0.09208488]
 [ 0.         -0.01296822  0.         ...  0.19079371 -0.05836246 -0.01308526]]
dm(NO)
[[ 1.  0. -0. ...  0.  0.  0.]
 [ 0.  1.  0. ...  0.  0.  0.]
 [ 0.  0. -0. ...  0.  0.  0.]
 ...
 [ 0.  0.  0. ... -0. -0.  0.]
 [ 0. -0.  0. ...  0. -0.  0.]
 [ 0.  0.  0. ...  0.  0. -0.]]
D(g) (NO)
[[ 0.99951369  0.02773486  0.         ...  0.00200072 -0.00005466 -0.00889825]
 [-0.02773486  0.99951369  0.01134602 ...  0.          0.          0.        ]
 [ 0.         -0.01134602  0.99951369 ...  0.00564966 -0.00201058 -0.01431682]
 ...
 [-0.00200072  0.         -0.00564966 ...  0.99951369  0.          0.        ]
 [ 0.00005466  0.          0.00201058 ...  0.          0.99951369  0.        ]
 [ 0.00889825  0.          0.01431682 ...  0.          0.          0.99951369]]
...
N(g) (NO)
[[ 0.9997168  -0.02774049]
 [ 0.02774049  0.9997168 ]]
...
P(g) (NO)
[[ 1.         -0.         -0.         ... -0.         -0.         -0.        ]
 [ 0.          1.         -0.         ...  0.          0.          0.        ]
 [-0.00031474 -0.01134281  0.         ... -0.         -0.         -0.        ]
 ...
 [-0.00200015  0.0000555   0.         ...  0.          0.          0.        ]
 [ 0.00005464 -0.00000152 -0.         ... -0.         -0.         -0.        ]
 [ 0.00889573 -0.00024684 -0.         ... -0.         -0.         -0.        ]]
...
Pg_ortho
[[ 0.89380346 -0.          0.         ...  0.00009619 -0.00009329 -0.00004226]
 [-0.          0.         -0.         ... -0.          0.          0.        ]
 [ 0.         -0.          0.         ... -0.          0.          0.        ]
 ...
 [-0.00009619  0.         -0.         ...  0.00087113 -0.00084487 -0.00038277]
 [-0.00159388  0.         -0.         ... -0.00084341  0.00081799  0.00037059]
 [-0.00072211  0.         -0.         ... -0.00038211  0.00037059  0.0001679 ]]
G(g) (NO)
[[ 0.53397496 -0.00097645 -0.09177783 ... -0.00039548  0.00002022 -0.00099038]
 [ 0.00097645  0.53397496  0.00129615 ...  0.03456379  0.1012923  -0.05137768]
 [-0.09165436  0.00596343  0.9883209  ...  0.00069227  0.00098934 -0.00008634]
 ...
 [ 0.00017206  0.03456292  0.00075782 ...  1.07554437  0.03934576  0.08979169]
 [ 0.00097272  0.10128265  0.00034665 ...  0.03933944  0.8952792  -0.07590062]
 [-0.00490327 -0.05128386 -0.00039458 ...  0.08979352 -0.07588851  1.02948801]]
...
C(NO)
[[-1.          0.         -0.         ...  0.          0.          0.        ]
 [ 0.         -1.          0.         ...  0.         -0.         -0.        ]
 [ 0.          0.          0.69199188 ...  0.          0.          0.        ]
 ...
 [ 0.         -0.          0.         ...  0.0001331   0.00005527 -0.34101155]
 [ 0.         -0.          0.         ...  0.00008681  0.35829141  0.03163314]
 [ 0.         -0.          0.         ...  0.00108852 -0.01601403 -0.06218665]]
detC 0.9999999999999991
detNg [1.00020321 1.00531157 1.02848483 1.0808271  1.154943   1.22136378 1.25573799 1.2638005 ]
xg [0.99979683 0.99471649 0.97230408 0.92521737 0.86584359 0.81875688 0.79634446 0.79126413]
ciS 1.7910609580636176
[[-1.07543226  0.          0.12136229 ...  0.          0.          0.        ]
 [ 0.         -1.07543226  0.         ... -0.03571025 -0.11774728  0.07276236]
 [ 0.12136229  0.         -0.18889718 ...  0.          0.          0.        ]
 ...
 [ 0.         -0.03571025  0.         ...  1.46162924  0.00170447  0.16524463]
 [ 0.         -0.11774728  0.         ...  0.00170447  0.83988387 -0.08634602]
 [ 0.          0.07276236  0.         ...  0.16524463 -0.08634602 -0.08739476]]
ciH -2.9456394045450542
S2 = 0.000000
X(g)
[[ 2.          0.         -0.00031474 ...  0.00200015 -0.00005464 -0.00889573]
 [ 0.          2.          0.01134281 ...  0.0000555  -0.00000152 -0.00024684]
 [-0.00031474 -0.01134281  0.         ...  0.          0.          0.        ]
 ...
 [-0.00200015  0.0000555   0.         ...  0.          0.          0.        ]
 [ 0.00005464 -0.00000152  0.         ...  0.          0.          0.        ]
 [ 0.00889573 -0.00024684  0.         ...  0.          0.          0.        ]]
X(g) int
[[ 2.          0.         -0.18068305 ...  0.02813489 -0.00076865 -0.12513049]
 [ 0.          2.          0.15955202 ...  0.03186107 -0.00087045 -0.14170273]
 [-0.18068305 -0.15955202  0.         ...  0.          0.          0.        ]
 ...
 [-0.02813489  0.03186107  0.         ...  0.          0.          0.        ]
 [ 0.00076865 -0.00087045  0.         ...  0.          0.          0.        ]
 [ 0.12513049 -0.14170273  0.         ...  0.          0.          0.        ]]
Hsp + Hph =  -1.6446338084046535
Feff (mod,ortho)
[[-0.37215935 -0.         -0.         ...  0.          0.          0.        ]
 [-0.          1.34127493 -0.         ...  0.          0.          0.        ]
 [-0.         -0.          1.34127493 ...  0.          0.          0.        ]
 ...
 [ 0.          0.          0.         ...  1.90362378 -0.00480519  0.00176675]
 [ 0.          0.          0.         ... -0.00480519  1.12079385 -0.17875228]
 [ 0.          0.          0.         ...  0.00176675 -0.17875228  3.22081098]]
E(SUHF) =     -1.11545660
e_a, e_b
[-0.54250927  0.12625605  0.32398879  0.54643977  0.66280437  0.66280437  1.00269921  1.05789287  1.05789287  1.47244165  2.49739685  2.59482658  3.19334368
  3.19334368  3.20900578  3.20900578  3.44284775  3.81176721  3.81176721  3.92602487  3.92602487  3.99968815  3.99968815  4.08802768  4.89711616  4.89711616
  4.96673456  6.2075768 ] [-0.54250927  0.12625605  0.32398879  0.54643977  0.66280437  0.66280437  1.00269921  1.05789287  1.05789287  1.47244165  2.49739685  2.59482658  3.19334368
  3.19334368  3.20900578  3.20900578  3.44284775  3.81176721  3.81176721  3.92602487  3.92602487  3.99968815  3.99968815  4.08802768  4.89711616  4.89711616
  4.96673456  6.2075768 ]
P_a, P_b
[[ 0.88327143  0.          0.          0.24139495  0.19281041  0.          0.         -0.         -0.          0.02088822  0.02226261 -0.         -0.
  -0.          0.         -0.04848938 -0.          0.         -0.          0.         -0.0369594  -0.01817538  0.02681927  0.          0.          0.03185926
   0.02732951  0.01396214]
 [ 0.          0.          0.          0.          0.          0.          0.         -0.         -0.          0.          0.         -0.         -0.
  -0.          0.         -0.         -0.          0.         -0.          0.         -0.         -0.          0.          0.          0.          0.
   0.          0.        ]
 [ 0.          0.          0.          0.          0.          0.          0.         -0.         -0.          0.          0.         -0.         -0.
  -0.          0.         -0.         -0.          0.         -0.          0.         -0.         -0.          0.          0.          0.          0.
   0.          0.        ]
 [ 0.24139495  0.          0.          0.06597238  0.0526944   0.          0.         -0.         -0.          0.00570868  0.00608429 -0.         -0.
  -0.          0.         -0.01325198 -0.          0.         -0.          0.         -0.01010087 -0.00496727  0.00732961  0.          0.          0.00870702
   0.00746906  0.0038158 ]
 [ 0.19281041  0.          0.          0.0526944   0.04208882  0.          0.         -0.         -0.          0.00455971  0.00485973 -0.         -0.
  -0.          0.         -0.01058481 -0.          0.         -0.          0.         -0.00806791 -0.00396753  0.00585441  0.          0.          0.0069546
   0.00596579  0.00304781]
 [ 0.          0.          0.          0.          0.          0.          0.         -0.         -0.          0.          0.         -0.         -0.
  -0.          0.         -0.         -0.          0.         -0.          0.         -0.         -0.          0.          0.          0.          0.
   0.          0.        ]
 [ 0.          0.          0.          0.          0.          0.          0.         -0.         -0.          0.          0.         -0.         -0.
  -0.          0.         -0.         -0.          0.         -0.          0.         -0.         -0.          0.          0.          0.          0.
   0.          0.        ]
 [-0.         -0.         -0.         -0.         -0.         -0.         -0.          0.          0.         -0.         -0.          0.          0.
   0.         -0.          0.          0.         -0.          0.         -0.          0.          0.         -0.         -0.         -0.         -0.
  -0.         -0.        ]
 [-0.         -0.         -0.         -0.         -0.         -0.         -0.          0.          0.         -0.         -0.          0.          0.
   0.         -0.          0.          0.         -0.          0.         -0.          0.          0.         -0.         -0.         -0.         -0.
  -0.         -0.        ]
 [ 0.02088822  0.          0.          0.00570868  0.00455971  0.          0.         -0.         -0.          0.00049398  0.00052648 -0.         -0.
  -0.          0.         -0.00114671 -0.          0.         -0.          0.         -0.00087404 -0.00042982  0.00063424  0.          0.          0.00075343
   0.00064631  0.00033019]
 [ 0.02226261  0.          0.          0.00608429  0.00485973  0.          0.         -0.         -0.          0.00052648  0.00056112 -0.         -0.
  -0.          0.         -0.00122216 -0.          0.         -0.          0.         -0.00093155 -0.00045811  0.00067597  0.          0.          0.000803
   0.00068883  0.00035191]
 [-0.         -0.         -0.         -0.         -0.         -0.         -0.          0.          0.         -0.         -0.          0.          0.
   0.         -0.          0.          0.         -0.          0.         -0.          0.          0.         -0.         -0.         -0.         -0.
  -0.         -0.        ]
 [-0.         -0.         -0.         -0.         -0.         -0.         -0.          0.          0.         -0.         -0.          0.          0.
   0.         -0.          0.          0.         -0.          0.         -0.          0.          0.         -0.         -0.         -0.         -0.
  -0.         -0.        ]
 [-0.         -0.         -0.         -0.         -0.         -0.         -0.          0.          0.         -0.         -0.          0.          0.
   0.         -0.          0.          0.         -0.          0.         -0.          0.          0.         -0.         -0.         -0.         -0.
  -0.         -0.        ]
 [ 0.          0.          0.          0.          0.          0.          0.         -0.         -0.          0.          0.         -0.         -0.
  -0.          0.         -0.         -0.          0.         -0.          0.         -0.         -0.          0.          0.          0.          0.
   0.          0.        ]
 [-0.04848938 -0.         -0.         -0.01325198 -0.01058481 -0.         -0.          0.          0.         -0.00114671 -0.00122216  0.          0.
   0.         -0.          0.00266195  0.         -0.          0.         -0.          0.00202898  0.00099778 -0.00147231 -0.         -0.         -0.00174899
  -0.00150032 -0.00076649]
 [-0.         -0.         -0.         -0.         -0.         -0.         -0.          0.          0.         -0.         -0.          0.          0.
   0.         -0.          0.          0.         -0.          0.         -0.          0.          0.         -0.         -0.         -0.         -0.
  -0.         -0.        ]
 [ 0.          0.          0.          0.          0.          0.          0.         -0.         -0.          0.          0.         -0.         -0.
  -0.          0.         -0.         -0.          0.         -0.          0.         -0.         -0.          0.          0.          0.          0.
   0.          0.        ]
 [-0.         -0.         -0.         -0.         -0.         -0.         -0.          0.          0.         -0.         -0.          0.          0.
   0.         -0.          0.          0.         -0.          0.         -0.          0.          0.         -0.         -0.         -0.         -0.
  -0.         -0.        ]
 [ 0.          0.          0.          0.          0.          0.          0.         -0.         -0.          0.          0.         -0.         -0.
  -0.          0.         -0.         -0.          0.         -0.          0.         -0.         -0.          0.          0.          0.          0.
   0.          0.        ]
 [-0.0369594  -0.         -0.         -0.01010087 -0.00806791 -0.         -0.          0.          0.         -0.00087404 -0.00093155  0.          0.
   0.         -0.          0.00202898  0.         -0.          0.         -0.          0.00154652  0.00076053 -0.00112222 -0.         -0.         -0.00133311
  -0.00114357 -0.00058423]
 [-0.01817538 -0.         -0.         -0.00496727 -0.00396753 -0.         -0.          0.          0.         -0.00042982 -0.00045811  0.          0.
   0.         -0.          0.00099778  0.         -0.          0.         -0.          0.00076053  0.000374   -0.00055187 -0.         -0.         -0.00065558
  -0.00056237 -0.0002873 ]
 [ 0.02681927  0.          0.          0.00732961  0.00585441  0.          0.         -0.         -0.          0.00063424  0.00067597 -0.         -0.
  -0.          0.         -0.00147231 -0.          0.         -0.          0.         -0.00112222 -0.00055187  0.00081433  0.          0.          0.00096736
   0.00082982  0.00042394]
 [ 0.          0.          0.          0.          0.          0.          0.         -0.         -0.          0.          0.         -0.         -0.
  -0.          0.         -0.         -0.          0.         -0.          0.         -0.         -0.          0.          0.          0.          0.
   0.          0.        ]
 [ 0.          0.          0.          0.          0.          0.          0.         -0.         -0.          0.          0.         -0.         -0.
  -0.          0.         -0.         -0.          0.         -0.          0.         -0.         -0.          0.          0.          0.          0.
   0.          0.        ]
 [ 0.03185926  0.          0.          0.00870702  0.0069546   0.          0.         -0.         -0.          0.00075343  0.000803   -0.         -0.
  -0.          0.         -0.00174899 -0.          0.         -0.          0.         -0.00133311 -0.00065558  0.00096736  0.          0.          0.00114915
   0.00098576  0.00050361]
 [ 0.02732951  0.          0.          0.00746906  0.00596579  0.          0.         -0.         -0.          0.00064631  0.00068883 -0.         -0.
  -0.          0.         -0.00150032 -0.          0.         -0.          0.         -0.00114357 -0.00056237  0.00082982  0.          0.          0.00098576
   0.00084561  0.00043201]
 [ 0.01396214  0.          0.          0.0038158   0.00304781  0.          0.         -0.         -0.          0.00033019  0.00035191 -0.         -0.
  -0.          0.         -0.00076649 -0.          0.         -0.          0.         -0.00058423 -0.0002873   0.00042394  0.          0.          0.00050361
   0.00043201  0.0002207 ]] 
 [[ 0.88327143 -0.          0.         -0.24139495  0.19281041 -0.         -0.         -0.         -0.         -0.02088822  0.02226261 -0.          0.
  -0.         -0.         -0.04848938  0.          0.         -0.          0.          0.0369594   0.01817538  0.02681927  0.          0.          0.03185926
  -0.02732951 -0.01396214]
 [-0.          0.         -0.          0.         -0.          0.          0.          0.          0.          0.         -0.          0.         -0.
   0.          0.          0.         -0.         -0.          0.         -0.         -0.         -0.         -0.         -0.         -0.         -0.
   0.          0.        ]
 [ 0.         -0.          0.         -0.          0.         -0.         -0.         -0.         -0.         -0.          0.         -0.          0.
  -0.         -0.         -0.          0.          0.         -0.          0.          0.          0.          0.          0.          0.          0.
  -0.         -0.        ]
 [-0.24139495  0.         -0.          0.06597238 -0.0526944   0.          0.          0.          0.          0.00570868 -0.00608429  0.         -0.
   0.          0.          0.01325198 -0.         -0.          0.         -0.         -0.01010087 -0.00496727 -0.00732961 -0.         -0.         -0.00870702
   0.00746906  0.0038158 ]
 [ 0.19281041 -0.          0.         -0.0526944   0.04208882 -0.         -0.         -0.         -0.         -0.00455971  0.00485973 -0.          0.
  -0.         -0.         -0.01058481  0.          0.         -0.          0.          0.00806791  0.00396753  0.00585441  0.          0.          0.0069546
  -0.00596579 -0.00304781]
 [-0.          0.         -0.          0.         -0.          0.          0.          0.          0.          0.         -0.          0.         -0.
   0.          0.          0.         -0.         -0.          0.         -0.         -0.         -0.         -0.         -0.         -0.         -0.
   0.          0.        ]
 [-0.          0.         -0.          0.         -0.          0.          0.          0.          0.          0.         -0.          0.         -0.
   0.          0.          0.         -0.         -0.          0.         -0.         -0.         -0.         -0.         -0.         -0.         -0.
   0.          0.        ]
 [-0.          0.         -0.          0.         -0.          0.          0.          0.          0.          0.         -0.          0.         -0.
   0.          0.          0.         -0.         -0.          0.         -0.         -0.         -0.         -0.         -0.         -0.         -0.
   0.          0.        ]
 [-0.          0.         -0.          0.         -0.          0.          0.          0.          0.          0.         -0.          0.         -0.
   0.          0.          0.         -0.         -0.          0.         -0.         -0.         -0.         -0.         -0.         -0.         -0.
   0.          0.        ]
 [-0.02088822  0.         -0.          0.00570868 -0.00455971  0.          0.          0.          0.          0.00049398 -0.00052648  0.         -0.
   0.          0.          0.00114671 -0.         -0.          0.         -0.         -0.00087404 -0.00042982 -0.00063424 -0.         -0.         -0.00075343
   0.00064631  0.00033019]
 [ 0.02226261 -0.          0.         -0.00608429  0.00485973 -0.         -0.         -0.         -0.         -0.00052648  0.00056112 -0.          0.
  -0.         -0.         -0.00122216  0.          0.         -0.          0.          0.00093155  0.00045811  0.00067597  0.          0.          0.000803
  -0.00068883 -0.00035191]
 [-0.          0.         -0.          0.         -0.          0.          0.          0.          0.          0.         -0.          0.         -0.
   0.          0.          0.         -0.         -0.          0.         -0.         -0.         -0.         -0.         -0.         -0.         -0.
   0.          0.        ]
 [ 0.         -0.          0.         -0.          0.         -0.         -0.         -0.         -0.         -0.          0.         -0.          0.
  -0.         -0.         -0.          0.          0.         -0.          0.          0.          0.          0.          0.          0.          0.
  -0.         -0.        ]
 [-0.          0.         -0.          0.         -0.          0.          0.          0.          0.          0.         -0.          0.         -0.
   0.          0.          0.         -0.         -0.          0.         -0.         -0.         -0.         -0.         -0.         -0.         -0.
   0.          0.        ]
 [-0.          0.         -0.          0.         -0.          0.          0.          0.          0.          0.         -0.          0.         -0.
   0.          0.          0.         -0.         -0.          0.         -0.         -0.         -0.         -0.         -0.         -0.         -0.
   0.          0.        ]
 [-0.04848938  0.         -0.          0.01325198 -0.01058481  0.          0.          0.          0.          0.00114671 -0.00122216  0.         -0.
   0.          0.          0.00266195 -0.         -0.          0.         -0.         -0.00202898 -0.00099778 -0.00147231 -0.         -0.         -0.00174899
   0.00150032  0.00076649]
 [ 0.         -0.          0.         -0.          0.         -0.         -0.         -0.         -0.         -0.          0.         -0.          0.
  -0.         -0.         -0.          0.          0.         -0.          0.          0.          0.          0.          0.          0.          0.
  -0.         -0.        ]
 [ 0.         -0.          0.         -0.          0.         -0.         -0.         -0.         -0.         -0.          0.         -0.          0.
  -0.         -0.         -0.          0.          0.         -0.          0.          0.          0.          0.          0.          0.          0.
  -0.         -0.        ]
 [-0.          0.         -0.          0.         -0.          0.          0.          0.          0.          0.         -0.          0.         -0.
   0.          0.          0.         -0.         -0.          0.         -0.         -0.         -0.         -0.         -0.         -0.         -0.
   0.          0.        ]
 [ 0.         -0.          0.         -0.          0.         -0.         -0.         -0.         -0.         -0.          0.         -0.          0.
  -0.         -0.         -0.          0.          0.         -0.          0.          0.          0.          0.          0.          0.          0.
  -0.         -0.        ]
 [ 0.0369594  -0.          0.         -0.01010087  0.00806791 -0.         -0.         -0.         -0.         -0.00087404  0.00093155 -0.          0.
  -0.         -0.         -0.00202898  0.          0.         -0.          0.          0.00154652  0.00076053  0.00112222  0.          0.          0.00133311
  -0.00114357 -0.00058423]
 [ 0.01817538 -0.          0.         -0.00496727  0.00396753 -0.         -0.         -0.         -0.         -0.00042982  0.00045811 -0.          0.
  -0.         -0.         -0.00099778  0.          0.         -0.          0.          0.00076053  0.000374    0.00055187  0.          0.          0.00065558
  -0.00056237 -0.0002873 ]
 [ 0.02681927 -0.          0.         -0.00732961  0.00585441 -0.         -0.         -0.         -0.         -0.00063424  0.00067597 -0.          0.
  -0.         -0.         -0.00147231  0.          0.         -0.          0.          0.00112222  0.00055187  0.00081433  0.          0.          0.00096736
  -0.00082982 -0.00042394]
 [ 0.         -0.          0.         -0.          0.         -0.         -0.         -0.         -0.         -0.          0.         -0.          0.
  -0.         -0.         -0.          0.          0.         -0.          0.          0.          0.          0.          0.          0.          0.
  -0.         -0.        ]
 [ 0.         -0.          0.         -0.          0.         -0.         -0.         -0.         -0.         -0.          0.         -0.          0.
  -0.         -0.         -0.          0.          0.         -0.          0.          0.          0.          0.          0.          0.          0.
  -0.         -0.        ]
 [ 0.03185926 -0.          0.         -0.00870702  0.0069546  -0.         -0.         -0.         -0.         -0.00075343  0.000803   -0.          0.
  -0.         -0.         -0.00174899  0.          0.         -0.          0.          0.00133311  0.00065558  0.00096736  0.          0.          0.00114915
  -0.00098576 -0.00050361]
 [-0.02732951  0.         -0.          0.00746906 -0.00596579  0.          0.          0.          0.          0.00064631 -0.00068883  0.         -0.
   0.          0.          0.00150032 -0.         -0.          0.         -0.         -0.00114357 -0.00056237 -0.00082982 -0.         -0.         -0.00098576
   0.00084561  0.00043201]
 [-0.01396214  0.         -0.          0.0038158  -0.00304781  0.          0.          0.          0.          0.00033019 -0.00035191  0.         -0.
   0.          0.          0.00076649 -0.         -0.          0.         -0.         -0.00058423 -0.0002873  -0.00042394 -0.         -0.         -0.00050361
   0.00043201  0.0002207 ]]
**** Start Cycle 2 ****
dm (ortho)
[...]
Feff (mod,ortho)
[[-0.29293611  0.         -0.         ...  0.          0.          0.        ]
 [ 0.          1.36126449  0.         ...  0.          0.          0.        ]
 [-0.          0.          1.36126449 ...  0.          0.          0.        ]
 ...
 [ 0.          0.          0.         ...  1.91560991 -0.00836388  0.00316756]
 [ 0.          0.          0.         ... -0.00836388  1.12606639 -0.17974473]
 [ 0.          0.          0.         ...  0.00316756 -0.17974473  3.2298849 ]]
E(SUHF) =     -1.12906098
e_a, e_b
[-0.53690822  0.14060468  0.32488449  0.5619826   0.67516618  0.67516618  1.01498099  1.06850967  1.06850967  1.48144523  2.49867398  2.63165254  3.21014365
  3.21014365  3.22759543  3.22759543  3.46663498  3.82981444  3.82981444  3.93903289  3.93903289  4.03405775  4.03405775  4.1113628   4.91700392  4.91700392
  4.98995666  6.2316678 ] [-0.53690822  0.14060468  0.32488449  0.5619826   0.67516618  0.67516618  1.01498099  1.06850967  1.06850967  1.48144523  2.49867398  2.63165254  3.21014365
  3.21014365  3.22759543  3.22759543  3.46663498  3.82981444  3.82981444  3.93903289  3.93903289  4.03405775  4.03405775  4.1113628   4.91700392  4.91700392
  4.98995666  6.2316678 ]
P_a, P_b
[[ 0.8135091  -0.         -0.          0.33324805  0.17717989  0.         -0.          0.         -0.          0.05144475  0.02510409  0.          0.
   0.         -0.         -0.05419265  0.          0.          0.         -0.         -0.00562461 -0.02394447  0.02736961  0.          0.          0.03339654
   0.00653493  0.02322378]
 [-0.          0.          0.         -0.         -0.         -0.          0.         -0.          0.         -0.         -0.         -0.         -0.
  -0.          0.          0.         -0.         -0.         -0.          0.          0.          0.         -0.         -0.         -0.         -0.
  -0.         -0.        ]
 [-0.          0.          0.         -0.         -0.         -0.          0.         -0.          0.         -0.         -0.         -0.         -0.
  -0.          0.          0.         -0.         -0.         -0.          0.          0.          0.         -0.         -0.         -0.         -0.
  -0.         -0.        ]
 [ 0.33324805 -0.         -0.          0.13651262  0.07258044  0.         -0.          0.         -0.          0.02107397  0.01028371  0.          0.
   0.         -0.         -0.02219962  0.          0.          0.         -0.         -0.00230408 -0.00980868  0.01121176  0.          0.          0.01368065
   0.00267699  0.00951345]
 [ 0.17717989 -0.         -0.          0.07258044  0.03858926  0.         -0.          0.         -0.          0.01120452  0.0054676   0.          0.
   0.         -0.         -0.011803    0.          0.          0.         -0.         -0.00122502 -0.00521504  0.00596102  0.          0.          0.00727367
   0.00142329  0.00505807]
 [ 0.         -0.         -0.          0.          0.          0.         -0.          0.         -0.          0.          0.          0.          0.
   0.         -0.         -0.          0.          0.          0.         -0.         -0.         -0.          0.          0.          0.          0.
   0.          0.        ]
 [-0.          0.          0.         -0.         -0.         -0.          0.         -0.          0.         -0.         -0.         -0.         -0.
  -0.          0.          0.         -0.         -0.         -0.          0.          0.          0.         -0.         -0.         -0.         -0.
  -0.         -0.        ]
 [ 0.         -0.         -0.          0.          0.          0.         -0.          0.         -0.          0.          0.          0.          0.
   0.         -0.         -0.          0.          0.          0.         -0.         -0.         -0.          0.          0.          0.          0.
   0.          0.        ]
 [-0.          0.          0.         -0.         -0.         -0.          0.         -0.          0.         -0.         -0.         -0.         -0.
  -0.          0.          0.         -0.         -0.         -0.          0.          0.          0.         -0.         -0.         -0.         -0.
  -0.         -0.        ]
 [ 0.05144475 -0.         -0.          0.02107397  0.01120452  0.         -0.          0.         -0.          0.00325327  0.00158753  0.          0.
   0.         -0.         -0.00342704  0.          0.          0.         -0.         -0.00035569 -0.0015142   0.0017308   0.          0.          0.00211193
   0.00041326  0.00146863]
 [ 0.02510409 -0.         -0.          0.01028371  0.0054676   0.         -0.          0.         -0.          0.00158753  0.00077469  0.          0.
   0.         -0.         -0.00167233  0.          0.          0.         -0.         -0.00017357 -0.0007389   0.0008446   0.          0.          0.00103058
   0.00020166  0.00071666]
 [ 0.         -0.         -0.          0.          0.          0.         -0.          0.         -0.          0.          0.          0.          0.
   0.         -0.         -0.          0.          0.          0.         -0.         -0.         -0.          0.          0.          0.          0.
   0.          0.        ]
 [ 0.         -0.         -0.          0.          0.          0.         -0.          0.         -0.          0.          0.          0.          0.
   0.         -0.         -0.          0.          0.          0.         -0.         -0.         -0.          0.          0.          0.          0.
   0.          0.        ]
 [ 0.         -0.         -0.          0.          0.          0.         -0.          0.         -0.          0.          0.          0.          0.
   0.         -0.         -0.          0.          0.          0.         -0.         -0.         -0.          0.          0.          0.          0.
   0.          0.        ]
 [-0.          0.          0.         -0.         -0.         -0.          0.         -0.          0.         -0.         -0.         -0.         -0.
  -0.          0.          0.         -0.         -0.         -0.          0.          0.          0.         -0.         -0.         -0.         -0.
  -0.         -0.        ]
 [-0.05419265  0.          0.         -0.02219962 -0.011803   -0.          0.         -0.          0.         -0.00342704 -0.00167233 -0.         -0.
  -0.          0.          0.00361009 -0.         -0.         -0.          0.          0.00037469  0.00159508 -0.00182325 -0.         -0.         -0.00222474
  -0.00043533 -0.00154707]
 [ 0.         -0.         -0.          0.          0.          0.         -0.          0.         -0.          0.          0.          0.          0.
   0.         -0.         -0.          0.          0.          0.         -0.         -0.         -0.          0.          0.          0.          0.
   0.          0.        ]
 [ 0.         -0.         -0.          0.          0.          0.         -0.          0.         -0.          0.          0.          0.          0.
   0.         -0.         -0.          0.          0.          0.         -0.         -0.         -0.          0.          0.          0.          0.
   0.          0.        ]
 [ 0.         -0.         -0.          0.          0.          0.         -0.          0.         -0.          0.          0.          0.          0.
   0.         -0.         -0.          0.          0.          0.         -0.         -0.         -0.          0.          0.          0.          0.
   0.          0.        ]
 [-0.          0.          0.         -0.         -0.         -0.          0.         -0.          0.         -0.         -0.         -0.         -0.
  -0.          0.          0.         -0.         -0.         -0.          0.          0.          0.         -0.         -0.         -0.         -0.
  -0.         -0.        ]
 [-0.00562461  0.          0.         -0.00230408 -0.00122502 -0.          0.         -0.          0.         -0.00035569 -0.00017357 -0.         -0.
  -0.          0.          0.00037469 -0.         -0.         -0.          0.          0.00003889  0.00016555 -0.00018923 -0.         -0.         -0.0002309
  -0.00004518 -0.00016057]
 [-0.02394447  0.          0.         -0.00980868 -0.00521504 -0.          0.         -0.          0.         -0.0015142  -0.0007389  -0.         -0.
  -0.          0.          0.00159508 -0.         -0.         -0.          0.          0.00016555  0.00070477 -0.00080559 -0.         -0.         -0.00098298
  -0.00019235 -0.00068356]
 [ 0.02736961 -0.         -0.          0.01121176  0.00596102  0.         -0.          0.         -0.          0.0017308   0.0008446   0.          0.
   0.         -0.         -0.00182325  0.          0.          0.         -0.         -0.00018923 -0.00080559  0.00092082  0.          0.          0.00112359
   0.00021986  0.00078134]
 [ 0.         -0.         -0.          0.          0.          0.         -0.          0.         -0.          0.          0.          0.          0.
   0.         -0.         -0.          0.          0.          0.         -0.         -0.         -0.          0.          0.          0.          0.
   0.          0.        ]
 [ 0.         -0.         -0.          0.          0.          0.         -0.          0.         -0.          0.          0.          0.          0.
   0.         -0.         -0.          0.          0.          0.         -0.         -0.         -0.          0.          0.          0.          0.
   0.          0.        ]
 [ 0.03339654 -0.         -0.          0.01368065  0.00727367  0.         -0.          0.         -0.          0.00211193  0.00103058  0.          0.
   0.         -0.         -0.00222474  0.          0.          0.         -0.         -0.0002309  -0.00098298  0.00112359  0.          0.          0.00137101
   0.00026827  0.00095339]
 [ 0.00653493 -0.         -0.          0.00267699  0.00142329  0.         -0.          0.         -0.          0.00041326  0.00020166  0.          0.
   0.         -0.         -0.00043533  0.          0.          0.         -0.         -0.00004518 -0.00019235  0.00021986  0.          0.          0.00026827
   0.0000525   0.00018656]
 [ 0.02322378 -0.         -0.          0.00951345  0.00505807  0.         -0.          0.         -0.          0.00146863  0.00071666  0.          0.
   0.         -0.         -0.00154707  0.          0.          0.         -0.         -0.00016057 -0.00068356  0.00078134  0.          0.          0.00095339
   0.00018656  0.00066298]] 
 [[ 0.8135091  -0.          0.         -0.33324805  0.17717989 -0.          0.         -0.          0.         -0.05144475  0.02510409 -0.         -0.
  -0.          0.         -0.05419265  0.          0.         -0.         -0.          0.00562461  0.02394447  0.02736961  0.          0.          0.03339654
  -0.00653493 -0.02322378]
 [-0.          0.         -0.          0.         -0.          0.         -0.          0.         -0.          0.         -0.          0.          0.
   0.         -0.          0.         -0.         -0.          0.          0.         -0.         -0.         -0.         -0.         -0.         -0.
   0.          0.        ]
 [ 0.         -0.          0.         -0.          0.         -0.          0.         -0.          0.         -0.          0.         -0.         -0.
  -0.          0.         -0.          0.          0.         -0.         -0.          0.          0.          0.          0.          0.          0.
  -0.         -0.        ]
 [-0.33324805  0.         -0.          0.13651262 -0.07258044  0.         -0.          0.         -0.          0.02107397 -0.01028371  0.          0.
   0.         -0.          0.02219962 -0.         -0.          0.          0.         -0.00230408 -0.00980868 -0.01121176 -0.         -0.         -0.01368065
   0.00267699  0.00951345]
 [ 0.17717989 -0.          0.         -0.07258044  0.03858926 -0.          0.         -0.          0.         -0.01120452  0.0054676  -0.         -0.
  -0.          0.         -0.011803    0.          0.         -0.         -0.          0.00122502  0.00521504  0.00596102  0.          0.          0.00727367
  -0.00142329 -0.00505807]
 [-0.          0.         -0.          0.         -0.          0.         -0.          0.         -0.          0.         -0.          0.          0.
   0.         -0.          0.         -0.         -0.          0.          0.         -0.         -0.         -0.         -0.         -0.         -0.
   0.          0.        ]
 [ 0.         -0.          0.         -0.          0.         -0.          0.         -0.          0.         -0.          0.         -0.         -0.
  -0.          0.         -0.          0.          0.         -0.         -0.          0.          0.          0.          0.          0.          0.
  -0.         -0.        ]
 [-0.          0.         -0.          0.         -0.          0.         -0.          0.         -0.          0.         -0.          0.          0.
   0.         -0.          0.         -0.         -0.          0.          0.         -0.         -0.         -0.         -0.         -0.         -0.
   0.          0.        ]
 [ 0.         -0.          0.         -0.          0.         -0.          0.         -0.          0.         -0.          0.         -0.         -0.
  -0.          0.         -0.          0.          0.         -0.         -0.          0.          0.          0.          0.          0.          0.
  -0.         -0.        ]
 [-0.05144475  0.         -0.          0.02107397 -0.01120452  0.         -0.          0.         -0.          0.00325327 -0.00158753  0.          0.
   0.         -0.          0.00342704 -0.         -0.          0.          0.         -0.00035569 -0.0015142  -0.0017308  -0.         -0.         -0.00211193
   0.00041326  0.00146863]
 [ 0.02510409 -0.          0.         -0.01028371  0.0054676  -0.          0.         -0.          0.         -0.00158753  0.00077469 -0.         -0.
  -0.          0.         -0.00167233  0.          0.         -0.         -0.          0.00017357  0.0007389   0.0008446   0.          0.          0.00103058
  -0.00020166 -0.00071666]
 [-0.          0.         -0.          0.         -0.          0.         -0.          0.         -0.          0.         -0.          0.          0.
   0.         -0.          0.         -0.         -0.          0.          0.         -0.         -0.         -0.         -0.         -0.         -0.
   0.          0.        ]
 [-0.          0.         -0.          0.         -0.          0.         -0.          0.         -0.          0.         -0.          0.          0.
   0.         -0.          0.         -0.         -0.          0.          0.         -0.         -0.         -0.         -0.         -0.         -0.
   0.          0.        ]
 [-0.          0.         -0.          0.         -0.          0.         -0.          0.         -0.          0.         -0.          0.          0.
   0.         -0.          0.         -0.         -0.          0.          0.         -0.         -0.         -0.         -0.         -0.         -0.
   0.          0.        ]
 [ 0.         -0.          0.         -0.          0.         -0.          0.         -0.          0.         -0.          0.         -0.         -0.
  -0.          0.         -0.          0.          0.         -0.         -0.          0.          0.          0.          0.          0.          0.
  -0.         -0.        ]
 [-0.05419265  0.         -0.          0.02219962 -0.011803    0.         -0.          0.         -0.          0.00342704 -0.00167233  0.          0.
   0.         -0.          0.00361009 -0.         -0.          0.          0.         -0.00037469 -0.00159508 -0.00182325 -0.         -0.         -0.00222474
   0.00043533  0.00154707]
 [ 0.         -0.          0.         -0.          0.         -0.          0.         -0.          0.         -0.          0.         -0.         -0.
  -0.          0.         -0.          0.          0.         -0.         -0.          0.          0.          0.          0.          0.          0.
  -0.         -0.        ]
 [ 0.         -0.          0.         -0.          0.         -0.          0.         -0.          0.         -0.          0.         -0.         -0.
  -0.          0.         -0.          0.          0.         -0.         -0.          0.          0.          0.          0.          0.          0.
  -0.         -0.        ]
 [-0.          0.         -0.          0.         -0.          0.         -0.          0.         -0.          0.         -0.          0.          0.
   0.         -0.          0.         -0.         -0.          0.          0.         -0.         -0.         -0.         -0.         -0.         -0.
   0.          0.        ]
 [-0.          0.         -0.          0.         -0.          0.         -0.          0.         -0.          0.         -0.          0.          0.
   0.         -0.          0.         -0.         -0.          0.          0.         -0.         -0.         -0.         -0.         -0.         -0.
   0.          0.        ]
 [ 0.00562461 -0.          0.         -0.00230408  0.00122502 -0.          0.         -0.          0.         -0.00035569  0.00017357 -0.         -0.
  -0.          0.         -0.00037469  0.          0.         -0.         -0.          0.00003889  0.00016555  0.00018923  0.          0.          0.0002309
  -0.00004518 -0.00016057]
 [ 0.02394447 -0.          0.         -0.00980868  0.00521504 -0.          0.         -0.          0.         -0.0015142   0.0007389  -0.         -0.
  -0.          0.         -0.00159508  0.          0.         -0.         -0.          0.00016555  0.00070477  0.00080559  0.          0.          0.00098298
  -0.00019235 -0.00068356]
 [ 0.02736961 -0.          0.         -0.01121176  0.00596102 -0.          0.         -0.          0.         -0.0017308   0.0008446  -0.         -0.
  -0.          0.         -0.00182325  0.          0.         -0.         -0.          0.00018923  0.00080559  0.00092082  0.          0.          0.00112359
  -0.00021986 -0.00078134]
 [ 0.         -0.          0.         -0.          0.         -0.          0.         -0.          0.         -0.          0.         -0.         -0.
  -0.          0.         -0.          0.          0.         -0.         -0.          0.          0.          0.          0.          0.          0.
  -0.         -0.        ]
 [ 0.         -0.          0.         -0.          0.         -0.          0.         -0.          0.         -0.          0.         -0.         -0.
  -0.          0.         -0.          0.          0.         -0.         -0.          0.          0.          0.          0.          0.          0.
  -0.         -0.        ]
 [ 0.03339654 -0.          0.         -0.01368065  0.00727367 -0.          0.         -0.          0.         -0.00211193  0.00103058 -0.         -0.
  -0.          0.         -0.00222474  0.          0.         -0.         -0.          0.0002309   0.00098298  0.00112359  0.          0.          0.00137101
  -0.00026827 -0.00095339]
 [-0.00653493  0.         -0.          0.00267699 -0.00142329  0.         -0.          0.         -0.          0.00041326 -0.00020166  0.          0.
   0.         -0.          0.00043533 -0.         -0.          0.          0.         -0.00004518 -0.00019235 -0.00021986 -0.         -0.         -0.00026827
   0.0000525   0.00018656]
 [-0.02322378  0.         -0.          0.00951345 -0.00505807  0.         -0.          0.         -0.          0.00146863 -0.00071666  0.          0.
   0.         -0.          0.00154707 -0.         -0.          0.          0.         -0.00016057 -0.00068356 -0.00078134 -0.         -0.         -0.00095339
   0.00018656  0.00066298]]

***************
SUHF converged at cycle 33
Final E(SUHF) =     -1.12906098, delta E = -8.86003e-09
***** Start DFT Correlation for SUHF+DFT **********
tot grids = 20048
E(SUHF) =     -1.12906098
E_c(TPSS) =     -0.03211309
E(SUHF+DFT) =     -1.16117407
