

#INFO: **** input file is /share/home/srwang/ExSCF/test/pytest/scan_h2/scan_dft.py ****
#import phf
from pyscf import lib
#import scipy
import numpy as np
import sys, os, contextlib

from pyphf import util, sudft

#xyz = 'h2.xyz' #sys.argv[1]
fch = 'test_uhf.fchk' #sys.argv[2]
#bas = '../h2.bas'
bas = 'cc-pvtz'

lib.num_threads(4)

for r in np.arange(0.5, 2.55, 0.1):
    output = 'tpss_mod/sudft_%.1f_diis_mod.out' % r
    os.system("echo '\n' > %s" % output)
    with open(output, 'a', encoding='utf-8') as f:
        with contextlib.redirect_stdout(f):
            xyz = '''H 0.0 0.0 0.0; H 0.0 0.0 %f'''%r
            mf = util.guess_from_fchk(xyz, bas, fch)
            #mf = util.guess(xyz, bas)
            #f.flush()
            mf2 = util.SUHF(mf)
            #mf2.cut_no = False
            mf2.debug = False
            #mf2.max_cycle = 50
            mf2.diis_on = True
            #mf2.output = 'sudft_%.1f.out'%r
            #mf2.kernel()
            
            mf3 = sudft.SUDFT(mf2)
            mf3.suxc = 'TPSS'
            mf3.kernel()
                    
#INFO: ******************** input file end ********************


System: uname_result(system='Linux', node='xc02n18', release='3.10.0-693.el7.x86_64', version='#1 SMP Thu Jul 6 19:56:57 EDT 2017', machine='x86_64', processor='x86_64')  Threads 4
Python 3.7.4 (default, Aug 13 2019, 20:35:49) 
[GCC 7.3.0]
numpy 1.17.2  scipy 1.4.1
Date: Tue Nov 24 03:43:40 2020
PySCF version 1.7.5
PySCF path  /share/home/srwang/pyscf-1.7.5/pyscf

[CONFIG] conf_file None
[INPUT] verbose = 4
[INPUT] num. atoms = 2
[INPUT] num. electrons = 2
[INPUT] charge = 0
[INPUT] spin (= nelec alpha-beta = 2S) = 0
[INPUT] symmetry False subgroup None
[INPUT] Mole.unit = angstrom
[INPUT]  1 H      0.000000000000   0.000000000000   0.000000000000 AA    0.000000000000   0.000000000000   0.000000000000 Bohr
[INPUT]  2 H      0.000000000000   0.000000000000   0.500000000000 AA    0.000000000000   0.000000000000   0.944863062283 Bohr

nuclear repulsion = 1.05835442184
number of shells = 12
number of NR pGTOs = 32
number of NR cGTOs = 28
basis = cc-pvtz
ecp = {}
CPU time:         0.83


******** <class 'pyscf.scf.uhf.UHF'> ********
method = UHF
initial guess = minao
damping factor = 0
level_shift factor = 0
DIIS = <class 'pyscf.scf.diis.CDIIS'>
diis_start_cycle = 1
diis_space = 8
SCF conv_tol = 1e-09
SCF conv_tol_grad = None
SCF max_cycles = 1
direct_scf = True
direct_scf_tol = 1e-13
chkfile to save SCF result = /share/home/srwang/ExSCF/test/pytest/scan_h2/tmpfl7dzjtt
max_memory 4000 MB (current use 100 MB)
number electrons alpha = 1  beta = 1
Set gradient conv threshold to 3.16228e-05
init E= -0.778367426554207
  alpha nocc = 1  HOMO = -0.705289662305322  LUMO = 0.163386946040731
  beta  nocc = 1  HOMO = -0.697577488386255  LUMO = 0.16406112918995
cycle= 1 E= -1.06223413443537  delta_E= -0.284  |g|= 0.0333  |ddm|= 0.331
SCF not converged.
SCF energy = -1.06223413443537 after 1 cycles  <S^2> = 2.3214814e-06  2S+1 = 1.0000046


******** <class 'pyscf.scf.uhf.UHF'> ********
method = UHF
initial guess = minao
damping factor = 0
level_shift factor = 0
DIIS = <class 'pyscf.scf.diis.CDIIS'>
diis_start_cycle = 1
diis_space = 8
SCF conv_tol = 1e-09
SCF conv_tol_grad = None
SCF max_cycles = 1
direct_scf = True
direct_scf_tol = 1e-13
chkfile to save SCF result = /share/home/srwang/ExSCF/test/pytest/scan_h2/tmpfl7dzjtt
max_memory 4000 MB (current use 114 MB)
number electrons alpha = 1  beta = 1
Set gradient conv threshold to 3.16228e-05
init E= -1.18452871429633
  alpha nocc = 1  HOMO = -0.630087264703209  LUMO = 0.279420177478471
  beta  nocc = 1  HOMO = -0.630087264703208  LUMO = 0.279420177478474
cycle= 1 E= -1.04603968404656  delta_E= 0.138  |g|= 0.122  |ddm|= 0.253
SCF not converged.
SCF energy = -1.04603968404656 after 1 cycles  <S^2> = 0.039484129  2S+1 = 1.0760746

******** <class 'pyphf.util.SUHF'> ********
max_cycle = 70
verbose: normal
DIIS: <class 'pyscf.scf.diis.CDIIS'>
diis_start_cyc = 40
SVD: S^(-1/2)
[[-1.65351356e-01 -4.83556295e-18 -4.76791326e-16  1.56295463e-01
   1.45002068e-01 -9.79139285e-18 -1.36201282e-19  2.87489078e-17
  -2.56229081e-17 -3.14029670e-01 -1.26008394e-15 -3.49063119e-17
  -1.52159881e-01 -1.49824533e-01  7.76085504e-16  2.13033243e-16
   7.53484873e-18  9.73590267e-19  4.53903305e-01 -4.86496442e-01
   5.60553968e-15 -3.17043527e-16  2.10828979e+00 -8.60365518e-14
  -5.56055791e-15 -2.88462884e+00  2.45264135e+00 -2.40910588e-01]
 [-2.12299108e-01 -1.56418702e-17 -2.75490971e-16  8.59668175e-02
  -5.76667323e-02  1.99594514e-17 -2.15191545e-17 -4.50633256e-18
  -3.29929365e-17  3.61472497e-02  9.63455964e-16 -7.90384412e-16
   9.87568127e-02 -3.77589001e-01 -1.13517507e-15 -1.27350725e-16
   1.34276543e-16  1.53815203e-16 -2.03853129e-01  1.30274423e+00
  -1.53061335e-14 -7.73601224e-16 -9.29581078e-01 -1.05174376e-15
   5.81395322e-15 -1.85642591e-01 -1.31144366e-01 -3.71312488e+01]
 [-1.87172838e-01  5.56619233e-18 -6.05734872e-17  2.68576453e-02
  -2.17303535e-01  5.54248313e-17  2.19991487e-18 -4.84748968e-17
   1.54119789e-16  2.61195270e-01  3.74103277e-16  2.09208016e-16
   5.69466821e-02  4.80269593e-01  3.36942688e-16  2.97727242e-17
   2.00264818e-16 -1.57253261e-17 -1.67175326e-01 -7.88766303e-01
   8.77960788e-15  6.22504112e-16  1.55252818e-01 -1.06221790e-13
   3.26625734e-14 -2.70732658e+00 -3.81812070e+00  3.82125531e+00]
 [ 0.00000000e+00 -1.29093325e-02  2.65905594e-01  8.96094533e-16
   0.00000000e+00  2.06015561e-16  3.36995568e-16  1.73370331e-01
  -2.43706394e-01 -7.27238150e-17  1.94122321e-01 -7.20972081e-03
  -1.49285537e-15 -1.06175292e-15  7.40664686e-01  2.98226909e-01
   1.11700537e-15  2.23184614e-15 -1.48614770e-15 -4.67267636e-15
  -3.90581249e-01 -1.26477902e+00 -6.57804708e-15  4.65033204e-01
  -2.41092687e+00 -2.89438178e-14 -2.38027825e-14  7.64037999e-16]
 [ 0.00000000e+00  2.65905594e-01  1.29093325e-02  5.28357626e-17
   0.00000000e+00  2.22560391e-16  1.96074991e-16  2.43706394e-01
   1.73370331e-01  0.00000000e+00  7.20972081e-03  1.94122321e-01
   0.00000000e+00  2.85856555e-16 -2.98226909e-01  7.40664686e-01
  -6.72161918e-16  2.81108310e-15  5.57305386e-16  1.26244238e-14
   1.26477902e+00 -3.90581249e-01  7.61668609e-15 -2.41092687e+00
  -4.65033204e-01  9.21094436e-14  3.76877390e-15 -8.55722558e-14]
 [-5.33368722e-02  7.80412298e-18  6.72552450e-16 -2.19413511e-01
   3.93477583e-01 -1.87762919e-17  5.12823946e-19 -6.72494153e-17
  -9.24602970e-17  1.54450759e-02  4.71058781e-17 -4.75173548e-17
   1.80319366e-02  6.35094708e-01 -7.47875815e-16  8.06828483e-17
   3.03629766e-17 -3.66552820e-18 -7.83438500e-01  4.92511649e-01
  -4.87629590e-15 -6.50841797e-16 -6.52181058e-01 -5.76762097e-14
  -3.51786118e-15 -1.63483341e+00  2.01439066e+00  8.78988076e-01]
 [ 2.68171013e-20 -1.37864680e-02  2.83972775e-01  9.64031628e-16
   2.24125673e-18  1.23293734e-16  7.77047298e-17  7.83490087e-02
  -1.10135075e-01 -2.83790785e-17 -4.24534338e-01  1.57672443e-02
   3.54829257e-15  4.40106838e-16 -4.32307135e-01 -1.74067460e-01
  -1.32576755e-16 -8.15238958e-16  9.77135773e-16  4.16169862e-15
   4.86307645e-01  1.57475995e+00 -7.16394402e-15  4.70002884e-01
  -2.43669177e+00 -3.19456100e-14 -1.89517167e-14 -1.56749533e-14]
 [ 5.74529542e-22  2.83972775e-01  1.37864680e-02  5.56998578e-17
   1.21827382e-17  2.60782977e-16  3.45260103e-17  1.10135075e-01
   7.83490087e-02 -1.32826044e-17 -1.57672443e-02 -4.24534338e-01
   1.47326425e-16 -7.03087838e-18  1.74067460e-01 -4.32307135e-01
   3.60222268e-16 -1.75022512e-15 -4.43022219e-16 -1.49714509e-14
  -1.57475995e+00  4.86307645e-01  1.06700803e-14 -2.43669177e+00
  -4.70002884e-01  9.22248632e-14  5.14103065e-15 -2.07545991e-14]
 [-5.91336176e-02  1.86817049e-17  8.55980758e-16 -2.97539015e-01
   1.85861970e-01  9.36125307e-18 -6.38393291e-18 -4.29825593e-17
   9.85955415e-17  2.39359871e-02 -2.69685882e-15 -1.90789454e-16
  -3.28008512e-01 -4.05470641e-01  7.07676819e-16 -3.70943006e-17
   1.22102233e-16  4.56310858e-17  5.42461781e-01 -1.24872158e+00
   1.20493995e-14  5.07696533e-16 -2.06985010e+00 -2.54198240e-14
   1.45309836e-14 -3.63172367e-01 -7.91038932e-01 -1.10105392e+01]
 [ 0.00000000e+00 -8.43055406e-17 -2.40872973e-17  0.00000000e+00
   0.00000000e+00  5.54894619e-01  2.35995429e-09 -7.22464119e-16
   3.58816232e-16  0.00000000e+00  1.98669076e-16  2.55431669e-16
  -1.09515217e-22  0.00000000e+00 -5.93010186e-16  1.21360224e-16
   1.15295164e+00 -1.58346914e-08 -1.81414514e-19  0.00000000e+00
   1.03179356e-15  8.63337471e-16  0.00000000e+00 -1.49305902e-15
   1.57487047e-15  0.00000000e+00  0.00000000e+00 -2.86514249e-16]
 [ 1.42378244e-22  1.24998243e-01  6.06848415e-03  2.45124457e-17
  -2.81668324e-17 -1.80201271e-16 -3.34186275e-16 -3.82666325e-01
  -2.72225058e-01  5.03362633e-17  2.04831920e-02  5.51511614e-01
  -2.66482752e-16 -4.75398002e-16  2.38961629e-01 -5.93475754e-01
  -5.62292639e-16 -2.73657242e-15 -7.66642608e-16  3.52218867e-15
   3.52261019e-01 -1.08783073e-01  9.33879292e-15 -2.23673595e+00
  -4.31434274e-01  8.48698396e-14  3.57143882e-15 -9.38138431e-14]
 [-1.49195599e-02 -1.20272188e-17  4.09436666e-16 -1.27762178e-01
  -2.03620463e-01 -8.05834026e-18 -1.98627521e-19 -2.68863037e-17
  -2.09098135e-16 -4.60916447e-01  5.27101852e-15  1.29696794e-17
   6.25194747e-01  3.44853038e-01  1.46168455e-15 -2.60160679e-16
   5.21151758e-17  1.41971450e-18  4.65098011e-01 -6.17022745e-02
   6.87857691e-16 -7.57202953e-16 -1.55067787e+00 -2.90256126e-14
   3.78214760e-15 -5.69522475e-01  4.92300125e-01 -3.43415225e-01]
 [ 4.40333315e-21 -6.06848415e-03  1.24998243e-01  4.23722322e-16
   3.49413695e-17 -3.73094282e-16 -4.45067355e-16 -2.72225058e-01
   3.82666325e-01 -7.59988118e-17  5.51511614e-01 -2.04831920e-02
  -4.75813496e-15  6.55496134e-16 -5.93475754e-01 -2.38961629e-01
  -5.56446670e-16 -1.90037300e-15  1.29987348e-15 -2.13918402e-15
  -1.08783073e-01 -3.52261019e-01 -6.27457317e-15  4.31434274e-01
  -2.23673595e+00 -2.75205603e-14 -1.90457815e-14  4.82263553e-15]
 [ 0.00000000e+00  6.02182433e-17 -8.15455378e-19  0.00000000e+00
   0.00000000e+00 -2.35995422e-09  5.54894619e-01 -4.04804798e-16
   2.02402399e-16  0.00000000e+00  0.00000000e+00 -1.13525186e-16
   0.00000000e+00 -1.48562870e-28  1.47838818e-15  5.07506392e-15
  -1.58346914e-08 -1.15295164e+00  2.36537605e-27 -7.32929511e-24
  -2.52684138e-16  1.60033287e-15 -1.47918154e-20  1.47260615e-15
  -4.90868718e-16 -2.07834169e-19 -5.81122620e-19 -6.11230399e-15]
 [-1.65351356e-01 -2.59076534e-18  5.17751177e-16 -1.56295463e-01
   1.45002068e-01  2.23907603e-17  1.36860140e-19  7.45624485e-17
   3.28257027e-17 -3.14029670e-01  1.26736019e-15  6.30812554e-17
   1.52159881e-01 -1.49824533e-01 -1.14092886e-15  1.85782077e-16
  -1.12410879e-16 -9.78189735e-19 -4.53903305e-01 -4.86496442e-01
   4.94397468e-15  1.08491924e-15  2.10828979e+00  1.11139300e-13
  -5.03516331e-15  2.88462884e+00 -2.45264135e+00  2.40910588e-01]
 [-2.12299108e-01  1.78274428e-17  2.27141791e-16 -8.59668175e-02
  -5.76667323e-02 -2.39020591e-17  2.15188646e-17  5.95869058e-18
  -5.10383950e-18  3.61472497e-02 -8.81786598e-16  7.63748428e-16
  -9.87568127e-02 -3.77589001e-01 -1.39492373e-16 -2.22318902e-16
  -9.35225691e-17 -1.53813179e-16  2.03853129e-01  1.30274423e+00
  -1.24268728e-14 -3.84751766e-16 -9.29581078e-01 -8.71376627e-15
  -2.37091999e-15  1.85642591e-01  1.31144366e-01  3.71312488e+01]
 [-1.87172838e-01 -6.43110527e-18  1.04839317e-16 -2.68576453e-02
  -2.17303535e-01 -5.56111636e-17 -2.19986676e-18  2.08157614e-17
  -6.67242738e-17  2.61195270e-01 -4.48548803e-16 -2.07962489e-16
  -5.69466821e-02  4.80269593e-01  1.12321070e-15  8.93914526e-17
  -2.04205654e-16  1.57249899e-17  1.67175326e-01 -7.88766303e-01
   8.24193651e-15 -5.10785265e-17  1.55252818e-01  1.07161498e-13
  -3.29045740e-14  2.70732658e+00  3.81812070e+00 -3.82125531e+00]
 [ 2.33761312e-20 -1.29093325e-02  2.65905594e-01  9.02523503e-16
   1.96779560e-17 -3.70946101e-16 -3.01185002e-16 -1.73370331e-01
   2.43706394e-01 -9.15474404e-17  1.94122321e-01 -7.20972081e-03
  -1.62371139e-15 -6.21492967e-16  7.40664686e-01  2.98226909e-01
  -4.83272966e-17  2.42531583e-15 -1.68850470e-15  5.43598238e-15
   3.90581249e-01  1.26477902e+00  5.87533996e-15 -4.65033204e-01
   2.41092687e+00  2.86885747e-14  2.14487853e-14 -3.23728487e-16]
 [ 1.03336400e-21  2.65905594e-01  1.29093325e-02  5.22959712e-17
  -3.05570206e-17  1.14941433e-17 -2.94768912e-16 -2.43706394e-01
  -1.73370331e-01  3.33934510e-18  7.20972081e-03  1.94122321e-01
  -3.50198182e-17  5.59567856e-16 -2.98226909e-01  7.40664686e-01
   4.17027647e-16  3.29351011e-15  9.96968307e-16 -1.22415058e-14
  -1.26477902e+00  3.90581249e-01 -9.26954371e-15  2.41092687e+00
   4.65033204e-01 -9.18962473e-14 -3.82052774e-15  6.58902395e-14]
 [ 5.33368722e-02  6.06592471e-18  6.66731029e-16 -2.19413511e-01
  -3.93477583e-01 -1.53921360e-17  5.13027573e-19  9.81500012e-17
   1.05097444e-16 -1.54450759e-02  1.61371053e-16  9.54411187e-18
   1.80319366e-02 -6.35094708e-01 -2.24979212e-15  3.21489843e-16
  -2.96743366e-19 -3.66694991e-18 -7.83438500e-01 -4.92511649e-01
   4.60964079e-15  7.39879264e-19  6.52181058e-01 -5.02912343e-14
  -4.77849719e-15 -1.63483341e+00  2.01439066e+00  8.78988076e-01]
 [ 2.14445345e-20 -1.37864680e-02  2.83972775e-01  9.63634162e-16
   1.90037599e-17 -1.54640183e-18 -1.00809245e-16 -7.83490087e-02
   1.10135075e-01 -5.14017805e-17 -4.24534338e-01  1.57672443e-02
   3.61661652e-15  5.87989779e-16 -4.32307135e-01 -1.74067460e-01
  -1.92456802e-16 -1.85563268e-15  8.78043164e-16 -4.85640285e-15
  -4.86307645e-01 -1.57475995e+00  6.82925539e-15 -4.70002884e-01
   2.43669177e+00  3.05979993e-14  1.95727974e-14  7.96553080e-15]
 [ 3.06739574e-22  2.83972775e-01  1.37864680e-02  5.56497220e-17
  -1.29604406e-18  1.94794478e-16 -1.06961290e-16 -1.10135075e-01
  -7.83490087e-02  2.01639717e-17 -1.57672443e-02 -4.24534338e-01
   1.18152782e-16 -5.71097803e-16  1.74067460e-01 -4.32307135e-01
   1.75570422e-16 -1.60698140e-15 -4.85925899e-16  1.47526893e-14
   1.57475995e+00 -4.86307645e-01 -9.98775780e-15  2.43669177e+00
   4.70002884e-01 -9.22835068e-14 -5.15513074e-15  6.73972567e-14]
 [ 5.91336176e-02  7.99636173e-19  8.76997818e-16 -2.97539015e-01
  -1.85861970e-01  2.43004184e-17 -6.38328513e-18 -2.48483076e-17
   2.18208772e-18 -2.39359871e-02 -2.76509500e-15 -2.53896781e-16
  -3.28008512e-01  4.05470641e-01  1.37553136e-15 -7.66798359e-17
   1.03327248e-17  4.56265646e-17  5.42461781e-01  1.24872158e+00
  -1.24074670e-14 -4.38368251e-16  2.06985010e+00  1.28675331e-15
  -4.01053130e-16 -3.63172367e-01 -7.91038932e-01 -1.10105392e+01]
 [-3.80905074e-36 -1.20101033e-16  3.00556416e-18 -2.81178293e-31
   1.57740241e-26  5.54894619e-01  2.35995418e-09 -3.41095743e-16
   1.54454325e-16 -2.20857267e-25 -8.66194607e-17  3.22524669e-17
  -1.13095957e-22 -1.76355386e-20  1.03896436e-15  1.37047908e-16
  -1.15295164e+00  1.58346915e-08  1.70464313e-19  4.71587544e-18
  -9.70065228e-16 -4.30085597e-16  5.89823608e-17  5.52285102e-16
  -1.65177779e-15 -6.17628581e-17 -3.16579668e-16  1.59070159e-15]
 [ 4.15595750e-22 -1.24998243e-01 -6.06848415e-03 -2.43409515e-17
  -4.87084598e-17 -2.75295418e-16 -2.42587242e-16 -3.82666325e-01
  -2.72225058e-01  1.88983200e-17 -2.04831920e-02 -5.51511614e-01
   1.91040542e-16  2.56247065e-17 -2.38961629e-01  5.93475754e-01
  -3.96080113e-16  2.30653751e-15  3.71290463e-16  3.56118752e-15
   3.52261019e-01 -1.08783073e-01  8.66506236e-15 -2.23673595e+00
  -4.31434274e-01  8.47304291e-14  2.52102555e-15 -2.78546302e-14]
 [-1.49195599e-02 -2.35568004e-18 -5.53239546e-16  1.27762178e-01
  -2.03620463e-01 -1.82981053e-18  1.98142695e-19 -7.09671810e-17
   5.42040238e-17 -4.60916447e-01 -5.41764386e-15 -8.35081006e-18
  -6.25194747e-01  3.44853038e-01 -3.25085427e-16  3.96423320e-17
   2.71331520e-17 -1.41633018e-18 -4.65098011e-01 -6.17022745e-02
   4.43879362e-16  1.32480521e-16 -1.55067787e+00  1.02464342e-14
   3.94835638e-15  5.69522475e-01 -4.92300125e-01  3.43415225e-01]
 [-2.14123964e-20  6.06848415e-03 -1.24998243e-01 -4.25221005e-16
   5.31914662e-17 -4.08142520e-16 -4.48351470e-16 -2.72225058e-01
   3.82666325e-01  4.55454877e-17 -5.51511614e-01  2.04831920e-02
   4.94603271e-15 -9.40699823e-16  5.93475754e-01  2.38961629e-01
   7.32838470e-16  1.95725777e-15 -1.00540268e-15 -1.41393101e-15
  -1.08783073e-01 -3.52261019e-01 -6.00512819e-15  4.31434274e-01
  -2.23673595e+00 -2.65503707e-14 -1.89045734e-14 -1.04004037e-14]
 [ 0.00000000e+00  3.91045286e-17 -3.63506736e-19  0.00000000e+00
   0.00000000e+00 -2.35995421e-09  5.54894619e-01 -6.74030753e-16
   2.46204736e-16  0.00000000e+00  7.28147705e-17  9.79880756e-17
   0.00000000e+00  2.24080984e-28 -1.47682821e-15 -5.12772786e-15
   1.58346914e-08  1.15295164e+00 -2.33551877e-27  3.90609212e-24
   1.50688416e-16 -7.57959588e-16  7.82440285e-21 -1.24822301e-15
   1.98715921e-15  1.04635002e-19  2.99478565e-19  3.62297368e-15]]
C (ortho)
[[-9.91541059e-01 -6.95816107e-02 -5.49297176e-02 -6.71264024e-02
  -9.59366451e-17 -4.08500864e-17  7.54155312e-17  9.94652817e-17
  -4.05960278e-02 -2.14951473e-02  1.07191546e-03  1.48332087e-02
  -5.59878215e-18  4.18600759e-17 -2.10523012e-17 -7.24848632e-17
  -1.82942531e-17 -5.72904777e-17  3.70285076e-02 -3.75113787e-18
  -1.75298722e-17 -8.50015827e-19 -1.13371328e-16  6.42656312e-04
   2.78499787e-02  3.96367232e-17  3.82010761e-19 -1.76188449e-03]
 [-6.45015598e-17 -2.02707973e-16 -7.27222905e-16  1.59193257e-15
   7.75713095e-02  8.51143643e-01  1.26289535e-03  3.07728190e-02
   7.21065188e-16  1.40228980e-16  1.89351884e-17 -1.17792177e-16
   1.63489131e-15  6.19087387e-16 -3.24310462e-01  3.90333221e-01
   9.00525490e-03 -4.40380154e-02  5.60484510e-16 -6.46901710e-15
  -9.00102708e-17 -8.91733808e-02 -3.27282867e-02 -3.13524382e-16
  -1.11344438e-16  2.80235916e-03  4.75748300e-05 -1.23760246e-17]
 [-3.60516327e-16  2.76098298e-15 -1.13312119e-15  3.08054361e-15
   8.51143643e-01 -7.75713095e-02  3.07728190e-02 -1.26289535e-03
  -1.48387099e-15  2.58032283e-16  3.12553653e-16 -1.17178698e-15
   2.23681807e-15 -1.03959353e-15  3.90333221e-01  3.24310462e-01
  -4.40380154e-02 -9.00525490e-03  8.37154258e-16 -1.21374004e-14
   2.25157752e-16  3.27282867e-02 -8.91733808e-02  9.30516070e-17
  -9.43888420e-18 -4.75748300e-05  2.80235916e-03 -6.61039964e-18]
 [ 9.46422555e-02 -4.48426800e-01 -1.98153962e-02 -7.58847075e-01
   3.91321365e-15  4.35369482e-16  3.88195930e-16  4.09997564e-16
   2.17990489e-02 -3.43387945e-01  1.79916226e-03  3.07045463e-01
  -2.72129544e-17  3.12333299e-16  1.23903753e-15  1.62967329e-15
  -1.84700857e-16  2.22601738e-16 -9.17358886e-03 -3.34770111e-17
  -1.41991489e-16  1.07303690e-16 -8.25145219e-16 -2.95175337e-02
  -2.35576482e-03 -2.61143144e-17  2.04731128e-17  9.11562720e-03]
 [-2.80136906e-02 -2.15181486e-03 -4.69991074e-01  2.93507544e-02
   5.31211181e-16 -7.81642861e-16 -5.59864647e-16 -2.72475126e-16
   6.14698642e-01 -3.61875325e-04 -1.32299836e-01 -1.41619914e-02
   2.28433372e-17 -2.35024503e-16  5.29338406e-16  9.91412950e-16
   4.77570971e-16  6.49287146e-16 -5.98090519e-01  4.90359853e-18
   7.90233900e-17 -3.91414071e-17  1.03506258e-15  5.41870307e-03
  -1.55417647e-01 -1.65794838e-16 -1.50066891e-17  1.70034110e-03]
 [ 1.59355991e-19  6.04960634e-17 -1.99655408e-17  5.39347330e-17
   4.31880249e-16  4.81410097e-16 -5.18443335e-16 -3.85749842e-16
   1.47039054e-16  1.27457210e-16 -5.29949196e-17 -7.39103328e-17
  -1.07017694e-01  9.94213982e-01  1.82716680e-15  6.77147924e-16
   1.81946967e-15 -1.33362128e-15 -1.02390079e-16  2.83490077e-03
   8.81674565e-03 -5.99730768e-16 -7.43437675e-16  2.02928034e-18
   2.25712402e-18  1.42233670e-17 -2.91581438e-16  4.48717063e-18]
 [-1.89827990e-18  4.26655585e-19  2.34921254e-19  3.08692189e-19
  -3.51385069e-16 -1.17705966e-16 -9.40055042e-16 -4.41494706e-16
   3.91356185e-19  1.18260216e-19 -1.48317847e-18 -1.62546058e-18
   9.94213982e-01  1.07017694e-01 -8.69636742e-16 -4.40084028e-15
  -1.62999017e-15 -5.37777237e-16 -5.92016633e-19  8.81674565e-03
  -2.83490077e-03  6.50930000e-16 -9.48193084e-16 -9.23847199e-20
   1.44372828e-19 -1.42473050e-16 -1.37410090e-16 -4.33183810e-20]
 [-2.15146788e-17 -1.83641197e-16 -1.74382244e-16 -7.60875503e-17
   1.76179540e-02  1.86209964e-02 -3.88019570e-01 -4.53395552e-01
  -4.92030727e-16 -3.49807969e-17  5.19116088e-17 -3.17137572e-16
   5.53660942e-16 -8.00272742e-17 -1.58620744e-03  5.99921226e-02
   3.45917317e-01  6.89273815e-01  1.42277911e-15 -6.18139564e-16
   1.12946909e-16 -7.02673983e-03 -1.14044871e-02 -1.72073817e-16
   1.85048147e-16 -1.63848554e-01 -1.33535066e-01  4.59466363e-18]
 [-1.48563200e-18 -2.16395157e-16  1.96687936e-16  1.85730000e-16
  -1.86209964e-02  1.76179540e-02  4.53395552e-01 -3.88019570e-01
   5.09789897e-16  2.40960985e-16  2.53191963e-17  6.90322486e-17
  -6.15262217e-16  1.88825312e-15 -5.99921226e-02 -1.58620744e-03
  -6.89273815e-01  3.45917317e-01 -8.51411392e-17  9.66140014e-16
   2.04413184e-16 -1.14044871e-02  7.02673983e-03 -2.11663370e-16
   2.08924707e-16 -1.33535066e-01  1.63848554e-01 -2.01422748e-17]
 [-5.08447679e-02  9.45776945e-03  5.66474904e-01 -1.12314653e-02
   7.00341589e-16  2.27018170e-16 -2.22992174e-16  1.12705705e-17
   1.73458834e-01  6.00353242e-03  6.62121717e-01  1.71176938e-02
  -3.72180654e-18  4.63474886e-17  1.61585875e-16  9.48447832e-16
   3.79710781e-16  6.80296827e-16 -4.41240026e-01 -2.04365812e-17
  -4.58353780e-17 -1.20877672e-17  4.42078126e-16  6.09297811e-03
   1.12920712e-01  1.26200457e-16  1.29490901e-17 -1.49423810e-03]
 [ 1.92870146e-16 -3.04725170e-15  4.08838139e-16 -1.59647391e-15
  -4.58334526e-01  4.70398765e-02 -1.68006736e-02  8.81224842e-04
   1.21954494e-15  6.80764042e-16  3.29874774e-17 -7.51596258e-15
   2.40834925e-15 -7.32029379e-16  5.13668113e-01  4.16988873e-01
  -5.77699700e-02 -1.11294801e-02  5.99276856e-16 -8.18268081e-14
   6.68198574e-16  2.09013267e-01 -5.50042557e-01  4.10536065e-15
   2.55389349e-17 -5.96741045e-05  2.10341376e-03  8.72992665e-16]
 [ 1.10533550e-17  3.96988356e-16  2.44084605e-16 -7.30608538e-16
  -4.70398765e-02 -4.58334526e-01 -8.81224842e-04 -1.68006736e-02
  -9.03289109e-17  1.89047939e-16  1.66325635e-17 -4.65133990e-16
   2.22496369e-15  4.41494590e-16 -4.16988873e-01  5.13668113e-01
   1.11294801e-02 -5.77699700e-02  4.80988125e-16 -4.61624356e-14
  -1.28773469e-16 -5.50042557e-01 -2.09013267e-01 -1.87136194e-16
  -3.60087610e-17  2.10341376e-03  5.96741045e-05  1.02031052e-17]
 [ 2.04585447e-02 -3.12357100e-01  5.92604208e-03 -1.52342380e-01
   4.77220529e-15 -2.82521104e-16  1.84576843e-16  1.39048610e-16
   1.70600486e-03 -2.21492924e-03  1.98522702e-02 -7.97863426e-01
  -2.27306877e-18  4.28218544e-17 -4.73717634e-15 -3.88739111e-15
   3.29354555e-16 -5.09683338e-17  8.56801972e-03 -8.14831178e-18
  -1.67291279e-17 -1.80461090e-15  4.97228187e-15  4.80906071e-01
   1.41537633e-03  5.82758567e-17  7.60348341e-18  1.02162279e-01]
 [-5.03602125e-02  5.25709650e-03  5.57256736e-01 -2.29391897e-02
   1.02630790e-15  3.21700207e-16  5.75308616e-17 -2.15493358e-16
  -1.31818477e-01 -1.31715234e-02 -5.75257050e-01 -1.26785196e-02
  -1.90669270e-18  2.11941156e-17 -4.26525486e-16  9.30480212e-16
   2.09620446e-16  6.92972593e-16 -3.18231335e-01 -1.16045578e-17
  -1.35780025e-17  7.11527759e-16 -3.94194583e-16  1.35898266e-03
  -4.86280877e-01 -5.75052829e-16  1.64696108e-17  1.34032374e-03]
 [-9.46801261e-17  1.29651178e-16  9.15277031e-16  5.92866010e-17
  -2.04883011e-01  1.17903062e-01 -1.02106440e-02  5.21641191e-03
   1.80504561e-17 -1.06879564e-15 -7.81022460e-16  4.59599852e-16
   1.26055053e-15 -5.64109454e-16  5.27834925e-01  1.41533355e-01
  -2.83759087e-02  6.63175495e-03  1.01646277e-15  7.55964656e-14
   1.22706401e-16 -5.66336066e-01  5.68999539e-01  1.43423750e-15
  -6.22761354e-16 -7.20831045e-04  1.49883982e-03  2.18501983e-17]
 [-2.85566198e-18 -1.68633697e-16  2.44463216e-16 -5.66100175e-16
  -1.17903062e-01 -2.04883011e-01 -5.21641191e-03 -1.02106440e-02
   4.98627754e-17  1.93376626e-16  1.24875274e-16 -1.74229400e-16
   1.36773223e-15  5.71157306e-16 -1.41533355e-01  5.27834925e-01
  -6.63175495e-03 -2.83759087e-02  1.73911094e-15  1.02389303e-13
   1.39386601e-15  5.68999539e-01  5.66336066e-01 -4.04740073e-16
   1.65961215e-17  1.49883982e-03  7.20831045e-04 -3.93825482e-17]
 [ 6.05617879e-19  1.13304273e-17 -1.22630204e-17  5.23388150e-17
   3.46022268e-16  2.76054495e-16 -1.54298475e-16 -1.05173224e-16
   8.32008533e-17  6.32954696e-17 -1.29908864e-17 -1.53820761e-17
  -9.91165500e-04  9.20810823e-03  2.19964950e-16  1.09189685e-15
  -1.03316026e-16  7.36409604e-16 -3.65720074e-17 -3.06088702e-01
  -9.51957948e-01  8.41739965e-15  4.88108042e-14  1.02944065e-17
  -1.94369164e-17  2.49819730e-16 -7.36699272e-17 -1.46560721e-17]
 [-3.59084244e-19  7.39691482e-18 -2.15590171e-18  2.33765690e-18
  -1.28844394e-15 -7.91750245e-16 -7.54336396e-17 -2.55993564e-16
   9.35135164e-18  9.46088158e-18 -4.24346953e-18 -5.65636774e-18
  -9.20810823e-03 -9.91165500e-04  1.92015266e-16  2.92372810e-17
  -6.31970910e-16 -1.61436026e-15 -2.45934771e-17  9.51957948e-01
  -3.06088702e-01 -2.24222564e-14 -1.49055329e-13  3.26301331e-18
   1.58733350e-19  1.00415527e-16  1.94012933e-16 -1.48887838e-20]
 [-1.48842873e-02  3.32959462e-01 -9.38370558e-03  1.30728585e-01
  -8.45316793e-16 -1.84955260e-16  2.39401509e-16 -3.28448125e-16
  -1.10421669e-02 -5.42871057e-01  4.86192688e-04  2.74622234e-01
  -3.50466584e-18  2.96196283e-18 -1.43196654e-15  2.44577948e-16
  -6.80330436e-17  3.83159789e-16  2.48900405e-03 -1.45796516e-18
  -8.90248688e-18  1.34716589e-15 -1.14757826e-15  7.07954302e-01
  -1.42080654e-03  1.57389220e-16  2.28955018e-17  1.68050226e-02]
 [ 2.69027011e-02 -1.13544620e-02 -3.77319276e-01 -7.29924135e-04
  -2.18859693e-15 -6.66570688e-17 -6.49384550e-16  6.89869090e-15
  -7.15733548e-01  1.89431435e-02  2.78054982e-01  4.69159099e-03
  -1.74460700e-17  1.65243653e-16 -3.42233715e-17  1.50306784e-15
  -1.55696824e-15  4.17184462e-15 -4.26089288e-01 -2.98600445e-17
  -8.53321078e-17 -1.72059607e-17  6.36433302e-16  3.30563984e-03
  -2.91965738e-01 -5.95542672e-15  1.77750626e-15 -1.14680395e-04]
 [-3.09065630e-16  6.35274455e-16  4.27658561e-15  1.01842328e-16
   3.80425726e-03 -2.35544965e-02 -1.48230963e-01  6.95467321e-01
   7.50014782e-15 -3.00643247e-16 -3.29241789e-15 -1.47024428e-18
   3.86043076e-18  1.00894205e-15 -2.73590079e-02  1.98019655e-02
  -1.69731652e-01  3.48944650e-01  4.51511207e-15  4.34100146e-16
  -7.25122030e-16 -4.53956760e-03 -4.58879899e-04  1.50583508e-16
   3.45785506e-15 -5.68906910e-01  1.35631023e-01 -5.32745408e-17]
 [-2.33707762e-17 -2.69580943e-17  5.44323350e-17 -8.28970395e-17
   2.35544965e-02  3.80425726e-03 -6.95467321e-01 -1.48230963e-01
  -4.23584354e-16 -1.88237131e-16  8.38446192e-17  4.33296135e-16
  -6.34959738e-16  5.11427736e-16 -1.98019655e-02 -2.73590079e-02
  -3.48944650e-01 -1.69731652e-01 -6.31641227e-16 -8.63420441e-16
  -1.42196946e-16 -4.58879899e-04  4.53956760e-03 -3.23753535e-16
   1.03300714e-16  1.35631023e-01  5.68906910e-01  1.28102812e-16]
 [ 1.56851404e-02 -8.90306326e-04  3.15843661e-02 -6.21440289e-03
  -1.07117629e-15  1.58174233e-16  1.12439883e-15 -1.18963900e-15
  -2.44824584e-01 -2.64223379e-03 -3.67271892e-01 -8.52252529e-03
  -8.02629897e-18  7.05067444e-17  3.88668850e-16 -1.02514987e-16
   2.40280761e-15 -1.82259970e-15 -4.03986913e-01 -6.09482362e-18
   8.29815265e-18 -3.40670009e-16  3.59642921e-16  3.04696161e-03
   8.00371689e-01 -1.71195747e-15  1.81412366e-15  3.28415657e-04]
 [-4.54647868e-16  2.00715309e-14 -7.69431589e-16 -1.33417365e-14
   6.24707065e-04 -1.22029539e-02 -3.73083807e-02  3.68063975e-01
  -1.68767917e-15 -5.30429348e-16 -1.91210791e-15 -6.27618641e-15
   5.83341404e-16  2.61663885e-16 -2.71885110e-02  2.46014702e-02
  -1.67946393e-01  4.69185226e-01 -2.03590297e-15 -3.73299128e-16
   1.41101155e-15 -6.65796739e-03 -1.41714558e-03 -6.88158399e-15
   3.80719879e-15  7.76990802e-01 -9.76802680e-02  2.53500341e-14]
 [ 9.87221529e-17 -5.15420365e-15  3.55958451e-17  4.01594955e-15
  -1.22029539e-02 -6.24707065e-04  3.68063975e-01  3.73083807e-02
   2.02528721e-15  3.51902157e-16  1.43504655e-15  2.42913488e-15
   2.57061814e-15 -1.58477453e-17  2.46014702e-02  2.71885110e-02
   4.69185226e-01  1.67946393e-01  2.45659026e-15 -6.75872710e-17
  -1.80257303e-15  1.41714558e-03 -6.65796739e-03  1.39775184e-15
  -1.57607729e-15  9.76802680e-02  7.76990802e-01  2.40871748e-16]
 [-1.57313526e-02  5.24919021e-01 -1.78084004e-02 -3.40840839e-01
  -2.08318454e-15  1.71787542e-15  4.04718567e-15 -1.46282688e-14
   9.26924713e-04 -3.32923447e-02  7.27970458e-03 -1.47909605e-01
   1.56159732e-17 -1.88930672e-16  5.73624545e-16 -1.34983159e-15
   8.69666181e-15 -1.70257740e-14 -6.74458810e-04  8.08978874e-18
   4.29428276e-17  7.57293156e-17  6.49675079e-16 -1.70338535e-01
   8.89834799e-04 -2.99782952e-14  7.17790490e-15  7.45430736e-01]
 [-1.10645110e-02  5.50621794e-01 -2.10178957e-02 -4.24133752e-01
  -1.08686488e-15  1.37761516e-15  3.07161631e-15 -2.26980653e-15
   2.75456105e-03 -3.65228254e-02  7.54792469e-03 -2.72037140e-01
   4.06971326e-17 -4.26262621e-16 -1.34201406e-15 -9.48504003e-16
   2.78876603e-15  2.66066164e-16 -7.70150726e-04 -2.54937331e-17
  -5.82083020e-17 -4.15421404e-16 -1.00856008e-16 -8.79725342e-02
  -1.29279483e-04 -1.74894749e-15  7.43327920e-15 -6.58194171e-01]
 [-1.81452051e-03 -8.16521374e-02  4.48428408e-03  2.85888286e-01
  -2.58334715e-15  2.53408904e-14  4.11049458e-15  2.23060670e-15
  -1.45392870e-02 -7.64127610e-01  2.14241934e-02 -3.11238201e-01
  -2.40417980e-15  1.01345717e-15  2.69341721e-14 -2.58435848e-14
  -4.12034678e-17  1.16674491e-14 -5.51014327e-03  4.23853194e-15
  -5.53977545e-16  3.58216524e-14  5.87326209e-15 -4.79390687e-01
   5.85354473e-04  2.56975105e-14  9.15736254e-16 -1.73398702e-02]]
[[-9.91541059e-01 -6.95816107e-02 -5.49297176e-02 -6.71264024e-02
  -1.02250256e-16  3.25057741e-16  4.08645462e-17  7.93067927e-18
   4.05960278e-02 -2.14951473e-02  1.07191546e-03  1.48332087e-02
   1.73460831e-17  3.41699568e-18  1.43240682e-16 -6.32084635e-17
  -7.14779535e-17 -5.89498300e-17 -3.70285076e-02 -6.94827818e-19
   3.27378001e-18 -4.37718637e-17 -1.19227128e-17  6.42656312e-04
   2.78499787e-02 -8.51713497e-17  1.38901533e-17 -1.76188449e-03]
 [ 2.47898130e-17  7.22766669e-16  5.98339198e-16 -1.02142856e-18
   6.96731441e-01  4.95003141e-01  1.00325275e-02  2.91188889e-02
  -6.57235376e-16  8.94306568e-18  1.84357208e-16 -2.65584863e-16
   3.51671120e-16  3.20277443e-16  2.94475775e-01  4.13305356e-01
   1.63443565e-02 -4.18724662e-02 -1.35483141e-16  1.94510135e-15
   7.08428235e-16  6.97169131e-02 -6.45180953e-02 -1.35833849e-16
   1.59233050e-16 -1.39905301e-03  2.42860678e-03 -4.82597751e-18]
 [ 3.94629668e-16 -1.10457461e-15  1.12264152e-15 -1.68137835e-15
  -4.95003141e-01  6.96731441e-01  2.91188889e-02 -1.00325275e-02
  -1.04642005e-15 -1.35158676e-15  1.89248337e-16  4.75863320e-16
  -1.21489466e-15  6.70478961e-16  4.13305356e-01 -2.94475775e-01
  -4.18724662e-02 -1.63443565e-02  1.16205592e-15  7.53792068e-16
  -3.28191750e-16  6.45180953e-02  6.97169131e-02 -8.68406518e-17
   1.60933467e-17  2.42860678e-03  1.39905301e-03  3.80370647e-17]
 [-9.46422555e-02  4.48426800e-01  1.98153962e-02  7.58847075e-01
  -1.53298772e-15  1.87569623e-15  4.58419022e-16  1.87975250e-16
   2.17990489e-02  3.43387945e-01 -1.79916226e-03 -3.07045463e-01
   1.01845241e-16  3.43806016e-18  8.89967325e-16 -1.09826873e-15
  -1.90141373e-16  2.12371303e-16 -9.17358886e-03 -7.78745159e-19
   2.51210363e-16 -2.77478563e-16  2.19107506e-16  2.95175337e-02
   2.35576482e-03  4.23853751e-17 -2.10250197e-18 -9.11562720e-03]
 [-2.80136906e-02 -2.15181486e-03 -4.69991074e-01  2.93507544e-02
  -2.20633915e-16 -5.11331684e-16 -9.10024698e-16 -2.67783106e-16
  -6.14698642e-01 -3.61875325e-04 -1.32299836e-01 -1.41619914e-02
  -4.08482798e-16 -8.12916490e-18 -2.63500257e-16  7.01814992e-16
   8.26548505e-16  2.42276841e-16  5.98090519e-01  2.99262359e-18
  -4.98821603e-16  1.39855501e-15 -2.98109412e-17  5.41870307e-03
  -1.55417647e-01  4.37354071e-16 -3.22812821e-18  1.70034110e-03]
 [-4.76619151e-21 -5.66556749e-17 -2.12218706e-17  1.02541161e-18
   2.93987470e-16  5.42082265e-16  6.73787248e-16  4.18750097e-16
   3.58461180e-17 -8.02554504e-17 -1.10997753e-16  2.35904383e-16
   9.99630359e-01  2.55611949e-02  1.18444565e-15 -9.85427035e-16
  -1.76783939e-15  1.50046737e-15  6.62601565e-16  1.41512430e-04
   9.26021816e-03  2.89847734e-18 -5.48398802e-16 -1.45796066e-17
   5.66107974e-20  2.20583563e-16  2.50997535e-16 -4.49535870e-18]
 [ 3.19299540e-18 -1.86118042e-20 -5.55221276e-19 -4.49290038e-19
  -1.11022799e-16  3.22906069e-17 -2.92848432e-16 -2.83197032e-17
  -4.00078057e-19  1.39718675e-19  1.06532225e-19  2.02656759e-18
  -2.55611949e-02  9.99630359e-01 -2.12586012e-15  2.38903362e-16
   1.86187269e-15 -1.75888452e-15 -1.13286134e-18  9.26021816e-03
  -1.41512430e-04 -4.86811864e-16  2.93279106e-16  3.40523009e-19
  -3.72076194e-20  1.18634856e-16  7.78828274e-17  2.79370528e-20]
 [ 2.91480560e-17 -4.07929297e-17  1.84590475e-17 -1.89752941e-16
  -7.23790091e-03 -2.45915961e-02  5.01720069e-01  3.23115593e-01
  -6.16959292e-16  3.29291405e-17  2.17970379e-16 -3.39258584e-16
   6.16806864e-17 -1.10982756e-15 -5.75939949e-02 -1.68672042e-02
  -2.23992595e-01 -7.37959687e-01  9.69565546e-16 -1.88264934e-16
  -3.09422898e-16 -1.33527443e-02  1.06846547e-03 -1.08676122e-16
   1.60304311e-16  3.03743206e-02  2.09177827e-01  1.61883838e-18]
 [ 2.38331897e-17 -2.83964960e-17  1.71487943e-17  2.32303247e-17
  -2.45915961e-02  7.23790091e-03 -3.23115593e-01  5.01720069e-01
   2.95934714e-16  1.20902511e-16  1.94900561e-16 -8.07338922e-17
   1.59437382e-15 -1.61003202e-15  1.68672042e-02 -5.75939949e-02
   7.37959687e-01 -2.23992595e-01 -7.11347536e-16  1.06063734e-16
   1.20892384e-15  1.06846547e-03  1.33527443e-02  1.03175956e-16
  -3.96170687e-16 -2.09177827e-01  3.03743206e-02 -1.01910107e-17]
 [-5.08447679e-02  9.45776945e-03  5.66474904e-01 -1.12314653e-02
   3.45949785e-16 -1.34103586e-15 -3.38879549e-16 -6.91494838e-17
  -1.73458834e-01  6.00353242e-03  6.62121717e-01  1.71176938e-02
  -2.16062278e-16 -3.50728345e-18 -8.78374186e-16  5.41716402e-16
   5.30022842e-16  5.95157351e-16  4.41240026e-01  2.19038071e-18
  -8.97718530e-17  4.94381643e-16 -8.08081875e-17  6.09297811e-03
   1.12920712e-01 -2.83189402e-16 -1.87392308e-17 -1.49423810e-03]
 [-1.87333764e-16  2.70284209e-15 -4.62127118e-16  1.02416769e-15
   2.71109466e-01 -3.72535831e-01 -1.58427254e-02  5.66102842e-03
   1.20391476e-15  5.81715862e-16  2.05002319e-16  5.81788047e-15
  -9.71872240e-16  9.55369608e-16  5.34429133e-01 -3.90025835e-01
  -5.50451418e-02 -2.07669720e-02  6.75779922e-16  6.40232744e-15
  -9.18912106e-16  3.94715499e-01  4.36386337e-01 -4.40768131e-15
  -1.61312203e-16  1.83519355e-03  1.02955091e-03 -8.59139965e-16]
 [-4.20486271e-19 -2.12000464e-16 -1.46526141e-16  1.17192866e-16
  -3.72535831e-01 -2.71109466e-01 -5.66102842e-03 -1.58427254e-02
   1.04198996e-15  5.31759232e-16  1.84801398e-16 -5.16892040e-16
  -2.47476192e-18  8.66400995e-16  3.90025835e-01  5.34429133e-01
   2.07669720e-02 -5.50451418e-02 -8.49983581e-16  1.40656056e-14
   1.86475686e-15  4.36386337e-01 -3.94715499e-01 -1.39500063e-16
   7.98614587e-17 -1.02955091e-03  1.83519355e-03 -1.78907785e-17]
 [-2.04585447e-02  3.12357100e-01 -5.92604208e-03  1.52342380e-01
  -2.45158717e-15  2.93429728e-15  1.72631162e-16  5.50408741e-17
   1.70600486e-03  2.21492924e-03 -1.98522702e-02  7.97863426e-01
  -1.91237023e-16 -6.57123045e-18 -3.66299190e-15  3.03047734e-15
   2.99107636e-16 -2.43748942e-16  8.56801972e-03 -2.59828915e-19
  -1.24612482e-16 -3.33197198e-15 -3.84469730e-15 -4.80906071e-01
  -1.41537633e-03  5.81229089e-17  1.05502061e-16 -1.02162279e-01]
 [-5.03602125e-02  5.25709650e-03  5.57256736e-01 -2.29391897e-02
  -1.00712007e-16 -4.57794887e-16  3.01375337e-16  4.23404787e-16
   1.31818477e-01 -1.31715234e-02 -5.75257050e-01 -1.26785196e-02
  -2.61067586e-16 -5.92399181e-18 -6.58080240e-16  9.80464077e-16
   6.22401312e-16  6.38088334e-17  3.18231335e-01  6.78481808e-19
  -1.27948146e-16  8.33130655e-16  9.79414463e-16  1.35898266e-03
  -4.86280877e-01  1.34636874e-15 -1.48540339e-16  1.34032374e-03]
 [-2.51406364e-17 -6.39828493e-16  6.16614336e-16 -5.41524495e-16
   2.04930111e-01 -1.17821178e-01 -8.28643815e-03  7.92484370e-03
   2.52042874e-16  1.03037971e-15 -8.03610831e-16 -1.00666006e-15
  -8.38450009e-16  1.10872266e-15  2.71744124e-01 -4.74127124e-01
  -2.90896015e-02  1.72263084e-03  1.49085939e-15  1.22217795e-15
   1.22362308e-15 -2.49020908e-01 -7.63207444e-01 -1.43786322e-15
  -8.20942384e-16  1.65623166e-03  1.51706511e-04  7.14499674e-18]
 [ 1.19959500e-17 -2.92498732e-16 -2.80390834e-16 -1.81784181e-16
  -1.17821178e-01 -2.04930111e-01 -7.92484370e-03 -8.28643815e-03
   5.10224268e-17 -6.74489932e-17 -1.20065868e-16 -3.32678429e-16
   1.62556565e-17  4.62944265e-16  4.74127124e-01  2.71744124e-01
  -1.72263084e-03 -2.90896015e-02  1.42366886e-15 -1.79017352e-14
  -1.27656917e-15 -7.63207444e-01  2.49020908e-01 -1.64889314e-17
   1.28363604e-16 -1.51706511e-04  1.65623166e-03  4.01652912e-17]
 [-1.36414646e-18 -8.59256972e-17 -8.83903557e-17 -1.06667779e-16
   7.96718403e-18  1.36313321e-16  3.26282089e-16  1.56756291e-17
  -3.39304211e-16 -2.21114269e-16 -1.42068218e-16  1.88250123e-16
  -9.25827308e-03 -2.36739944e-04 -2.32885665e-16 -6.34641009e-16
  -1.71397007e-15  2.99722658e-16  4.02730456e-16  1.52793109e-02
   9.99840373e-01 -2.53630616e-15  2.54218366e-15 -1.77840452e-17
  -1.90470520e-17  4.09375059e-16  7.76741443e-18  1.46375421e-17]
 [ 6.00739015e-19 -1.91530626e-18 -1.25713736e-18 -4.57560885e-19
  -1.40587733e-16 -1.08086608e-15  4.39082388e-16  2.03385015e-17
  -5.13704713e-18 -6.34739947e-18 -1.88808614e-18  1.97580032e-18
  -2.36739944e-04  9.25827308e-03  1.79935452e-15  2.74366459e-16
   2.37798518e-16 -3.79488092e-17  9.55283377e-18 -9.99840373e-01
   1.52793109e-02  2.19753015e-14 -8.07381629e-15 -1.86352110e-18
  -3.77464809e-20 -8.41366720e-18  6.00790606e-17 -7.28164125e-20]
 [ 1.48842873e-02 -3.32959462e-01  9.38370558e-03 -1.30728585e-01
  -3.71905489e-16  8.08786497e-16  1.08625352e-17  9.11392591e-17
  -1.10421669e-02  5.42871057e-01 -4.86192688e-04 -2.74622234e-01
   6.78849513e-17  2.60894359e-18 -1.18386645e-15  1.14955662e-15
   2.54344597e-16  4.09364719e-16  2.48900405e-03 -5.92674703e-20
   1.04486252e-16  2.00757594e-16  1.49803664e-15 -7.07954302e-01
   1.42080654e-03  5.90448526e-17  5.26745260e-18 -1.68050226e-02]
 [ 2.69027011e-02 -1.13544620e-02 -3.77319276e-01 -7.29924135e-04
   2.36343213e-16  1.51260788e-15  5.68628003e-16 -6.30705393e-15
   7.15733548e-01  1.89431435e-02  2.78054982e-01  4.69159099e-03
  -2.58549387e-16 -6.72726717e-18 -6.54489029e-16  3.33076555e-16
   2.87374031e-15 -2.25075489e-15  4.26089288e-01  1.11250681e-18
   6.16949741e-17 -2.12060003e-16 -3.88097792e-16  3.30563984e-03
  -2.91965738e-01 -3.57704648e-15  3.82215709e-15 -1.14680395e-04]
 [-3.09165333e-16  1.17984834e-16  4.39598681e-15  8.44373564e-17
   2.22734109e-02  8.55463880e-03 -5.73841567e-02 -7.08769547e-01
  -6.65438042e-15  1.96076155e-16 -3.29477306e-15 -2.95080566e-16
   1.20356602e-15 -1.02634357e-15 -1.21513979e-02 -3.15115325e-02
   2.26459128e-01 -3.15099137e-01 -3.92433907e-15 -2.34110917e-16
   1.24252542e-15 -2.47405854e-03  3.83370306e-03 -1.82944717e-16
   1.65661689e-15 -4.08666302e-01  4.18381047e-01  4.00665921e-17]
 [-1.81561626e-17 -9.64733581e-17  5.52464389e-17 -2.40722218e-16
   8.55463880e-03 -2.22734109e-02  7.08769547e-01 -5.73841567e-02
  -1.47638984e-15 -2.71414220e-16  8.28430571e-17 -5.72991369e-17
   2.39570371e-16  4.11258512e-16  3.15115325e-02 -1.21513979e-02
   3.15099137e-01  2.26459128e-01 -6.09016286e-16  1.25475067e-15
   8.96327707e-16  3.83370306e-03  2.47405854e-03  3.78929105e-16
  -7.93041716e-16 -4.18381047e-01 -4.08666302e-01 -1.56786229e-16]
 [ 1.56851404e-02 -8.90306326e-04  3.15843661e-02 -6.21440289e-03
   2.54119123e-16 -4.01664254e-16 -1.14331301e-16  1.71944184e-15
   2.44824584e-01 -2.64223379e-03 -3.67271892e-01 -8.52252529e-03
  -2.48152088e-16 -5.87145148e-18 -1.48234589e-15  2.59103558e-16
  -1.99186259e-15  2.71639139e-15  4.03986913e-01  6.59669183e-19
  -1.65748525e-16  8.58082220e-16 -4.93007406e-16  3.04696161e-03
   8.00371689e-01 -5.13940025e-15  1.36686648e-15  3.28415657e-04]
 [ 6.96653818e-16 -1.98101735e-14  6.68820348e-16  1.34315648e-14
   1.08624080e-02  5.59557284e-03 -6.97827583e-02 -3.63308921e-01
   2.48155552e-15  7.79456125e-16 -2.36735549e-15  5.88372537e-15
   4.60918664e-16 -9.13842049e-16 -1.68350602e-02 -3.25734281e-02
   2.45094558e-01 -4.33900247e-01  2.72796748e-15  9.91888167e-16
  -4.97512262e-16 -4.29123008e-03  5.28414381e-03  6.61621393e-15
   6.11375013e-15  4.83022761e-01 -6.16396912e-01 -2.53333439e-14]
 [-1.64902260e-16  5.24292171e-15 -3.75280231e-16 -3.74836054e-15
  -5.59557284e-03  1.08624080e-02 -3.63308921e-01  6.97827583e-02
  -1.10289491e-15 -4.21612650e-17  1.66537640e-15 -2.62316925e-15
   2.28990938e-17  2.05466821e-15 -3.25734281e-02  1.68350602e-02
  -4.33900247e-01 -2.45094558e-01 -1.06519788e-15 -1.33611756e-15
   1.00007344e-15 -5.28414381e-03 -4.29123008e-03 -1.58575465e-15
  -3.13277415e-15 -6.16396912e-01 -4.83022761e-01 -2.74661100e-16]
 [ 1.57313526e-02 -5.24919021e-01  1.78084004e-02  3.40840839e-01
   1.06111110e-15 -1.27005069e-15  2.68606820e-16  1.49755427e-14
   9.26924713e-04  3.32923447e-02 -7.27970458e-03  1.47909605e-01
  -1.00094714e-16 -3.30590210e-18  4.11043462e-16  1.73376147e-15
  -1.14547858e-14  1.52457505e-14 -6.74458810e-04  4.51542604e-20
  -2.67904311e-17 -5.88044289e-17 -6.82697502e-16  1.70338535e-01
  -8.89834799e-04 -2.15070584e-14  2.20125569e-14 -7.45430736e-01]
 [ 1.10645110e-02 -5.50621794e-01  2.10178957e-02  4.24133752e-01
   9.16263793e-16 -3.84224158e-16 -2.25540483e-15  2.84054835e-15
   2.75456105e-03  3.65228254e-02 -7.54792469e-03  2.72037140e-01
  -3.61097230e-16 -1.04615802e-17 -7.44837645e-16  1.24768097e-15
  -2.59710736e-15 -8.56468298e-16 -7.70150726e-04  1.36864036e-18
   6.09524966e-17  5.80979338e-16 -3.84718204e-16  8.79725342e-02
   1.29279483e-04 -7.29771995e-15 -2.33370962e-15  6.58194171e-01]
 [ 1.81452051e-03  8.16521374e-02 -4.48428408e-03 -2.85888286e-01
   2.28325460e-14  1.23224850e-14 -4.01499361e-15  9.67758333e-16
  -1.45392870e-02  7.64127610e-01 -2.14241934e-02  3.11238201e-01
   1.21251203e-15 -2.17403567e-15 -1.86063641e-14 -3.33572301e-14
  -1.36379415e-15 -5.46530275e-15 -5.51014327e-03 -4.25410801e-15
  -6.69127868e-16 -2.19284893e-14  2.92100653e-14  4.79390687e-01
  -5.85354473e-04  1.26461081e-14 -2.28575789e-14  1.73398702e-02]]
grids:  [0.06237655 0.31939555 0.74529195 1.28265786 1.85893479 2.39630071
 2.8221971  3.07921611] 
weights:  [0.15900941 0.34931531 0.49276925 0.56970235 0.56970235 0.49276925
 0.34931531 0.15900941]
S = 0.0, Sz = 0.0
Wigner small d:  1
value : [1. 1. 1. 1. 1. 1. 1. 1.]
**** Start Cycle 1 ****
dm (ortho)
[[[ 0.98315367  0.          0.         ...  0.01559828  0.01097092  0.00179917]
  [ 0.          0.          0.         ...  0.          0.          0.        ]
  [ 0.          0.          0.         ...  0.          0.          0.        ]
  ...
  [ 0.01559828  0.          0.         ...  0.00024748  0.00017406  0.00002854]
  [ 0.01097092  0.          0.         ...  0.00017406  0.00012242  0.00002008]
  [ 0.00179917  0.          0.         ...  0.00002854  0.00002008  0.00000329]]

 [[ 0.98315367 -0.         -0.         ... -0.01559828 -0.01097092 -0.00179917]
  [-0.          0.          0.         ...  0.          0.          0.        ]
  [-0.          0.          0.         ...  0.          0.          0.        ]
  ...
  [-0.01559828  0.          0.         ...  0.00024748  0.00017406  0.00002854]
  [-0.01097092  0.          0.         ...  0.00017406  0.00012242  0.00002008]
  [-0.00179917  0.          0.         ...  0.00002854  0.00002008  0.00000329]]]
Fock (ortho)
 (array([[-0.67670944, -0.        , -0.        ,  0.07347645, -0.11397295,  0.        ,  0.        , -0.        , -0.        , -0.13653512, -0.        ,
         0.        , -0.00204817, -0.17859764, -0.        ,  0.        , -0.        , -0.        ,  0.00544106, -0.05856278,  0.        ,  0.        ,
         0.12361735,  0.        , -0.        , -0.00862631,  0.00156751, -0.00075786],
       [-0.        ,  1.45489137, -0.        ,  0.        , -0.        ,  0.        , -0.        , -0.01048477, -0.00825281,  0.        , -0.01301056,
         1.14248651,  0.        ,  0.        , -0.20597393,  0.44758255, -0.        ,  0.        ,  0.        ,  0.        , -0.00139983,  0.00035894,
        -0.        ,  0.0036654 ,  0.00052414,  0.        ,  0.        , -0.        ],
       [-0.        , -0.        ,  1.45489137,  0.        ,  0.        , -0.        ,  0.        , -0.00825281,  0.01048477, -0.        ,  1.14248651,
         0.01301056, -0.        , -0.        ,  0.44758255,  0.20597393,  0.        ,  0.        , -0.        ,  0.        ,  0.00035894,  0.00139983,
        -0.        , -0.00052414,  0.0036654 , -0.        , -0.        ,  0.        ],
       [ 0.07347645,  0.        ,  0.        ,  0.88603376,  0.00425624,  0.        , -0.        , -0.        ,  0.        ,  0.02486965, -0.        ,
         0.        , -0.66741269,  0.01157806,  0.        ,  0.        , -0.        ,  0.        ,  0.33809097, -0.00104277,  0.        ,  0.        ,
        -0.00669923,  0.        ,  0.        ,  0.1055586 , -0.08329855,  0.06775935],
       [-0.11397295, -0.        ,  0.        ,  0.00425624,  2.01311544,  0.        , -0.        , -0.        ,  0.        ,  0.71854282,  0.        ,
        -0.        ,  0.00971649,  1.22434896,  0.        , -0.        , -0.        ,  0.        ,  0.00105581,  0.72707876, -0.        , -0.        ,
        -0.01553003,  0.        , -0.        ,  0.00410277, -0.00331557, -0.00009373],
       [ 0.        ,  0.        , -0.        ,  0.        ,  0.        ,  3.21826385,  0.        , -0.        ,  0.        ,  0.        ,  0.        ,
         0.        ,  0.        , -0.        ,  0.        ,  0.        , -0.00562553,  0.        ,  0.        ,  0.        ,  0.        , -0.        ,
         0.        , -0.        , -0.        , -0.        , -0.        ,  0.        ],
       [ 0.        , -0.        ,  0.        , -0.        , -0.        ,  0.        ,  3.21826385,  0.        ,  0.        ,  0.        ,  0.        ,
        -0.        ,  0.        ,  0.        ,  0.        , -0.        ,  0.        ,  0.00562553, -0.        , -0.        ,  0.        ,  0.        ,
        -0.        ,  0.        ,  0.        , -0.        , -0.        , -0.        ],
       [-0.        , -0.01048477, -0.00825281, -0.        , -0.        , -0.        ,  0.        ,  2.86642886,  0.        , -0.        ,  0.00233708,
         0.00303973,  0.        ,  0.        , -0.00181867, -0.00757787,  0.        , -0.        , -0.        ,  0.        ,  0.88855633, -1.16172464,
        -0.        ,  0.00368216,  0.00385924,  0.        , -0.        , -0.        ],
       [-0.        , -0.00825281,  0.01048477,  0.        ,  0.        ,  0.        ,  0.        ,  0.        ,  2.86642886,  0.        , -0.00303973,
         0.00233708, -0.        ,  0.        ,  0.00757787, -0.00181867, -0.        ,  0.        , -0.        ,  0.        ,  1.16172464,  0.88855633,
        -0.        ,  0.00385924, -0.00368216,  0.        ,  0.        , -0.        ],
       [-0.13653512,  0.        , -0.        ,  0.02486965,  0.71854282,  0.        ,  0.        , -0.        ,  0.        ,  1.87507423, -0.        ,
         0.        , -0.00356388, -0.62757665, -0.        , -0.        , -0.        , -0.        ,  0.01176288,  0.6811762 , -0.        ,  0.        ,
         0.69377655,  0.        , -0.        , -0.00608124,  0.00297629, -0.00077983],
       [-0.        , -0.01301056,  1.14248651, -0.        ,  0.        ,  0.        ,  0.        ,  0.00233708, -0.00303973, -0.        ,  3.18216174,
        -0.        , -0.        ,  0.        , -0.64903418, -0.28977063, -0.        , -0.        ,  0.        , -0.        ,  0.00103754,  0.00386289,
        -0.        , -0.0003245 ,  0.00209848,  0.        , -0.        ,  0.        ],
       [ 0.        ,  1.14248651,  0.01301056,  0.        , -0.        ,  0.        , -0.        ,  0.00303973,  0.00233708,  0.        , -0.        ,
         3.18216174, -0.        , -0.        ,  0.28977063, -0.64903418, -0.        , -0.        , -0.        ,  0.        , -0.00386289,  0.00103754,
        -0.        ,  0.00209848,  0.0003245 ,  0.        ,  0.        , -0.        ],
       [-0.00204817,  0.        , -0.        , -0.66741269,  0.00971649,  0.        ,  0.        ,  0.        , -0.        , -0.00356388, -0.        ,
        -0.        ,  3.14377025, -0.00089518,  0.        ,  0.        , -0.        ,  0.        ,  1.10344401, -0.0046771 ,  0.        , -0.        ,
         0.00341411,  0.        , -0.        ,  0.67391198, -0.24130869, -0.51333785],
       [-0.17859764,  0.        , -0.        ,  0.01157806,  1.22434896, -0.        ,  0.        ,  0.        ,  0.        , -0.62757665,  0.        ,
        -0.        , -0.00089518,  2.79910348, -0.        , -0.        ,  0.        , -0.        ,  0.00274266,  1.14980659, -0.        , -0.        ,
        -1.62786685, -0.        ,  0.        ,  0.00313808, -0.00218393, -0.00030607],
       [-0.        , -0.20597393,  0.44758255,  0.        ,  0.        ,  0.        ,  0.        , -0.00181867,  0.00757787, -0.        , -0.64903418,
         0.28977063,  0.        , -0.        ,  3.87061867,  0.        , -0.        , -0.        , -0.        ,  0.        ,  0.0017241 ,  0.00212199,
        -0.        ,  0.00013317, -0.00020625, -0.        , -0.        , -0.        ],
       [ 0.        ,  0.44758255,  0.20597393,  0.        , -0.        ,  0.        , -0.        , -0.00757787, -0.00181867, -0.        , -0.28977063,
        -0.64903418,  0.        , -0.        , -0.        ,  3.87061867,  0.        , -0.        , -0.        ,  0.        , -0.00212199,  0.0017241 ,
        -0.        , -0.00020625, -0.00013317,  0.        , -0.        ,  0.        ],
       [-0.        , -0.        ,  0.        , -0.        , -0.        , -0.00562553,  0.        ,  0.        , -0.        , -0.        , -0.        ,
        -0.        , -0.        ,  0.        , -0.        ,  0.        ,  4.30565401, -0.        ,  0.        ,  0.        ,  0.        ,  0.        ,
        -0.        , -0.        ,  0.        , -0.        ,  0.        , -0.        ],
       [-0.        ,  0.        ,  0.        ,  0.        ,  0.        ,  0.        ,  0.00562553, -0.        ,  0.        , -0.        , -0.        ,
        -0.        ,  0.        , -0.        , -0.        , -0.        , -0.        ,  4.30565401,  0.        ,  0.        ,  0.        , -0.        ,
         0.        , -0.        ,  0.        , -0.        , -0.        ,  0.        ],
       [ 0.00544106,  0.        , -0.        ,  0.33809097,  0.00105581,  0.        , -0.        , -0.        , -0.        ,  0.01176288,  0.        ,
        -0.        ,  1.10344401,  0.00274266, -0.        , -0.        ,  0.        ,  0.        ,  3.2827574 ,  0.00459591,  0.        , -0.        ,
        -0.00146788, -0.        ,  0.        , -0.5905914 , -0.60988927, -1.31715835],
       [-0.05856278,  0.        ,  0.        , -0.00104277,  0.72707876,  0.        , -0.        ,  0.        ,  0.        ,  0.6811762 , -0.        ,
         0.        , -0.0046771 ,  1.14980659,  0.        ,  0.        ,  0.        ,  0.        ,  0.00459591,  2.04359511,  0.        ,  0.        ,
        -0.96238185, -0.        ,  0.        , -0.00148305, -0.00002802, -0.00171706],
       [ 0.        , -0.00139983,  0.00035894,  0.        , -0.        ,  0.        ,  0.        ,  0.88855633,  1.16172464, -0.        ,  0.00103754,
        -0.00386289,  0.        , -0.        ,  0.0017241 , -0.00212199,  0.        ,  0.        ,  0.        ,  0.        ,  3.46469876, -0.        ,
         0.        , -2.12577588,  0.23258331,  0.        ,  0.        , -0.        ],
       [ 0.        ,  0.00035894,  0.00139983,  0.        , -0.        , -0.        ,  0.        , -1.16172464,  0.88855633,  0.        ,  0.00386289,
         0.00103754, -0.        , -0.        ,  0.00212199,  0.0017241 ,  0.        , -0.        , -0.        ,  0.        , -0.        ,  3.46469876,
         0.        ,  0.23258331,  2.12577588,  0.        ,  0.        ,  0.        ],
       [ 0.12361735, -0.        , -0.        , -0.00669923, -0.01553003,  0.        , -0.        , -0.        , -0.        ,  0.69377655, -0.        ,
        -0.        ,  0.00341411, -1.62786685, -0.        , -0.        , -0.        ,  0.        , -0.00146788, -0.96238185,  0.        ,  0.        ,
         5.27272811,  0.        , -0.        ,  0.002422  , -0.00076756,  0.00018603],
       [ 0.        ,  0.0036654 , -0.00052414,  0.        ,  0.        , -0.        ,  0.        ,  0.00368216,  0.00385924,  0.        , -0.0003245 ,
         0.00209848,  0.        , -0.        ,  0.00013317, -0.00020625, -0.        , -0.        , -0.        , -0.        , -2.12577588,  0.23258331,
         0.        ,  5.26262475,  0.        , -0.        , -0.        ,  0.        ],
       [-0.        ,  0.00052414,  0.0036654 ,  0.        , -0.        , -0.        ,  0.        ,  0.00385924, -0.00368216, -0.        ,  0.00209848,
         0.0003245 , -0.        ,  0.        , -0.00020625, -0.00013317,  0.        ,  0.        ,  0.        ,  0.        ,  0.23258331,  2.12577588,
        -0.        ,  0.        ,  5.26262475,  0.        ,  0.        ,  0.        ],
       [-0.00862631,  0.        , -0.        ,  0.1055586 ,  0.00410277, -0.        , -0.        ,  0.        ,  0.        , -0.00608124,  0.        ,
         0.        ,  0.67391198,  0.00313808, -0.        ,  0.        , -0.        , -0.        , -0.5905914 , -0.00148305,  0.        ,  0.        ,
         0.002422  , -0.        ,  0.        ,  5.76166781, -4.42704045,  0.38979584],
       [ 0.00156751,  0.        , -0.        , -0.08329855, -0.00331557, -0.        , -0.        , -0.        ,  0.        ,  0.00297629, -0.        ,
         0.        , -0.24130869, -0.00218393, -0.        , -0.        ,  0.        , -0.        , -0.60988927, -0.00002802,  0.        ,  0.        ,
        -0.00076756, -0.        ,  0.        , -4.42704045,  4.66076095,  0.51510505],
       [-0.00075786, -0.        ,  0.        ,  0.06775935, -0.00009373,  0.        , -0.        , -0.        , -0.        , -0.00077983,  0.        ,
        -0.        , -0.51333785, -0.00030607, -0.        ,  0.        , -0.        ,  0.        , -1.31715835, -0.00171706, -0.        ,  0.        ,
         0.00018603,  0.        ,  0.        ,  0.38979584,  0.51510505,  2.44973706]]), array([[-0.67670944,  0.        ,  0.        , -0.07347645, -0.11397295, -0.        , -0.        ,  0.        ,  0.        , -0.13653512,  0.        ,
        -0.        ,  0.00204817, -0.17859764, -0.        ,  0.        , -0.        ,  0.        , -0.00544106, -0.05856278,  0.        ,  0.        ,
         0.12361735,  0.        , -0.        ,  0.00862631, -0.00156751,  0.00075786],
       [ 0.        ,  1.45489137, -0.        ,  0.        ,  0.        ,  0.        ,  0.        ,  0.01048477,  0.00825281,  0.        , -0.01301056,
         1.14248651,  0.        ,  0.        , -0.20597393,  0.44758255, -0.        ,  0.        ,  0.        ,  0.        ,  0.00139983, -0.00035894,
        -0.        , -0.0036654 , -0.00052414,  0.        ,  0.        , -0.        ],
       [ 0.        , -0.        ,  1.45489137,  0.        ,  0.        , -0.        ,  0.        ,  0.00825281, -0.01048477, -0.        ,  1.14248651,
         0.01301056, -0.        , -0.        ,  0.44758255,  0.20597393,  0.        ,  0.        , -0.        ,  0.        , -0.00035894, -0.00139983,
        -0.        ,  0.00052414, -0.0036654 , -0.        , -0.        ,  0.        ],
       [-0.07347645,  0.        ,  0.        ,  0.88603376, -0.00425624,  0.        ,  0.        , -0.        ,  0.        , -0.02486965, -0.        ,
         0.        , -0.66741269, -0.01157806,  0.        ,  0.        , -0.        , -0.        ,  0.33809097,  0.00104277,  0.        ,  0.        ,
         0.00669923,  0.        ,  0.        ,  0.1055586 , -0.08329855,  0.06775935],
       [-0.11397295,  0.        ,  0.        , -0.00425624,  2.01311544,  0.        ,  0.        , -0.        ,  0.        ,  0.71854282, -0.        ,
        -0.        , -0.00971649,  1.22434896,  0.        , -0.        , -0.        , -0.        , -0.00105581,  0.72707876, -0.        , -0.        ,
        -0.01553003,  0.        , -0.        , -0.00410277,  0.00331557,  0.00009373],
       [-0.        ,  0.        , -0.        ,  0.        ,  0.        ,  3.21826385,  0.        , -0.        ,  0.        ,  0.        ,  0.        ,
         0.        ,  0.        , -0.        ,  0.        ,  0.        ,  0.00562553, -0.        ,  0.        ,  0.        ,  0.        , -0.        ,
         0.        , -0.        , -0.        , -0.        , -0.        ,  0.        ],
       [-0.        ,  0.        ,  0.        ,  0.        ,  0.        ,  0.        ,  3.21826385,  0.        ,  0.        ,  0.        ,  0.        ,
        -0.        , -0.        , -0.        ,  0.        , -0.        , -0.        , -0.00562553, -0.        ,  0.        ,  0.        ,  0.        ,
         0.        ,  0.        ,  0.        ,  0.        , -0.        , -0.        ],
       [ 0.        ,  0.01048477,  0.00825281, -0.        , -0.        , -0.        ,  0.        ,  2.86642886,  0.        , -0.        , -0.00233708,
        -0.00303973,  0.        ,  0.        ,  0.00181867,  0.00757787,  0.        , -0.        , -0.        ,  0.        ,  0.88855633, -1.16172464,
        -0.        ,  0.00368216,  0.00385924,  0.        , -0.        , -0.        ],
       [ 0.        ,  0.00825281, -0.01048477,  0.        ,  0.        ,  0.        ,  0.        ,  0.        ,  2.86642886,  0.        ,  0.00303973,
        -0.00233708, -0.        ,  0.        , -0.00757787,  0.00181867, -0.        ,  0.        , -0.        ,  0.        ,  1.16172464,  0.88855633,
        -0.        ,  0.00385924, -0.00368216,  0.        ,  0.        , -0.        ],
       [-0.13653512,  0.        , -0.        , -0.02486965,  0.71854282,  0.        ,  0.        , -0.        ,  0.        ,  1.87507423, -0.        ,
         0.        ,  0.00356388, -0.62757665, -0.        , -0.        , -0.        ,  0.        , -0.01176288,  0.6811762 , -0.        ,  0.        ,
         0.69377655,  0.        , -0.        ,  0.00608124, -0.00297629,  0.00077983],
       [ 0.        , -0.01301056,  1.14248651, -0.        , -0.        ,  0.        ,  0.        , -0.00233708,  0.00303973, -0.        ,  3.18216174,
        -0.        , -0.        ,  0.        , -0.64903418, -0.28977063, -0.        , -0.        ,  0.        , -0.        , -0.00103754, -0.00386289,
        -0.        ,  0.0003245 , -0.00209848,  0.        , -0.        ,  0.        ],
       [-0.        ,  1.14248651,  0.01301056,  0.        , -0.        ,  0.        , -0.        , -0.00303973, -0.00233708,  0.        , -0.        ,
         3.18216174,  0.        , -0.        ,  0.28977063, -0.64903418, -0.        , -0.        , -0.        ,  0.        ,  0.00386289, -0.00103754,
        -0.        , -0.00209848, -0.0003245 ,  0.        ,  0.        , -0.        ],
       [ 0.00204817,  0.        , -0.        , -0.66741269, -0.00971649,  0.        , -0.        ,  0.        , -0.        ,  0.00356388, -0.        ,
         0.        ,  3.14377025,  0.00089518,  0.        ,  0.        , -0.        ,  0.        ,  1.10344401,  0.0046771 ,  0.        , -0.        ,
        -0.00341411,  0.        , -0.        ,  0.67391198, -0.24130869, -0.51333785],
       [-0.17859764,  0.        , -0.        , -0.01157806,  1.22434896, -0.        , -0.        ,  0.        ,  0.        , -0.62757665,  0.        ,
        -0.        ,  0.00089518,  2.79910348, -0.        , -0.        ,  0.        ,  0.        , -0.00274266,  1.14980659, -0.        , -0.        ,
        -1.62786685, -0.        ,  0.        , -0.00313808,  0.00218393,  0.00030607],
       [-0.        , -0.20597393,  0.44758255,  0.        ,  0.        ,  0.        ,  0.        ,  0.00181867, -0.00757787, -0.        , -0.64903418,
         0.28977063,  0.        , -0.        ,  3.87061867,  0.        , -0.        , -0.        , -0.        ,  0.        , -0.0017241 , -0.00212199,
        -0.        , -0.00013317,  0.00020625, -0.        , -0.        , -0.        ],
       [ 0.        ,  0.44758255,  0.20597393,  0.        , -0.        ,  0.        , -0.        ,  0.00757787,  0.00181867, -0.        , -0.28977063,
        -0.64903418,  0.        , -0.        ,  0.        ,  3.87061867,  0.        , -0.        , -0.        ,  0.        ,  0.00212199, -0.0017241 ,
        -0.        ,  0.00020625,  0.00013317,  0.        , -0.        ,  0.        ],
       [-0.        , -0.        ,  0.        , -0.        , -0.        ,  0.00562553, -0.        ,  0.        , -0.        , -0.        , -0.        ,
        -0.        , -0.        ,  0.        , -0.        ,  0.        ,  4.30565401, -0.        ,  0.        ,  0.        ,  0.        ,  0.        ,
        -0.        , -0.        ,  0.        , -0.        ,  0.        , -0.        ],
       [ 0.        ,  0.        ,  0.        , -0.        , -0.        , -0.        , -0.00562553, -0.        ,  0.        ,  0.        , -0.        ,
        -0.        ,  0.        ,  0.        , -0.        , -0.        , -0.        ,  4.30565401,  0.        , -0.        ,  0.        , -0.        ,
        -0.        , -0.        ,  0.        , -0.        , -0.        ,  0.        ],
       [-0.00544106,  0.        , -0.        ,  0.33809097, -0.00105581,  0.        , -0.        , -0.        , -0.        , -0.01176288,  0.        ,
        -0.        ,  1.10344401, -0.00274266, -0.        , -0.        ,  0.        ,  0.        ,  3.2827574 , -0.00459591,  0.        , -0.        ,
         0.00146788, -0.        ,  0.        , -0.5905914 , -0.60988927, -1.31715835],
       [-0.05856278,  0.        ,  0.        ,  0.00104277,  0.72707876,  0.        ,  0.        ,  0.        ,  0.        ,  0.6811762 , -0.        ,
         0.        ,  0.0046771 ,  1.14980659,  0.        ,  0.        ,  0.        , -0.        , -0.00459591,  2.04359511,  0.        ,  0.        ,
        -0.96238185, -0.        ,  0.        ,  0.00148305,  0.00002802,  0.00171706],
       [ 0.        ,  0.00139983, -0.00035894,  0.        , -0.        ,  0.        ,  0.        ,  0.88855633,  1.16172464, -0.        , -0.00103754,
         0.00386289,  0.        , -0.        , -0.0017241 ,  0.00212199,  0.        ,  0.        ,  0.        ,  0.        ,  3.46469876, -0.        ,
         0.        , -2.12577588,  0.23258331,  0.        ,  0.        , -0.        ],
       [ 0.        , -0.00035894, -0.00139983,  0.        , -0.        , -0.        ,  0.        , -1.16172464,  0.88855633,  0.        , -0.00386289,
        -0.00103754, -0.        , -0.        , -0.00212199, -0.0017241 ,  0.        , -0.        , -0.        ,  0.        , -0.        ,  3.46469876,
         0.        ,  0.23258331,  2.12577588,  0.        ,  0.        ,  0.        ],
       [ 0.12361735, -0.        , -0.        ,  0.00669923, -0.01553003,  0.        ,  0.        , -0.        , -0.        ,  0.69377655, -0.        ,
        -0.        , -0.00341411, -1.62786685, -0.        , -0.        , -0.        , -0.        ,  0.00146788, -0.96238185,  0.        ,  0.        ,
         5.27272811,  0.        , -0.        , -0.002422  ,  0.00076756, -0.00018603],
       [ 0.        , -0.0036654 ,  0.00052414,  0.        ,  0.        , -0.        ,  0.        ,  0.00368216,  0.00385924,  0.        ,  0.0003245 ,
        -0.00209848,  0.        , -0.        , -0.00013317,  0.00020625, -0.        , -0.        , -0.        , -0.        , -2.12577588,  0.23258331,
         0.        ,  5.26262475,  0.        , -0.        , -0.        ,  0.        ],
       [-0.        , -0.00052414, -0.0036654 ,  0.        , -0.        , -0.        ,  0.        ,  0.00385924, -0.00368216, -0.        , -0.00209848,
        -0.0003245 , -0.        ,  0.        ,  0.00020625,  0.00013317,  0.        ,  0.        ,  0.        ,  0.        ,  0.23258331,  2.12577588,
        -0.        , -0.        ,  5.26262475,  0.        ,  0.        ,  0.        ],
       [ 0.00862631,  0.        , -0.        ,  0.1055586 , -0.00410277, -0.        ,  0.        ,  0.        ,  0.        ,  0.00608124,  0.        ,
         0.        ,  0.67391198, -0.00313808, -0.        ,  0.        , -0.        , -0.        , -0.5905914 ,  0.00148305,  0.        ,  0.        ,
        -0.002422  , -0.        ,  0.        ,  5.76166781, -4.42704045,  0.38979584],
       [-0.00156751,  0.        , -0.        , -0.08329855,  0.00331557, -0.        , -0.        , -0.        ,  0.        , -0.00297629, -0.        ,
         0.        , -0.24130869,  0.00218393, -0.        , -0.        ,  0.        , -0.        , -0.60988927,  0.00002802,  0.        ,  0.        ,
         0.00076756, -0.        ,  0.        , -4.42704045,  4.66076095,  0.51510505],
       [ 0.00075786, -0.        ,  0.        ,  0.06775935,  0.00009373,  0.        , -0.        , -0.        , -0.        ,  0.00077983,  0.        ,
        -0.        , -0.51333785,  0.00030607, -0.        ,  0.        , -0.        ,  0.        , -1.31715835,  0.00171706, -0.        ,  0.        ,
        -0.00018603,  0.        ,  0.        ,  0.38979584,  0.51510505,  2.44973706]]))
E(UHF) =    -2.104394
NO eigenvalue
[-1. -0. -0. -0. -0. -0. -0. -0. -0. -0. -0. -0. -0. -0. -0. -0.  0.  0.  0.  0.  0.  0.  0.  0.  0.  0.  0.  0.] [-1. -0. -0. -0. -0. -0. -0. -0. -0. -0. -0. -0. -0. -0. -0. -0.  0.  0.  0.  0.  0.  0.  0.  0.  0.  0.  0.  0.]
NO vec
[[ 0.99154106  0.         -0.02462433 ...  0.          0.          0.        ]
 [ 0.          0.         -0.60347652 ...  0.          0.          0.        ]
 [ 0.          0.         -0.         ...  0.          0.          0.        ]
 ...
 [ 0.         -0.01573135  0.         ... -0.21782172  0.13073027 -0.04679383]
 [ 0.         -0.01106451  0.         ...  0.02452708  0.12099977 -0.10106844]
 [ 0.         -0.00181452  0.         ... -0.02127589 -0.01571443 -0.01510886]]
dm(NO)
[[ 1.  0.  0. ...  0.  0.  0.]
 [ 0.  1.  0. ... -0.  0. -0.]
 [ 0.  0. -0. ...  0.  0.  0.]
 ...
 [ 0. -0.  0. ... -0. -0.  0.]
 [ 0. -0.  0. ... -0. -0. -0.]
 [ 0. -0.  0. ...  0. -0. -0.]]
D(g) (NO)
[[ 0.99951369  0.0305614   0.         ... -0.00072453  0.00118614 -0.00268695]
 [-0.0305614   0.99951369  0.00045728 ... -0.         -0.         -0.        ]
 [ 0.         -0.00045728  0.99951369 ...  0.00361457 -0.00767228  0.01424767]
 ...
 [ 0.00072453 -0.         -0.00361457 ...  0.99951369  0.          0.        ]
 [-0.00118614  0.          0.00767228 ...  0.          0.99951369  0.        ]
 [ 0.00268695 -0.         -0.01424767 ...  0.          0.          0.99951369]]
...
N(g) (NO)
[[ 0.99955206 -0.03056257]
 [ 0.03056257  0.99955206]]
...
P(g) (NO)
[[ 1.         -0.          0.         ...  0.          0.          0.        ]
 [-0.          1.         -0.         ... -0.          0.         -0.        ]
 [-0.00001398 -0.00045708 -0.         ...  0.         -0.          0.        ]
 ...
 [ 0.0007242  -0.00002214  0.         ...  0.         -0.          0.        ]
 [-0.00118561  0.00003625 -0.         ... -0.          0.         -0.        ]
 [ 0.00268574 -0.00008212  0.         ...  0.         -0.          0.        ]]
...
Pg_ortho
[[ 0.98317236  0.          0.         ... -0.00000969 -0.00000682 -0.00000112]
 [ 0.          0.          0.         ...  0.          0.          0.        ]
 [ 0.          0.          0.         ...  0.          0.          0.        ]
 ...
 [-0.00096268 -0.         -0.         ...  0.00024701  0.00017373  0.00002849]
 [-0.00067709 -0.         -0.         ...  0.00017373  0.00012219  0.00002004]
 [-0.00011104 -0.         -0.         ...  0.00002849  0.00002004  0.00000329]]
G(g) (NO)
[[ 0.70505475 -0.00022682 -0.01654694 ...  0.00004349 -0.00005544 -0.0003198 ]
 [ 0.00022682  0.70505475  0.00004809 ... -0.14518636  0.10721145  0.0111108 ]
 [-0.01654015  0.00017389  1.19549348 ...  0.00004966  0.00008976 -0.00014474]
 ...
 [-0.00017899 -0.14517992  0.0001108  ...  1.14646838  0.17671112  0.17806622]
 [ 0.0003476   0.1072026   0.00006766 ...  0.17670944  1.08104409  0.08907277]
 [-0.00137765  0.01114753  0.00006312 ...  0.17806008  0.08907843  1.01839575]]
...
C(NO)
[[-1.          0.         -0.         ...  0.          0.          0.        ]
 [ 0.         -1.          0.         ... -0.          0.          0.        ]
 [-0.          0.          0.02133039 ...  0.          0.          0.        ]
 ...
 [ 0.          0.          0.         ... -0.00010342  0.00017952  0.19773919]
 [ 0.          0.          0.         ... -0.00023131  0.00040154  0.04128511]
 [ 0.          0.          0.         ...  0.00042104 -0.00073087 -0.05161198]]
detC 1.0000000000000002
detNg [1.0000384  1.00099945 1.00526136 1.01433458 1.02601157 1.035465   1.04002611 1.0410656 ]
xg [0.99996161 0.99900155 0.99476618 0.985868   0.97464787 0.96574969 0.96151432 0.96055427]
ciS 1.960515871124778
[[-1.40472096  0.          0.01844856 ...  0.          0.          0.        ]
 [ 0.         -1.40472096  0.         ...  0.18737615 -0.13866135 -0.00209384]
 [ 0.01844856  0.          1.31587867 ...  0.          0.          0.        ]
 ...
 [ 0.          0.18737615  0.         ...  1.42796651  1.49190235  0.40136353]
 [ 0.         -0.13866135  0.         ...  1.49190235  1.35288467  0.38980731]
 [ 0.         -0.00209384  0.         ...  0.40136353  0.38980731  0.36253524]]
ciH -4.150732759562082
S2 = 0.000000
X(g)
[[ 2.          0.         -0.00001398 ... -0.0007242   0.00118561 -0.00268574]
 [-0.          2.          0.00045708 ... -0.00002214  0.00003625 -0.00008212]
 [-0.00001398 -0.00045708  0.         ...  0.          0.          0.        ]
 ...
 [ 0.0007242  -0.00002214  0.         ...  0.          0.          0.        ]
 [-0.00118561  0.00003625  0.         ...  0.          0.          0.        ]
 [ 0.00268574 -0.00008212  0.         ...  0.          0.          0.        ]]
X(g) int
[[ 2.         -0.         -0.0073307  ... -0.00930791  0.01523826 -0.03451896]
 [-0.          2.          0.00587467 ... -0.01161488  0.01901507 -0.04307449]
 [-0.0073307  -0.00587467  0.         ...  0.          0.          0.        ]
 ...
 [ 0.00930791 -0.01161488  0.         ...  0.          0.          0.        ]
 [-0.01523826  0.01901507  0.         ...  0.          0.          0.        ]
 [ 0.03451896 -0.04307449  0.         ...  0.          0.          0.        ]]
Hsp + Hph =  -2.117163559191562
Feff (mod,ortho)
[[-0.66431756 -0.         -0.         ...  0.          0.          0.        ]
 [-0.          1.45489137 -0.         ...  0.          0.          0.        ]
 [-0.         -0.          1.45489137 ...  0.          0.          0.        ]
 ...
 [ 0.          0.          0.         ...  5.76123519 -4.42711167  0.38974958]
 [ 0.          0.          0.         ... -4.42711167  4.66087478  0.5150994 ]
 [ 0.          0.          0.         ...  0.38974958  0.5150994   2.44973214]]
E(SUHF) =     -1.05880914
e_a, e_b
[-0.70274898  0.18446108  0.27661537  0.68344861  0.70156928  0.70156928  1.12589662  1.12589662  1.12843032  1.57813291  2.19314653  2.86596572  3.21823475
  3.21823475  3.47087077  3.47087077  3.60902511  3.60902511  3.70943856  4.30568311  4.30568311  4.33474296  4.33474296  5.13221139  6.71986787  6.85931939
  6.85931939  9.7426648 ] [-0.70274898  0.18446108  0.27661537  0.68344861  0.70156928  0.70156928  1.12589662  1.12589662  1.12843032  1.57813291  2.19314653  2.86596572  3.21823475
  3.21823475  3.47087077  3.47087077  3.60902511  3.60902511  3.70943856  4.30568311  4.30568311  4.33474296  4.33474296  5.13221139  6.71986787  6.85931939
  6.85931939  9.7426648 ]
P_a, P_b
[[ 0.97464903 -0.          0.         -0.10191594 -0.0035169   0.          0.          0.          0.          0.083529   -0.          0.         -0.02117331
   0.06963334  0.          0.         -0.          0.          0.01501529 -0.03393917  0.          0.         -0.01643026  0.         -0.          0.01616375
   0.0110816   0.00187524]
 [-0.          0.         -0.          0.          0.         -0.         -0.         -0.         -0.         -0.          0.         -0.          0.
  -0.         -0.         -0.          0.         -0.         -0.          0.         -0.         -0.          0.         -0.          0.         -0.
  -0.         -0.        ]
 [ 0.         -0.          0.         -0.         -0.          0.          0.          0.          0.          0.         -0.          0.         -0.
   0.          0.          0.         -0.          0.          0.         -0.          0.          0.         -0.          0.         -0.          0.
   0.          0.        ]
 [-0.10191594  0.         -0.          0.01065703  0.00036775 -0.         -0.         -0.         -0.         -0.00873436  0.         -0.          0.00221403
  -0.00728134 -0.         -0.          0.         -0.         -0.0015701   0.00354891 -0.         -0.          0.00171806 -0.          0.         -0.00169019
  -0.00115877 -0.00019609]
 [-0.0035169   0.         -0.          0.00036775  0.00001269 -0.         -0.         -0.         -0.         -0.0003014   0.         -0.          0.0000764
  -0.00025126 -0.         -0.          0.         -0.         -0.00005418  0.00012247 -0.         -0.          0.00005929 -0.          0.         -0.00005832
  -0.00003999 -0.00000677]
 [ 0.         -0.          0.         -0.         -0.          0.          0.          0.          0.          0.         -0.          0.         -0.
   0.          0.          0.         -0.          0.          0.         -0.          0.          0.         -0.          0.         -0.          0.
   0.          0.        ]
 [ 0.         -0.          0.         -0.         -0.          0.          0.          0.          0.          0.         -0.          0.         -0.
   0.          0.          0.         -0.          0.          0.         -0.          0.          0.         -0.          0.         -0.          0.
   0.          0.        ]
 [ 0.         -0.          0.         -0.         -0.          0.          0.          0.          0.          0.         -0.          0.         -0.
   0.          0.          0.         -0.          0.          0.         -0.          0.          0.         -0.          0.         -0.          0.
   0.          0.        ]
 [ 0.         -0.          0.         -0.         -0.          0.          0.          0.          0.          0.         -0.          0.         -0.
   0.          0.          0.         -0.          0.          0.         -0.          0.          0.         -0.          0.         -0.          0.
   0.          0.        ]
 [ 0.083529   -0.          0.         -0.00873436 -0.0003014   0.          0.          0.          0.          0.00715857 -0.          0.         -0.00181459
   0.00596769  0.          0.         -0.          0.          0.00128683 -0.00290864  0.          0.         -0.0014081   0.         -0.          0.00138526
   0.00094971  0.00016071]
 [-0.          0.         -0.          0.          0.         -0.         -0.         -0.         -0.         -0.          0.         -0.          0.
  -0.         -0.         -0.          0.         -0.         -0.          0.         -0.         -0.          0.         -0.          0.         -0.
  -0.         -0.        ]
 [ 0.         -0.          0.         -0.         -0.          0.          0.          0.          0.          0.         -0.          0.         -0.
   0.          0.          0.         -0.          0.          0.         -0.          0.          0.         -0.          0.         -0.          0.
   0.          0.        ]
 [-0.02117331  0.         -0.          0.00221403  0.0000764  -0.         -0.         -0.         -0.         -0.00181459  0.         -0.          0.00045997
  -0.00151272 -0.         -0.          0.         -0.         -0.00032619  0.0007373  -0.         -0.          0.00035693 -0.          0.         -0.00035114
  -0.00024074 -0.00004074]
 [ 0.06963334 -0.          0.         -0.00728134 -0.00025126  0.          0.          0.          0.          0.00596769 -0.          0.         -0.00151272
   0.00497492  0.          0.         -0.          0.          0.00107276 -0.00242477  0.          0.         -0.00117385  0.         -0.          0.00115481
   0.00079172  0.00013398]
 [ 0.         -0.          0.         -0.         -0.          0.          0.          0.          0.          0.         -0.          0.         -0.
   0.          0.          0.         -0.          0.          0.         -0.          0.          0.         -0.          0.         -0.          0.
   0.          0.        ]
 [ 0.         -0.          0.         -0.         -0.          0.          0.          0.          0.          0.         -0.          0.         -0.
   0.          0.          0.         -0.          0.          0.         -0.          0.          0.         -0.          0.         -0.          0.
   0.          0.        ]
 [-0.          0.         -0.          0.          0.         -0.         -0.         -0.         -0.         -0.          0.         -0.          0.
  -0.         -0.         -0.          0.         -0.         -0.          0.         -0.         -0.          0.         -0.          0.         -0.
  -0.         -0.        ]
 [ 0.         -0.          0.         -0.         -0.          0.          0.          0.          0.          0.         -0.          0.         -0.
   0.          0.          0.         -0.          0.          0.         -0.          0.          0.         -0.          0.         -0.          0.
   0.          0.        ]
 [ 0.01501529 -0.          0.         -0.0015701  -0.00005418  0.          0.          0.          0.          0.00128683 -0.          0.         -0.00032619
   0.00107276  0.          0.         -0.          0.          0.00023132 -0.00052286  0.          0.         -0.00025312  0.         -0.          0.00024902
   0.00017072  0.00002889]
 [-0.03393917  0.         -0.          0.00354891  0.00012247 -0.         -0.         -0.         -0.         -0.00290864  0.         -0.          0.0007373
  -0.00242477 -0.         -0.          0.         -0.         -0.00052286  0.00118183 -0.         -0.          0.00057213 -0.          0.         -0.00056285
  -0.00038588 -0.0000653 ]
 [ 0.         -0.          0.         -0.         -0.          0.          0.          0.          0.          0.         -0.          0.         -0.
   0.          0.          0.         -0.          0.          0.         -0.          0.          0.         -0.          0.         -0.          0.
   0.          0.        ]
 [ 0.         -0.          0.         -0.         -0.          0.          0.          0.          0.          0.         -0.          0.         -0.
   0.          0.          0.         -0.          0.          0.         -0.          0.          0.         -0.          0.         -0.          0.
   0.          0.        ]
 [-0.01643026  0.         -0.          0.00171806  0.00005929 -0.         -0.         -0.         -0.         -0.0014081   0.         -0.          0.00035693
[...]
  [ 0.         -0.          1.49762115 ... -0.         -0.          0.        ]
  ...
  [ 0.10543724  0.         -0.         ...  5.80407664 -4.45677866  0.39346043]
  [-0.06681027  0.         -0.         ... -4.45677866  4.68829209  0.51693428]
  [ 0.00558631 -0.          0.         ...  0.39346043  0.51693428  2.46023583]]]
e_a, e_b
[-0.64779702  0.19349164  0.28219897  0.6955765   0.72604566  0.72604566  1.13966845  1.13966845  1.14535939  1.58477587  2.22883565  2.89237123  3.2533943
  3.2533943   3.51390079  3.51390079  3.644021    3.644021    3.74669656  4.33713042  4.33713042  4.37016252  4.37016252  5.16984363  6.76733377  6.90574772
  6.90574772  9.8126221 ] [-0.64779702  0.19349164  0.28219897  0.6955765   0.72604566  0.72604566  1.13966845  1.13966845  1.14535939  1.58477587  2.22883565  2.89237123  3.2533943
  3.2533943   3.51390079  3.51390079  3.644021    3.644021    3.74669656  4.33713042  4.33713042  4.37016252  4.37016252  5.16984363  6.76733377  6.90574772
  6.90574772  9.8126221 ]
P_a, P_b
[[ 0.9146026  -0.          0.         -0.25056735 -0.00777056  0.         -0.         -0.          0.          0.0882525   0.          0.          0.00209823
   0.07308602  0.          0.         -0.          0.         -0.01776562 -0.0363467   0.          0.         -0.01585757  0.          0.          0.0138957
  -0.00664755 -0.00062139]
 [-0.          0.         -0.          0.          0.         -0.          0.          0.         -0.         -0.         -0.         -0.         -0.
  -0.         -0.         -0.          0.         -0.          0.          0.         -0.         -0.          0.         -0.         -0.         -0.
   0.          0.        ]
 [ 0.         -0.          0.         -0.         -0.          0.         -0.         -0.          0.          0.          0.          0.          0.
   0.          0.          0.         -0.          0.         -0.         -0.          0.          0.         -0.          0.          0.          0.
  -0.         -0.        ]
 [-0.25056735  0.         -0.          0.0686462   0.00212885 -0.          0.          0.         -0.         -0.02417793 -0.         -0.         -0.00057484
  -0.02002287 -0.         -0.          0.         -0.          0.00486712  0.00995765 -0.         -0.          0.00434439 -0.         -0.         -0.00380691
   0.00182118  0.00017024]
 [-0.00777056  0.         -0.          0.00212885  0.00006602 -0.          0.          0.         -0.         -0.0007498  -0.         -0.         -0.00001783
  -0.00062095 -0.         -0.          0.         -0.          0.00015094  0.00030881 -0.         -0.          0.00013473 -0.         -0.         -0.00011806
   0.00005648  0.00000528]
 [ 0.         -0.          0.         -0.         -0.          0.         -0.         -0.          0.          0.          0.          0.          0.
   0.          0.          0.         -0.          0.         -0.         -0.          0.          0.         -0.          0.          0.          0.
  -0.         -0.        ]
 [-0.          0.         -0.          0.          0.         -0.          0.          0.         -0.         -0.         -0.         -0.         -0.
  -0.         -0.         -0.          0.         -0.          0.          0.         -0.         -0.          0.         -0.         -0.         -0.
   0.          0.        ]
 [-0.          0.         -0.          0.          0.         -0.          0.          0.         -0.         -0.         -0.         -0.         -0.
  -0.         -0.         -0.          0.         -0.          0.          0.         -0.         -0.          0.         -0.         -0.         -0.
   0.          0.        ]
 [ 0.         -0.          0.         -0.         -0.          0.         -0.         -0.          0.          0.          0.          0.          0.
   0.          0.          0.         -0.          0.         -0.         -0.          0.          0.         -0.          0.          0.          0.
  -0.         -0.        ]
 [ 0.0882525  -0.          0.         -0.02417793 -0.0007498   0.         -0.         -0.          0.          0.00851572  0.          0.          0.00020246
   0.00705227  0.          0.         -0.          0.         -0.00171425 -0.00350719  0.          0.         -0.00153014  0.          0.          0.00134083
  -0.00064144 -0.00005996]
 [ 0.         -0.          0.         -0.         -0.          0.         -0.         -0.          0.          0.          0.          0.          0.
   0.          0.          0.         -0.          0.         -0.         -0.          0.          0.         -0.          0.          0.          0.
  -0.         -0.        ]
 [ 0.         -0.          0.         -0.         -0.          0.         -0.         -0.          0.          0.          0.          0.          0.
   0.          0.          0.         -0.          0.         -0.         -0.          0.          0.         -0.          0.          0.          0.
  -0.         -0.        ]
 [ 0.00209823 -0.          0.         -0.00057484 -0.00001783  0.         -0.         -0.          0.          0.00020246  0.          0.          0.00000481
   0.00016767  0.          0.         -0.          0.         -0.00004076 -0.00008338  0.          0.         -0.00003638  0.          0.          0.00003188
  -0.00001525 -0.00000143]
 [ 0.07308602 -0.          0.         -0.02002287 -0.00062095  0.         -0.         -0.          0.          0.00705227  0.          0.          0.00016767
   0.00584031  0.          0.         -0.          0.         -0.00141965 -0.00290447  0.          0.         -0.00126718  0.          0.          0.00111041
  -0.00053121 -0.00004966]
 [ 0.         -0.          0.         -0.         -0.          0.         -0.         -0.          0.          0.          0.          0.          0.
   0.          0.          0.         -0.          0.         -0.         -0.          0.          0.         -0.          0.          0.          0.
  -0.         -0.        ]
 [ 0.         -0.          0.         -0.         -0.          0.         -0.         -0.          0.          0.          0.          0.          0.
   0.          0.          0.         -0.          0.         -0.         -0.          0.          0.         -0.          0.          0.          0.
  -0.         -0.        ]
 [-0.          0.         -0.          0.          0.         -0.          0.          0.         -0.         -0.         -0.         -0.         -0.
  -0.         -0.         -0.          0.         -0.          0.          0.         -0.         -0.          0.         -0.         -0.         -0.
   0.          0.        ]
 [ 0.         -0.          0.         -0.         -0.          0.         -0.         -0.          0.          0.          0.          0.          0.
   0.          0.          0.         -0.          0.         -0.         -0.          0.          0.         -0.          0.          0.          0.
  -0.         -0.        ]
 [-0.01776562  0.         -0.          0.00486712  0.00015094 -0.          0.          0.         -0.         -0.00171425 -0.         -0.         -0.00004076
  -0.00141965 -0.         -0.          0.         -0.          0.00034509  0.00070601 -0.         -0.          0.00030802 -0.         -0.         -0.00026992
   0.00012912  0.00001207]
 [-0.0363467   0.         -0.          0.00995765  0.00030881 -0.          0.          0.         -0.         -0.00350719 -0.         -0.         -0.00008338
  -0.00290447 -0.         -0.          0.         -0.          0.00070601  0.00144443 -0.         -0.          0.00063019 -0.         -0.         -0.00055222
   0.00026418  0.00002469]
 [ 0.         -0.          0.         -0.         -0.          0.         -0.         -0.          0.          0.          0.          0.          0.
   0.          0.          0.         -0.          0.         -0.         -0.          0.          0.         -0.          0.          0.          0.
  -0.         -0.        ]
 [ 0.         -0.          0.         -0.         -0.          0.         -0.         -0.          0.          0.          0.          0.          0.
   0.          0.          0.         -0.          0.         -0.         -0.          0.          0.         -0.          0.          0.          0.
  -0.         -0.        ]
 [-0.01585757  0.         -0.          0.00434439  0.00013473 -0.          0.          0.         -0.         -0.00153014 -0.         -0.         -0.00003638
  -0.00126718 -0.         -0.          0.         -0.          0.00030802  0.00063019 -0.         -0.          0.00027494 -0.         -0.         -0.00024093
   0.00011526  0.00001077]
 [ 0.         -0.          0.         -0.         -0.          0.         -0.         -0.          0.          0.          0.          0.          0.
   0.          0.          0.         -0.          0.         -0.         -0.          0.          0.         -0.          0.          0.          0.
  -0.         -0.        ]
 [ 0.         -0.          0.         -0.         -0.          0.         -0.         -0.          0.          0.          0.          0.          0.
   0.          0.          0.         -0.          0.         -0.         -0.          0.          0.         -0.          0.          0.          0.
  -0.         -0.        ]
 [ 0.0138957  -0.          0.         -0.00380691 -0.00011806  0.         -0.         -0.          0.          0.00134083  0.          0.          0.00003188
   0.00111041  0.          0.         -0.          0.         -0.00026992 -0.00055222  0.          0.         -0.00024093  0.          0.          0.00021112
  -0.000101   -0.00000944]
 [-0.00664755  0.         -0.          0.00182118  0.00005648 -0.          0.          0.         -0.         -0.00064144 -0.         -0.         -0.00001525
  -0.00053121 -0.         -0.          0.         -0.          0.00012912  0.00026418 -0.         -0.          0.00011526 -0.         -0.         -0.000101
   0.00004832  0.00000452]
 [-0.00062139  0.         -0.          0.00017024  0.00000528 -0.          0.          0.         -0.         -0.00005996 -0.         -0.         -0.00000143
  -0.00004966 -0.         -0.          0.         -0.          0.00001207  0.00002469 -0.         -0.          0.00001077 -0.         -0.         -0.00000944
   0.00000452  0.00000042]] 
 [[ 0.9146026  -0.         -0.          0.25056735 -0.00777056 -0.          0.         -0.          0.          0.0882525  -0.          0.         -0.00209823
   0.07308602  0.          0.          0.         -0.          0.01776562 -0.0363467   0.         -0.         -0.01585757 -0.          0.         -0.0138957
   0.00664755  0.00062139]
 [-0.          0.          0.         -0.          0.          0.         -0.          0.         -0.         -0.          0.         -0.          0.
  -0.         -0.         -0.         -0.          0.         -0.          0.         -0.          0.          0.          0.         -0.          0.
  -0.         -0.        ]
 [-0.          0.          0.         -0.          0.          0.         -0.          0.         -0.         -0.          0.         -0.          0.
  -0.         -0.         -0.         -0.          0.         -0.          0.         -0.          0.          0.          0.         -0.          0.
  -0.         -0.        ]
 [ 0.25056735 -0.         -0.          0.0686462  -0.00212885 -0.          0.         -0.          0.          0.02417793 -0.          0.         -0.00057484
   0.02002287  0.          0.          0.         -0.          0.00486712 -0.00995765  0.         -0.         -0.00434439 -0.          0.         -0.00380691
   0.00182118  0.00017024]
 [-0.00777056  0.          0.         -0.00212885  0.00006602  0.         -0.          0.         -0.         -0.0007498   0.         -0.          0.00001783
  -0.00062095 -0.         -0.         -0.          0.         -0.00015094  0.00030881 -0.          0.          0.00013473  0.         -0.          0.00011806
  -0.00005648 -0.00000528]
 [-0.          0.          0.         -0.          0.          0.         -0.          0.         -0.         -0.          0.         -0.          0.
  -0.         -0.         -0.         -0.          0.         -0.          0.         -0.          0.          0.          0.         -0.          0.
  -0.         -0.        ]
 [ 0.         -0.         -0.          0.         -0.         -0.          0.         -0.          0.          0.         -0.          0.         -0.
   0.          0.          0.          0.         -0.          0.         -0.          0.         -0.         -0.         -0.          0.         -0.
   0.          0.        ]
 [-0.          0.          0.         -0.          0.          0.         -0.          0.         -0.         -0.          0.         -0.          0.
  -0.         -0.         -0.         -0.          0.         -0.          0.         -0.          0.          0.          0.         -0.          0.
  -0.         -0.        ]
 [ 0.         -0.         -0.          0.         -0.         -0.          0.         -0.          0.          0.         -0.          0.         -0.
   0.          0.          0.          0.         -0.          0.         -0.          0.         -0.         -0.         -0.          0.         -0.
   0.          0.        ]
 [ 0.0882525  -0.         -0.          0.02417793 -0.0007498  -0.          0.         -0.          0.          0.00851572 -0.          0.         -0.00020246
   0.00705227  0.          0.          0.         -0.          0.00171425 -0.00350719  0.         -0.         -0.00153014 -0.          0.         -0.00134083
   0.00064144  0.00005996]
 [-0.          0.          0.         -0.          0.          0.         -0.          0.         -0.         -0.          0.         -0.          0.
  -0.         -0.         -0.         -0.          0.         -0.          0.         -0.          0.          0.          0.         -0.          0.
  -0.         -0.        ]
 [ 0.         -0.         -0.          0.         -0.         -0.          0.         -0.          0.          0.         -0.          0.         -0.
   0.          0.          0.          0.         -0.          0.         -0.          0.         -0.         -0.         -0.          0.         -0.
   0.          0.        ]
 [-0.00209823  0.          0.         -0.00057484  0.00001783  0.         -0.          0.         -0.         -0.00020246  0.         -0.          0.00000481
  -0.00016767 -0.         -0.         -0.          0.         -0.00004076  0.00008338 -0.          0.          0.00003638  0.         -0.          0.00003188
  -0.00001525 -0.00000143]
 [ 0.07308602 -0.         -0.          0.02002287 -0.00062095 -0.          0.         -0.          0.          0.00705227 -0.          0.         -0.00016767
   0.00584031  0.          0.          0.         -0.          0.00141965 -0.00290447  0.         -0.         -0.00126718 -0.          0.         -0.00111041
   0.00053121  0.00004966]
 [ 0.         -0.         -0.          0.         -0.         -0.          0.         -0.          0.          0.         -0.          0.         -0.
   0.          0.          0.          0.         -0.          0.         -0.          0.         -0.         -0.         -0.          0.         -0.
   0.          0.        ]
 [ 0.         -0.         -0.          0.         -0.         -0.          0.         -0.          0.          0.         -0.          0.         -0.
   0.          0.          0.          0.         -0.          0.         -0.          0.         -0.         -0.         -0.          0.         -0.
   0.          0.        ]
 [ 0.         -0.         -0.          0.         -0.         -0.          0.         -0.          0.          0.         -0.          0.         -0.
   0.          0.          0.          0.         -0.          0.         -0.          0.         -0.         -0.         -0.          0.         -0.
   0.          0.        ]
 [-0.          0.          0.         -0.          0.          0.         -0.          0.         -0.         -0.          0.         -0.          0.
  -0.         -0.         -0.         -0.          0.         -0.          0.         -0.          0.          0.          0.         -0.          0.
  -0.         -0.        ]
 [ 0.01776562 -0.         -0.          0.00486712 -0.00015094 -0.          0.         -0.          0.          0.00171425 -0.          0.         -0.00004076
   0.00141965  0.          0.          0.         -0.          0.00034509 -0.00070601  0.         -0.         -0.00030802 -0.          0.         -0.00026992
   0.00012912  0.00001207]
 [-0.0363467   0.          0.         -0.00995765  0.00030881  0.         -0.          0.         -0.         -0.00350719  0.         -0.          0.00008338
  -0.00290447 -0.         -0.         -0.          0.         -0.00070601  0.00144443 -0.          0.          0.00063019  0.         -0.          0.00055222
  -0.00026418 -0.00002469]
 [ 0.         -0.         -0.          0.         -0.         -0.          0.         -0.          0.          0.         -0.          0.         -0.
   0.          0.          0.          0.         -0.          0.         -0.          0.         -0.         -0.         -0.          0.         -0.
   0.          0.        ]
 [-0.          0.          0.         -0.          0.          0.         -0.          0.         -0.         -0.          0.         -0.          0.
  -0.         -0.         -0.         -0.          0.         -0.          0.         -0.          0.          0.          0.         -0.          0.
  -0.         -0.        ]
 [-0.01585757  0.          0.         -0.00434439  0.00013473  0.         -0.          0.         -0.         -0.00153014  0.         -0.          0.00003638
  -0.00126718 -0.         -0.         -0.          0.         -0.00030802  0.00063019 -0.          0.          0.00027494  0.         -0.          0.00024093
  -0.00011526 -0.00001077]
 [-0.          0.          0.         -0.          0.          0.         -0.          0.         -0.         -0.          0.         -0.          0.
  -0.         -0.         -0.         -0.          0.         -0.          0.         -0.          0.          0.          0.         -0.          0.
  -0.         -0.        ]
 [ 0.         -0.         -0.          0.         -0.         -0.          0.         -0.          0.          0.         -0.          0.         -0.
   0.          0.          0.          0.         -0.          0.         -0.          0.         -0.         -0.         -0.          0.         -0.
   0.          0.        ]
 [-0.0138957   0.          0.         -0.00380691  0.00011806  0.         -0.          0.         -0.         -0.00134083  0.         -0.          0.00003188
  -0.00111041 -0.         -0.         -0.          0.         -0.00026992  0.00055222 -0.          0.          0.00024093  0.         -0.          0.00021112
  -0.000101   -0.00000944]
 [ 0.00664755 -0.         -0.          0.00182118 -0.00005648 -0.          0.         -0.          0.          0.00064144 -0.          0.         -0.00001525
   0.00053121  0.          0.          0.         -0.          0.00012912 -0.00026418  0.         -0.         -0.00011526 -0.          0.         -0.000101
   0.00004832  0.00000452]
 [ 0.00062139 -0.         -0.          0.00017024 -0.00000528 -0.          0.         -0.          0.          0.00005996 -0.          0.         -0.00000143
   0.00004966  0.          0.          0.         -0.          0.00001207 -0.00002469  0.         -0.         -0.00001077 -0.          0.         -0.00000944
   0.00000452  0.00000042]]

***************
SUHF converged at cycle 47
Final E(SUHF) =     -1.07617196, delta E = -5.22472e-09
***** Start DFT Correlation for SUHF+DFT **********
tot grids = 20048
E(SUHF) =     -1.07617196
E_c(TPSS) =     -0.02030324
E(SUHF+DFT) =     -1.09647521
