

#INFO: **** input file is /share/home/srwang/ExSCF/test/pytest/scan_h2/scan_dft.py ****
#import phf
from pyscf import lib
#import scipy
import numpy as np
import sys, os, contextlib

from pyphf import util, sudft

#xyz = 'h2.xyz' #sys.argv[1]
fch = 'test_uhf.fchk' #sys.argv[2]
#bas = '../h2.bas'
bas = 'cc-pvtz'

lib.num_threads(4)

for r in np.arange(0.5, 2.55, 0.1):
    output = 'tpss_mod/sudft_%.1f_diis_mod.out' % r
    os.system("echo '\n' > %s" % output)
    with open(output, 'a', encoding='utf-8') as f:
        with contextlib.redirect_stdout(f):
            xyz = '''H 0.0 0.0 0.0; H 0.0 0.0 %f'''%r
            mf = util.guess_from_fchk(xyz, bas, fch)
            #mf = util.guess(xyz, bas)
            #f.flush()
            mf2 = util.SUHF(mf)
            #mf2.cut_no = False
            mf2.debug = False
            #mf2.max_cycle = 50
            mf2.diis_on = True
            #mf2.output = 'sudft_%.1f.out'%r
            #mf2.kernel()
            
            mf3 = sudft.SUDFT(mf2)
            mf3.suxc = 'TPSS'
            mf3.kernel()
                    
#INFO: ******************** input file end ********************


System: uname_result(system='Linux', node='xc02n18', release='3.10.0-693.el7.x86_64', version='#1 SMP Thu Jul 6 19:56:57 EDT 2017', machine='x86_64', processor='x86_64')  Threads 4
Python 3.7.4 (default, Aug 13 2019, 20:35:49) 
[GCC 7.3.0]
numpy 1.17.2  scipy 1.4.1
Date: Tue Nov 24 03:44:15 2020
PySCF version 1.7.5
PySCF path  /share/home/srwang/pyscf-1.7.5/pyscf

[CONFIG] conf_file None
[INPUT] verbose = 4
[INPUT] num. atoms = 2
[INPUT] num. electrons = 2
[INPUT] charge = 0
[INPUT] spin (= nelec alpha-beta = 2S) = 0
[INPUT] symmetry False subgroup None
[INPUT] Mole.unit = angstrom
[INPUT]  1 H      0.000000000000   0.000000000000   0.000000000000 AA    0.000000000000   0.000000000000   0.000000000000 Bohr
[INPUT]  2 H      0.000000000000   0.000000000000   0.900000000000 AA    0.000000000000   0.000000000000   1.700753512109 Bohr

nuclear repulsion = 0.5879746788
number of shells = 12
number of NR pGTOs = 32
number of NR cGTOs = 28
basis = cc-pvtz
ecp = {}
CPU time:       143.84


******** <class 'pyscf.scf.uhf.UHF'> ********
method = UHF
initial guess = minao
damping factor = 0
level_shift factor = 0
DIIS = <class 'pyscf.scf.diis.CDIIS'>
diis_start_cycle = 1
diis_space = 8
SCF conv_tol = 1e-09
SCF conv_tol_grad = None
SCF max_cycles = 1
direct_scf = True
direct_scf_tol = 1e-13
chkfile to save SCF result = /share/home/srwang/ExSCF/test/pytest/scan_h2/tmp15duju51
max_memory 4000 MB (current use 118 MB)
number electrons alpha = 1  beta = 1
Set gradient conv threshold to 3.16228e-05
init E= -0.777606275655002
  alpha nocc = 1  HOMO = -0.484832052038408  LUMO = 0.101893589509569
  beta  nocc = 1  HOMO = -0.482896344390349  LUMO = 0.102379264447568
cycle= 1 E= -1.11785381548896  delta_E= -0.34  |g|= 0.0309  |ddm|= 0.326
SCF not converged.
SCF energy = -1.11785381548896 after 1 cycles  <S^2> = 6.3128942e-07  2S+1 = 1.0000013


******** <class 'pyscf.scf.uhf.UHF'> ********
method = UHF
initial guess = minao
damping factor = 0
level_shift factor = 0
DIIS = <class 'pyscf.scf.diis.CDIIS'>
diis_start_cycle = 1
diis_space = 8
SCF conv_tol = 1e-09
SCF conv_tol_grad = None
SCF max_cycles = 1
direct_scf = True
direct_scf_tol = 1e-13
chkfile to save SCF result = /share/home/srwang/ExSCF/test/pytest/scan_h2/tmp15duju51
max_memory 4000 MB (current use 121 MB)
number electrons alpha = 1  beta = 1
Set gradient conv threshold to 3.16228e-05
init E= -1.19390694018613
  alpha nocc = 1  HOMO = -0.524641677616421  LUMO = 0.20163919459411
  beta  nocc = 1  HOMO = -0.524641677616422  LUMO = 0.20163919459411
cycle= 1 E= -1.10198639790229  delta_E= 0.0919  |g|= 0.0704  |ddm|= 0.117
SCF not converged.
SCF energy = -1.10198639790229 after 1 cycles  <S^2> = 0.16310881  2S+1 = 1.2854708

******** <class 'pyphf.util.SUHF'> ********
max_cycle = 70
verbose: normal
DIIS: <class 'pyscf.scf.diis.CDIIS'>
diis_start_cyc = 40
SVD: S^(-1/2)
[[-0.14964621 -0.         -0.         -0.26424587  0.03380482  0.         -0.         -0.          0.         -0.13693896  0.         -0.         -0.21455659
  -0.          0.         -0.48405346  0.         -0.          0.75714798  0.          0.         -0.66802072  0.81235055  0.         -0.         -0.96842464
   0.33813793 -0.05983575]
 [-0.21165559 -0.          0.         -0.20126086 -0.08918098  0.          0.         -0.          0.          0.02101152 -0.         -0.          0.00565436
  -0.         -0.         -0.12015454 -0.         -0.         -0.30840663 -0.          0.         -0.16278234 -0.06271643 -0.         -0.          1.54092909
  -0.41791593  9.63155515]
 [-0.19586605  0.         -0.         -0.07680316 -0.2150504   0.         -0.          0.          0.          0.03265694 -0.         -0.          0.10496721
  -0.          0.          0.45004172  0.          0.         -0.37863707 -0.         -0.          0.2468693   0.16266475  0.          0.         -0.86298461
   2.92999062 -0.36290037]
 [ 0.         -0.11381874  0.23263264  0.          0.          0.04702323  0.4456973  -0.11217529 -0.01760288 -0.         -0.          0.          0.
  -0.         -0.          0.         -0.06867449 -0.84368193  0.         -0.71280358 -0.30952138  0.         -0.          0.06671597 -0.32363503 -0.
   0.         -0.        ]
 [ 0.          0.23263264  0.11381874  0.         -0.         -0.4456973   0.04702323 -0.01760288  0.11217529 -0.          0.         -0.          0.
  -0.          0.          0.         -0.84368193  0.06867449 -0.          0.30952138 -0.71280358 -0.         -0.          0.32363503  0.06671597  0.
  -0.          0.        ]
 [-0.07488524 -0.         -0.          0.15337288  0.37095     0.         -0.          0.         -0.         -0.28991102 -0.          0.          0.07609533
  -0.          0.          0.38940989  0.          0.         -0.45099683 -0.          0.         -0.7606183   1.24423837  0.         -0.          0.05466912
  -0.42384389  0.59603679]
 [ 0.         -0.14084697  0.28787528  0.          0.          0.02974088  0.28189108 -0.23684919 -0.03716708 -0.          0.          0.         -0.
   0.          0.          0.          0.05102935  0.62690732 -0.          0.29315603  0.12729743 -0.          0.         -0.29491198  1.43059968  0.
  -0.          0.        ]
 [ 0.          0.28787528  0.14084697  0.          0.         -0.28189108  0.02974088 -0.03716708  0.23684919 -0.          0.         -0.          0.
   0.         -0.          0.          0.62690732 -0.05102935  0.         -0.12729743  0.29315603  0.          0.         -1.43059968 -0.29491198 -0.
   0.          0.        ]
 [-0.10308907 -0.          0.          0.30515777  0.23987289  0.         -0.         -0.         -0.         -0.12657649 -0.         -0.          0.23859148
  -0.         -0.         -0.2598517  -0.         -0.          0.54638578  0.          0.          1.15444285 -0.19325415  0.          0.         -0.20675898
   0.99087656  5.50015117]
 [ 0.          0.         -0.          0.          0.          0.         -0.         -0.         -0.         -0.         -0.06295369 -0.6379234   0.
  -0.07040411 -0.79590234  0.         -0.          0.         -0.         -0.         -0.         -0.         -0.         -0.          0.          0.
   0.         -0.        ]
 [ 0.          0.16631456  0.08137171  0.          0.          0.30604043 -0.03228875  0.08895485 -0.56686954  0.         -0.          0.         -0.
  -0.          0.          0.          0.09498168 -0.00773137 -0.          0.33351422 -0.76805721  0.          0.         -0.84639156 -0.17447999 -0.
   0.          0.        ]
 [-0.03523066 -0.         -0.          0.09999545  0.09738702 -0.          0.          0.          0.          0.53644124 -0.         -0.         -0.56607798
  -0.          0.          0.20854186  0.         -0.          0.11359851  0.          0.          0.68167592  0.82675422  0.          0.          0.1426286
  -0.07093893  1.24947736]
 [ 0.         -0.08137171  0.16631456  0.         -0.         -0.03228875 -0.30604043  0.56686954  0.08895485  0.         -0.         -0.          0.
  -0.          0.         -0.          0.00773137  0.09498168  0.         -0.76805721 -0.33351422 -0.          0.         -0.17447999  0.84639156  0.
  -0.          0.        ]
 [ 0.         -0.          0.          0.          0.          0.          0.          0.         -0.          0.          0.6379234  -0.06295369  0.
   0.79590234 -0.07040411  0.         -0.          0.          0.          0.         -0.          0.          0.         -0.         -0.          0.
   0.          0.        ]
 [-0.14964621  0.          0.          0.26424587  0.03380482 -0.          0.         -0.          0.          0.13693896  0.          0.         -0.21455659
   0.         -0.         -0.48405346 -0.          0.         -0.75714798 -0.         -0.         -0.66802072 -0.81235055 -0.         -0.         -0.96842464
  -0.33813793  0.05983575]
 [-0.21165559 -0.          0.          0.20126086 -0.08918098  0.          0.         -0.         -0.         -0.02101152  0.          0.          0.00565436
   0.          0.         -0.12015454  0.         -0.          0.30840663  0.          0.         -0.16278234  0.06271643  0.         -0.          1.54092909
   0.41791593 -9.63155515]
 [-0.19586605 -0.         -0.          0.07680316 -0.2150504   0.         -0.          0.         -0.         -0.03265694 -0.          0.          0.10496721
   0.          0.          0.45004172  0.         -0.          0.37863707  0.          0.          0.2468693  -0.16266475 -0.          0.         -0.86298461
  -2.92999062  0.36290037]
 [ 0.         -0.11381874  0.23263264  0.         -0.         -0.04702323 -0.4456973  -0.11217529 -0.01760288  0.          0.         -0.         -0.
   0.         -0.          0.         -0.06867449 -0.84368193 -0.          0.71280358  0.30952138 -0.          0.         -0.06671597  0.32363503  0.
  -0.         -0.        ]
 [ 0.          0.23263264  0.11381874  0.          0.          0.4456973  -0.04702323 -0.01760288  0.11217529  0.         -0.         -0.         -0.
  -0.          0.          0.         -0.84368193  0.06867449  0.         -0.30952138  0.71280358  0.          0.         -0.32363503 -0.06671597 -0.
   0.         -0.        ]
 [ 0.07488524  0.         -0.          0.15337288 -0.37095     0.         -0.         -0.         -0.         -0.28991102 -0.          0.         -0.07609533
  -0.          0.         -0.38940989  0.          0.         -0.45099683 -0.          0.          0.7606183   1.24423837  0.          0.         -0.05466912
  -0.42384389  0.59603679]
 [ 0.         -0.14084697  0.28787528 -0.         -0.         -0.02974088 -0.28189108 -0.23684919 -0.03716708  0.          0.          0.         -0.
   0.          0.          0.          0.05102935  0.62690732  0.         -0.29315603 -0.12729743  0.         -0.          0.29491198 -1.43059968 -0.
   0.         -0.        ]
 [ 0.          0.28787528  0.14084697  0.          0.          0.28189108 -0.02974088 -0.03716708  0.23684919  0.          0.         -0.         -0.
   0.         -0.         -0.          0.62690732 -0.05102935 -0.          0.12729743 -0.29315603 -0.         -0.          1.43059968  0.29491198  0.
  -0.         -0.        ]
 [ 0.10308907 -0.         -0.          0.30515777 -0.23987289  0.          0.          0.         -0.         -0.12657649 -0.         -0.         -0.23859148
  -0.         -0.          0.2598517   0.         -0.          0.54638578  0.          0.         -1.15444285 -0.19325415 -0.         -0.          0.20675898
   0.99087656  5.50015117]
 [-0.         -0.         -0.          0.          0.          0.         -0.         -0.         -0.         -0.         -0.06295369 -0.6379234   0.
   0.07040411  0.79590234 -0.          0.         -0.          0.          0.         -0.          0.          0.          0.         -0.         -0.
  -0.          0.        ]
 [-0.         -0.16631456 -0.08137171 -0.         -0.          0.30604043 -0.03228875 -0.08895485  0.56686954  0.         -0.         -0.         -0.
  -0.         -0.          0.         -0.09498168  0.00773137 -0.          0.33351422 -0.76805721  0.          0.         -0.84639156 -0.17447999  0.
  -0.          0.        ]
 [-0.03523066  0.          0.         -0.09999545  0.09738702  0.         -0.          0.         -0.         -0.53644124  0.          0.         -0.56607798
   0.          0.          0.20854186 -0.          0.         -0.11359851 -0.         -0.          0.68167592 -0.82675422 -0.          0.          0.1426286
   0.07093893 -1.24947736]
 [-0.          0.08137171 -0.16631456  0.          0.         -0.03228875 -0.30604043 -0.56686954 -0.08895485  0.          0.          0.         -0.
   0.          0.          0.         -0.00773137 -0.09498168  0.         -0.76805721 -0.33351422 -0.          0.         -0.17447999  0.84639156  0.
  -0.          0.        ]
 [ 0.         -0.          0.          0.          0.          0.          0.          0.         -0.          0.          0.6379234  -0.06295369  0.
  -0.79590234  0.07040411  0.          0.          0.          0.         -0.          0.         -0.         -0.          0.          0.         -0.
  -0.         -0.        ]]
C (ortho)
[[-0.95749463 -0.16483554  0.03319148  0.12455447  0.          0.         -0.15262508  0.          0.          0.01608467  0.00931987  0.04439963 -0.
   0.         -0.          0.         -0.11092758 -0.         -0.         -0.         -0.         -0.         -0.         -0.00312656  0.          0.
  -0.03854737  0.00242258]
 [ 0.          0.          0.          0.         -0.79616785  0.29647101  0.         -0.03931926  0.03411335 -0.          0.          0.          0.
  -0.         -0.45991     0.22814866  0.         -0.         -0.          0.02963677 -0.05527201 -0.01821057  0.08745889 -0.         -0.0051397  -0.00158467
  -0.         -0.        ]
 [ 0.         -0.         -0.         -0.          0.29647101  0.79616785  0.          0.03411335  0.03931926 -0.         -0.         -0.         -0.
   0.          0.22814866  0.45991    -0.          0.         -0.          0.05527201  0.02963677  0.08745889  0.01821057  0.          0.00158467 -0.0051397
   0.         -0.        ]
 [-0.20078907  0.65553672  0.02826883 -0.70338467 -0.          0.         -0.03709845  0.         -0.         -0.03533176  0.1137951  -0.1108105   0.
  -0.          0.         -0.         -0.00791884  0.          0.          0.          0.          0.          0.         -0.03062507 -0.         -0.
  -0.0021696   0.07448494]
 [-0.19033822 -0.05813529 -0.44541068 -0.05118391 -0.         -0.          0.63115944 -0.          0.         -0.01737997 -0.14066757 -0.18649941  0.
  -0.          0.         -0.          0.54141064  0.         -0.          0.          0.          0.          0.          0.01624239 -0.         -0.
   0.1128561  -0.00465823]
 [ 0.          0.          0.          0.          0.03765204 -0.03212615 -0.         -0.36074163  0.65060776  0.         -0.          0.          0.
   0.          0.0060954  -0.00640816 -0.         -0.         -0.         -0.3736356   0.33350277  0.06334879  0.43497665 -0.         -0.00101299 -0.00076845
  -0.          0.        ]
 [ 0.         -0.          0.         -0.          0.03212615  0.03765204 -0.         -0.65060776 -0.36074163  0.          0.         -0.         -0.
   0.          0.00640816  0.0060954  -0.          0.         -0.          0.33350277  0.3736356  -0.43497665  0.06334879  0.         -0.00076845  0.00101299
  -0.         -0.        ]
 [-0.          0.          0.          0.         -0.21975788 -0.28560383 -0.         -0.01693612 -0.01054287 -0.         -0.         -0.          0.
   0.          0.49786128  0.52395316  0.         -0.          0.         -0.27587397 -0.27929129 -0.43762092  0.04129453  0.          0.0024418  -0.00358114
   0.         -0.        ]
 [-0.         -0.          0.          0.         -0.28560383  0.21975788  0.         -0.01054287  0.01693612 -0.         -0.         -0.         -0.
   0.          0.52395316 -0.49786128  0.          0.         -0.          0.27929129 -0.27587397  0.04129453  0.43762092  0.          0.00358114  0.0024418
   0.         -0.        ]
 [ 0.00072347 -0.11860847  0.02517375 -0.05278854  0.         -0.         -0.01952445  0.          0.         -0.58472036  0.24071083 -0.20726182  0.
  -0.         -0.         -0.         -0.02263322  0.         -0.         -0.          0.          0.          0.          0.72218441  0.         -0.
  -0.00857095 -0.1311367 ]
 [-0.         -0.          0.          0.          0.          0.          0.          0.         -0.         -0.         -0.          0.          0.99859454
  -0.0485225   0.         -0.         -0.         -0.00211755  0.02121403  0.          0.          0.         -0.         -0.         -0.          0.
  -0.         -0.        ]
 [-0.         -0.          0.          0.          0.         -0.         -0.         -0.          0.          0.         -0.          0.         -0.0485225
  -0.99859454  0.          0.         -0.         -0.02121403 -0.00211755 -0.          0.         -0.         -0.         -0.         -0.          0.
  -0.          0.        ]
 [-0.02587252  0.02786807  0.21994376  0.00588447 -0.         -0.          0.50234047 -0.         -0.         -0.01344879  0.4130855   0.50360945 -0.
  -0.          0.          0.         -0.02094259  0.         -0.          0.          0.         -0.         -0.          0.00036316  0.         -0.
  -0.5224112   0.00173021]
 [ 0.         -0.          0.          0.          0.          0.         -0.         -0.         -0.          0.         -0.          0.          0.02130373
  -0.00081877 -0.         -0.         -0.          0.08921124 -0.99578453 -0.         -0.         -0.         -0.         -0.         -0.         -0.
  -0.         -0.        ]
 [-0.         -0.          0.          0.          0.         -0.         -0.         -0.         -0.          0.         -0.          0.         -0.00081877
  -0.02130373 -0.          0.         -0.          0.99578453  0.08921124 -0.         -0.         -0.         -0.         -0.         -0.          0.
  -0.          0.        ]
 [-0.04444785  0.05555391  0.70166826  0.08520387  0.          0.         -0.07077721 -0.          0.          0.00679235  0.04609577  0.05898031 -0.
   0.         -0.         -0.          0.62724029 -0.         -0.          0.          0.          0.          0.          0.01898173 -0.          0.
   0.30147447 -0.00187528]
 [ 0.         -0.          0.          0.         -0.23843951  0.29601172  0.         -0.0087461   0.02639821 -0.         -0.          0.         -0.
   0.          0.2510855  -0.3882544   0.         -0.          0.         -0.44653203  0.26910491 -0.19742796 -0.57459779 -0.          0.00269734  0.00298102
   0.          0.        ]
 [ 0.         -0.          0.         -0.          0.29601172  0.23843951  0.          0.02639821  0.0087461  -0.          0.         -0.          0.
  -0.         -0.3882544  -0.2510855   0.         -0.          0.         -0.26910491 -0.44653203 -0.57459779  0.19742796 -0.         -0.00298102  0.00269734
   0.          0.        ]
 [-0.03470394  0.45891048 -0.07851462  0.24160265  0.          0.          0.00306346  0.          0.          0.13121724 -0.52395456  0.43370792 -0.
   0.         -0.         -0.         -0.00604112 -0.         -0.          0.          0.         -0.          0.          0.48018923 -0.          0.
  -0.00057899 -0.11481992]
 [-0.          0.         -0.          0.          0.01415034  0.0051596   0.         -0.28834892  0.0024544   0.         -0.          0.          0.
  -0.         -0.01125926 -0.00282238 -0.         -0.          0.         -0.05184372 -0.2386361   0.1649003  -0.12782141  0.          0.82816035 -0.3570327
   0.         -0.        ]
 [-0.          0.          0.          0.         -0.0051596   0.01415034 -0.         -0.0024544  -0.28834892  0.         -0.          0.          0.
  -0.          0.00282238 -0.01125926  0.         -0.          0.         -0.2386361   0.05184372  0.12782141  0.1649003   0.         -0.3570327  -0.82816035
  -0.          0.        ]
 [-0.03323009  0.01545793  0.14353488  0.00709705 -0.         -0.          0.44148455  0.         -0.         -0.01274277  0.108064    0.13369644 -0.
  -0.          0.          0.         -0.48246897  0.          0.         -0.          0.         -0.          0.         -0.00402133  0.          0.
   0.72151313  0.00263879]
 [ 0.0149353  -0.11555758  0.01619399 -0.06952691 -0.          0.         -0.00537614  0.         -0.         -0.30596332 -0.23403911  0.18749806 -0.
   0.          0.          0.          0.00680307  0.         -0.         -0.          0.          0.          0.          0.02165622  0.          0.
   0.00022576  0.89288271]
 [ 0.         -0.          0.         -0.          0.01832665 -0.02949217  0.         -0.11786433  0.58792076 -0.         -0.          0.          0.
   0.         -0.0027567   0.00567814 -0.          0.         -0.          0.46524376 -0.20792766 -0.19224433 -0.39491205  0.         -0.2486752  -0.35323257
   0.          0.        ]
 [-0.          0.          0.          0.          0.02949217  0.01832665  0.         -0.58792076 -0.11786433  0.         -0.          0.          0.
  -0.         -0.00567814 -0.0027567  -0.         -0.          0.         -0.20792766 -0.46524376  0.39491205 -0.19224433  0.         -0.35323257  0.2486752
   0.         -0.        ]
 [ 0.02519818 -0.03915931 -0.46642555 -0.05879751  0.          0.         -0.35207552 -0.         -0.          0.00157185  0.45079694  0.53023583 -0.
   0.         -0.          0.          0.25896445 -0.          0.         -0.         -0.          0.         -0.          0.01130649 -0.          0.
   0.31827972  0.00129845]
 [ 0.0274477  -0.54403766  0.11681235 -0.63481875 -0.         -0.         -0.00121815  0.          0.          0.26898474 -0.29328403  0.23695668 -0.
   0.          0.          0.         -0.00499609 -0.         -0.          0.          0.         -0.         -0.          0.21407691  0.         -0.
  -0.00011493 -0.16204175]
 [ 0.00967649  0.00941011 -0.0115862   0.08559939  0.          0.          0.01802634 -0.          0.          0.68754405  0.3259699  -0.26921689  0.
  -0.          0.          0.         -0.01337954  0.          0.         -0.         -0.         -0.          0.          0.44705048  0.          0.
  -0.00394239  0.37487565]]
[[-0.95749463 -0.16483554  0.03319148  0.12455447  0.          0.          0.15262508 -0.         -0.          0.01608467  0.00931987  0.04439963  0.
  -0.         -0.         -0.          0.11092758 -0.          0.          0.         -0.          0.          0.         -0.00312656 -0.         -0.
  -0.03854737  0.00242258]
 [ 0.          0.         -0.          0.         -0.42533476  0.73543773  0.         -0.0324947   0.04066717  0.         -0.          0.         -0.
   0.          0.04568205 -0.51135328  0.         -0.         -0.         -0.02461431  0.05768422 -0.07326029  0.0511235   0.         -0.00122382  0.00523736
  -0.          0.        ]
 [ 0.         -0.         -0.         -0.          0.73543773  0.42533476 -0.          0.04066717  0.0324947  -0.         -0.         -0.          0.
   0.         -0.51135328 -0.04568205 -0.         -0.          0.          0.05768422  0.02461431  0.0511235   0.07326029 -0.          0.00523736  0.00122382
  -0.          0.        ]
 [ 0.20078907 -0.65553672 -0.02826883  0.70338467  0.         -0.         -0.03709845  0.          0.          0.03533176 -0.1137951   0.1108105  -0.
   0.          0.          0.         -0.00791884 -0.         -0.         -0.          0.         -0.         -0.          0.03062507 -0.         -0.
   0.0021696  -0.07448494]
 [-0.19033822 -0.05813529 -0.44541068 -0.05118391 -0.         -0.         -0.63115944  0.          0.         -0.01737997 -0.14066757 -0.18649941 -0.
   0.          0.          0.         -0.54141064  0.         -0.         -0.          0.         -0.         -0.          0.01624239  0.          0.
   0.1128561  -0.00465823]
 [ 0.         -0.          0.         -0.         -0.00859004  0.04874399 -0.          0.23701274 -0.70515952 -0.          0.          0.          0.
   0.         -0.00228055 -0.00854503  0.         -0.         -0.         -0.02673666  0.5001128   0.252396   -0.35988056 -0.         -0.00015266 -0.00126229
  -0.         -0.        ]
 [-0.          0.          0.         -0.         -0.04874399 -0.00859004  0.          0.70515952  0.23701274  0.         -0.         -0.          0.
  -0.          0.00854503 -0.00228055 -0.          0.          0.         -0.5001128  -0.02673666  0.35988056  0.252396   -0.          0.00126229 -0.00015266
   0.          0.        ]
 [-0.          0.          0.          0.         -0.35128394 -0.08039072  0.         -0.01856476 -0.00730302  0.          0.          0.          0.
   0.         -0.70684832  0.15085831 -0.          0.         -0.         -0.39044958 -0.04073329 -0.34667061 -0.2702532  -0.          0.00432384 -0.00030236
   0.          0.        ]
 [-0.          0.         -0.          0.         -0.08039072  0.35128394  0.         -0.00730302  0.01856476  0.          0.          0.          0.
  -0.          0.15085831  0.70684832  0.         -0.          0.         -0.04073329  0.39044958 -0.2702532   0.34667061  0.         -0.00030236 -0.00432384
   0.          0.        ]
 [-0.00072347  0.11860847 -0.02517375  0.05278854  0.          0.         -0.01952445 -0.         -0.          0.58472036 -0.24071083  0.20726182  0.
   0.          0.          0.         -0.02263322  0.          0.          0.          0.         -0.         -0.         -0.72218441  0.         -0.
   0.00857095  0.1311367 ]
 [ 0.         -0.          0.         -0.          0.          0.         -0.         -0.          0.         -0.          0.          0.          0.94303189
   0.33201857  0.         -0.         -0.          0.00090172  0.02130038  0.          0.          0.         -0.         -0.         -0.         -0.
  -0.          0.        ]
 [ 0.         -0.          0.         -0.          0.         -0.         -0.         -0.         -0.          0.         -0.         -0.          0.33201857
  -0.94303189 -0.         -0.          0.         -0.02130038  0.00090172 -0.         -0.          0.         -0.          0.          0.          0.
   0.         -0.        ]
 [-0.02587252  0.02786807  0.21994376  0.00588447  0.         -0.         -0.50234047 -0.          0.         -0.01344879  0.4130855   0.50360945 -0.
   0.         -0.         -0.          0.02094259  0.         -0.         -0.         -0.         -0.          0.          0.00036316  0.         -0.
  -0.5224112   0.00173021]
 [-0.          0.          0.         -0.          0.          0.         -0.         -0.          0.          0.         -0.         -0.         -0.02003669
  -0.00728357 -0.          0.         -0.          0.0524107   0.99839802 -0.          0.         -0.         -0.          0.          0.         -0.
  -0.          0.        ]
 [-0.          0.          0.          0.          0.         -0.         -0.          0.          0.          0.         -0.         -0.         -0.00728357
   0.02003669 -0.         -0.          0.         -0.99839802  0.0524107   0.         -0.          0.         -0.          0.          0.         -0.
   0.         -0.        ]
 [-0.04444785  0.05555391  0.70166826  0.08520387  0.          0.          0.07077721 -0.         -0.          0.00679235  0.04609577  0.05898031  0.
  -0.          0.         -0.         -0.62724029  0.          0.          0.          0.          0.          0.          0.01898173  0.          0.
   0.30147447 -0.00187528]
 [ 0.         -0.          0.          0.          0.00452266  0.38007353  0.         -0.00382315  0.02754529 -0.          0.          0.         -0.
  -0.          0.19992413  0.41691216 -0.          0.         -0.         -0.06909689 -0.51675325  0.25067082 -0.55344789 -0.         -0.00121372 -0.00383263
   0.         -0.        ]
 [-0.          0.          0.          0.          0.38007353 -0.00452266 -0.          0.02754529  0.00382315 -0.         -0.          0.         -0.
   0.          0.41691216 -0.19992413  0.         -0.         -0.         -0.51675325  0.06909689 -0.55344789 -0.25067082  0.         -0.00383263  0.00121372
  -0.         -0.        ]
 [ 0.03470394 -0.45891048  0.07851462 -0.24160265  0.         -0.          0.00306346 -0.          0.         -0.13121724  0.52395456 -0.43370792 -0.
  -0.          0.         -0.         -0.00604112 -0.          0.         -0.         -0.         -0.          0.         -0.48018923  0.         -0.
   0.00057899  0.11481992]
 [ 0.         -0.          0.         -0.         -0.01419773  0.00502773 -0.          0.28314122 -0.05460925 -0.          0.         -0.          0.
  -0.         -0.00828797  0.0081269   0.          0.          0.          0.21866983 -0.10871276 -0.2076619  -0.02017319 -0.         -0.72597769  0.53504981
  -0.          0.        ]
 [ 0.         -0.          0.         -0.         -0.00502773 -0.01419773  0.          0.05460925  0.28314122 -0.          0.          0.         -0.
  -0.         -0.0081269  -0.00828797 -0.         -0.         -0.          0.10871276  0.21866983  0.02017319 -0.2076619  -0.         -0.53504981 -0.72597769
   0.         -0.        ]
 [-0.03323009  0.01545793  0.14353488  0.00709705 -0.         -0.         -0.44148455 -0.          0.         -0.01274277  0.108064    0.13369644  0.
  -0.         -0.         -0.          0.48246897 -0.          0.         -0.          0.          0.         -0.         -0.00402133  0.          0.
   0.72151313  0.00263879]
 [-0.0149353   0.11555758 -0.01619399  0.06952691  0.         -0.         -0.00537614 -0.          0.          0.30596332  0.23403911 -0.18749806  0.
  -0.         -0.         -0.          0.00680307 -0.          0.          0.          0.          0.         -0.         -0.02165622  0.          0.
  -0.00022576 -0.89288271]
 [-0.          0.          0.          0.          0.00463812  0.03441136 -0.          0.00949495 -0.59954372  0.          0.         -0.          0.
  -0.          0.00340199  0.00531669  0.          0.          0.         -0.12854434 -0.49311461 -0.13114268  0.41918374 -0.         -0.17959856 -0.39288288
   0.         -0.        ]
 [-0.         -0.          0.         -0.         -0.03441136  0.00463812 -0.          0.59954372  0.00949495 -0.          0.         -0.         -0.
   0.         -0.00531669  0.00340199  0.          0.          0.          0.49311461 -0.12854434 -0.41918374 -0.13114268  0.          0.39288288 -0.17959856
   0.          0.        ]
 [ 0.02519818 -0.03915931 -0.46642555 -0.05879751  0.         -0.          0.35207552  0.         -0.          0.00157185  0.45079694  0.53023583 -0.
  -0.         -0.         -0.         -0.25896445 -0.          0.          0.         -0.         -0.          0.          0.01130649  0.          0.
   0.31827972  0.00129845]
 [-0.0274477   0.54403766 -0.11681235  0.63481875  0.         -0.         -0.00121815 -0.         -0.         -0.26898474  0.29328403 -0.23695668 -0.
   0.         -0.         -0.         -0.00499609  0.         -0.         -0.         -0.          0.          0.         -0.21407691 -0.         -0.
   0.00011493  0.16204175]
 [-0.00967649 -0.00941011  0.0115862  -0.08559939  0.          0.          0.01802634  0.         -0.         -0.68754405 -0.3259699   0.26921689  0.
  -0.         -0.          0.         -0.01337954 -0.          0.         -0.          0.         -0.         -0.         -0.44705048  0.          0.
   0.00394239 -0.37487565]]
grids:  [0.06237655 0.31939555 0.74529195 1.28265786 1.85893479 2.39630071 2.8221971  3.07921611] 
weights:  [0.15900941 0.34931531 0.49276925 0.56970235 0.56970235 0.49276925 0.34931531 0.15900941]
S = 0.0, Sz = 0.0
Wigner small d:  1
value : [1. 1. 1. 1. 1. 1. 1. 1.]
**** Start Cycle 1 ****
dm (ortho)
[[[ 0.91679596 -0.         -0.         ... -0.02412713 -0.02628103 -0.00926518]
  [-0.          0.          0.         ...  0.          0.          0.        ]
  [-0.          0.          0.         ...  0.          0.          0.        ]
  ...
  [-0.02412713  0.          0.         ...  0.00063495  0.00069163  0.00024383]
  [-0.02628103  0.          0.         ...  0.00069163  0.00075338  0.0002656 ]
  [-0.00926518  0.          0.         ...  0.00024383  0.0002656   0.00009363]]

 [[ 0.91679596 -0.         -0.         ... -0.02412713  0.02628103  0.00926518]
  [-0.          0.          0.         ...  0.         -0.         -0.        ]
  [-0.          0.          0.         ...  0.         -0.         -0.        ]
  ...
  [-0.02412713  0.          0.         ...  0.00063495 -0.00069163 -0.00024383]
  [ 0.02628103 -0.         -0.         ... -0.00069163  0.00075338  0.0002656 ]
  [ 0.00926518 -0.         -0.         ... -0.00024383  0.0002656   0.00009363]]]
Fock (ortho)
 (array([[-0.4433061 ,  0.        ,  0.        , -0.13438524, -0.45388887,  0.        ,  0.        , -0.        , -0.        , -0.02145953, -0.        ,
         0.        ,  0.07576046,  0.        ,  0.        , -0.31761653,  0.        , -0.        ,  0.01364565,  0.        , -0.        , -0.0311987 ,
         0.01799155,  0.        , -0.        , -0.03761345,  0.00415781,  0.00635978],
       [ 0.        ,  1.39017492, -0.        ,  0.        , -0.        ,  0.02255245,  0.00822988, -0.22334547, -0.72363412,  0.        ,  0.        ,
         0.        , -0.        , -0.        ,  0.        , -0.        , -0.77788762,  0.46232342,  0.        , -0.00667536,  0.00569268,  0.        ,
         0.        ,  0.00361728,  0.00279766,  0.        , -0.        , -0.        ],
       [ 0.        , -0.        ,  1.39017492,  0.        ,  0.        ,  0.00822988, -0.02255245,  0.72363412, -0.22334547, -0.        , -0.        ,
         0.        ,  0.        , -0.        ,  0.        , -0.        , -0.46232342, -0.77788762, -0.        ,  0.00569268,  0.00667536,  0.        ,
         0.        ,  0.00279766, -0.00361728, -0.        , -0.        ,  0.        ],
       [-0.13438524,  0.        ,  0.        ,  0.42650362, -0.0296502 ,  0.        , -0.        , -0.        , -0.        ,  0.00968708, -0.        ,
         0.        , -0.03026785, -0.        ,  0.        , -0.04326908,  0.        ,  0.        , -0.44411378, -0.        , -0.        , -0.01654657,
         0.34134447,  0.        , -0.        , -0.00128804, -0.05225291,  0.2161599 ],
       [-0.45388887, -0.        ,  0.        , -0.0296502 ,  1.69720487, -0.        ,  0.        ,  0.        , -0.        ,  0.01545906,  0.        ,
        -0.        , -0.42663856,  0.        , -0.        ,  1.18861417,  0.        , -0.        , -0.00263522, -0.        ,  0.        , -0.33413362,
        -0.00939913, -0.        , -0.        ,  0.12646945,  0.00131539, -0.00045798],
       [ 0.        ,  0.02255245,  0.00822988,  0.        , -0.        ,  2.35810347,  0.        , -0.00079309,  0.01567967, -0.        ,  0.        ,
        -0.        ,  0.        ,  0.        , -0.        , -0.        , -0.0099751 ,  0.00188053,  0.        , -0.30634726,  0.54158426,  0.        ,
         0.        , -1.23326907, -0.39289421, -0.        ,  0.        ,  0.        ],
       [ 0.        ,  0.00822988, -0.02255245, -0.        ,  0.        ,  0.        ,  2.35810347,  0.01567967,  0.00079309,  0.        , -0.        ,
         0.        ,  0.        , -0.        ,  0.        , -0.        ,  0.00188053,  0.0099751 ,  0.        , -0.54158426, -0.30634726,  0.        ,
        -0.        ,  0.39289421, -1.23326907, -0.        ,  0.        , -0.        ],
       [-0.        , -0.22334547,  0.72363412, -0.        ,  0.        , -0.00079309,  0.01567967,  3.18194477, -0.        , -0.        , -0.        ,
        -0.        , -0.        ,  0.        ,  0.        , -0.        ,  0.16089171,  0.66648024,  0.        ,  0.00457141,  0.00290002,  0.        ,
        -0.        ,  0.00048199, -0.0012846 ,  0.        ,  0.        ,  0.        ],
       [-0.        , -0.72363412, -0.22334547, -0.        , -0.        ,  0.01567967,  0.00079309, -0.        ,  3.18194477,  0.        ,  0.        ,
        -0.        , -0.        ,  0.        , -0.        ,  0.        , -0.66648024,  0.16089171,  0.        ,  0.00290002, -0.00457141,  0.        ,
         0.        , -0.0012846 , -0.00048199,  0.        , -0.        ,  0.        ],
       [-0.02145953,  0.        , -0.        ,  0.00968708,  0.01545906, -0.        ,  0.        , -0.        ,  0.        ,  3.06337225,  0.        ,
        -0.        ,  0.00583936, -0.        , -0.        , -0.00796153, -0.        , -0.        ,  0.89798612,  0.        ,  0.        , -0.00859346,
        -0.64663658, -0.        ,  0.        , -0.00624551,  0.28957034,  0.77637038],
       [-0.        ,  0.        , -0.        , -0.        ,  0.        ,  0.        , -0.        , -0.        ,  0.        ,  0.        ,  3.16272675,
         0.        ,  0.        , -0.01187799, -0.00012043, -0.        , -0.        , -0.        ,  0.        ,  0.        ,  0.        ,  0.        ,
         0.        ,  0.        , -0.        ,  0.        , -0.        ,  0.        ],
       [ 0.        ,  0.        ,  0.        ,  0.        , -0.        , -0.        ,  0.        , -0.        , -0.        , -0.        ,  0.        ,
         3.16272675, -0.        ,  0.00012043, -0.01187799, -0.        ,  0.        , -0.        , -0.        ,  0.        ,  0.        ,  0.        ,
         0.        ,  0.        ,  0.        ,  0.        , -0.        ,  0.        ],
       [ 0.07576046, -0.        ,  0.        , -0.03026785, -0.42663856,  0.        ,  0.        , -0.        , -0.        ,  0.00583936,  0.        ,
        -0.        ,  2.74467911, -0.        , -0.        , -0.74172759, -0.        ,  0.        ,  0.01305524,  0.        , -0.        , -1.41532678,
         0.01045135, -0.        , -0.        ,  0.01309566,  0.00094596,  0.00033617],
       [ 0.        , -0.        , -0.        , -0.        ,  0.        ,  0.        , -0.        ,  0.        ,  0.        , -0.        , -0.01187799,
         0.00012043, -0.        ,  3.90340512,  0.        , -0.        , -0.        ,  0.        , -0.        ,  0.        ,  0.        ,  0.        ,
         0.        , -0.        , -0.        , -0.        , -0.        ,  0.        ],
       [ 0.        ,  0.        ,  0.        ,  0.        , -0.        , -0.        ,  0.        ,  0.        , -0.        , -0.        , -0.00012043,
        -0.01187799, -0.        ,  0.        ,  3.90340512,  0.        ,  0.        , -0.        , -0.        ,  0.        ,  0.        ,  0.        ,
         0.        ,  0.        , -0.        , -0.        , -0.        ,  0.        ],
       [-0.31761653, -0.        , -0.        , -0.04326908,  1.18861417, -0.        , -0.        , -0.        ,  0.        , -0.00796153, -0.        ,
        -0.        , -0.74172759, -0.        ,  0.        ,  2.04615934,  0.        , -0.        ,  0.02179977, -0.        ,  0.        ,  0.08739846,
         0.00369575,  0.        , -0.        ,  1.12274514,  0.00259835, -0.00014362],
       [ 0.        , -0.77788762, -0.46232342,  0.        ,  0.        , -0.0099751 ,  0.00188053,  0.16089171, -0.66648024, -0.        , -0.        ,
         0.        , -0.        , -0.        ,  0.        ,  0.        ,  3.35039006,  0.        , -0.        ,  0.00239501, -0.00702788, -0.        ,
        -0.        ,  0.00592623,  0.00072708,  0.        ,  0.        , -0.        ],
       [-0.        ,  0.46232342, -0.77788762,  0.        , -0.        ,  0.00188053,  0.0099751 ,  0.66648024,  0.16089171, -0.        , -0.        ,
        -0.        ,  0.        ,  0.        , -0.        , -0.        ,  0.        ,  3.35039006,  0.        , -0.00702788, -0.00239501, -0.        ,
         0.        ,  0.00072708, -0.00592623,  0.        , -0.        ,  0.        ],
       [ 0.01364565,  0.        , -0.        , -0.44411378, -0.00263522,  0.        ,  0.        ,  0.        ,  0.        ,  0.89798612,  0.        ,
        -0.        ,  0.01305524, -0.        , -0.        ,  0.02179977, -0.        ,  0.        ,  2.27956466, -0.        , -0.        ,  0.00169818,
        -0.19126365, -0.        ,  0.        ,  0.01272061,  1.10588557,  0.07169982],
       [ 0.        , -0.00667536,  0.00569268, -0.        , -0.        , -0.30634726, -0.54158426,  0.00457141,  0.00290002,  0.        ,  0.        ,
         0.        ,  0.        ,  0.        ,  0.        , -0.        ,  0.00239501, -0.00702788, -0.        ,  4.70426932,  0.        ,  0.        ,
         0.        , -0.19803635, -0.94597763,  0.        ,  0.        ,  0.        ],
       [-0.        ,  0.00569268,  0.00667536, -0.        ,  0.        ,  0.54158426, -0.30634726,  0.00290002, -0.00457141,  0.        ,  0.        ,
         0.        , -0.        ,  0.        ,  0.        ,  0.        , -0.00702788, -0.00239501, -0.        ,  0.        ,  4.70426932, -0.        ,
        -0.        ,  0.94597763, -0.19803635, -0.        ,  0.        , -0.        ],
       [-0.0311987 ,  0.        ,  0.        , -0.01654657, -0.33413362,  0.        ,  0.        ,  0.        ,  0.        , -0.00859346,  0.        ,
         0.        , -1.41532678,  0.        ,  0.        ,  0.08739846, -0.        , -0.        ,  0.00169818,  0.        , -0.        ,  3.82787368,
         0.00672109,  0.        ,  0.        ,  0.86396838,  0.00018183, -0.00158849],
       [ 0.01799155,  0.        ,  0.        ,  0.34134447, -0.00939913,  0.        , -0.        , -0.        ,  0.        , -0.64663658,  0.        ,
         0.        ,  0.01045135,  0.        ,  0.        ,  0.00369575, -0.        ,  0.        , -0.19126365,  0.        , -0.        ,  0.00672109,
         5.46642922,  0.        , -0.        ,  0.00687383, -0.71628986,  1.55494906],
       [ 0.        ,  0.00361728,  0.00279766,  0.        , -0.        , -1.23326907,  0.39289421,  0.00048199, -0.0012846 , -0.        ,  0.        ,
         0.        , -0.        , -0.        ,  0.        ,  0.        ,  0.00592623,  0.00072708, -0.        , -0.19803635,  0.94597763,  0.        ,
         0.        ,  3.15647678,  0.        ,  0.        , -0.        ,  0.        ],
       [-0.        ,  0.00279766, -0.00361728, -0.        , -0.        , -0.39289421, -1.23326907, -0.0012846 , -0.00048199,  0.        , -0.        ,
         0.        , -0.        , -0.        , -0.        , -0.        ,  0.00072708, -0.00592623,  0.        , -0.94597763, -0.19803635,  0.        ,
        -0.        ,  0.        ,  3.15647678,  0.        , -0.        ,  0.        ],
       [-0.03761345,  0.        , -0.        , -0.00128804,  0.12646945, -0.        , -0.        ,  0.        ,  0.        , -0.00624551,  0.        ,
         0.        ,  0.01309566, -0.        , -0.        ,  1.12274514,  0.        ,  0.        ,  0.01272061,  0.        , -0.        ,  0.86396838,
         0.00687383,  0.        ,  0.        ,  2.16892464,  0.00386836, -0.00041776],
       [ 0.00415781, -0.        , -0.        , -0.05225291,  0.00131539,  0.        ,  0.        ,  0.        , -0.        ,  0.28957034, -0.        ,
        -0.        ,  0.00094596, -0.        , -0.        ,  0.00259835,  0.        , -0.        ,  1.10588557,  0.        ,  0.        ,  0.00018183,
        -0.71628986, -0.        , -0.        ,  0.00386836,  1.11386867, -0.13576455],
       [ 0.00635978, -0.        ,  0.        ,  0.2161599 , -0.00045798,  0.        , -0.        ,  0.        ,  0.        ,  0.77637038,  0.        ,
         0.        ,  0.00033617,  0.        ,  0.        , -0.00014362, -0.        ,  0.        ,  0.07169982,  0.        , -0.        , -0.00158849,
         1.55494906,  0.        ,  0.        , -0.00041776, -0.13576455,  2.89664287]]), array([[-0.4433061 ,  0.        , -0.        ,  0.13438524, -0.45388887,  0.        ,  0.        , -0.        , -0.        ,  0.02145953,  0.        ,
        -0.        ,  0.07576046, -0.        , -0.        , -0.31761653, -0.        ,  0.        , -0.01364565,  0.        , -0.        , -0.0311987 ,
        -0.01799155, -0.        , -0.        , -0.03761345, -0.00415781, -0.00635978],
       [ 0.        ,  1.39017492, -0.        ,  0.        , -0.        , -0.02255245, -0.00822988, -0.22334547, -0.72363412,  0.        ,  0.        ,
         0.        , -0.        , -0.        ,  0.        , -0.        , -0.77788762,  0.46232342,  0.        ,  0.00667536, -0.00569268,  0.        ,
         0.        , -0.00361728, -0.00279766,  0.        , -0.        , -0.        ],
       [-0.        , -0.        ,  1.39017492,  0.        ,  0.        , -0.00822988,  0.02255245,  0.72363412, -0.22334547, -0.        , -0.        ,
         0.        ,  0.        , -0.        ,  0.        , -0.        , -0.46232342, -0.77788762, -0.        , -0.00569268, -0.00667536,  0.        ,
         0.        , -0.00279766,  0.00361728, -0.        , -0.        ,  0.        ],
       [ 0.13438524,  0.        ,  0.        ,  0.42650362,  0.0296502 ,  0.        , -0.        ,  0.        ,  0.        ,  0.00968708, -0.        ,
         0.        ,  0.03026785,  0.        ,  0.        ,  0.04326908,  0.        ,  0.        , -0.44411378, -0.        , -0.        ,  0.01654657,
         0.34134447,  0.        , -0.        ,  0.00128804, -0.05225291,  0.2161599 ],
       [-0.45388887, -0.        ,  0.        ,  0.0296502 ,  1.69720487, -0.        ,  0.        ,  0.        , -0.        , -0.01545906,  0.        ,
        -0.        , -0.42663856, -0.        , -0.        ,  1.18861417,  0.        , -0.        ,  0.00263522, -0.        ,  0.        , -0.33413362,
         0.00939913, -0.        , -0.        ,  0.12646945, -0.00131539,  0.00045798],
       [ 0.        , -0.02255245, -0.00822988,  0.        , -0.        ,  2.35810347,  0.        ,  0.00079309, -0.01567967, -0.        ,  0.        ,
        -0.        ,  0.        ,  0.        , -0.        , -0.        ,  0.0099751 , -0.00188053,  0.        , -0.30634726,  0.54158426,  0.        ,
         0.        , -1.23326907, -0.39289421, -0.        ,  0.        ,  0.        ],
       [ 0.        , -0.00822988,  0.02255245, -0.        ,  0.        ,  0.        ,  2.35810347, -0.01567967, -0.00079309,  0.        , -0.        ,
         0.        ,  0.        , -0.        ,  0.        , -0.        , -0.00188053, -0.0099751 ,  0.        , -0.54158426, -0.30634726,  0.        ,
        -0.        ,  0.39289421, -1.23326907, -0.        ,  0.        , -0.        ],
       [-0.        , -0.22334547,  0.72363412,  0.        ,  0.        ,  0.00079309, -0.01567967,  3.18194477, -0.        , -0.        , -0.        ,
        -0.        , -0.        ,  0.        ,  0.        , -0.        ,  0.16089171,  0.66648024,  0.        , -0.00457141, -0.00290002,  0.        ,
        -0.        , -0.00048199,  0.0012846 ,  0.        ,  0.        ,  0.        ],
       [-0.        , -0.72363412, -0.22334547,  0.        , -0.        , -0.01567967, -0.00079309, -0.        ,  3.18194477,  0.        ,  0.        ,
        -0.        , -0.        ,  0.        , -0.        ,  0.        , -0.66648024,  0.16089171,  0.        , -0.00290002,  0.00457141,  0.        ,
         0.        ,  0.0012846 ,  0.00048199,  0.        , -0.        ,  0.        ],
       [ 0.02145953,  0.        , -0.        ,  0.00968708, -0.01545906, -0.        ,  0.        , -0.        ,  0.        ,  3.06337225,  0.        ,
        -0.        , -0.00583936, -0.        , -0.        ,  0.00796153, -0.        , -0.        ,  0.89798612,  0.        ,  0.        ,  0.00859346,
        -0.64663658, -0.        ,  0.        ,  0.00624551,  0.28957034,  0.77637038],
       [ 0.        ,  0.        , -0.        , -0.        ,  0.        ,  0.        , -0.        , -0.        ,  0.        ,  0.        ,  3.16272675,
         0.        ,  0.        ,  0.01187799,  0.00012043,  0.        , -0.        , -0.        ,  0.        ,  0.        ,  0.        ,  0.        ,
         0.        ,  0.        , -0.        ,  0.        , -0.        ,  0.        ],
       [-0.        ,  0.        ,  0.        ,  0.        , -0.        , -0.        ,  0.        , -0.        , -0.        , -0.        ,  0.        ,
         3.16272675, -0.        , -0.00012043,  0.01187799, -0.        ,  0.        , -0.        , -0.        ,  0.        ,  0.        ,  0.        ,
         0.        ,  0.        , -0.        ,  0.        , -0.        ,  0.        ],
       [ 0.07576046, -0.        ,  0.        ,  0.03026785, -0.42663856,  0.        ,  0.        , -0.        , -0.        , -0.00583936,  0.        ,
        -0.        ,  2.74467911, -0.        , -0.        , -0.74172759, -0.        ,  0.        , -0.01305524,  0.        , -0.        , -1.41532678,
        -0.01045135, -0.        , -0.        ,  0.01309566, -0.00094596, -0.00033617],
       [-0.        , -0.        , -0.        ,  0.        , -0.        ,  0.        , -0.        ,  0.        ,  0.        , -0.        ,  0.01187799,
        -0.00012043, -0.        ,  3.90340512,  0.        , -0.        , -0.        ,  0.        , -0.        ,  0.        ,  0.        ,  0.        ,
         0.        , -0.        , -0.        , -0.        , -0.        ,  0.        ],
       [-0.        ,  0.        ,  0.        ,  0.        , -0.        , -0.        ,  0.        ,  0.        , -0.        , -0.        ,  0.00012043,
         0.01187799, -0.        ,  0.        ,  3.90340512,  0.        ,  0.        , -0.        , -0.        ,  0.        ,  0.        ,  0.        ,
         0.        ,  0.        , -0.        , -0.        , -0.        ,  0.        ],
       [-0.31761653, -0.        , -0.        ,  0.04326908,  1.18861417, -0.        , -0.        , -0.        ,  0.        ,  0.00796153,  0.        ,
        -0.        , -0.74172759, -0.        ,  0.        ,  2.04615934,  0.        , -0.        , -0.02179977, -0.        ,  0.        ,  0.08739846,
        -0.00369575,  0.        , -0.        ,  1.12274514, -0.00259835,  0.00014362],
       [-0.        , -0.77788762, -0.46232342,  0.        ,  0.        ,  0.0099751 , -0.00188053,  0.16089171, -0.66648024, -0.        , -0.        ,
         0.        , -0.        , -0.        ,  0.        ,  0.        ,  3.35039006,  0.        , -0.        , -0.00239501,  0.00702788, -0.        ,
        -0.        , -0.00592623, -0.00072708,  0.        ,  0.        , -0.        ],
       [ 0.        ,  0.46232342, -0.77788762,  0.        , -0.        , -0.00188053, -0.0099751 ,  0.66648024,  0.16089171, -0.        , -0.        ,
        -0.        ,  0.        ,  0.        , -0.        , -0.        ,  0.        ,  3.35039006,  0.        ,  0.00702788,  0.00239501, -0.        ,
         0.        , -0.00072708,  0.00592623,  0.        , -0.        ,  0.        ],
       [-0.01364565,  0.        , -0.        , -0.44411378,  0.00263522,  0.        ,  0.        ,  0.        ,  0.        ,  0.89798612,  0.        ,
        -0.        , -0.01305524, -0.        , -0.        , -0.02179977, -0.        ,  0.        ,  2.27956466, -0.        , -0.        , -0.00169818,
        -0.19126365, -0.        ,  0.        , -0.01272061,  1.10588557,  0.07169982],
       [ 0.        ,  0.00667536, -0.00569268, -0.        , -0.        , -0.30634726, -0.54158426, -0.00457141, -0.00290002,  0.        ,  0.        ,
         0.        ,  0.        ,  0.        ,  0.        , -0.        , -0.00239501,  0.00702788, -0.        ,  4.70426932,  0.        ,  0.        ,
         0.        , -0.19803635, -0.94597763,  0.        ,  0.        ,  0.        ],
       [-0.        , -0.00569268, -0.00667536, -0.        ,  0.        ,  0.54158426, -0.30634726, -0.00290002,  0.00457141,  0.        ,  0.        ,
         0.        , -0.        ,  0.        ,  0.        ,  0.        ,  0.00702788,  0.00239501, -0.        ,  0.        ,  4.70426932, -0.        ,
        -0.        ,  0.94597763, -0.19803635, -0.        ,  0.        , -0.        ],
       [-0.0311987 ,  0.        ,  0.        ,  0.01654657, -0.33413362,  0.        ,  0.        ,  0.        ,  0.        ,  0.00859346,  0.        ,
         0.        , -1.41532678,  0.        ,  0.        ,  0.08739846, -0.        , -0.        , -0.00169818,  0.        , -0.        ,  3.82787368,
        -0.00672109,  0.        ,  0.        ,  0.86396838, -0.00018183,  0.00158849],
       [-0.01799155,  0.        ,  0.        ,  0.34134447,  0.00939913,  0.        , -0.        , -0.        ,  0.        , -0.64663658,  0.        ,
         0.        , -0.01045135,  0.        ,  0.        , -0.00369575, -0.        ,  0.        , -0.19126365,  0.        , -0.        , -0.00672109,
         5.46642922,  0.        , -0.        , -0.00687383, -0.71628986,  1.55494906],
       [-0.        , -0.00361728, -0.00279766,  0.        , -0.        , -1.23326907,  0.39289421, -0.00048199,  0.0012846 , -0.        ,  0.        ,
         0.        , -0.        , -0.        ,  0.        ,  0.        , -0.00592623, -0.00072708, -0.        , -0.19803635,  0.94597763,  0.        ,
         0.        ,  3.15647678,  0.        ,  0.        , -0.        ,  0.        ],
       [-0.        , -0.00279766,  0.00361728, -0.        , -0.        , -0.39289421, -1.23326907,  0.0012846 ,  0.00048199,  0.        , -0.        ,
        -0.        , -0.        , -0.        , -0.        , -0.        , -0.00072708,  0.00592623,  0.        , -0.94597763, -0.19803635,  0.        ,
        -0.        ,  0.        ,  3.15647678,  0.        , -0.        ,  0.        ],
       [-0.03761345,  0.        , -0.        ,  0.00128804,  0.12646945, -0.        , -0.        ,  0.        ,  0.        ,  0.00624551,  0.        ,
         0.        ,  0.01309566, -0.        , -0.        ,  1.12274514,  0.        ,  0.        , -0.01272061,  0.        , -0.        ,  0.86396838,
        -0.00687383,  0.        ,  0.        ,  2.16892464, -0.00386836,  0.00041776],
       [-0.00415781, -0.        , -0.        , -0.05225291, -0.00131539,  0.        ,  0.        ,  0.        , -0.        ,  0.28957034, -0.        ,
        -0.        , -0.00094596, -0.        , -0.        , -0.00259835,  0.        , -0.        ,  1.10588557,  0.        ,  0.        , -0.00018183,
        -0.71628986, -0.        , -0.        , -0.00386836,  1.11386867, -0.13576455],
       [-0.00635978, -0.        ,  0.        ,  0.2161599 ,  0.00045798,  0.        , -0.        ,  0.        ,  0.        ,  0.77637038,  0.        ,
         0.        , -0.00033617,  0.        ,  0.        ,  0.00014362, -0.        ,  0.        ,  0.07169982,  0.        , -0.        ,  0.00158849,
         1.55494906,  0.        ,  0.        ,  0.00041776, -0.13576455,  2.89664287]]))
E(UHF) =    -1.689961
NO eigenvalue
[-1. -0. -0. -0. -0. -0. -0. -0. -0. -0. -0. -0. -0. -0. -0.  0.  0.  0.  0.  0.  0.  0.  0.  0.  0.  0.  0.  0.] [-1. -0. -0. -0. -0. -0. -0. -0. -0. -0. -0. -0. -0. -0. -0.  0.  0.  0.  0.  0.  0.  0.  0.  0.  0.  0.  0.  0.]
NO vec
[[ 0.95749463  0.         -0.01575914 ...  0.          0.          0.        ]
 [ 0.          0.         -0.98632117 ...  0.          0.          0.        ]
 [-0.          0.          0.         ...  0.          0.          0.        ]
 ...
 [ 0.         -0.02519818  0.         ...  0.87599014 -0.08642809  0.02255525]
 [ 0.          0.0274477   0.         ...  0.22477919 -0.16749084  0.02997042]
 [ 0.          0.00967649  0.         ... -0.01168846  0.00147683  0.04521496]]
dm(NO)
[[ 1.  0.  0. ...  0.  0.  0.]
 [ 0.  1.  0. ...  0.  0.  0.]
 [ 0.  0. -0. ...  0.  0.  0.]
 ...
 [ 0.  0.  0. ... -0.  0. -0.]
 [ 0.  0.  0. ...  0. -0.  0.]
 [ 0.  0.  0. ... -0.  0.  0.]]
D(g) (NO)
[[ 0.99951369  0.02852696  0.         ... -0.0008487  -0.00229816 -0.00487332]
 [-0.02852696  0.99951369  0.00161473 ...  0.          0.          0.        ]
 [ 0.         -0.00161473  0.99951369 ... -0.00228245 -0.00043486  0.02332756]
 ...
 [ 0.0008487  -0.          0.00228245 ...  0.99951369  0.          0.        ]
 [ 0.00229816 -0.          0.00043486 ...  0.          0.99951369  0.        ]
 [ 0.00487332  0.         -0.02332756 ... -0.          0.          0.99951369]]
...
N(g) (NO)
[[ 0.99967224 -0.02853148]
 [ 0.02853148  0.99967224]]
...
P(g) (NO)
[[ 1.         -0.          0.         ... -0.          0.         -0.        ]
 [ 0.          1.         -0.         ...  0.          0.          0.        ]
 [-0.00004607 -0.0016142  -0.         ... -0.         -0.         -0.        ]
 ...
 [ 0.00084842 -0.00002421  0.         ... -0.         -0.         -0.        ]
 [ 0.00229741 -0.00006557  0.         ... -0.         -0.         -0.        ]
 [ 0.00487172 -0.00013904  0.         ... -0.         -0.         -0.        ]]
...
Pg_ortho
[[ 0.91686544 -0.         -0.         ... -0.00006407  0.00006979  0.0000246 ]
 [-0.          0.          0.         ...  0.         -0.         -0.        ]
 [-0.          0.          0.         ...  0.         -0.         -0.        ]
 ...
 [ 0.00006407 -0.         -0.         ...  0.000635   -0.00069168 -0.00024385]
 [ 0.00156873 -0.         -0.         ... -0.00069045  0.00075209  0.00026514]
 [ 0.00055304 -0.         -0.         ... -0.00024341  0.00026514  0.00009347]]
G(g) (NO)
[[ 0.56347103 -0.00079075  0.00081765 ...  0.00014448 -0.0004179  -0.00064329]
 [ 0.00079075  0.56347103  0.00019653 ... -0.0423597  -0.07893311 -0.03926198]
 [ 0.00083532  0.00090745  1.13024897 ... -0.00003742 -0.0000988  -0.00022765]
 ...
 [ 0.00008038 -0.04235747  0.00002285 ...  0.73602686 -0.16372167  0.02423494]
 [-0.00254498 -0.07889407 -0.0001457  ... -0.16372594  1.03349065 -0.0153486 ]
 [-0.00264112 -0.03920317  0.00029706 ...  0.02422872 -0.01534666  1.11450317]]
...
C(NO)
[[-1.          0.         -0.         ...  0.          0.          0.        ]
 [ 0.         -1.          0.         ...  0.         -0.          0.        ]
 [-0.          0.          0.11899534 ...  0.          0.          0.        ]
 ...
 [ 0.          0.          0.         ...  0.00013789  0.16274472 -0.01054677]
 [ 0.         -0.          0.         ... -0.00022616 -0.20416521  0.09184623]
 [ 0.         -0.          0.         ... -0.00431322  0.18923309  0.02417996]]
detC 1.0000000000000004
detNg [1.00015863 1.00414167 1.02209869 1.0619987  1.11698091 1.16480596 1.18903834 1.19467205]
xg [0.99984139 0.99587542 0.97837911 0.94162074 0.89527045 0.85851209 0.84101578 0.8370498 ]
ciS 1.836891194833814
[[-1.12670477  0.          0.00320432 ...  0.          0.          0.        ]
 [ 0.         -1.12670477  0.         ...  0.04476322  0.1035673   0.05682009]
 [ 0.00320432  0.          0.24899399 ...  0.          0.          0.        ]
 ...
 [ 0.          0.04476322  0.         ...  0.65246889 -0.6071934   0.1549539 ]
 [ 0.          0.1035673   0.         ... -0.6071934   1.03171347 -0.38913416]
 [ 0.          0.05682009  0.         ...  0.1549539  -0.38913416  0.28897776]]
ciH -3.152430994538412
S2 = -0.000000
X(g)
[[ 2.         -0.         -0.00004607 ... -0.00084842 -0.00229741 -0.00487172]
 [ 0.          2.          0.0016142  ... -0.00002421 -0.00006557 -0.00013904]
 [-0.00004607 -0.0016142   0.         ...  0.          0.          0.        ]
 ...
 [ 0.00084842 -0.00002421  0.         ...  0.          0.          0.        ]
 [ 0.00229741 -0.00006557  0.         ...  0.          0.          0.        ]
 [ 0.00487172 -0.00013904  0.         ...  0.          0.          0.        ]]
X(g) int
[[ 2.         -0.         -0.02578867 ... -0.01163698 -0.0315113  -0.06682058]
 [-0.          2.          0.02214034 ... -0.01355455 -0.03670379 -0.0778314 ]
 [-0.02578867 -0.02214034  0.         ...  0.          0.          0.        ]
 ...
 [ 0.01163698 -0.01355455  0.         ...  0.          0.          0.        ]
 [ 0.0315113  -0.03670379  0.         ...  0.          0.          0.        ]
 [ 0.06682058 -0.0778314   0.         ...  0.          0.          0.        ]]
Hsp + Hph =  -1.7161773127360527
Feff (mod,ortho)
[[-0.42014355 -0.          0.         ...  0.          0.          0.        ]
 [-0.          1.39017492 -0.         ...  0.          0.          0.        ]
 [ 0.         -0.          1.39017492 ...  0.          0.          0.        ]
 ...
 [ 0.          0.          0.         ...  2.16892125 -0.0038245   0.00047738]
 [ 0.          0.          0.         ... -0.0038245   1.11377714 -0.13584492]
 [ 0.          0.          0.         ...  0.00047738 -0.13584492  2.89659758]]
E(SUHF) =     -1.12820263
e_a, e_b
[-0.56434278  0.13989521  0.31530763  0.57630654  0.66632857  0.66632857  1.03829625  1.08020269  1.08020269  1.48824242  2.43153832  2.48379364  3.1625363
  3.1625363   3.27897164  3.27897164  3.54929371  3.90359557  3.90359557  3.95554871  3.95554871  3.99171814  3.99171814  4.21183676  5.16858957  5.16858957
  5.21842334  6.3993258 ] [-0.56434278  0.13989521  0.31530763  0.57630654  0.66632857  0.66632857  1.03829625  1.08020269  1.08020269  1.48824242  2.43153832  2.48379364  3.1625363
  3.1625363   3.27897164  3.27897164  3.54929371  3.90359557  3.90359557  3.95554871  3.95554871  3.99171814  3.99171814  4.21183676  5.16858957  5.16858957
  5.21842334  6.3993258 ]
P_a, P_b
[[ 0.90989049  0.          0.          0.2143456   0.16642476 -0.         -0.          0.          0.          0.00048449  0.         -0.          0.0292147
  -0.         -0.          0.05717078  0.          0.          0.03392397  0.          0.          0.0337086  -0.01571497 -0.          0.         -0.02947551
  -0.02671602 -0.01047356]
 [ 0.          0.          0.          0.          0.         -0.         -0.          0.          0.          0.          0.         -0.          0.
  -0.         -0.          0.          0.          0.          0.          0.          0.          0.         -0.         -0.          0.         -0.
  -0.         -0.        ]
 [ 0.          0.          0.          0.          0.         -0.         -0.          0.          0.          0.          0.         -0.          0.
  -0.         -0.          0.          0.          0.          0.          0.          0.          0.         -0.         -0.          0.         -0.
  -0.         -0.        ]
 [ 0.2143456   0.          0.          0.05049403  0.03920518 -0.         -0.          0.          0.          0.00011413  0.         -0.          0.00688219
  -0.         -0.          0.01346789  0.          0.          0.00799157  0.          0.          0.00794083 -0.00370202 -0.          0.         -0.00694363
  -0.00629357 -0.00246729]
 [ 0.16642476  0.          0.          0.03920518  0.03044015 -0.         -0.          0.          0.          0.00008862  0.         -0.          0.00534356
  -0.         -0.          0.0104569   0.          0.          0.00620491  0.          0.          0.00616552 -0.00287437 -0.          0.         -0.00539126
  -0.00488653 -0.00191568]
 [-0.         -0.         -0.         -0.         -0.          0.          0.         -0.         -0.         -0.         -0.          0.         -0.
   0.          0.         -0.         -0.         -0.         -0.         -0.         -0.         -0.          0.          0.         -0.          0.
   0.          0.        ]
 [-0.         -0.         -0.         -0.         -0.          0.          0.         -0.         -0.         -0.         -0.          0.         -0.
   0.          0.         -0.         -0.         -0.         -0.         -0.         -0.         -0.          0.          0.         -0.          0.
   0.          0.        ]
 [ 0.          0.          0.          0.          0.         -0.         -0.          0.          0.          0.          0.         -0.          0.
  -0.         -0.          0.          0.          0.          0.          0.          0.          0.         -0.         -0.          0.         -0.
  -0.         -0.        ]
 [ 0.          0.          0.          0.          0.         -0.         -0.          0.          0.          0.          0.         -0.          0.
  -0.         -0.          0.          0.          0.          0.          0.          0.          0.         -0.         -0.          0.         -0.
  -0.         -0.        ]
 [ 0.00048449  0.          0.          0.00011413  0.00008862 -0.         -0.          0.          0.          0.00000026  0.         -0.          0.00001556
  -0.         -0.          0.00003044  0.          0.          0.00001806  0.          0.          0.00001795 -0.00000837 -0.          0.         -0.00001569
  -0.00001423 -0.00000558]
 [ 0.          0.          0.          0.          0.         -0.         -0.          0.          0.          0.          0.         -0.          0.
  -0.         -0.          0.          0.          0.          0.          0.          0.          0.         -0.         -0.          0.         -0.
  -0.         -0.        ]
 [-0.         -0.         -0.         -0.         -0.          0.          0.         -0.         -0.         -0.         -0.          0.         -0.
   0.          0.         -0.         -0.         -0.         -0.         -0.         -0.         -0.          0.          0.         -0.          0.
   0.          0.        ]
 [ 0.0292147   0.          0.          0.00688219  0.00534356 -0.         -0.          0.          0.          0.00001556  0.         -0.          0.00093802
  -0.         -0.          0.00183564  0.          0.          0.00108923  0.          0.          0.00108231 -0.00050458 -0.          0.         -0.0009464
  -0.0008578  -0.00033628]
 [-0.         -0.         -0.         -0.         -0.          0.          0.         -0.         -0.         -0.         -0.          0.         -0.
   0.          0.         -0.         -0.         -0.         -0.         -0.         -0.         -0.          0.          0.         -0.          0.
   0.          0.        ]
 [-0.         -0.         -0.         -0.         -0.          0.          0.         -0.         -0.         -0.         -0.          0.         -0.
   0.          0.         -0.         -0.         -0.         -0.         -0.         -0.         -0.          0.          0.         -0.          0.
   0.          0.        ]
 [ 0.05717078  0.          0.          0.01346789  0.0104569  -0.         -0.          0.          0.          0.00003044  0.         -0.          0.00183564
  -0.         -0.          0.00359219  0.          0.          0.00213153  0.          0.          0.002118   -0.00098741 -0.          0.         -0.00185202
  -0.00167864 -0.00065808]
 [ 0.          0.          0.          0.          0.         -0.         -0.          0.          0.          0.          0.         -0.          0.
  -0.         -0.          0.          0.          0.          0.          0.          0.          0.         -0.         -0.          0.         -0.
  -0.         -0.        ]
 [ 0.          0.          0.          0.          0.         -0.         -0.          0.          0.          0.          0.         -0.          0.
  -0.         -0.          0.          0.          0.          0.          0.          0.          0.         -0.         -0.          0.         -0.
  -0.         -0.        ]
 [ 0.03392397  0.          0.          0.00799157  0.00620491 -0.         -0.          0.          0.          0.00001806  0.         -0.          0.00108923
  -0.         -0.          0.00213153  0.          0.          0.00126481  0.          0.          0.00125678 -0.00058591 -0.          0.         -0.00109895
  -0.00099607 -0.00039049]
 [ 0.          0.          0.          0.          0.         -0.         -0.          0.          0.          0.          0.         -0.          0.
  -0.         -0.          0.          0.          0.          0.          0.          0.          0.         -0.         -0.          0.         -0.
  -0.         -0.        ]
 [ 0.          0.          0.          0.          0.         -0.         -0.          0.          0.          0.          0.         -0.          0.
  -0.         -0.          0.          0.          0.          0.          0.          0.          0.         -0.         -0.          0.         -0.
  -0.         -0.        ]
 [ 0.0337086   0.          0.          0.00794083  0.00616552 -0.         -0.          0.          0.          0.00001795  0.         -0.          0.00108231
  -0.         -0.          0.002118    0.          0.          0.00125678  0.          0.          0.0012488  -0.00058219 -0.          0.         -0.00109198
  -0.00098974 -0.00038801]
 [-0.01571497 -0.         -0.         -0.00370202 -0.00287437  0.          0.         -0.         -0.         -0.00000837 -0.          0.         -0.00050458
   0.          0.         -0.00098741 -0.         -0.         -0.00058591 -0.         -0.         -0.00058219  0.00027142  0.         -0.          0.00050908
   0.00046142  0.00018089]
 [-0.         -0.         -0.         -0.         -0.          0.          0.         -0.         -0.         -0.         -0.          0.         -0.
   0.          0.         -0.         -0.         -0.         -0.         -0.         -0.         -0.          0.          0.         -0.          0.
   0.          0.        ]
 [ 0.          0.          0.          0.          0.         -0.         -0.          0.          0.          0.          0.         -0.          0.
  -0.         -0.          0.          0.          0.          0.          0.          0.          0.         -0.         -0.          0.         -0.
  -0.         -0.        ]
 [-0.02947551 -0.         -0.         -0.00694363 -0.00539126  0.          0.         -0.         -0.         -0.00001569 -0.          0.         -0.0009464
   0.          0.         -0.00185202 -0.         -0.         -0.00109895 -0.         -0.         -0.00109198  0.00050908  0.         -0.          0.00095485
   0.00086545  0.00033929]
 [-0.02671602 -0.         -0.         -0.00629357 -0.00488653  0.          0.         -0.         -0.         -0.00001423 -0.          0.         -0.0008578
   0.          0.         -0.00167864 -0.         -0.         -0.00099607 -0.         -0.         -0.00098974  0.00046142  0.         -0.          0.00086545
   0.00078443  0.00030752]
 [-0.01047356 -0.         -0.         -0.00246729 -0.00191568  0.          0.         -0.         -0.         -0.00000558 -0.          0.         -0.00033628
   0.          0.         -0.00065808 -0.         -0.         -0.00039049 -0.         -0.         -0.00038801  0.00018089  0.         -0.          0.00033929
   0.00030752  0.00012056]] 
 [[ 0.90989049 -0.         -0.         -0.2143456   0.16642476 -0.         -0.          0.         -0.         -0.00048449 -0.         -0.          0.0292147
   0.         -0.          0.05717078 -0.          0.         -0.03392397 -0.          0.          0.0337086   0.01571497  0.          0.         -0.02947551
   0.02671602  0.01047356]
 [-0.          0.          0.          0.         -0.          0.          0.         -0.          0.          0.          0.          0.         -0.
  -0.          0.         -0.          0.         -0.          0.          0.         -0.         -0.         -0.         -0.         -0.          0.
  -0.         -0.        ]
 [-0.          0.          0.          0.         -0.          0.          0.         -0.          0.          0.          0.          0.         -0.
  -0.          0.         -0.          0.         -0.          0.          0.         -0.         -0.         -0.         -0.         -0.          0.
  -0.         -0.        ]
 [-0.2143456   0.          0.          0.05049403 -0.03920518  0.          0.         -0.          0.          0.00011413  0.          0.         -0.00688219
  -0.          0.         -0.01346789  0.         -0.          0.00799157  0.         -0.         -0.00794083 -0.00370202 -0.         -0.          0.00694363
  -0.00629357 -0.00246729]
 [ 0.16642476 -0.         -0.         -0.03920518  0.03044015 -0.         -0.          0.         -0.         -0.00008862 -0.         -0.          0.00534356
   0.         -0.          0.0104569  -0.          0.         -0.00620491 -0.          0.          0.00616552  0.00287437  0.          0.         -0.00539126
   0.00488653  0.00191568]
 [-0.          0.          0.          0.         -0.          0.          0.         -0.          0.          0.          0.          0.         -0.
  -0.          0.         -0.          0.         -0.          0.          0.         -0.         -0.         -0.         -0.         -0.          0.
  -0.         -0.        ]
 [-0.          0.          0.          0.         -0.          0.          0.         -0.          0.          0.          0.          0.         -0.
  -0.          0.         -0.          0.         -0.          0.          0.         -0.         -0.         -0.         -0.         -0.          0.
  -0.         -0.        ]
 [ 0.         -0.         -0.         -0.          0.         -0.         -0.          0.         -0.         -0.         -0.         -0.          0.
   0.         -0.          0.         -0.          0.         -0.         -0.          0.          0.          0.          0.          0.         -0.
   0.          0.        ]
 [-0.          0.          0.          0.         -0.          0.          0.         -0.          0.          0.          0.          0.         -0.
  -0.          0.         -0.          0.         -0.          0.          0.         -0.         -0.         -0.         -0.         -0.          0.
  -0.         -0.        ]
 [-0.00048449  0.          0.          0.00011413 -0.00008862  0.          0.         -0.          0.          0.00000026  0.          0.         -0.00001556
  -0.          0.         -0.00003044  0.         -0.          0.00001806  0.         -0.         -0.00001795 -0.00000837 -0.         -0.          0.00001569
  -0.00001423 -0.00000558]
 [-0.          0.          0.          0.         -0.          0.          0.         -0.          0.          0.          0.          0.         -0.
  -0.          0.         -0.          0.         -0.          0.          0.         -0.         -0.         -0.         -0.         -0.          0.
  -0.         -0.        ]
 [-0.          0.          0.          0.         -0.          0.          0.         -0.          0.          0.          0.          0.         -0.
  -0.          0.         -0.          0.         -0.          0.          0.         -0.         -0.         -0.         -0.         -0.          0.
  -0.         -0.        ]
 [ 0.0292147  -0.         -0.         -0.00688219  0.00534356 -0.         -0.          0.         -0.         -0.00001556 -0.         -0.          0.00093802
   0.         -0.          0.00183564 -0.          0.         -0.00108923 -0.          0.          0.00108231  0.00050458  0.          0.         -0.0009464
   0.0008578   0.00033628]
 [ 0.         -0.         -0.         -0.          0.         -0.         -0.          0.         -0.         -0.         -0.         -0.          0.
   0.         -0.          0.         -0.          0.         -0.         -0.          0.          0.          0.          0.          0.         -0.
   0.          0.        ]
 [-0.          0.          0.          0.         -0.          0.          0.         -0.          0.          0.          0.          0.         -0.
  -0.          0.         -0.          0.         -0.          0.          0.         -0.         -0.         -0.         -0.         -0.          0.
  -0.         -0.        ]
 [ 0.05717078 -0.         -0.         -0.01346789  0.0104569  -0.         -0.          0.         -0.         -0.00003044 -0.         -0.          0.00183564
   0.         -0.          0.00359219 -0.          0.         -0.00213153 -0.          0.          0.002118    0.00098741  0.          0.         -0.00185202
   0.00167864  0.00065808]
 [-0.          0.          0.          0.         -0.          0.          0.         -0.          0.          0.          0.          0.         -0.
  -0.          0.         -0.          0.         -0.          0.          0.         -0.         -0.         -0.         -0.         -0.          0.
  -0.         -0.        ]
 [ 0.         -0.         -0.         -0.          0.         -0.         -0.          0.         -0.         -0.         -0.         -0.          0.
   0.         -0.          0.         -0.          0.         -0.         -0.          0.          0.          0.          0.          0.         -0.
   0.          0.        ]
 [-0.03392397  0.          0.          0.00799157 -0.00620491  0.          0.         -0.          0.          0.00001806  0.          0.         -0.00108923
  -0.          0.         -0.00213153  0.         -0.          0.00126481  0.         -0.         -0.00125678 -0.00058591 -0.         -0.          0.00109895
  -0.00099607 -0.00039049]
 [-0.          0.          0.          0.         -0.          0.          0.         -0.          0.          0.          0.          0.         -0.
  -0.          0.         -0.          0.         -0.          0.          0.         -0.         -0.         -0.         -0.         -0.          0.
  -0.         -0.        ]
 [ 0.         -0.         -0.         -0.          0.         -0.         -0.          0.         -0.         -0.         -0.         -0.          0.
   0.         -0.          0.         -0.          0.         -0.         -0.          0.          0.          0.          0.          0.         -0.
   0.          0.        ]
 [ 0.0337086  -0.         -0.         -0.00794083  0.00616552 -0.         -0.          0.         -0.         -0.00001795 -0.         -0.          0.00108231
   0.         -0.          0.002118   -0.          0.         -0.00125678 -0.          0.          0.0012488   0.00058219  0.          0.         -0.00109198
   0.00098974  0.00038801]
 [ 0.01571497 -0.         -0.         -0.00370202  0.00287437 -0.         -0.          0.         -0.         -0.00000837 -0.         -0.          0.00050458
   0.         -0.          0.00098741 -0.          0.         -0.00058591 -0.          0.          0.00058219  0.00027142  0.          0.         -0.00050908
   0.00046142  0.00018089]
 [ 0.         -0.         -0.         -0.          0.         -0.         -0.          0.         -0.         -0.         -0.         -0.          0.
   0.         -0.          0.         -0.          0.         -0.         -0.          0.          0.          0.          0.          0.         -0.
   0.          0.        ]
 [ 0.         -0.         -0.         -0.          0.         -0.         -0.          0.         -0.         -0.         -0.         -0.          0.
   0.         -0.          0.         -0.          0.         -0.         -0.          0.          0.          0.          0.          0.         -0.
   0.          0.        ]
 [-0.02947551  0.          0.          0.00694363 -0.00539126  0.          0.         -0.          0.          0.00001569  0.          0.         -0.0009464
  -0.          0.         -0.00185202  0.         -0.          0.00109895  0.         -0.         -0.00109198 -0.00050908 -0.         -0.          0.00095485
  -0.00086545 -0.00033929]
 [ 0.02671602 -0.         -0.         -0.00629357  0.00488653 -0.         -0.          0.         -0.         -0.00001423 -0.         -0.          0.0008578
   0.         -0.          0.00167864 -0.          0.         -0.00099607 -0.          0.          0.00098974  0.00046142  0.          0.         -0.00086545
   0.00078443  0.00030752]
 [ 0.01047356 -0.         -0.         -0.00246729  0.00191568 -0.         -0.          0.         -0.         -0.00000558 -0.         -0.          0.00033628
[...]
 [-0.         -0.          1.41414249 ...  0.          0.          0.        ]
 ...
 [ 0.          0.          0.         ...  2.18400513 -0.00723028  0.00073202]
 [ 0.          0.          0.         ... -0.00723028  1.11921047 -0.13640713]
 [ 0.          0.          0.         ...  0.00073202 -0.13640713  2.90529591]]
E(SUHF) =     -1.14207549
e_a, e_b
[-0.55102376  0.15321906  0.31748917  0.59095619  0.68101686  0.68101686  1.05185992  1.09185077  1.09185077  1.49733854  2.42403893  2.53300877  3.18233834
  3.18233834  3.30214885  3.30214885  3.57731337  3.92419452  3.92419452  3.96593808  3.96593808  4.03356104  4.03356104  4.23747833  5.19244949  5.19244949
  5.24480094  6.42982407] [-0.55102376  0.15321906  0.31748917  0.59095619  0.68101686  0.68101686  1.05185992  1.09185077  1.09185077  1.49733854  2.42403893  2.53300877  3.18233834
  3.18233834  3.30214885  3.30214885  3.57731337  3.92419452  3.92419452  3.96593808  3.96593808  4.03356104  4.03356104  4.23747833  5.19244949  5.19244949
  5.24480094  6.42982407]
P_a, P_b
[[ 0.84011906  0.          0.          0.32028878  0.15207465 -0.         -0.          0.          0.          0.02622284 -0.          0.          0.03253149
   0.          0.          0.06199356  0.          0.          0.00068675  0.         -0.          0.03428363 -0.02274501 -0.          0.         -0.03110954
  -0.00515955 -0.01818487]
 [ 0.          0.          0.          0.          0.         -0.         -0.          0.          0.          0.         -0.          0.          0.
   0.          0.          0.          0.          0.          0.          0.         -0.          0.         -0.         -0.          0.         -0.
  -0.         -0.        ]
 [ 0.          0.          0.          0.          0.         -0.         -0.          0.          0.          0.         -0.          0.          0.
   0.          0.          0.          0.          0.          0.          0.         -0.          0.         -0.         -0.          0.         -0.
  -0.         -0.        ]
 [ 0.32028878  0.          0.          0.12210758  0.05797726 -0.         -0.          0.          0.          0.00999725 -0.          0.          0.01240237
   0.          0.          0.02363456  0.          0.          0.00026182  0.         -0.          0.01307036 -0.00867136 -0.          0.         -0.01186027
  -0.00196704 -0.00693284]
 [ 0.15207465  0.          0.          0.05797726  0.02752788 -0.         -0.          0.          0.          0.00474674 -0.          0.          0.00588871
   0.          0.          0.0112218   0.          0.          0.00012431  0.         -0.          0.00620587 -0.0041172  -0.          0.         -0.00563131
  -0.00093396 -0.00329175]
 [-0.         -0.         -0.         -0.         -0.          0.          0.         -0.         -0.         -0.          0.         -0.         -0.
  -0.         -0.         -0.         -0.         -0.         -0.         -0.          0.         -0.          0.          0.         -0.          0.
   0.          0.        ]
 [-0.         -0.         -0.         -0.         -0.          0.          0.         -0.         -0.         -0.          0.         -0.         -0.
  -0.         -0.         -0.         -0.         -0.         -0.         -0.          0.         -0.          0.          0.         -0.          0.
   0.          0.        ]
 [ 0.          0.          0.          0.          0.         -0.         -0.          0.          0.          0.         -0.          0.          0.
   0.          0.          0.          0.          0.          0.          0.         -0.          0.         -0.         -0.          0.         -0.
  -0.         -0.        ]
 [ 0.          0.          0.          0.          0.         -0.         -0.          0.          0.          0.         -0.          0.          0.
   0.          0.          0.          0.          0.          0.          0.         -0.          0.         -0.         -0.          0.         -0.
  -0.         -0.        ]
 [ 0.02622284  0.          0.          0.00999725  0.00474674 -0.         -0.          0.          0.          0.0008185  -0.          0.          0.00101541
   0.          0.          0.00193502  0.          0.          0.00002144  0.         -0.          0.0010701  -0.00070995 -0.          0.         -0.00097103
  -0.00016105 -0.00056761]
 [-0.         -0.         -0.         -0.         -0.          0.          0.         -0.         -0.         -0.          0.         -0.         -0.
  -0.         -0.         -0.         -0.         -0.         -0.         -0.          0.         -0.          0.          0.         -0.          0.
   0.          0.        ]
 [ 0.          0.          0.          0.          0.         -0.         -0.          0.          0.          0.         -0.          0.          0.
   0.          0.          0.          0.          0.          0.          0.         -0.          0.         -0.         -0.          0.         -0.
  -0.         -0.        ]
 [ 0.03253149  0.          0.          0.01240237  0.00588871 -0.         -0.          0.          0.          0.00101541 -0.          0.          0.0012597
   0.          0.          0.00240054  0.          0.          0.00002659  0.         -0.          0.00132755 -0.00088074 -0.          0.         -0.00120464
  -0.00019979 -0.00070416]
 [ 0.          0.          0.          0.          0.         -0.         -0.          0.          0.          0.         -0.          0.          0.
   0.          0.          0.          0.          0.          0.          0.         -0.          0.         -0.         -0.          0.         -0.
  -0.         -0.        ]
 [ 0.          0.          0.          0.          0.         -0.         -0.          0.          0.          0.         -0.          0.          0.
   0.          0.          0.          0.          0.          0.          0.         -0.          0.         -0.         -0.          0.         -0.
  -0.         -0.        ]
 [ 0.06199356  0.          0.          0.02363456  0.0112218  -0.         -0.          0.          0.          0.00193502 -0.          0.          0.00240054
   0.          0.          0.00457459  0.          0.          0.00005068  0.         -0.          0.00252984 -0.00167839 -0.          0.         -0.00229562
  -0.00038073 -0.00134189]
 [ 0.          0.          0.          0.          0.         -0.         -0.          0.          0.          0.         -0.          0.          0.
   0.          0.          0.          0.          0.          0.          0.         -0.          0.         -0.         -0.          0.         -0.
  -0.         -0.        ]
 [ 0.          0.          0.          0.          0.         -0.         -0.          0.          0.          0.         -0.          0.          0.
   0.          0.          0.          0.          0.          0.          0.         -0.          0.         -0.         -0.          0.         -0.
  -0.         -0.        ]
 [ 0.00068675  0.          0.          0.00026182  0.00012431 -0.         -0.          0.          0.          0.00002144 -0.          0.          0.00002659
   0.          0.          0.00005068  0.          0.          0.00000056  0.         -0.          0.00002802 -0.00001859 -0.          0.         -0.00002543
  -0.00000422 -0.00001487]
 [ 0.          0.          0.          0.          0.         -0.         -0.          0.          0.          0.         -0.          0.          0.
   0.          0.          0.          0.          0.          0.          0.         -0.          0.         -0.         -0.          0.         -0.
  -0.         -0.        ]
 [-0.         -0.         -0.         -0.         -0.          0.          0.         -0.         -0.         -0.          0.         -0.         -0.
  -0.         -0.         -0.         -0.         -0.         -0.         -0.          0.         -0.          0.          0.         -0.          0.
   0.          0.        ]
 [ 0.03428363  0.          0.          0.01307036  0.00620587 -0.         -0.          0.          0.          0.0010701  -0.          0.          0.00132755
   0.          0.          0.00252984  0.          0.          0.00002802  0.         -0.          0.00139905 -0.00092818 -0.          0.         -0.00126952
  -0.00021055 -0.00074209]
 [-0.02274501 -0.         -0.         -0.00867136 -0.0041172   0.          0.         -0.         -0.         -0.00070995  0.         -0.         -0.00088074
  -0.         -0.         -0.00167839 -0.         -0.         -0.00001859 -0.          0.         -0.00092818  0.00061579  0.         -0.          0.00084225
   0.00013969  0.00049233]
 [-0.         -0.         -0.         -0.         -0.          0.          0.         -0.         -0.         -0.          0.         -0.         -0.
  -0.         -0.         -0.         -0.         -0.         -0.         -0.          0.         -0.          0.          0.         -0.          0.
   0.          0.        ]
 [ 0.          0.          0.          0.          0.         -0.         -0.          0.          0.          0.         -0.          0.          0.
   0.          0.          0.          0.          0.          0.          0.         -0.          0.         -0.         -0.          0.         -0.
  -0.         -0.        ]
 [-0.03110954 -0.         -0.         -0.01186027 -0.00563131  0.          0.         -0.         -0.         -0.00097103  0.         -0.         -0.00120464
  -0.         -0.         -0.00229562 -0.         -0.         -0.00002543 -0.          0.         -0.00126952  0.00084225  0.         -0.          0.00115198
   0.00019106  0.00067338]
 [-0.00515955 -0.         -0.         -0.00196704 -0.00093396  0.          0.         -0.         -0.         -0.00016105  0.         -0.         -0.00019979
  -0.         -0.         -0.00038073 -0.         -0.         -0.00000422 -0.          0.         -0.00021055  0.00013969  0.         -0.          0.00019106
   0.00003169  0.00011168]
 [-0.01818487 -0.         -0.         -0.00693284 -0.00329175  0.          0.         -0.         -0.         -0.00056761  0.         -0.         -0.00070416
  -0.         -0.         -0.00134189 -0.         -0.         -0.00001487 -0.          0.         -0.00074209  0.00049233  0.         -0.          0.00067338
   0.00011168  0.00039362]] 
 [[ 0.84011906 -0.         -0.         -0.32028878  0.15207465 -0.         -0.          0.         -0.         -0.02622284  0.         -0.          0.03253149
  -0.         -0.          0.06199356 -0.         -0.         -0.00068675  0.          0.          0.03428363  0.02274501  0.          0.         -0.03110954
   0.00515955  0.01818487]
 [-0.          0.          0.          0.         -0.          0.          0.         -0.          0.          0.         -0.          0.         -0.
   0.          0.         -0.          0.          0.          0.         -0.         -0.         -0.         -0.         -0.         -0.          0.
  -0.         -0.        ]
 [-0.          0.          0.          0.         -0.          0.          0.         -0.          0.          0.         -0.          0.         -0.
   0.          0.         -0.          0.          0.          0.         -0.         -0.         -0.         -0.         -0.         -0.          0.
  -0.         -0.        ]
 [-0.32028878  0.          0.          0.12210758 -0.05797726  0.          0.         -0.          0.          0.00999725 -0.          0.         -0.01240237
   0.          0.         -0.02363456  0.          0.          0.00026182 -0.         -0.         -0.01307036 -0.00867136 -0.         -0.          0.01186027
  -0.00196704 -0.00693284]
 [ 0.15207465 -0.         -0.         -0.05797726  0.02752788 -0.         -0.          0.         -0.         -0.00474674  0.         -0.          0.00588871
  -0.         -0.          0.0112218  -0.         -0.         -0.00012431  0.          0.          0.00620587  0.0041172   0.          0.         -0.00563131
   0.00093396  0.00329175]
 [-0.          0.          0.          0.         -0.          0.          0.         -0.          0.          0.         -0.          0.         -0.
   0.          0.         -0.          0.          0.          0.         -0.         -0.         -0.         -0.         -0.         -0.          0.
  -0.         -0.        ]
 [-0.          0.          0.          0.         -0.          0.          0.         -0.          0.          0.         -0.          0.         -0.
   0.          0.         -0.          0.          0.          0.         -0.         -0.         -0.         -0.         -0.         -0.          0.
  -0.         -0.        ]
 [ 0.         -0.         -0.         -0.          0.         -0.         -0.          0.         -0.         -0.          0.         -0.          0.
  -0.         -0.          0.         -0.         -0.         -0.          0.          0.          0.          0.          0.          0.         -0.
   0.          0.        ]
 [-0.          0.          0.          0.         -0.          0.          0.         -0.          0.          0.         -0.          0.         -0.
   0.          0.         -0.          0.          0.          0.         -0.         -0.         -0.         -0.         -0.         -0.          0.
  -0.         -0.        ]
 [-0.02622284  0.          0.          0.00999725 -0.00474674  0.          0.         -0.          0.          0.0008185  -0.          0.         -0.00101541
   0.          0.         -0.00193502  0.          0.          0.00002144 -0.         -0.         -0.0010701  -0.00070995 -0.         -0.          0.00097103
  -0.00016105 -0.00056761]
 [ 0.         -0.         -0.         -0.          0.         -0.         -0.          0.         -0.         -0.          0.         -0.          0.
  -0.         -0.          0.         -0.         -0.         -0.          0.          0.          0.          0.          0.          0.         -0.
   0.          0.        ]
 [-0.          0.          0.          0.         -0.          0.          0.         -0.          0.          0.         -0.          0.         -0.
   0.          0.         -0.          0.          0.          0.         -0.         -0.         -0.         -0.         -0.         -0.          0.
  -0.         -0.        ]
 [ 0.03253149 -0.         -0.         -0.01240237  0.00588871 -0.         -0.          0.         -0.         -0.00101541  0.         -0.          0.0012597
  -0.         -0.          0.00240054 -0.         -0.         -0.00002659  0.          0.          0.00132755  0.00088074  0.          0.         -0.00120464
   0.00019979  0.00070416]
 [-0.          0.          0.          0.         -0.          0.          0.         -0.          0.          0.         -0.          0.         -0.
   0.          0.         -0.          0.          0.          0.         -0.         -0.         -0.         -0.         -0.         -0.          0.
  -0.         -0.        ]
 [-0.          0.          0.          0.         -0.          0.          0.         -0.          0.          0.         -0.          0.         -0.
   0.          0.         -0.          0.          0.          0.         -0.         -0.         -0.         -0.         -0.         -0.          0.
  -0.         -0.        ]
 [ 0.06199356 -0.         -0.         -0.02363456  0.0112218  -0.         -0.          0.         -0.         -0.00193502  0.         -0.          0.00240054
  -0.         -0.          0.00457459 -0.         -0.         -0.00005068  0.          0.          0.00252984  0.00167839  0.          0.         -0.00229562
   0.00038073  0.00134189]
 [-0.          0.          0.          0.         -0.          0.          0.         -0.          0.          0.         -0.          0.         -0.
   0.          0.         -0.          0.          0.          0.         -0.         -0.         -0.         -0.         -0.         -0.          0.
  -0.         -0.        ]
 [-0.          0.          0.          0.         -0.          0.          0.         -0.          0.          0.         -0.          0.         -0.
   0.          0.         -0.          0.          0.          0.         -0.         -0.         -0.         -0.         -0.         -0.          0.
  -0.         -0.        ]
 [-0.00068675  0.          0.          0.00026182 -0.00012431  0.          0.         -0.          0.          0.00002144 -0.          0.         -0.00002659
   0.          0.         -0.00005068  0.          0.          0.00000056 -0.         -0.         -0.00002802 -0.00001859 -0.         -0.          0.00002543
  -0.00000422 -0.00001487]
 [ 0.         -0.         -0.         -0.          0.         -0.         -0.          0.         -0.         -0.          0.         -0.          0.
  -0.         -0.          0.         -0.         -0.         -0.          0.          0.          0.          0.          0.          0.         -0.
   0.          0.        ]
 [ 0.         -0.         -0.         -0.          0.         -0.         -0.          0.         -0.         -0.          0.         -0.          0.
  -0.         -0.          0.         -0.         -0.         -0.          0.          0.          0.          0.          0.          0.         -0.
   0.          0.        ]
 [ 0.03428363 -0.         -0.         -0.01307036  0.00620587 -0.         -0.          0.         -0.         -0.0010701   0.         -0.          0.00132755
  -0.         -0.          0.00252984 -0.         -0.         -0.00002802  0.          0.          0.00139905  0.00092818  0.          0.         -0.00126952
   0.00021055  0.00074209]
 [ 0.02274501 -0.         -0.         -0.00867136  0.0041172  -0.         -0.          0.         -0.         -0.00070995  0.         -0.          0.00088074
  -0.         -0.          0.00167839 -0.         -0.         -0.00001859  0.          0.          0.00092818  0.00061579  0.          0.         -0.00084225
   0.00013969  0.00049233]
 [ 0.         -0.         -0.         -0.          0.         -0.         -0.          0.         -0.         -0.          0.         -0.          0.
  -0.         -0.          0.         -0.         -0.         -0.          0.          0.          0.          0.          0.          0.         -0.
   0.          0.        ]
 [ 0.         -0.         -0.         -0.          0.         -0.         -0.          0.         -0.         -0.          0.         -0.          0.
  -0.         -0.          0.         -0.         -0.         -0.          0.          0.          0.          0.          0.          0.         -0.
   0.          0.        ]
 [-0.03110954  0.          0.          0.01186027 -0.00563131  0.          0.         -0.          0.          0.00097103 -0.          0.         -0.00120464
   0.          0.         -0.00229562  0.          0.          0.00002543 -0.         -0.         -0.00126952 -0.00084225 -0.         -0.          0.00115198
  -0.00019106 -0.00067338]
 [ 0.00515955 -0.         -0.         -0.00196704  0.00093396 -0.         -0.          0.         -0.         -0.00016105  0.         -0.          0.00019979
  -0.         -0.          0.00038073 -0.         -0.         -0.00000422  0.          0.          0.00021055  0.00013969  0.          0.         -0.00019106
   0.00003169  0.00011168]
 [ 0.01818487 -0.         -0.         -0.00693284  0.00329175 -0.         -0.          0.         -0.         -0.00056761  0.         -0.          0.00070416
  -0.         -0.          0.00134189 -0.         -0.         -0.00001487  0.          0.          0.00074209  0.00049233  0.          0.         -0.00067338
   0.00011168  0.00039362]]

***************
SUHF converged at cycle 39
Final E(SUHF) =     -1.14207549, delta E = -8.41871e-09
***** Start DFT Correlation for SUHF+DFT **********
tot grids = 20048
E(SUHF) =     -1.14207549
E_c(TPSS) =     -0.02020854
E(SUHF+DFT) =     -1.16228404
