

#INFO: **** input file is /share/home/srwang/ExSCF/test/pytest/scan_h2/scan_dft.py ****
#import phf
from pyscf import lib
#import scipy
import numpy as np
import sys, os, contextlib

from pyphf import util, sudft

#xyz = 'h2.xyz' #sys.argv[1]
fch = 'test_uhf.fchk' #sys.argv[2]
#bas = '../h2.bas'
bas = 'cc-pvtz'

lib.num_threads(4)

for r in np.arange(0.5, 2.55, 0.1):
    output = 'tpss_mod/sudft_%.1f_diis_mod.out' % r
    os.system("echo '\n' > %s" % output)
    with open(output, 'a', encoding='utf-8') as f:
        with contextlib.redirect_stdout(f):
            xyz = '''H 0.0 0.0 0.0; H 0.0 0.0 %f'''%r
            mf = util.guess_from_fchk(xyz, bas, fch)
            #mf = util.guess(xyz, bas)
            #f.flush()
            mf2 = util.SUHF(mf)
            #mf2.cut_no = False
            mf2.debug = False
            #mf2.max_cycle = 50
            mf2.diis_on = True
            #mf2.output = 'sudft_%.1f.out'%r
            #mf2.kernel()
            
            mf3 = sudft.SUDFT(mf2)
            mf3.suxc = 'TPSS'
            mf3.kernel()
                    
#INFO: ******************** input file end ********************


System: uname_result(system='Linux', node='xc02n18', release='3.10.0-693.el7.x86_64', version='#1 SMP Thu Jul 6 19:56:57 EDT 2017', machine='x86_64', processor='x86_64')  Threads 4
Python 3.7.4 (default, Aug 13 2019, 20:35:49) 
[GCC 7.3.0]
numpy 1.17.2  scipy 1.4.1
Date: Tue Nov 24 03:44:41 2020
PySCF version 1.7.5
PySCF path  /share/home/srwang/pyscf-1.7.5/pyscf

[CONFIG] conf_file None
[INPUT] verbose = 4
[INPUT] num. atoms = 2
[INPUT] num. electrons = 2
[INPUT] charge = 0
[INPUT] spin (= nelec alpha-beta = 2S) = 0
[INPUT] symmetry False subgroup None
[INPUT] Mole.unit = angstrom
[INPUT]  1 H      0.000000000000   0.000000000000   0.000000000000 AA    0.000000000000   0.000000000000   0.000000000000 Bohr
[INPUT]  2 H      0.000000000000   0.000000000000   1.300000000000 AA    0.000000000000   0.000000000000   2.456643961935 Bohr

nuclear repulsion = 0.407059393015385
number of shells = 12
number of NR pGTOs = 32
number of NR cGTOs = 28
basis = cc-pvtz
ecp = {}
CPU time:       245.87


******** <class 'pyscf.scf.uhf.UHF'> ********
method = UHF
initial guess = minao
damping factor = 0
level_shift factor = 0
DIIS = <class 'pyscf.scf.diis.CDIIS'>
diis_start_cycle = 1
diis_space = 8
SCF conv_tol = 1e-09
SCF conv_tol_grad = None
SCF max_cycles = 1
direct_scf = True
direct_scf_tol = 1e-13
chkfile to save SCF result = /share/home/srwang/ExSCF/test/pytest/scan_h2/tmpf7t04kkw
max_memory 4000 MB (current use 118 MB)
number electrons alpha = 1  beta = 1
Set gradient conv threshold to 3.16228e-05
init E= -0.700839632958563
  alpha nocc = 1  HOMO = -0.361662213877271  LUMO = 0.0103454289122659
  beta  nocc = 1  HOMO = -0.359028491806482  LUMO = 0.0110948521151132
cycle= 1 E= -1.04170549944832  delta_E= -0.341  |g|= 0.034  |ddm|= 0.347
SCF not converged.
SCF energy = -1.04170549944832 after 1 cycles  <S^2> = 1.9920431e-07  2S+1 = 1.0000004


******** <class 'pyscf.scf.uhf.UHF'> ********
method = UHF
initial guess = minao
damping factor = 0
level_shift factor = 0
DIIS = <class 'pyscf.scf.diis.CDIIS'>
diis_start_cycle = 1
diis_space = 8
SCF conv_tol = 1e-09
SCF conv_tol_grad = None
SCF max_cycles = 1
direct_scf = True
direct_scf_tol = 1e-13
chkfile to save SCF result = /share/home/srwang/ExSCF/test/pytest/scan_h2/tmpf7t04kkw
max_memory 4000 MB (current use 121 MB)
number electrons alpha = 1  beta = 1
Set gradient conv threshold to 3.16228e-05
init E= -1.06203781425797
  alpha nocc = 1  HOMO = -0.49347940161966  LUMO = 0.102489760698828
  beta  nocc = 1  HOMO = -0.49347940161966  LUMO = 0.102489760698827
cycle= 1 E= -1.04379920339957  delta_E= 0.0182  |g|= 0.0125  |ddm|= 0.0205
SCF not converged.
SCF energy = -1.04379920339957 after 1 cycles  <S^2> = 0.37144695  2S+1 = 1.5766381

******** <class 'pyphf.util.SUHF'> ********
max_cycle = 70
verbose: normal
DIIS: <class 'pyscf.scf.diis.CDIIS'>
diis_start_cyc = 40
SVD: S^(-1/2)
[[-0.14161884  0.06218295  0.          0.         -0.29399509  0.         -0.         -0.07080443 -0.          0.          0.24113707  0.          0.
   0.         -0.          0.         -0.         -0.65110883  0.35425292  0.          0.         -0.63162538  0.32915555  0.         -0.         -0.82580791
   0.40185013 -0.84569649]
 [-0.21832611  0.09701468  0.          0.         -0.28045134  0.         -0.         -0.01601192 -0.          0.          0.10386152 -0.         -0.
  -0.         -0.         -0.         -0.         -0.07861944 -0.04777172 -0.         -0.          0.27919776 -0.03390001 -0.          0.          1.6133873
  -0.73357763  2.92145582]
 [-0.22022666  0.17183479  0.          0.         -0.13451915 -0.         -0.          0.04553476  0.          0.          0.00466036 -0.         -0.
  -0.         -0.          0.          0.          0.47956541 -0.05393939 -0.          0.          0.49604694  0.00553089  0.         -0.         -0.93706093
   2.2521175  -0.14792747]
 [ 0.         -0.          0.24627412 -0.18218861 -0.         -0.43296565  0.12151856 -0.         -0.03168934 -0.13781753 -0.         -0.         -0.
   0.         -0.         -0.26745381 -0.01227978  0.          0.          0.28716448 -0.77636452  0.          0.         -0.06508902  0.75143592 -0.
   0.          0.        ]
 [ 0.         -0.         -0.18218861 -0.24627412 -0.          0.12151856  0.43296565  0.          0.13781753 -0.03168934  0.         -0.         -0.
   0.          0.         -0.01227978  0.26745381 -0.         -0.          0.77636452  0.28716448  0.         -0.         -0.75143592 -0.06508902 -0.
   0.          0.        ]
 [-0.07274865 -0.31058464 -0.         -0.          0.15786241 -0.         -0.          0.07973826 -0.          0.          0.42479831 -0.         -0.
  -0.         -0.          0.          0.          0.16516095  0.49785273 -0.         -0.          0.48109583  0.89678863 -0.          0.          0.12331712
  -0.31633005 -0.31688033]
 [-0.         -0.          0.30879604 -0.22844107 -0.         -0.34284787  0.0962256   0.         -0.02178064 -0.09472441  0.          0.         -0.
  -0.         -0.          0.00996474  0.00045752 -0.          0.         -0.23828939  0.64422809 -0.          0.          0.09239612 -1.0666893   0.
   0.         -0.        ]
 [-0.         -0.         -0.22844107 -0.30879604 -0.          0.0962256   0.34284787  0.          0.09472441 -0.02178064  0.         -0.         -0.
  -0.         -0.          0.00045752 -0.00996474  0.          0.         -0.64422809 -0.23828939 -0.         -0.          1.0666893   0.09239612  0.
  -0.         -0.        ]
 [-0.12901909 -0.31334696  0.         -0.          0.24581167 -0.         -0.          0.16781981 -0.          0.          0.15030798  0.          0.
   0.          0.         -0.         -0.         -0.09663169 -0.00516027  0.          0.         -0.47542556 -0.77871526  0.         -0.         -0.27119104
   1.0742453   2.41598025]
 [ 0.          0.          0.          0.          0.          0.         -0.          0.         -0.         -0.          0.         -0.68534321 -0.10258778
  -0.08778416 -0.71678024 -0.          0.          0.         -0.          0.          0.         -0.         -0.          0.         -0.         -0.
   0.          0.        ]
 [-0.         -0.         -0.07628819 -0.10312285 -0.         -0.0410946  -0.14641839 -0.         -0.61277801  0.14090031 -0.          0.          0.
   0.          0.         -0.03524054  0.76753968  0.          0.          0.07502312  0.02774982  0.         -0.          0.27569086  0.02388021 -0.
  -0.          0.        ]
 [-0.03906174 -0.12307099 -0.          0.          0.00844125  0.          0.         -0.61332948  0.         -0.         -0.39792872 -0.         -0.
  -0.         -0.          0.         -0.          0.10785406  0.73109038 -0.          0.          0.02992949 -0.13318535  0.          0.         -0.07452691
   0.14650194  0.82260846]
 [-0.         -0.          0.10312285 -0.07628819 -0.          0.14641839 -0.0410946  -0.          0.14090031  0.61277801 -0.          0.          0.
   0.          0.         -0.76753968 -0.03524054 -0.          0.          0.02774982 -0.07502312  0.         -0.          0.02388021 -0.27569086  0.
   0.         -0.        ]
 [ 0.          0.          0.         -0.          0.          0.         -0.          0.         -0.          0.          0.          0.10258778 -0.68534321
  -0.71678024  0.08778416 -0.          0.          0.         -0.          0.          0.         -0.         -0.          0.          0.         -0.
  -0.         -0.        ]
 [-0.14161884  0.06218295  0.         -0.          0.29399509 -0.          0.         -0.07080443  0.         -0.         -0.24113707 -0.         -0.
  -0.         -0.          0.         -0.         -0.65110883 -0.35425292 -0.         -0.          0.63162538  0.32915555  0.         -0.         -0.82580791
  -0.40185013  0.84569649]
 [-0.21832611  0.09701468 -0.         -0.          0.28045134  0.          0.         -0.01601192 -0.         -0.         -0.10386152 -0.         -0.
  -0.         -0.         -0.          0.         -0.07861944  0.04777172  0.         -0.         -0.27919776 -0.03390001 -0.          0.          1.6133873
   0.73357763 -2.92145582]
 [-0.22022666  0.17183479  0.         -0.          0.13451915 -0.          0.          0.04553476  0.         -0.         -0.00466036  0.          0.
   0.          0.         -0.          0.          0.47956541  0.05393939  0.          0.         -0.49604694  0.00553089 -0.         -0.         -0.93706093
  -2.2521175   0.14792747]
 [-0.         -0.          0.24627412 -0.18218861 -0.          0.43296565 -0.12151856  0.         -0.03168934 -0.13781753  0.          0.         -0.
  -0.          0.          0.26745381  0.01227978  0.         -0.          0.28716448 -0.77636452  0.          0.          0.06508902 -0.75143592 -0.
   0.          0.        ]
 [-0.         -0.         -0.18218861 -0.24627412 -0.         -0.12151856 -0.43296565  0.          0.13781753 -0.03168934 -0.         -0.          0.
   0.          0.          0.01227978 -0.26745381 -0.         -0.          0.77636452  0.28716448  0.          0.          0.75143592  0.06508902  0.
  -0.         -0.        ]
 [ 0.07274865  0.31058464  0.         -0.          0.15786241 -0.         -0.         -0.07973826 -0.         -0.          0.42479831  0.          0.
   0.          0.         -0.         -0.         -0.16516095  0.49785273 -0.         -0.          0.48109583 -0.89678863  0.          0.         -0.12331712
  -0.31633005 -0.31688033]
 [-0.         -0.          0.30879604 -0.22844107 -0.          0.34284787 -0.0962256   0.         -0.02178064 -0.09472441  0.          0.          0.
  -0.         -0.         -0.00996474 -0.00045752 -0.          0.         -0.23828939  0.64422809 -0.         -0.         -0.09239612  1.0666893   0.
  -0.         -0.        ]
 [-0.         -0.         -0.22844107 -0.30879604 -0.         -0.0962256  -0.34284787  0.          0.09472441 -0.02178064 -0.         -0.         -0.
  -0.         -0.         -0.00045752  0.00996474 -0.          0.         -0.64422809 -0.23828939 -0.         -0.         -1.0666893  -0.09239612 -0.
   0.          0.        ]
 [ 0.12901909  0.31334696 -0.         -0.          0.24581167  0.          0.         -0.16781981  0.         -0.          0.15030798 -0.         -0.
  -0.         -0.          0.          0.          0.09663169 -0.00516027  0.          0.         -0.47542556  0.77871526  0.          0.          0.27119104
   1.0742453   2.41598025]
 [-0.         -0.          0.          0.          0.          0.         -0.         -0.         -0.         -0.         -0.         -0.68534321 -0.10258778
   0.08778416  0.71678024  0.          0.         -0.          0.          0.          0.          0.          0.          0.          0.          0.
   0.         -0.        ]
 [ 0.          0.          0.07628819  0.10312285  0.         -0.0410946  -0.14641839  0.          0.61277801 -0.14090031  0.         -0.          0.
   0.          0.         -0.03524054  0.76753968 -0.          0.         -0.07502312 -0.02774982 -0.          0.          0.27569086  0.02388021  0.
  -0.          0.        ]
 [-0.03906174 -0.12307099 -0.          0.         -0.00844125  0.          0.         -0.61332948  0.         -0.          0.39792872  0.          0.
   0.          0.         -0.          0.          0.10785406 -0.73109038  0.          0.         -0.02992949 -0.13318535  0.         -0.         -0.07452691
  -0.14650194 -0.82260846]
 [ 0.          0.         -0.10312285  0.07628819  0.          0.14641839 -0.0410946   0.         -0.14090031 -0.61277801  0.          0.         -0.
   0.          0.         -0.76753968 -0.03524054  0.          0.         -0.02774982  0.07502312 -0.          0.          0.02388021 -0.27569086  0.
   0.         -0.        ]
 [ 0.          0.          0.         -0.          0.          0.         -0.          0.         -0.          0.          0.          0.10258778 -0.68534321
   0.71678024 -0.08778416  0.         -0.          0.          0.         -0.          0.          0.          0.         -0.         -0.          0.
   0.          0.        ]]
C (ortho)
[[-0.9115761  -0.28125411  0.04834886  0.15561226 -0.         -0.         -0.21828005  0.         -0.          0.02694476  0.00546897  0.01412982  0.
  -0.         -0.11793562  0.          0.          0.         -0.          0.         -0.         -0.          0.         -0.00271066 -0.         -0.
   0.02921997 -0.00079063]
 [ 0.25192799  0.09166713  0.31740417  0.08987158 -0.         -0.         -0.76345009  0.         -0.          0.02850929 -0.00823917 -0.00249675 -0.
  -0.         -0.45957443  0.          0.          0.         -0.         -0.         -0.         -0.         -0.         -0.00257212 -0.         -0.
   0.15600525 -0.00335825]
 [ 0.         -0.         -0.         -0.         -0.62395985  0.63349512  0.         -0.03777908  0.07497942  0.          0.          0.         -0.12626027
   0.19432255 -0.          0.          0.         -0.         -0.          0.03443209  0.34661691 -0.15189142  0.06463698  0.          0.00417244 -0.0032786
  -0.         -0.        ]
 [ 0.         -0.         -0.         -0.         -0.63349512 -0.62395985  0.         -0.07497942 -0.03777908  0.          0.          0.         -0.19432255
  -0.12626027  0.         -0.          0.          0.          0.         -0.34661691  0.03443209 -0.06463698 -0.15189142  0.         -0.0032786  -0.00417244
  -0.          0.        ]
 [-0.30548116  0.76761218  0.04173602 -0.49003547 -0.         -0.         -0.03932172  0.         -0.          0.13717535  0.02198286 -0.13026806 -0.
  -0.         -0.00202302 -0.         -0.         -0.          0.         -0.          0.          0.         -0.         -0.1832023  -0.          0.
   0.01087879 -0.06383052]
 [-0.         -0.         -0.         -0.          0.0326127  -0.07411852 -0.         -0.08384999  0.80781485 -0.         -0.         -0.          0.0004636
  -0.0021446   0.          0.         -0.          0.         -0.         -0.09333078 -0.1872851  -0.33066707  0.31784952 -0.          0.26945419 -0.0841514
   0.          0.        ]
 [ 0.         -0.         -0.         -0.          0.07411852  0.0326127  -0.         -0.80781485 -0.08384999 -0.         -0.         -0.          0.0021446
   0.0004636   0.         -0.         -0.         -0.          0.          0.1872851  -0.09333078 -0.31784952 -0.33066707 -0.         -0.0841514  -0.26945419
   0.         -0.        ]
 [-0.00792338  0.02299419  0.09964974  0.01508614  0.          0.          0.35758722 -0.          0.         -0.01068051  0.23049725  0.07277664 -0.
  -0.         -0.71137609 -0.         -0.         -0.          0.         -0.         -0.         -0.          0.         -0.03947609  0.         -0.
  -0.54332289 -0.00535308]
 [-0.         -0.         -0.         -0.          0.1352482  -0.01154037 -0.          0.00860932 -0.00360152 -0.         -0.          0.         -0.91690732
   0.27036468  0.         -0.          0.         -0.         -0.          0.1367095  -0.19608247  0.09644044  0.03041743  0.         -0.00343243  0.01720388
   0.         -0.        ]
 [-0.          0.          0.          0.         -0.01154037 -0.1352482   0.         -0.00360152 -0.00860932  0.          0.          0.          0.27036468
   0.91690732 -0.          0.         -0.          0.          0.         -0.19608247 -0.1367095   0.03041743 -0.09644044 -0.         -0.01720388 -0.00343243
  -0.          0.        ]
 [ 0.07414761 -0.08718528 -0.06776286  0.22524697  0.          0.          0.04175669 -0.          0.          0.71899124  0.02458004 -0.03499644 -0.
  -0.          0.01024707 -0.          0.          0.          0.         -0.          0.          0.         -0.         -0.61234089 -0.          0.
   0.03738518  0.18597817]
 [-0.          0.         -0.         -0.         -0.          0.         -0.         -0.          0.          0.         -0.         -0.          0.
   0.          0.         -0.99494845 -0.07386627  0.03588223 -0.05773924  0.          0.          0.          0.          0.         -0.          0.
   0.          0.        ]
 [-0.          0.          0.          0.         -0.         -0.          0.          0.          0.          0.          0.          0.         -0.
  -0.          0.          0.07386627 -0.99494845 -0.05773924 -0.03588223  0.          0.          0.         -0.          0.         -0.          0.
   0.          0.        ]
 [-0.          0.         -0.         -0.         -0.         -0.         -0.          0.          0.          0.         -0.         -0.         -0.
  -0.         -0.          0.00684267 -0.06763529  0.86115233  0.50378101  0.          0.          0.         -0.          0.          0.          0.
   0.          0.        ]
 [-0.          0.          0.         -0.         -0.         -0.          0.          0.         -0.          0.         -0.         -0.          0.
   0.          0.         -0.06763529 -0.00684267 -0.50378101  0.86115233 -0.          0.          0.          0.          0.         -0.          0.
   0.          0.        ]
 [-0.          0.          0.          0.         -0.00026952  0.00282831  0.         -0.01188988 -0.05416653 -0.          0.          0.         -0.00156815
  -0.0146531   0.          0.         -0.          0.         -0.         -0.15077929 -0.15186153 -0.23891945  0.45265582  0.         -0.82989686 -0.01394498
   0.          0.        ]
 [-0.          0.          0.          0.         -0.00282831 -0.00026952  0.          0.05416653 -0.01188988  0.         -0.         -0.          0.0146531
  -0.00156815 -0.         -0.          0.         -0.          0.          0.15186153 -0.15077929 -0.45265582 -0.23891945 -0.         -0.01394498  0.82989686
   0.          0.        ]
 [-0.02502457  0.09983981  0.73415022  0.20386055 -0.         -0.          0.12142551 -0.          0.          0.00178718  0.50261712  0.15164406 -0.
  -0.          0.34410977  0.          0.          0.          0.          0.          0.         -0.         -0.          0.00543845  0.         -0.
   0.0073538   0.00277306]
 [ 0.00846285  0.03153625 -0.03390529  0.08558231 -0.          0.         -0.00012362 -0.         -0.         -0.09669189 -0.15686973  0.54658706 -0.
  -0.          0.01276713 -0.         -0.         -0.          0.         -0.          0.          0.         -0.         -0.34114388 -0.          0.
   0.02116794 -0.73536035]
 [-0.          0.         -0.          0.         -0.37508459 -0.20256096  0.         -0.04491979 -0.00836351  0.         -0.          0.          0.17190985
   0.05196469 -0.          0.          0.         -0.         -0.          0.74851508 -0.300411    0.23088039  0.28261643  0.          0.00579629  0.01437176
  -0.          0.        ]
 [-0.          0.         -0.         -0.         -0.20256096  0.37508459  0.         -0.00836351  0.04491979  0.         -0.         -0.          0.05196469
  -0.17190985  0.         -0.         -0.          0.          0.         -0.300411   -0.74851508  0.28261643 -0.23088039 -0.         -0.01437176  0.00579629
   0.          0.        ]
 [ 0.0574896  -0.41990275  0.18607552 -0.41270372 -0.         -0.         -0.00838795  0.         -0.         -0.28089197  0.13811707 -0.49981354  0.
   0.          0.00508507 -0.         -0.         -0.          0.          0.         -0.          0.          0.         -0.46725399 -0.          0.
   0.02516882 -0.22041325]
 [ 0.01841774 -0.00249107  0.0395568   0.02622941 -0.         -0.         -0.36609433  0.         -0.          0.01936401 -0.20587262 -0.0616063   0.
  -0.          0.37727174 -0.         -0.         -0.          0.         -0.         -0.          0.          0.         -0.0429259   0.          0.
  -0.82015019 -0.00016934]
 [ 0.         -0.         -0.         -0.          0.05013685  0.01159604 -0.         -0.5707947   0.04794131 -0.         -0.          0.          0.00238216
   0.00006117 -0.          0.          0.          0.         -0.         -0.22724867  0.17258944  0.48700186  0.34616129  0.          0.05535863  0.47723065
   0.          0.        ]
 [ 0.          0.          0.          0.          0.01159604 -0.05013685  0.          0.04794131  0.5707947   0.          0.          0.          0.00006117
  -0.00238216 -0.         -0.          0.         -0.          0.          0.17258944  0.22724867  0.34616129 -0.48700186  0.         -0.47723065  0.05535863
  -0.         -0.        ]
 [ 0.03065552 -0.05808762 -0.5021049  -0.15428464  0.          0.         -0.29838312  0.         -0.         -0.00804973  0.75789037  0.21170051  0.
  -0.          0.08808951 -0.         -0.         -0.          0.         -0.         -0.          0.          0.         -0.00265784 -0.          0.
  -0.06077179  0.00085729]
 [ 0.02870518 -0.35280761  0.22370307 -0.64008014  0.          0.         -0.00090867  0.         -0.          0.43262709 -0.10947126  0.37107392  0.
  -0.         -0.0033819  -0.         -0.         -0.          0.          0.         -0.         -0.         -0.          0.27881953  0.         -0.
  -0.01389056  0.01286875]
 [ 0.02400095 -0.00060894 -0.04675325  0.15233923  0.          0.          0.02159753 -0.         -0.          0.43211442  0.14356908 -0.46736276  0.
   0.         -0.00345619 -0.         -0.         -0.         -0.          0.         -0.         -0.          0.          0.41902051  0.          0.
  -0.02060757 -0.60974283]]
[[-0.9115761  -0.28125411  0.04834886  0.15561226  0.          0.          0.21828005  0.          0.         -0.02694476  0.00546897  0.01412982 -0.
   0.          0.11793562 -0.          0.         -0.         -0.          0.          0.          0.          0.          0.00271066  0.          0.
  -0.02921997 -0.00079063]
 [ 0.25192799  0.09166713  0.31740417  0.08987158 -0.          0.          0.76345009  0.          0.         -0.02850929 -0.00823917 -0.00249675  0.
   0.          0.45957443 -0.          0.         -0.         -0.         -0.         -0.         -0.         -0.          0.00257212  0.          0.
  -0.15600525 -0.00335825]
 [ 0.          0.         -0.          0.         -0.61168942  0.64535108 -0.          0.05500803 -0.0634294   0.         -0.          0.         -0.18360261
   0.14139657  0.          0.          0.         -0.          0.          0.1208684  -0.32667978  0.1086602  -0.12426546 -0.          0.00312428 -0.00428921
  -0.         -0.        ]
 [-0.          0.          0.         -0.         -0.64535108 -0.61168942 -0.         -0.0634294  -0.05500803 -0.          0.         -0.          0.14139657
   0.18360261 -0.         -0.         -0.         -0.         -0.         -0.32667978 -0.1208684  -0.12426546 -0.1086602   0.          0.00428921  0.00312428
   0.         -0.        ]
 [ 0.30548116 -0.76761218 -0.04173602  0.49003547 -0.         -0.         -0.03932172 -0.         -0.          0.13717535 -0.02198286  0.13026806  0.
   0.         -0.00202302 -0.         -0.         -0.          0.         -0.          0.         -0.          0.         -0.1832023  -0.         -0.
   0.01087879  0.06383052]
 [-0.          0.         -0.          0.         -0.0311845   0.07473065  0.         -0.71541021  0.3844267  -0.          0.         -0.         -0.00210066
   0.00063363 -0.         -0.          0.         -0.         -0.          0.13761114 -0.1576373  -0.40490804  0.21544954  0.         -0.0742705   0.27234337
   0.          0.        ]
 [ 0.         -0.          0.         -0.         -0.07473065 -0.0311845  -0.          0.3844267   0.71541021  0.         -0.          0.          0.00063363
   0.00210066 -0.         -0.         -0.          0.          0.         -0.1576373  -0.13761114  0.21544954  0.40490804  0.         -0.27234337 -0.0742705
  -0.          0.        ]
 [-0.00792338  0.02299419  0.09964974  0.01508614 -0.         -0.         -0.35758722 -0.         -0.          0.01068051  0.23049725  0.07277664  0.
   0.          0.71137609  0.          0.          0.          0.          0.         -0.          0.         -0.          0.03947609  0.          0.
   0.54332289 -0.00535308]
 [ 0.         -0.          0.         -0.          0.13500186 -0.0141334  -0.         -0.00006116  0.00933207 -0.         -0.         -0.         -0.19617011
   0.93559253 -0.         -0.         -0.         -0.          0.          0.08274742  0.22425585 -0.00107609  0.10111786  0.         -0.01706729  0.00405744
  -0.          0.        ]
 [-0.          0.          0.         -0.         -0.0141334  -0.13500186  0.         -0.00933207 -0.00006116  0.          0.         -0.         -0.93559253
  -0.19617011  0.         -0.          0.         -0.         -0.         -0.22425585  0.08274742 -0.10111786 -0.00107609  0.          0.00405744  0.01706729
   0.          0.        ]
 [-0.07414761  0.08718528  0.06776286 -0.22524697 -0.          0.          0.04175669 -0.         -0.          0.71899124 -0.02458004  0.03499644  0.
   0.          0.01024707 -0.         -0.         -0.         -0.         -0.          0.         -0.          0.         -0.61234089 -0.         -0.
   0.03738518 -0.18597817]
 [ 0.         -0.          0.         -0.         -0.          0.         -0.         -0.         -0.          0.         -0.          0.          0.
  -0.          0.         -0.9914626  -0.11126796 -0.06758976 -0.00727865  0.          0.          0.         -0.          0.         -0.          0.
  -0.         -0.        ]
 [-0.         -0.          0.         -0.          0.          0.         -0.         -0.         -0.          0.         -0.          0.         -0.
  -0.          0.          0.11126796 -0.9914626   0.00727865 -0.06758976  0.          0.          0.          0.          0.          0.          0.
  -0.         -0.        ]
 [ 0.         -0.          0.         -0.          0.         -0.         -0.         -0.         -0.          0.         -0.          0.          0.
   0.          0.         -0.0093839   0.06732976  0.13328723 -0.98874322  0.          0.          0.          0.          0.          0.          0.
  -0.         -0.        ]
 [ 0.         -0.          0.         -0.         -0.         -0.         -0.         -0.         -0.          0.         -0.          0.          0.
  -0.          0.          0.06732976  0.0093839  -0.98874322 -0.13328723 -0.          0.          0.          0.          0.         -0.          0.
  -0.         -0.        ]
 [-0.          0.         -0.          0.          0.0002152  -0.00283296  0.          0.05462284 -0.00957744 -0.         -0.         -0.         -0.01473157
  -0.00039127  0.         -0.          0.         -0.         -0.          0.18424902 -0.10885135 -0.50450582  0.08633468  0.         -0.04419571 -0.82883653
   0.          0.        ]
 [-0.         -0.          0.          0.          0.00283296  0.0002152  -0.         -0.00957744 -0.05462284  0.          0.         -0.         -0.00039127
   0.01473157 -0.         -0.          0.          0.          0.         -0.10885135 -0.18424902  0.08633468  0.50450582  0.          0.82883653 -0.04419571
   0.         -0.        ]
 [-0.02502457  0.09983981  0.73415022  0.20386055 -0.          0.         -0.12142551 -0.         -0.         -0.00178718  0.50261712  0.15164406  0.
  -0.         -0.34410977 -0.         -0.         -0.         -0.          0.         -0.          0.          0.         -0.00543845 -0.         -0.
  -0.0073538   0.00277306]
 [-0.00846285 -0.03153625  0.03390529 -0.08558231  0.          0.         -0.00012362  0.         -0.         -0.09669189  0.15686973 -0.54658706  0.
   0.          0.01276713 -0.         -0.         -0.         -0.         -0.          0.         -0.          0.         -0.34114388 -0.         -0.
   0.02116794  0.73536035]
 [ 0.         -0.          0.         -0.         -0.37890229 -0.19532652  0.         -0.02480013 -0.03837564  0.          0.         -0.         -0.06554653
  -0.16720341  0.          0.          0.         -0.          0.          0.64836121  0.47973882  0.19682155  0.30730942  0.         -0.01457355 -0.0052684
  -0.         -0.        ]
 [ 0.         -0.         -0.          0.         -0.19532652  0.37890229 -0.          0.03837564 -0.02480013  0.          0.         -0.          0.16720341
  -0.06554653 -0.         -0.         -0.         -0.         -0.         -0.47973882  0.64836121 -0.30730942  0.19682155  0.         -0.0052684   0.01457355
   0.          0.        ]
 [-0.0574896   0.41990275 -0.18607552  0.41270372 -0.         -0.         -0.00838795  0.          0.         -0.28089197 -0.13811707  0.49981354 -0.
  -0.          0.00508507 -0.         -0.         -0.         -0.          0.          0.         -0.          0.         -0.46725399 -0.         -0.
   0.02516882  0.22041325]
 [ 0.01841774 -0.00249107  0.0395568   0.02622941 -0.          0.          0.36609433  0.          0.         -0.01936401 -0.20587262 -0.0616063   0.
   0.         -0.37727174 -0.         -0.         -0.         -0.          0.         -0.          0.         -0.          0.0429259   0.         -0.
   0.82015019 -0.00016934]
 [ 0.         -0.          0.         -0.         -0.05035012 -0.01063188 -0.          0.17247824  0.54621994  0.          0.         -0.          0.00025148
   0.00236964  0.          0.          0.         -0.         -0.          0.17628481  0.22439416 -0.1775819  -0.57049375 -0.          0.47893181  0.03792085
  -0.         -0.        ]
 [-0.          0.         -0.          0.         -0.01063188  0.05035012  0.         -0.54621994  0.17247824 -0.          0.          0.         -0.00236964
   0.00025148  0.          0.          0.          0.          0.         -0.22439416  0.17628481  0.57049375 -0.1775819  -0.          0.03792085 -0.47893181
  -0.          0.        ]
 [ 0.03065552 -0.05808762 -0.5021049  -0.15428464  0.         -0.          0.29838312  0.          0.          0.00804973  0.75789037  0.21170051  0.
   0.         -0.08808951 -0.         -0.         -0.         -0.          0.          0.          0.         -0.          0.00265784 -0.         -0.
   0.06077179  0.00085729]
 [-0.02870518  0.35280761 -0.22370307  0.64008014  0.         -0.         -0.00090867  0.          0.          0.43262709  0.10947126 -0.37107392 -0.
   0.         -0.0033819   0.          0.          0.          0.          0.         -0.          0.         -0.          0.27881953 -0.          0.
  -0.01389056 -0.01286875]
 [-0.02400095  0.00060894  0.04675325 -0.15233923 -0.          0.          0.02159753 -0.         -0.          0.43211442 -0.14356908  0.46736276 -0.
  -0.         -0.00345619  0.          0.          0.          0.          0.         -0.          0.         -0.          0.41902051  0.          0.
  -0.02060757  0.60974283]]
grids:  [0.06237655 0.31939555 0.74529195 1.28265786 1.85893479 2.39630071 2.8221971  3.07921611] 
weights:  [0.15900941 0.34931531 0.49276925 0.56970235 0.56970235 0.49276925 0.34931531 0.15900941]
S = 0.0, Sz = 0.0
Wigner small d:  1
value : [1. 1. 1. 1. 1. 1. 1. 1.]
**** Start Cycle 1 ****
dm (ortho)
[[[ 0.83097099 -0.22965154 -0.         ... -0.02794484 -0.02616696 -0.0218787 ]
  [-0.22965154  0.06346771  0.         ...  0.00772298  0.00723164  0.00604651]
  [-0.          0.          0.         ...  0.          0.          0.        ]
  ...
  [-0.02794484  0.00772298  0.         ...  0.00093976  0.00087997  0.00073576]
  [-0.02616696  0.00723164  0.         ...  0.00087997  0.00082399  0.00068895]
  [-0.0218787   0.00604651  0.         ...  0.00073576  0.00068895  0.00057605]]

 [[ 0.83097099 -0.22965154 -0.         ... -0.02794484  0.02616696  0.0218787 ]
  [-0.22965154  0.06346771  0.         ...  0.00772298 -0.00723164 -0.00604651]
  [-0.          0.          0.         ...  0.         -0.         -0.        ]
  ...
  [-0.02794484  0.00772298  0.         ...  0.00093976 -0.00087997 -0.00073576]
  [ 0.02616696 -0.00723164 -0.         ... -0.00087997  0.00082399  0.00068895]
  [ 0.0218787  -0.00604651 -0.         ... -0.00073576  0.00068895  0.00057605]]]
Fock (ortho)
 (array([[-0.30902661,  0.46350432,  0.        , -0.        , -0.17587969, -0.        ,  0.        ,  0.12744044, -0.        ,  0.        ,  0.07376275,
         0.        ,  0.        ,  0.        ,  0.        , -0.        , -0.        , -0.12694563,  0.02766351,  0.        , -0.        , -0.00931539,
        -0.1682255 ,  0.        ,  0.        ,  0.03164932,  0.00247187,  0.01412082],
       [ 0.46350432,  1.30046379,  0.        ,  0.        ,  0.07090921, -0.        , -0.        ,  0.41390041, -0.        , -0.        ,  0.00643989,
         0.        ,  0.        ,  0.        ,  0.        , -0.        , -0.        , -0.49287881,  0.00820494, -0.        ,  0.        ,  0.00529333,
        -0.85974063,  0.        , -0.        , -0.05087978, -0.00057484, -0.00108463],
       [ 0.        ,  0.        ,  1.27428738, -0.        ,  0.        ,  0.03669834,  0.01395189,  0.        ,  0.16521664,  0.14139474,  0.        ,
         0.        , -0.        , -0.        , -0.        ,  0.009226  ,  0.00750368, -0.        , -0.        , -0.33474638, -1.15260401, -0.        ,
         0.        ,  0.00005059,  0.00008242,  0.        ,  0.        , -0.        ],
       [-0.        ,  0.        , -0.        ,  1.27428738,  0.        , -0.01395189,  0.03669834, -0.        ,  0.14139474, -0.16521664, -0.        ,
         0.        , -0.        , -0.        , -0.        , -0.00750368,  0.009226  ,  0.        , -0.        , -1.15260401,  0.33474638, -0.        ,
         0.        ,  0.00008242, -0.00005059,  0.        , -0.        , -0.        ],
       [-0.17587969,  0.07090921,  0.        ,  0.        ,  0.36035013, -0.        , -0.        , -0.01905545,  0.        , -0.        ,  0.49410088,
        -0.        , -0.        , -0.        , -0.        , -0.        , -0.        , -0.06893866,  0.27671493, -0.        ,  0.        ,  0.63918363,
         0.01309936, -0.        ,  0.        ,  0.00505148, -0.13128289,  0.12407519],
       [-0.        , -0.        ,  0.03669834, -0.01395189, -0.        ,  1.99766451,  0.        , -0.        , -0.00793872, -0.01454438, -0.        ,
         0.        , -0.        , -0.        ,  0.        ,  0.04814261,  0.01592763,  0.        ,  0.        ,  0.00084602, -0.01046702, -0.        ,
        -0.        , -0.26665559, -1.40759513, -0.        , -0.        ,  0.        ],
       [ 0.        , -0.        ,  0.01395189,  0.03669834, -0.        ,  0.        ,  1.99766451, -0.        , -0.01454438,  0.00793872, -0.        ,
         0.        , -0.        ,  0.        , -0.        , -0.01592763,  0.04814261, -0.        , -0.        , -0.01046702, -0.00084602, -0.        ,
        -0.        , -1.40759513,  0.26665559, -0.        ,  0.        ,  0.        ],
       [ 0.12744044,  0.41390041,  0.        , -0.        , -0.01905545, -0.        , -0.        ,  3.1882301 , -0.        ,  0.        , -0.01067233,
        -0.        , -0.        , -0.        , -0.        , -0.        , -0.        , -0.39686613,  0.01247822,  0.        ,  0.        , -0.00380938,
         0.90682045, -0.        , -0.        ,  0.32802019,  0.00038501,  0.0008504 ],
       [-0.        , -0.        ,  0.16521664,  0.14139474,  0.        , -0.00793872, -0.01454438, -0.        ,  3.11158605,  0.        ,  0.        ,
         0.        ,  0.        ,  0.        ,  0.        ,  0.00217783,  0.01195949, -0.        , -0.        ,  0.2693163 ,  0.17655765,  0.        ,
        -0.        ,  0.00255206,  0.00082429,  0.        ,  0.        , -0.        ],
       [ 0.        , -0.        ,  0.14139474, -0.16521664, -0.        , -0.01454438,  0.00793872,  0.        ,  0.        ,  3.11158605, -0.        ,
         0.        ,  0.        , -0.        ,  0.        ,  0.01195949, -0.00217783, -0.        ,  0.        , -0.17655765,  0.2693163 , -0.        ,
         0.        , -0.00082429,  0.00255206,  0.        , -0.        ,  0.        ],
       [ 0.07376275,  0.00643989,  0.        , -0.        ,  0.49410088, -0.        , -0.        , -0.01067233,  0.        , -0.        ,  2.48020557,
        -0.        , -0.        , -0.        , -0.        , -0.        , -0.        ,  0.02952384, -0.05209663, -0.        , -0.        ,  0.66793901,
        -0.01729122, -0.        , -0.        ,  0.00252528, -0.36535636, -1.16967895],
       [ 0.        ,  0.        ,  0.        ,  0.        , -0.        ,  0.        ,  0.        , -0.        ,  0.        ,  0.        , -0.        ,
         3.32543152,  0.        ,  0.00047907, -0.01792373, -0.        ,  0.        , -0.        ,  0.        , -0.        , -0.        ,  0.        ,
         0.        , -0.        , -0.        ,  0.        ,  0.        , -0.        ],
       [ 0.        ,  0.        , -0.        , -0.        , -0.        , -0.        , -0.        , -0.        ,  0.        ,  0.        , -0.        ,
         0.        ,  3.32543152, -0.01792373, -0.00047907, -0.        , -0.        , -0.        , -0.        , -0.        , -0.        ,  0.        ,
         0.        , -0.        , -0.        ,  0.        ,  0.        , -0.        ],
       [ 0.        ,  0.        , -0.        , -0.        , -0.        , -0.        ,  0.        , -0.        ,  0.        , -0.        , -0.        ,
         0.00047907, -0.01792373,  3.60006691,  0.        ,  0.        , -0.        , -0.        , -0.        , -0.        ,  0.        ,  0.        ,
         0.        , -0.        , -0.        ,  0.        ,  0.        , -0.        ],
       [ 0.        ,  0.        , -0.        , -0.        , -0.        ,  0.        , -0.        , -0.        ,  0.        ,  0.        , -0.        ,
        -0.01792373, -0.00047907,  0.        ,  3.60006691, -0.        ,  0.        , -0.        ,  0.        ,  0.        ,  0.        ,  0.        ,
         0.        ,  0.        ,  0.        ,  0.        ,  0.        , -0.        ],
       [-0.        , -0.        ,  0.009226  , -0.00750368, -0.        ,  0.04814261, -0.01592763, -0.        ,  0.00217783,  0.01195949, -0.        ,
        -0.        , -0.        ,  0.        , -0.        ,  4.1710415 ,  0.        , -0.        , -0.        ,  0.00272812, -0.00644975,  0.        ,
        -0.        , -0.0309117 ,  0.23230989, -0.        , -0.        ,  0.        ],
       [-0.        , -0.        ,  0.00750368,  0.009226  , -0.        ,  0.01592763,  0.04814261, -0.        ,  0.01195949, -0.00217783, -0.        ,
         0.        , -0.        , -0.        ,  0.        ,  0.        ,  4.1710415 , -0.        ,  0.        , -0.00644975, -0.00272812,  0.        ,
        -0.        ,  0.23230989,  0.0309117 , -0.        , -0.        ,  0.        ],
       [-0.12694563, -0.49287881, -0.        ,  0.        , -0.06893866,  0.        , -0.        , -0.39686613, -0.        , -0.        ,  0.02952384,
        -0.        , -0.        , -0.        , -0.        , -0.        , -0.        ,  1.30266215,  0.01823767,  0.        , -0.        , -0.03290448,
         0.06380652, -0.        ,  0.        ,  0.98282338,  0.00468239, -0.00479193],
       [ 0.02766351,  0.00820494, -0.        , -0.        ,  0.27671493,  0.        , -0.        ,  0.01247822, -0.        ,  0.        , -0.05209663,
         0.        , -0.        , -0.        ,  0.        , -0.        ,  0.        ,  0.01823767,  4.36206139, -0.        , -0.        ,  0.76698921,
        -0.01240902,  0.        ,  0.        ,  0.00770757,  0.0655115 ,  1.09132186],
       [ 0.        , -0.        , -0.33474638, -1.15260401, -0.        ,  0.00084602, -0.01046702,  0.        ,  0.2693163 , -0.17655765, -0.        ,
        -0.        , -0.        , -0.        ,  0.        ,  0.00272812, -0.00644975,  0.        , -0.        ,  3.27109197, -0.        ,  0.        ,
        -0.        ,  0.01293218, -0.0035495 , -0.        ,  0.        , -0.        ],
       [-0.        ,  0.        , -1.15260401,  0.33474638,  0.        , -0.01046702, -0.00084602,  0.        ,  0.17655765,  0.2693163 , -0.        ,
        -0.        , -0.        ,  0.        ,  0.        , -0.00644975, -0.00272812, -0.        , -0.        ,  0.        ,  3.27109197,  0.        ,
         0.        ,  0.0035495 ,  0.01293218,  0.        , -0.        , -0.        ],
       [-0.00931539,  0.00529333, -0.        , -0.        ,  0.63918363, -0.        , -0.        , -0.00380938,  0.        , -0.        ,  0.66793901,
         0.        ,  0.        ,  0.        ,  0.        ,  0.        ,  0.        , -0.03290448,  0.76698921,  0.        ,  0.        ,  2.11120144,
        -0.00155595,  0.        ,  0.        , -0.01435014, -1.10518616,  0.42485675],
       [-0.1682255 , -0.85974063,  0.        ,  0.        ,  0.01309936, -0.        , -0.        ,  0.90682045, -0.        ,  0.        , -0.01729122,
         0.        ,  0.        ,  0.        ,  0.        , -0.        , -0.        ,  0.06380652, -0.01240902, -0.        ,  0.        , -0.00155595,
         3.70536539, -0.        ,  0.        , -0.01968243,  0.00044142,  0.00676154],
       [ 0.        ,  0.        ,  0.00005059,  0.00008242, -0.        , -0.26665559, -1.40759513, -0.        ,  0.00255206, -0.00082429, -0.        ,
        -0.        , -0.        , -0.        ,  0.        , -0.0309117 ,  0.23230989, -0.        ,  0.        ,  0.01293218,  0.0035495 ,  0.        ,
        -0.        ,  3.04299193, -0.        ,  0.        , -0.        ,  0.        ],
       [ 0.        , -0.        ,  0.00008242, -0.00005059,  0.        , -1.40759513,  0.26665559, -0.        ,  0.00082429,  0.00255206, -0.        ,
        -0.        , -0.        , -0.        ,  0.        ,  0.23230989,  0.0309117 ,  0.        ,  0.        , -0.0035495 ,  0.01293218,  0.        ,
         0.        , -0.        ,  3.04299193,  0.        , -0.        ,  0.        ],
       [ 0.03164932, -0.05087978,  0.        ,  0.        ,  0.00505148, -0.        , -0.        ,  0.32802019,  0.        ,  0.        ,  0.00252528,
         0.        ,  0.        ,  0.        ,  0.        , -0.        , -0.        ,  0.98282338,  0.00770757, -0.        ,  0.        , -0.01435014,
        -0.01968243,  0.        ,  0.        ,  1.81725404,  0.00699334, -0.00694961],
       [ 0.00247187, -0.00057484,  0.        , -0.        , -0.13128289, -0.        ,  0.        ,  0.00038501,  0.        , -0.        , -0.36535636,
         0.        ,  0.        ,  0.        ,  0.        , -0.        , -0.        ,  0.00468239,  0.0655115 ,  0.        , -0.        , -1.10518616,
         0.00044142, -0.        , -0.        ,  0.00699334,  1.21921778,  0.13188547],
       [ 0.01412082, -0.00108463, -0.        , -0.        ,  0.12407519,  0.        ,  0.        ,  0.0008504 , -0.        ,  0.        , -1.16967895,
        -0.        , -0.        , -0.        , -0.        ,  0.        ,  0.        , -0.00479193,  1.09132186, -0.        , -0.        ,  0.42485675,
         0.00676154,  0.        ,  0.        , -0.00694961,  0.13188547,  3.69772064]]), array([[-0.30902661,  0.46350432,  0.        , -0.        ,  0.17587969, -0.        ,  0.        ,  0.12744044, -0.        ,  0.        , -0.07376275,
         0.        ,  0.        ,  0.        ,  0.        , -0.        , -0.        , -0.12694563, -0.02766351, -0.        , -0.        ,  0.00931539,
        -0.1682255 ,  0.        ,  0.        ,  0.03164932, -0.00247187, -0.01412082],
       [ 0.46350432,  1.30046379,  0.        ,  0.        , -0.07090921, -0.        , -0.        ,  0.41390041, -0.        , -0.        , -0.00643989,
         0.        ,  0.        ,  0.        ,  0.        , -0.        , -0.        , -0.49287881, -0.00820494, -0.        ,  0.        , -0.00529333,
        -0.85974063,  0.        , -0.        , -0.05087978,  0.00057484,  0.00108463],
       [ 0.        ,  0.        ,  1.27428738, -0.        ,  0.        , -0.03669834, -0.01395189,  0.        ,  0.16521664,  0.14139474,  0.        ,
         0.        , -0.        , -0.        , -0.        , -0.009226  , -0.00750368, -0.        , -0.        , -0.33474638, -1.15260401, -0.        ,
         0.        , -0.00005059, -0.00008242,  0.        ,  0.        , -0.        ],
       [-0.        ,  0.        , -0.        ,  1.27428738,  0.        ,  0.01395189, -0.03669834, -0.        ,  0.14139474, -0.16521664, -0.        ,
         0.        , -0.        , -0.        , -0.        ,  0.00750368, -0.009226  ,  0.        , -0.        , -1.15260401,  0.33474638, -0.        ,
         0.        , -0.00008242,  0.00005059,  0.        , -0.        , -0.        ],
       [ 0.17587969, -0.07090921,  0.        ,  0.        ,  0.36035013, -0.        , -0.        ,  0.01905545,  0.        , -0.        ,  0.49410088,
        -0.        , -0.        , -0.        , -0.        ,  0.        , -0.        ,  0.06893866,  0.27671493, -0.        ,  0.        ,  0.63918363,
        -0.01309936, -0.        ,  0.        , -0.00505148, -0.13128289,  0.12407519],
       [-0.        , -0.        , -0.03669834,  0.01395189, -0.        ,  1.99766451,  0.        , -0.        ,  0.00793872,  0.01454438, -0.        ,
         0.        , -0.        , -0.        ,  0.        ,  0.04814261,  0.01592763,  0.        ,  0.        , -0.00084602,  0.01046702, -0.        ,
        -0.        , -0.26665559, -1.40759513, -0.        , -0.        ,  0.        ],
       [ 0.        , -0.        , -0.01395189, -0.03669834, -0.        ,  0.        ,  1.99766451, -0.        ,  0.01454438, -0.00793872, -0.        ,
        -0.        , -0.        ,  0.        , -0.        , -0.01592763,  0.04814261, -0.        , -0.        ,  0.01046702,  0.00084602, -0.        ,
        -0.        , -1.40759513,  0.26665559, -0.        ,  0.        ,  0.        ],
       [ 0.12744044,  0.41390041,  0.        , -0.        ,  0.01905545, -0.        , -0.        ,  3.1882301 , -0.        ,  0.        ,  0.01067233,
        -0.        , -0.        , -0.        , -0.        , -0.        , -0.        , -0.39686613, -0.01247822,  0.        ,  0.        ,  0.00380938,
         0.90682045, -0.        , -0.        ,  0.32802019, -0.00038501, -0.0008504 ],
       [-0.        , -0.        ,  0.16521664,  0.14139474,  0.        ,  0.00793872,  0.01454438, -0.        ,  3.11158605,  0.        ,  0.        ,
         0.        ,  0.        ,  0.        ,  0.        , -0.00217783, -0.01195949, -0.        , -0.        ,  0.2693163 ,  0.17655765,  0.        ,
        -0.        , -0.00255206, -0.00082429,  0.        ,  0.        , -0.        ],
       [ 0.        , -0.        ,  0.14139474, -0.16521664, -0.        ,  0.01454438, -0.00793872,  0.        ,  0.        ,  3.11158605, -0.        ,
         0.        ,  0.        , -0.        ,  0.        , -0.01195949,  0.00217783, -0.        ,  0.        , -0.17655765,  0.2693163 , -0.        ,
         0.        ,  0.00082429, -0.00255206,  0.        , -0.        ,  0.        ],
       [-0.07376275, -0.00643989,  0.        , -0.        ,  0.49410088, -0.        , -0.        ,  0.01067233,  0.        , -0.        ,  2.48020557,
        -0.        , -0.        , -0.        , -0.        , -0.        , -0.        , -0.02952384, -0.05209663, -0.        , -0.        ,  0.66793901,
         0.01729122, -0.        , -0.        , -0.00252528, -0.36535636, -1.16967895],
       [ 0.        ,  0.        ,  0.        ,  0.        , -0.        ,  0.        , -0.        , -0.        ,  0.        ,  0.        , -0.        ,
         3.32543152,  0.        , -0.00047907,  0.01792373, -0.        ,  0.        , -0.        ,  0.        , -0.        , -0.        ,  0.        ,
         0.        , -0.        , -0.        ,  0.        ,  0.        , -0.        ],
       [ 0.        ,  0.        , -0.        , -0.        , -0.        , -0.        , -0.        , -0.        ,  0.        ,  0.        , -0.        ,
         0.        ,  3.32543152,  0.01792373,  0.00047907, -0.        , -0.        , -0.        , -0.        , -0.        , -0.        ,  0.        ,
         0.        , -0.        , -0.        ,  0.        ,  0.        , -0.        ],
       [ 0.        ,  0.        , -0.        , -0.        , -0.        , -0.        ,  0.        , -0.        ,  0.        , -0.        , -0.        ,
        -0.00047907,  0.01792373,  3.60006691,  0.        ,  0.        , -0.        , -0.        , -0.        , -0.        ,  0.        ,  0.        ,
         0.        , -0.        , -0.        ,  0.        ,  0.        , -0.        ],
       [ 0.        ,  0.        , -0.        , -0.        , -0.        ,  0.        , -0.        , -0.        ,  0.        ,  0.        , -0.        ,
         0.01792373,  0.00047907,  0.        ,  3.60006691,  0.        ,  0.        , -0.        ,  0.        ,  0.        ,  0.        ,  0.        ,
         0.        ,  0.        ,  0.        ,  0.        ,  0.        , -0.        ],
       [-0.        , -0.        , -0.009226  ,  0.00750368,  0.        ,  0.04814261, -0.01592763, -0.        , -0.00217783, -0.01195949, -0.        ,
        -0.        , -0.        ,  0.        ,  0.        ,  4.1710415 , -0.        , -0.        , -0.        , -0.00272812,  0.00644975, -0.        ,
        -0.        , -0.0309117 ,  0.23230989, -0.        , -0.        ,  0.        ],
       [-0.        , -0.        , -0.00750368, -0.009226  , -0.        ,  0.01592763,  0.04814261, -0.        , -0.01195949,  0.00217783, -0.        ,
         0.        , -0.        , -0.        ,  0.        , -0.        ,  4.1710415 , -0.        ,  0.        ,  0.00644975,  0.00272812,  0.        ,
        -0.        ,  0.23230989,  0.0309117 , -0.        , -0.        ,  0.        ],
       [-0.12694563, -0.49287881, -0.        ,  0.        ,  0.06893866,  0.        , -0.        , -0.39686613, -0.        , -0.        , -0.02952384,
        -0.        , -0.        , -0.        , -0.        , -0.        , -0.        ,  1.30266215, -0.01823767, -0.        , -0.        ,  0.03290448,
         0.06380652, -0.        ,  0.        ,  0.98282338, -0.00468239,  0.00479193],
       [-0.02766351, -0.00820494, -0.        , -0.        ,  0.27671493,  0.        , -0.        , -0.01247822, -0.        ,  0.        , -0.05209663,
         0.        , -0.        , -0.        ,  0.        , -0.        ,  0.        , -0.01823767,  4.36206139, -0.        , -0.        ,  0.76698921,
         0.01240902,  0.        ,  0.        , -0.00770757,  0.0655115 ,  1.09132186],
       [-0.        , -0.        , -0.33474638, -1.15260401, -0.        , -0.00084602,  0.01046702,  0.        ,  0.2693163 , -0.17655765, -0.        ,
        -0.        , -0.        , -0.        ,  0.        , -0.00272812,  0.00644975, -0.        , -0.        ,  3.27109197, -0.        ,  0.        ,
        -0.        , -0.01293218,  0.0035495 , -0.        ,  0.        , -0.        ],
       [-0.        ,  0.        , -1.15260401,  0.33474638,  0.        ,  0.01046702,  0.00084602,  0.        ,  0.17655765,  0.2693163 , -0.        ,
        -0.        , -0.        ,  0.        ,  0.        ,  0.00644975,  0.00272812, -0.        , -0.        ,  0.        ,  3.27109197,  0.        ,
         0.        , -0.0035495 , -0.01293218,  0.        , -0.        , -0.        ],
       [ 0.00931539, -0.00529333, -0.        , -0.        ,  0.63918363, -0.        , -0.        ,  0.00380938,  0.        , -0.        ,  0.66793901,
         0.        ,  0.        ,  0.        ,  0.        , -0.        ,  0.        ,  0.03290448,  0.76698921,  0.        ,  0.        ,  2.11120144,
         0.00155595, -0.        ,  0.        ,  0.01435014, -1.10518616,  0.42485675],
       [-0.1682255 , -0.85974063,  0.        ,  0.        , -0.01309936, -0.        , -0.        ,  0.90682045, -0.        ,  0.        ,  0.01729122,
         0.        ,  0.        ,  0.        ,  0.        , -0.        , -0.        ,  0.06380652,  0.01240902, -0.        ,  0.        ,  0.00155595,
         3.70536539, -0.        ,  0.        , -0.01968243, -0.00044142, -0.00676154],
       [ 0.        ,  0.        , -0.00005059, -0.00008242, -0.        , -0.26665559, -1.40759513, -0.        , -0.00255206,  0.00082429, -0.        ,
        -0.        , -0.        , -0.        ,  0.        , -0.0309117 ,  0.23230989, -0.        ,  0.        , -0.01293218, -0.0035495 , -0.        ,
        -0.        ,  3.04299193, -0.        ,  0.        , -0.        ,  0.        ],
       [ 0.        , -0.        , -0.00008242,  0.00005059,  0.        , -1.40759513,  0.26665559, -0.        , -0.00082429, -0.00255206, -0.        ,
        -0.        , -0.        , -0.        ,  0.        ,  0.23230989,  0.0309117 ,  0.        ,  0.        ,  0.0035495 , -0.01293218,  0.        ,
         0.        , -0.        ,  3.04299193, -0.        , -0.        ,  0.        ],
       [ 0.03164932, -0.05087978,  0.        ,  0.        , -0.00505148, -0.        , -0.        ,  0.32802019,  0.        ,  0.        , -0.00252528,
         0.        ,  0.        ,  0.        ,  0.        , -0.        , -0.        ,  0.98282338, -0.00770757, -0.        ,  0.        ,  0.01435014,
        -0.01968243,  0.        , -0.        ,  1.81725404, -0.00699334,  0.00694961],
       [-0.00247187,  0.00057484,  0.        , -0.        , -0.13128289, -0.        ,  0.        , -0.00038501,  0.        , -0.        , -0.36535636,
         0.        ,  0.        ,  0.        ,  0.        , -0.        , -0.        , -0.00468239,  0.0655115 ,  0.        , -0.        , -1.10518616,
        -0.00044142, -0.        , -0.        , -0.00699334,  1.21921778,  0.13188547],
       [-0.01412082,  0.00108463, -0.        , -0.        ,  0.12407519,  0.        ,  0.        , -0.0008504 , -0.        ,  0.        , -1.16967895,
        -0.        , -0.        , -0.        , -0.        ,  0.        ,  0.        ,  0.00479193,  1.09132186, -0.        , -0.        ,  0.42485675,
        -0.00676154,  0.        ,  0.        ,  0.00694961,  0.13188547,  3.69772064]]))
E(UHF) =    -1.450859
NO eigenvalue
[-1. -0. -0. -0. -0. -0. -0. -0. -0. -0. -0. -0. -0. -0. -0.  0.  0.  0.  0.  0.  0.  0.  0.  0.  0.  0.  0.  0.] [-1. -0. -0. -0. -0. -0. -0. -0. -0. -0. -0. -0. -0. -0. -0. -0.  0.  0.  0.  0.  0.  0.  0.  0.  0.  0.  0.  0.]
NO vec
[[ 0.9115761   0.         -0.37264624 ...  0.          0.          0.        ]
 [-0.25192799  0.         -0.21335445 ...  0.          0.          0.        ]
 [-0.          0.          0.         ...  0.          0.          0.        ]
 ...
 [ 0.         -0.03065552  0.         ...  0.52136286 -0.00303727  0.01421192]
 [ 0.          0.02870518  0.         ... -0.34409737  0.66045683  0.15793047]
 [ 0.          0.02400095  0.         ... -0.3091258  -0.14006335 -0.04986735]]
dm(NO)
[[ 1.  0.  0. ...  0.  0.  0.]
 [ 0.  1.  0. ...  0. -0. -0.]
 [ 0.  0. -0. ...  0.  0.  0.]
 ...
 [ 0.  0.  0. ... -0. -0.  0.]
 [ 0. -0.  0. ...  0.  0.  0.]
 [ 0. -0.  0. ... -0. -0. -0.]]
D(g) (NO)
[[ 0.99951369  0.02472247  0.         ... -0.00111936 -0.00638163  0.01754054]
 [-0.02472247  0.99951369  0.01754427 ...  0.          0.         -0.        ]
 [ 0.         -0.01754427  0.99951369 ... -0.00669805 -0.01223336  0.01872795]
 ...
 [ 0.00111936  0.          0.00669805 ...  0.99951369 -0.          0.        ]
 [ 0.00638163  0.          0.01223336 ... -0.          0.99951369 -0.        ]
 [-0.01754054 -0.         -0.01872795 ...  0.         -0.          0.99951369]]
...
N(g) (NO)
[[ 0.99987483 -0.0247314 ]
 [ 0.0247314   0.99987483]]
...
P(g) (NO)
[[ 1.          0.          0.         ...  0.          0.          0.        ]
 [ 0.          1.         -0.         ...  0.         -0.         -0.        ]
 [-0.00043389 -0.01754208 -0.         ... -0.          0.          0.        ]
 ...
 [ 0.00111922 -0.00002768  0.         ... -0.          0.          0.        ]
 [ 0.00638083 -0.00015783  0.         ... -0.          0.          0.        ]
 [-0.01753835  0.0004338  -0.         ...  0.         -0.         -0.        ]]
...
Pg_ortho
[[ 0.83110377 -0.22968823 -0.         ... -0.00018052  0.00016904  0.00014133]
 [-0.22968823  0.06347786  0.         ...  0.00004989 -0.00004672 -0.00003906]
 [-0.          0.          0.         ...  0.         -0.         -0.        ]
 ...
 [ 0.00018052 -0.00004989 -0.         ...  0.00093991 -0.00088011 -0.00073588]
 [ 0.0014627  -0.00040424 -0.         ... -0.00087876  0.00082285  0.000688  ]
 [ 0.00122299 -0.00033799 -0.         ... -0.00073474  0.000688    0.00057525]]
G(g) (NO)
[[ 0.45295562 -0.00154358 -0.09103585 ...  0.0001986  -0.00029046  0.0017273 ]
 [ 0.00154358  0.45295562  0.00163649 ... -0.04925848  0.00083058  0.07989766]
 [-0.09088738  0.00916663  0.86660411 ... -0.00105344  0.00021558 -0.00081758]
 ...
 [-0.00132567 -0.049248   -0.00065941 ...  0.76102008  0.06856992 -0.0182738 ]
 [-0.00254083  0.00086888 -0.0004645  ...  0.06856923  0.65957925  0.02161877]
 [ 0.00956837  0.07974969  0.00109031 ... -0.01826881  0.02160859  0.86780458]]
...
C(NO)
[[-1.          0.         -0.         ...  0.          0.          0.        ]
 [ 0.         -1.          0.         ...  0.          0.          0.        ]
 [-0.          0.          0.86412144 ...  0.          0.          0.        ]
 ...
 [ 0.         -0.          0.         ... -0.          0.32707641 -0.21954285]
 [ 0.          0.          0.         ... -0.         -0.14708884 -0.11329074]
 [ 0.          0.          0.         ... -0.         -0.00513622 -0.01385279]]
detC 0.9999999999999999
detNg [1.00036132 1.00948196 1.05178701 1.1533318  1.31319786 1.47538277 1.56753094 1.59004191]
xg [0.99963881 0.99060711 0.95076284 0.86705318 0.76149987 0.67779021 0.63794594 0.62891424]
ciS 1.6285530477846222
[[-0.95188802  0.          0.09850415 ...  0.          0.          0.        ]
 [ 0.         -0.95188802  0.         ...  0.0509758   0.00017367 -0.0872562 ]
 [ 0.09850415  0.         -0.51685097 ...  0.          0.          0.        ]
 ...
 [ 0.          0.0509758   0.         ...  1.38176935  0.33471533  0.16543184]
 [ 0.          0.00017367  0.         ...  0.33471533  0.46063011  0.39521765]
 [ 0.         -0.0872562   0.         ...  0.16543184  0.39521765 -0.53109899]]
ciH -2.405455952865284
S2 = 0.000000
X(g)
[[ 2.          0.         -0.00043389 ... -0.00111922 -0.00638083  0.01753835]
 [-0.          2.          0.01754208 ... -0.00002768 -0.00015783  0.0004338 ]
 [-0.00043389 -0.01754208  0.         ...  0.          0.          0.        ]
 ...
 [ 0.00111922 -0.00002768  0.         ...  0.          0.          0.        ]
 [ 0.00638083 -0.00015783  0.         ...  0.          0.          0.        ]
 [-0.01753835  0.0004338   0.         ...  0.          0.          0.        ]]
X(g) int
[[ 2.          0.         -0.27389463 ... -0.01731162 -0.09869576  0.27127519]
 [-0.          2.          0.27133288 ... -0.01747507 -0.09962758  0.27383639]
 [-0.27389463 -0.27133288  0.         ...  0.          0.          0.        ]
 ...
 [ 0.01731162 -0.01747507  0.         ...  0.          0.          0.        ]
 [ 0.09869576 -0.09962758  0.         ...  0.          0.          0.        ]
 [-0.27127519  0.27383639  0.         ...  0.          0.          0.        ]]
Hsp + Hph =  -1.4770510276822177
Feff (mod,ortho)
[[-0.28749671  0.45626376  0.         ...  0.          0.          0.        ]
 [ 0.45626376  1.30282146  0.         ...  0.          0.          0.        ]
 [ 0.          0.          1.27428738 ...  0.          0.          0.        ]
 ...
 [ 0.          0.          0.         ...  1.81727604 -0.00702988  0.00699758]
 [ 0.          0.          0.         ... -0.00702988  1.2192669   0.13185303]
 [ 0.          0.          0.         ...  0.00699758  0.13185303  3.69763205]]
E(SUHF) =     -1.06999163
e_a, e_b
[-0.50059266  0.09018416  0.34562258  0.48977493  0.66294767  0.66294767  0.88982584  0.98821637  0.98821637  1.40221709  2.56759105  2.72136858  3.10352963
  3.10352963  3.14666416  3.32426586  3.32426586  3.60123256  3.60123256  3.87553885  3.87553885  3.94882084  3.94882084  4.07504682  4.28960999  4.28960999
  4.4744698   5.53353345] [-0.50059266  0.09018416  0.34562258  0.48977493  0.66294767  0.66294767  0.88982584  0.98821637  0.98821637  1.40221709  2.56759105  2.72136858  3.10352963
  3.10352963  3.14666416  3.32426586  3.32426586  3.60123256  3.60123256  3.87553885  3.87553885  3.94882084  3.94882084  4.07504682  4.28960999  4.28960999
  4.4744698   5.53353345]
P_a, P_b
[[ 0.80438739 -0.22049754  0.         -0.          0.3114063   0.         -0.          0.00633612  0.         -0.         -0.07774651  0.          0.
   0.          0.          0.         -0.          0.0213464  -0.00993334  0.          0.         -0.05358877 -0.01548885  0.         -0.         -0.02667934
  -0.02563124 -0.02521626]
 [-0.22049754  0.06044247 -0.          0.         -0.08536226 -0.          0.         -0.00173685 -0.          0.          0.02131176 -0.         -0.
  -0.         -0.         -0.          0.         -0.00585144  0.00272291 -0.         -0.          0.01468968  0.00424578 -0.          0.          0.0073133
   0.007026    0.00691225]
 [ 0.         -0.          0.         -0.          0.          0.         -0.          0.          0.         -0.         -0.          0.          0.
   0.          0.          0.         -0.          0.         -0.          0.          0.         -0.         -0.          0.         -0.         -0.
  -0.         -0.        ]
 [-0.          0.         -0.          0.         -0.         -0.          0.         -0.         -0.          0.          0.         -0.         -0.
  -0.         -0.         -0.          0.         -0.          0.         -0.         -0.          0.          0.         -0.          0.          0.
   0.          0.        ]
 [ 0.3114063  -0.08536226  0.         -0.          0.12055619  0.         -0.          0.00245293  0.         -0.         -0.03009837  0.          0.
   0.          0.          0.         -0.          0.00826393 -0.00384554  0.          0.         -0.02074608 -0.00599627  0.         -0.         -0.0103285
  -0.00992274 -0.00976209]
 [ 0.         -0.          0.         -0.          0.          0.         -0.          0.          0.         -0.         -0.          0.          0.
   0.          0.          0.         -0.          0.         -0.          0.          0.         -0.         -0.          0.         -0.         -0.
  -0.         -0.        ]
 [-0.          0.         -0.          0.         -0.         -0.          0.         -0.         -0.          0.          0.         -0.         -0.
  -0.         -0.         -0.          0.         -0.          0.         -0.         -0.          0.          0.         -0.          0.          0.
   0.          0.        ]
 [ 0.00633612 -0.00173685  0.         -0.          0.00245293  0.         -0.          0.00004991  0.         -0.         -0.00061241  0.          0.
   0.          0.          0.         -0.          0.00016814 -0.00007824  0.          0.         -0.00042212 -0.000122    0.         -0.         -0.00021015
  -0.0002019  -0.00019863]
 [ 0.         -0.          0.         -0.          0.          0.         -0.          0.          0.         -0.         -0.          0.          0.
   0.          0.          0.         -0.          0.         -0.          0.          0.         -0.         -0.          0.         -0.         -0.
  -0.         -0.        ]
 [-0.          0.         -0.          0.         -0.         -0.          0.         -0.         -0.          0.          0.         -0.         -0.
  -0.         -0.         -0.          0.         -0.          0.         -0.         -0.          0.          0.         -0.          0.          0.
   0.          0.        ]
 [-0.07774651  0.02131176 -0.          0.         -0.03009837 -0.          0.         -0.00061241 -0.          0.          0.00751444 -0.         -0.
  -0.         -0.         -0.          0.         -0.00206319  0.00096009 -0.         -0.          0.00517952  0.00149705 -0.          0.          0.00257864
   0.00247734  0.00243723]
 [ 0.         -0.          0.         -0.          0.          0.         -0.          0.          0.         -0.         -0.          0.          0.
   0.          0.          0.         -0.          0.         -0.          0.          0.         -0.         -0.          0.         -0.         -0.
  -0.         -0.        ]
 [ 0.         -0.          0.         -0.          0.          0.         -0.          0.          0.         -0.         -0.          0.          0.
   0.          0.          0.         -0.          0.         -0.          0.          0.         -0.         -0.          0.         -0.         -0.
  -0.         -0.        ]
 [ 0.         -0.          0.         -0.          0.          0.         -0.          0.          0.         -0.         -0.          0.          0.
   0.          0.          0.         -0.          0.         -0.          0.          0.         -0.         -0.          0.         -0.         -0.
  -0.         -0.        ]
 [ 0.         -0.          0.         -0.          0.          0.         -0.          0.          0.         -0.         -0.          0.          0.
   0.          0.          0.         -0.          0.         -0.          0.          0.         -0.         -0.          0.         -0.         -0.
  -0.         -0.        ]
 [ 0.         -0.          0.         -0.          0.          0.         -0.          0.          0.         -0.         -0.          0.          0.
   0.          0.          0.         -0.          0.         -0.          0.          0.         -0.         -0.          0.         -0.         -0.
  -0.         -0.        ]
 [-0.          0.         -0.          0.         -0.         -0.          0.         -0.         -0.          0.          0.         -0.         -0.
  -0.         -0.         -0.          0.         -0.          0.         -0.         -0.          0.          0.         -0.          0.          0.
   0.          0.        ]
 [ 0.0213464  -0.00585144  0.         -0.          0.00826393  0.         -0.          0.00016814  0.         -0.         -0.00206319  0.          0.
   0.          0.          0.         -0.          0.00056648 -0.00026361  0.          0.         -0.00142211 -0.00041103  0.         -0.         -0.000708
  -0.00068019 -0.00066918]
 [-0.00993334  0.00272291 -0.          0.         -0.00384554 -0.          0.         -0.00007824 -0.          0.          0.00096009 -0.         -0.
  -0.         -0.         -0.          0.         -0.00026361  0.00012267 -0.         -0.          0.00066177  0.00019127 -0.          0.          0.00032946
   0.00031652  0.00031139]
 [ 0.         -0.          0.         -0.          0.          0.         -0.          0.          0.         -0.         -0.          0.          0.
   0.          0.          0.         -0.          0.         -0.          0.          0.         -0.         -0.          0.         -0.         -0.
  -0.         -0.        ]
 [ 0.         -0.          0.         -0.          0.          0.         -0.          0.          0.         -0.         -0.          0.          0.
   0.          0.          0.         -0.          0.         -0.          0.          0.         -0.         -0.          0.         -0.         -0.
  -0.         -0.        ]
 [-0.05358877  0.01468968 -0.          0.         -0.02074608 -0.          0.         -0.00042212 -0.          0.          0.00517952 -0.         -0.
  -0.         -0.         -0.          0.         -0.00142211  0.00066177 -0.         -0.          0.00357012  0.00103188 -0.          0.          0.00177739
   0.00170757  0.00167992]
 [-0.01548885  0.00424578 -0.          0.         -0.00599627 -0.          0.         -0.000122   -0.          0.          0.00149705 -0.         -0.
  -0.         -0.         -0.          0.         -0.00041103  0.00019127 -0.         -0.          0.00103188  0.00029825 -0.          0.          0.00051372
   0.00049354  0.00048555]
 [ 0.         -0.          0.         -0.          0.          0.         -0.          0.          0.         -0.         -0.          0.          0.
   0.          0.          0.         -0.          0.         -0.          0.          0.         -0.         -0.          0.         -0.         -0.
  -0.         -0.        ]
 [-0.          0.         -0.          0.         -0.         -0.          0.         -0.         -0.          0.          0.         -0.         -0.
  -0.         -0.         -0.          0.         -0.          0.         -0.         -0.          0.          0.         -0.          0.          0.
   0.          0.        ]
 [-0.02667934  0.0073133  -0.          0.         -0.0103285  -0.          0.         -0.00021015 -0.          0.          0.00257864 -0.         -0.
  -0.         -0.         -0.          0.         -0.000708    0.00032946 -0.         -0.          0.00177739  0.00051372 -0.          0.          0.00088488
   0.00085012  0.00083635]
 [-0.02563124  0.007026   -0.          0.         -0.00992274 -0.          0.         -0.0002019  -0.          0.          0.00247734 -0.         -0.
  -0.         -0.         -0.          0.         -0.00068019  0.00031652 -0.         -0.          0.00170757  0.00049354 -0.          0.          0.00085012
   0.00081672  0.0008035 ]
 [-0.02521626  0.00691225 -0.          0.         -0.00976209 -0.          0.         -0.00019863 -0.          0.          0.00243723 -0.         -0.
  -0.         -0.         -0.          0.         -0.00066918  0.00031139 -0.         -0.          0.00167992  0.00048555 -0.          0.          0.00083635
   0.0008035   0.00079049]] 
 [[ 0.80438739 -0.22049754 -0.          0.         -0.3114063  -0.         -0.          0.00633612 -0.          0.          0.07774651  0.          0.
  -0.          0.         -0.          0.          0.0213464   0.00993334 -0.         -0.          0.05358877 -0.01548885 -0.          0.         -0.02667934
   0.02563124  0.02521626]
 [-0.22049754  0.06044247  0.         -0.          0.08536226  0.          0.         -0.00173685  0.         -0.         -0.02131176 -0.         -0.
   0.         -0.          0.         -0.         -0.00585144 -0.00272291  0.          0.         -0.01468968  0.00424578  0.         -0.          0.0073133
  -0.007026   -0.00691225]
 [-0.          0.          0.         -0.          0.          0.          0.         -0.          0.         -0.         -0.         -0.         -0.
   0.         -0.          0.         -0.         -0.         -0.          0.          0.         -0.          0.          0.         -0.          0.
  -0.         -0.        ]
 [ 0.         -0.         -0.          0.         -0.         -0.         -0.          0.         -0.          0.          0.          0.          0.
  -0.          0.         -0.          0.          0.          0.         -0.         -0.          0.         -0.         -0.          0.         -0.
   0.          0.        ]
 [-0.3114063   0.08536226  0.         -0.          0.12055619  0.          0.         -0.00245293  0.         -0.         -0.03009837 -0.         -0.
   0.         -0.          0.         -0.         -0.00826393 -0.00384554  0.          0.         -0.02074608  0.00599627  0.         -0.          0.0103285
  -0.00992274 -0.00976209]
 [-0.          0.          0.         -0.          0.          0.          0.         -0.          0.         -0.         -0.         -0.         -0.
   0.         -0.          0.         -0.         -0.         -0.          0.          0.         -0.          0.          0.         -0.          0.
  -0.         -0.        ]
 [-0.          0.          0.         -0.          0.          0.          0.         -0.          0.         -0.         -0.         -0.         -0.
   0.         -0.          0.         -0.         -0.         -0.          0.          0.         -0.          0.          0.         -0.          0.
  -0.         -0.        ]
 [ 0.00633612 -0.00173685 -0.          0.         -0.00245293 -0.         -0.          0.00004991 -0.          0.          0.00061241  0.          0.
  -0.          0.         -0.          0.          0.00016814  0.00007824 -0.         -0.          0.00042212 -0.000122   -0.          0.         -0.00021015
   0.0002019   0.00019863]
 [-0.          0.          0.         -0.          0.          0.          0.         -0.          0.         -0.         -0.         -0.         -0.
   0.         -0.          0.         -0.         -0.         -0.          0.          0.         -0.          0.          0.         -0.          0.
  -0.         -0.        ]
 [ 0.         -0.         -0.          0.         -0.         -0.         -0.          0.         -0.          0.          0.          0.          0.
  -0.          0.         -0.          0.          0.          0.         -0.         -0.          0.         -0.         -0.          0.         -0.
   0.          0.        ]
 [ 0.07774651 -0.02131176 -0.          0.         -0.03009837 -0.         -0.          0.00061241 -0.          0.          0.00751444  0.          0.
  -0.          0.         -0.          0.          0.00206319  0.00096009 -0.         -0.          0.00517952 -0.00149705 -0.          0.         -0.00257864
   0.00247734  0.00243723]
 [ 0.         -0.         -0.          0.         -0.         -0.         -0.          0.         -0.          0.          0.          0.          0.
  -0.          0.         -0.          0.          0.          0.         -0.         -0.          0.         -0.         -0.          0.         -0.
   0.          0.        ]
 [ 0.         -0.         -0.          0.         -0.         -0.         -0.          0.         -0.          0.          0.          0.          0.
  -0.          0.         -0.          0.          0.          0.         -0.         -0.          0.         -0.         -0.          0.         -0.
   0.          0.        ]
 [-0.          0.          0.         -0.          0.          0.          0.         -0.          0.         -0.         -0.         -0.         -0.
   0.         -0.          0.         -0.         -0.         -0.          0.          0.         -0.          0.          0.         -0.          0.
  -0.         -0.        ]
 [ 0.         -0.         -0.          0.         -0.         -0.         -0.          0.         -0.          0.          0.          0.          0.
  -0.          0.         -0.          0.          0.          0.         -0.         -0.          0.         -0.         -0.          0.         -0.
   0.          0.        ]
 [-0.          0.          0.         -0.          0.          0.          0.         -0.          0.         -0.         -0.         -0.         -0.
   0.         -0.          0.         -0.         -0.         -0.          0.          0.         -0.          0.          0.         -0.          0.
  -0.         -0.        ]
 [ 0.         -0.         -0.          0.         -0.         -0.         -0.          0.         -0.          0.          0.          0.          0.
  -0.          0.         -0.          0.          0.          0.         -0.         -0.          0.         -0.         -0.          0.         -0.
   0.          0.        ]
 [ 0.0213464  -0.00585144 -0.          0.         -0.00826393 -0.         -0.          0.00016814 -0.          0.          0.00206319  0.          0.
  -0.          0.         -0.          0.          0.00056648  0.00026361 -0.         -0.          0.00142211 -0.00041103 -0.          0.         -0.000708
   0.00068019  0.00066918]
 [ 0.00993334 -0.00272291 -0.          0.         -0.00384554 -0.         -0.          0.00007824 -0.          0.          0.00096009  0.          0.
  -0.          0.         -0.          0.          0.00026361  0.00012267 -0.         -0.          0.00066177 -0.00019127 -0.          0.         -0.00032946
   0.00031652  0.00031139]
 [-0.          0.          0.         -0.          0.          0.          0.         -0.          0.         -0.         -0.         -0.         -0.
   0.         -0.          0.         -0.         -0.         -0.          0.          0.         -0.          0.          0.         -0.          0.
  -0.         -0.        ]
 [-0.          0.          0.         -0.          0.          0.          0.         -0.          0.         -0.         -0.         -0.         -0.
   0.         -0.          0.         -0.         -0.         -0.          0.          0.         -0.          0.          0.         -0.          0.
  -0.         -0.        ]
 [ 0.05358877 -0.01468968 -0.          0.         -0.02074608 -0.         -0.          0.00042212 -0.          0.          0.00517952  0.          0.
  -0.          0.         -0.          0.          0.00142211  0.00066177 -0.         -0.          0.00357012 -0.00103188 -0.          0.         -0.00177739
   0.00170757  0.00167992]
 [-0.01548885  0.00424578  0.         -0.          0.00599627  0.          0.         -0.000122    0.         -0.         -0.00149705 -0.         -0.
   0.         -0.          0.         -0.         -0.00041103 -0.00019127  0.          0.         -0.00103188  0.00029825  0.         -0.          0.00051372
  -0.00049354 -0.00048555]
 [-0.          0.          0.         -0.          0.          0.          0.         -0.          0.         -0.         -0.         -0.         -0.
   0.         -0.          0.         -0.         -0.         -0.          0.          0.         -0.          0.          0.         -0.          0.
  -0.         -0.        ]
 [ 0.         -0.         -0.          0.         -0.         -0.         -0.          0.         -0.          0.          0.          0.          0.
  -0.          0.         -0.          0.          0.          0.         -0.         -0.          0.         -0.         -0.          0.         -0.
   0.          0.        ]
 [-0.02667934  0.0073133   0.         -0.          0.0103285   0.          0.         -0.00021015  0.         -0.         -0.00257864 -0.         -0.
   0.         -0.          0.         -0.         -0.000708   -0.00032946  0.          0.         -0.00177739  0.00051372  0.         -0.          0.00088488
  -0.00085012 -0.00083635]
 [ 0.02563124 -0.007026   -0.          0.         -0.00992274 -0.         -0.          0.0002019  -0.          0.          0.00247734  0.          0.
  -0.          0.         -0.          0.          0.00068019  0.00031652 -0.         -0.          0.00170757 -0.00049354 -0.          0.         -0.00085012
   0.00081672  0.0008035 ]
 [ 0.02521626 -0.00691225 -0.          0.         -0.00976209 -0.         -0.          0.00019863 -0.          0.          0.00243723  0.          0.
[...]
Feff (mod,ortho)
[[-0.23596176  0.45366513  0.         ...  0.          0.          0.        ]
 [ 0.45366513  1.31392371  0.         ...  0.          0.          0.        ]
 [ 0.          0.          1.28645283 ...  0.          0.          0.        ]
 ...
 [ 0.          0.          0.         ...  1.82548322 -0.00993389  0.01028547]
 [ 0.          0.          0.         ... -0.00993389  1.22392005  0.13144682]
 [ 0.          0.          0.         ...  0.01028547  0.13144682  3.70596532]]
E(SUHF) =     -1.08378405
e_a, e_b
[-0.51070601  0.10690461  0.34261865  0.50704297  0.66956575  0.66956575  0.89822231  0.99593603  0.99593603  1.40970604  2.5713424   2.7465457   3.1142927
  3.1142927   3.15732281  3.33466506  3.33466506  3.61382148  3.61382148  3.8818544   3.8818544   3.9735757   3.9735757   4.09160885  4.30353559  4.30353559
  4.49271917  5.54625235] [-0.51070601  0.10690461  0.34261865  0.50704297  0.66956575  0.66956575  0.89822231  0.99593603  0.99593603  1.40970604  2.5713424   2.7465457   3.1142927
  3.1142927   3.15732281  3.33466506  3.33466506  3.61382148  3.61382148  3.8818544   3.8818544   3.9735757   3.9735757   4.09160885  4.30353559  4.30353559
  4.49271917  5.54625235]
P_a, P_b
[[ 0.73977975 -0.20564744 -0.         -0.          0.36546535  0.          0.          0.00866677  0.          0.         -0.10839246  0.          0.
   0.          0.          0.          0.          0.02955328 -0.02010541  0.         -0.         -0.03319902 -0.01647339  0.         -0.         -0.02842014
  -0.00976244 -0.03566034]
 [-0.20564744  0.05716684  0.          0.         -0.10159377 -0.         -0.         -0.00240923 -0.         -0.          0.03013144 -0.         -0.
  -0.         -0.         -0.         -0.         -0.00821536  0.00558899 -0.          0.          0.00922882  0.00457935 -0.          0.          0.00790036
   0.00271381  0.00991303]
 [-0.          0.          0.          0.         -0.         -0.         -0.         -0.         -0.         -0.          0.         -0.         -0.
  -0.         -0.         -0.         -0.         -0.          0.         -0.          0.          0.          0.         -0.          0.          0.
   0.          0.        ]
 [-0.          0.          0.          0.         -0.         -0.         -0.         -0.         -0.         -0.          0.         -0.         -0.
  -0.         -0.         -0.         -0.         -0.          0.         -0.          0.          0.          0.         -0.          0.          0.
   0.          0.        ]
 [ 0.36546535 -0.10159377 -0.         -0.          0.18054687  0.          0.          0.00428155  0.          0.         -0.05354795  0.          0.
   0.          0.          0.          0.          0.01459988 -0.00993246  0.         -0.         -0.01640095 -0.00813817  0.         -0.         -0.01404009
  -0.00482283 -0.01761689]
 [ 0.         -0.         -0.         -0.          0.          0.          0.          0.          0.          0.         -0.          0.          0.
   0.          0.          0.          0.          0.         -0.          0.         -0.         -0.         -0.          0.         -0.         -0.
  -0.         -0.        ]
 [ 0.         -0.         -0.         -0.          0.          0.          0.          0.          0.          0.         -0.          0.          0.
   0.          0.          0.          0.          0.         -0.          0.         -0.         -0.         -0.          0.         -0.         -0.
  -0.         -0.        ]
 [ 0.00866677 -0.00240923 -0.         -0.          0.00428155  0.          0.          0.00010153  0.          0.         -0.00126985  0.          0.
   0.          0.          0.          0.          0.00034623 -0.00023554  0.         -0.         -0.00038894 -0.00019299  0.         -0.         -0.00033295
  -0.00011437 -0.00041777]
 [ 0.         -0.         -0.         -0.          0.          0.          0.          0.          0.          0.         -0.          0.          0.
   0.          0.          0.          0.          0.         -0.          0.         -0.         -0.         -0.          0.         -0.         -0.
  -0.         -0.        ]
 [ 0.         -0.         -0.         -0.          0.          0.          0.          0.          0.          0.         -0.          0.          0.
   0.          0.          0.          0.          0.         -0.          0.         -0.         -0.         -0.          0.         -0.         -0.
  -0.         -0.        ]
 [-0.10839246  0.03013144  0.          0.         -0.05354795 -0.         -0.         -0.00126985 -0.         -0.          0.01588165 -0.         -0.
  -0.         -0.         -0.         -0.         -0.00433014  0.00294584 -0.          0.          0.00486432  0.00241368 -0.          0.          0.00416412
   0.00143039  0.00522495]
 [ 0.         -0.         -0.         -0.          0.          0.          0.          0.          0.          0.         -0.          0.          0.
   0.          0.          0.          0.          0.         -0.          0.         -0.         -0.         -0.          0.         -0.         -0.
  -0.         -0.        ]
 [ 0.         -0.         -0.         -0.          0.          0.          0.          0.          0.          0.         -0.          0.          0.
   0.          0.          0.          0.          0.         -0.          0.         -0.         -0.         -0.          0.         -0.         -0.
  -0.         -0.        ]
 [ 0.         -0.         -0.         -0.          0.          0.          0.          0.          0.          0.         -0.          0.          0.
   0.          0.          0.          0.          0.         -0.          0.         -0.         -0.         -0.          0.         -0.         -0.
  -0.         -0.        ]
 [ 0.         -0.         -0.         -0.          0.          0.          0.          0.          0.          0.         -0.          0.          0.
   0.          0.          0.          0.          0.         -0.          0.         -0.         -0.         -0.          0.         -0.         -0.
  -0.         -0.        ]
 [ 0.         -0.         -0.         -0.          0.          0.          0.          0.          0.          0.         -0.          0.          0.
   0.          0.          0.          0.          0.         -0.          0.         -0.         -0.         -0.          0.         -0.         -0.
  -0.         -0.        ]
 [ 0.         -0.         -0.         -0.          0.          0.          0.          0.          0.          0.         -0.          0.          0.
   0.          0.          0.          0.          0.         -0.          0.         -0.         -0.         -0.          0.         -0.         -0.
  -0.         -0.        ]
 [ 0.02955328 -0.00821536 -0.         -0.          0.01459988  0.          0.          0.00034623  0.          0.         -0.00433014  0.          0.
   0.          0.          0.          0.          0.00118062 -0.00080319  0.         -0.         -0.00132626 -0.00065809  0.         -0.         -0.00113535
  -0.00039    -0.00142459]
 [-0.02010541  0.00558899  0.          0.         -0.00993246 -0.         -0.         -0.00023554 -0.         -0.          0.00294584 -0.         -0.
  -0.         -0.         -0.         -0.         -0.00080319  0.00054642 -0.          0.          0.00090227  0.00044771 -0.          0.          0.00077239
   0.00026532  0.00096916]
 [ 0.         -0.         -0.         -0.          0.          0.          0.          0.          0.          0.         -0.          0.          0.
   0.          0.          0.          0.          0.         -0.          0.         -0.         -0.         -0.          0.         -0.         -0.
  -0.         -0.        ]
 [-0.          0.          0.          0.         -0.         -0.         -0.         -0.         -0.         -0.          0.         -0.         -0.
  -0.         -0.         -0.         -0.         -0.          0.         -0.          0.          0.          0.         -0.          0.          0.
   0.          0.        ]
 [-0.03319902  0.00922882  0.          0.         -0.01640095 -0.         -0.         -0.00038894 -0.         -0.          0.00486432 -0.         -0.
  -0.         -0.         -0.         -0.         -0.00132626  0.00090227 -0.          0.          0.00148987  0.00073927 -0.          0.          0.00127541
   0.00043811  0.00160033]
 [-0.01647339  0.00457935  0.          0.         -0.00813817 -0.         -0.         -0.00019299 -0.         -0.          0.00241368 -0.         -0.
  -0.         -0.         -0.         -0.         -0.00065809  0.00044771 -0.          0.          0.00073927  0.00036683 -0.          0.          0.00063286
   0.00021739  0.00079408]
 [ 0.         -0.         -0.         -0.          0.          0.          0.          0.          0.          0.         -0.          0.          0.
   0.          0.          0.          0.          0.         -0.          0.         -0.         -0.         -0.          0.         -0.         -0.
  -0.         -0.        ]
 [-0.          0.          0.          0.         -0.         -0.         -0.         -0.         -0.         -0.          0.         -0.         -0.
  -0.         -0.         -0.         -0.         -0.          0.         -0.          0.          0.          0.         -0.          0.          0.
   0.          0.        ]
 [-0.02842014  0.00790036  0.          0.         -0.01404009 -0.         -0.         -0.00033295 -0.         -0.          0.00416412 -0.         -0.
  -0.         -0.         -0.         -0.         -0.00113535  0.00077239 -0.          0.          0.00127541  0.00063286 -0.          0.          0.00109182
   0.00037504  0.00136996]
 [-0.00976244  0.00271381  0.          0.         -0.00482283 -0.         -0.         -0.00011437 -0.         -0.          0.00143039 -0.         -0.
  -0.         -0.         -0.         -0.         -0.00039     0.00026532 -0.          0.          0.00043811  0.00021739 -0.          0.          0.00037504
   0.00012883  0.00047059]
 [-0.03566034  0.00991303  0.          0.         -0.01761689 -0.         -0.         -0.00041777 -0.         -0.          0.00522495 -0.         -0.
  -0.         -0.         -0.         -0.         -0.00142459  0.00096916 -0.          0.          0.00160033  0.00079408 -0.          0.          0.00136996
   0.00047059  0.00171897]] 
 [[ 0.73977975 -0.20564744  0.          0.         -0.36546535  0.         -0.          0.00866677 -0.          0.          0.10839246  0.          0.
   0.          0.          0.         -0.          0.02955328  0.02010541 -0.          0.          0.03319902 -0.01647339 -0.          0.         -0.02842014
   0.00976244  0.03566034]
 [-0.20564744  0.05716684 -0.         -0.          0.10159377 -0.          0.         -0.00240923  0.         -0.         -0.03013144 -0.         -0.
  -0.         -0.         -0.          0.         -0.00821536 -0.00558899  0.         -0.         -0.00922882  0.00457935  0.         -0.          0.00790036
  -0.00271381 -0.00991303]
 [ 0.         -0.          0.          0.         -0.          0.         -0.          0.         -0.          0.          0.          0.          0.
   0.          0.          0.         -0.          0.          0.         -0.          0.          0.         -0.         -0.          0.         -0.
   0.          0.        ]
 [ 0.         -0.          0.          0.         -0.          0.         -0.          0.         -0.          0.          0.          0.          0.
   0.          0.          0.         -0.          0.          0.         -0.          0.          0.         -0.         -0.          0.         -0.
   0.          0.        ]
 [-0.36546535  0.10159377 -0.         -0.          0.18054687 -0.          0.         -0.00428155  0.         -0.         -0.05354795 -0.         -0.
  -0.         -0.         -0.          0.         -0.01459988 -0.00993246  0.         -0.         -0.01640095  0.00813817  0.         -0.          0.01404009
  -0.00482283 -0.01761689]
 [ 0.         -0.          0.          0.         -0.          0.         -0.          0.         -0.          0.          0.          0.          0.
   0.          0.          0.         -0.          0.          0.         -0.          0.          0.         -0.         -0.          0.         -0.
   0.          0.        ]
 [-0.          0.         -0.         -0.          0.         -0.          0.         -0.          0.         -0.         -0.         -0.         -0.
  -0.         -0.         -0.          0.         -0.         -0.          0.         -0.         -0.          0.          0.         -0.          0.
  -0.         -0.        ]
 [ 0.00866677 -0.00240923  0.          0.         -0.00428155  0.         -0.          0.00010153 -0.          0.          0.00126985  0.          0.
   0.          0.          0.         -0.          0.00034623  0.00023554 -0.          0.          0.00038894 -0.00019299 -0.          0.         -0.00033295
   0.00011437  0.00041777]
 [-0.          0.         -0.         -0.          0.         -0.          0.         -0.          0.         -0.         -0.         -0.         -0.
  -0.         -0.         -0.          0.         -0.         -0.          0.         -0.         -0.          0.          0.         -0.          0.
  -0.         -0.        ]
 [ 0.         -0.          0.          0.         -0.          0.         -0.          0.         -0.          0.          0.          0.          0.
   0.          0.          0.         -0.          0.          0.         -0.          0.          0.         -0.         -0.          0.         -0.
   0.          0.        ]
 [ 0.10839246 -0.03013144  0.          0.         -0.05354795  0.         -0.          0.00126985 -0.          0.          0.01588165  0.          0.
   0.          0.          0.         -0.          0.00433014  0.00294584 -0.          0.          0.00486432 -0.00241368 -0.          0.         -0.00416412
   0.00143039  0.00522495]
 [ 0.         -0.          0.          0.         -0.          0.         -0.          0.         -0.          0.          0.          0.          0.
   0.          0.          0.         -0.          0.          0.         -0.          0.          0.         -0.         -0.          0.         -0.
   0.          0.        ]
 [ 0.         -0.          0.          0.         -0.          0.         -0.          0.         -0.          0.          0.          0.          0.
   0.          0.          0.         -0.          0.          0.         -0.          0.          0.         -0.         -0.          0.         -0.
   0.          0.        ]
 [ 0.         -0.          0.          0.         -0.          0.         -0.          0.         -0.          0.          0.          0.          0.
   0.          0.          0.         -0.          0.          0.         -0.          0.          0.         -0.         -0.          0.         -0.
   0.          0.        ]
 [ 0.         -0.          0.          0.         -0.          0.         -0.          0.         -0.          0.          0.          0.          0.
   0.          0.          0.         -0.          0.          0.         -0.          0.          0.         -0.         -0.          0.         -0.
   0.          0.        ]
 [ 0.         -0.          0.          0.         -0.          0.         -0.          0.         -0.          0.          0.          0.          0.
   0.          0.          0.         -0.          0.          0.         -0.          0.          0.         -0.         -0.          0.         -0.
   0.          0.        ]
 [-0.          0.         -0.         -0.          0.         -0.          0.         -0.          0.         -0.         -0.         -0.         -0.
  -0.         -0.         -0.          0.         -0.         -0.          0.         -0.         -0.          0.          0.         -0.          0.
  -0.         -0.        ]
 [ 0.02955328 -0.00821536  0.          0.         -0.01459988  0.         -0.          0.00034623 -0.          0.          0.00433014  0.          0.
   0.          0.          0.         -0.          0.00118062  0.00080319 -0.          0.          0.00132626 -0.00065809 -0.          0.         -0.00113535
   0.00039     0.00142459]
 [ 0.02010541 -0.00558899  0.          0.         -0.00993246  0.         -0.          0.00023554 -0.          0.          0.00294584  0.          0.
   0.          0.          0.         -0.          0.00080319  0.00054642 -0.          0.          0.00090227 -0.00044771 -0.          0.         -0.00077239
   0.00026532  0.00096916]
 [-0.          0.         -0.         -0.          0.         -0.          0.         -0.          0.         -0.         -0.         -0.         -0.
  -0.         -0.         -0.          0.         -0.         -0.          0.         -0.         -0.          0.          0.         -0.          0.
  -0.         -0.        ]
 [ 0.         -0.          0.          0.         -0.          0.         -0.          0.         -0.          0.          0.          0.          0.
   0.          0.          0.         -0.          0.          0.         -0.          0.          0.         -0.         -0.          0.         -0.
   0.          0.        ]
 [ 0.03319902 -0.00922882  0.          0.         -0.01640095  0.         -0.          0.00038894 -0.          0.          0.00486432  0.          0.
   0.          0.          0.         -0.          0.00132626  0.00090227 -0.          0.          0.00148987 -0.00073927 -0.          0.         -0.00127541
   0.00043811  0.00160033]
 [-0.01647339  0.00457935 -0.         -0.          0.00813817 -0.          0.         -0.00019299  0.         -0.         -0.00241368 -0.         -0.
  -0.         -0.         -0.          0.         -0.00065809 -0.00044771  0.         -0.         -0.00073927  0.00036683  0.         -0.          0.00063286
  -0.00021739 -0.00079408]
 [-0.          0.         -0.         -0.          0.         -0.          0.         -0.          0.         -0.         -0.         -0.         -0.
  -0.         -0.         -0.          0.         -0.         -0.          0.         -0.         -0.          0.          0.         -0.          0.
  -0.         -0.        ]
 [ 0.         -0.          0.          0.         -0.          0.         -0.          0.         -0.          0.          0.          0.          0.
   0.          0.          0.         -0.          0.          0.         -0.          0.          0.         -0.         -0.          0.         -0.
   0.          0.        ]
 [-0.02842014  0.00790036 -0.         -0.          0.01404009 -0.          0.         -0.00033295  0.         -0.         -0.00416412 -0.         -0.
  -0.         -0.         -0.          0.         -0.00113535 -0.00077239  0.         -0.         -0.00127541  0.00063286  0.         -0.          0.00109182
  -0.00037504 -0.00136996]
 [ 0.00976244 -0.00271381  0.          0.         -0.00482283  0.         -0.          0.00011437 -0.          0.          0.00143039  0.          0.
   0.          0.          0.         -0.          0.00039     0.00026532 -0.          0.          0.00043811 -0.00021739 -0.          0.         -0.00037504
   0.00012883  0.00047059]
 [ 0.03566034 -0.00991303  0.          0.         -0.01761689  0.         -0.          0.00041777 -0.          0.          0.00522495  0.          0.
   0.          0.          0.         -0.          0.00142459  0.00096916 -0.          0.          0.00160033 -0.00079408 -0.          0.         -0.00136996
   0.00047059  0.00171897]]

***************
SUHF converged at cycle 21
Final E(SUHF) =     -1.08378405, delta E = -9.1083e-09
***** Start DFT Correlation for SUHF+DFT **********
tot grids = 20048
E(SUHF) =     -1.08378405
E_c(TPSS) =     -0.01638391
E(SUHF+DFT) =     -1.10016795
