

#INFO: **** input file is /share/home/srwang/ExSCF/test/pytest/scan_h2/scan_dft.py ****
#import phf
from pyscf import lib
#import scipy
import numpy as np
import sys, os, contextlib

from pyphf import util, sudft

#xyz = 'h2.xyz' #sys.argv[1]
fch = 'test_uhf.fchk' #sys.argv[2]
#bas = '../h2.bas'
bas = 'cc-pvtz'

lib.num_threads(4)

for r in np.arange(0.5, 2.55, 0.1):
    output = 'tpss_mod/sudft_%.1f_diis_mod.out' % r
    os.system("echo '\n' > %s" % output)
    with open(output, 'a', encoding='utf-8') as f:
        with contextlib.redirect_stdout(f):
            xyz = '''H 0.0 0.0 0.0; H 0.0 0.0 %f'''%r
            mf = util.guess_from_fchk(xyz, bas, fch)
            #mf = util.guess(xyz, bas)
            #f.flush()
            mf2 = util.SUHF(mf)
            #mf2.cut_no = False
            mf2.debug = False
            #mf2.max_cycle = 50
            mf2.diis_on = True
            #mf2.output = 'sudft_%.1f.out'%r
            #mf2.kernel()
            
            mf3 = sudft.SUDFT(mf2)
            mf3.suxc = 'TPSS'
            mf3.kernel()
                    
#INFO: ******************** input file end ********************


System: uname_result(system='Linux', node='xc02n18', release='3.10.0-693.el7.x86_64', version='#1 SMP Thu Jul 6 19:56:57 EDT 2017', machine='x86_64', processor='x86_64')  Threads 4
Python 3.7.4 (default, Aug 13 2019, 20:35:49) 
[GCC 7.3.0]
numpy 1.17.2  scipy 1.4.1
Date: Tue Nov 24 03:45:07 2020
PySCF version 1.7.5
PySCF path  /share/home/srwang/pyscf-1.7.5/pyscf

[CONFIG] conf_file None
[INPUT] verbose = 4
[INPUT] num. atoms = 2
[INPUT] num. electrons = 2
[INPUT] charge = 0
[INPUT] spin (= nelec alpha-beta = 2S) = 0
[INPUT] symmetry False subgroup None
[INPUT] Mole.unit = angstrom
[INPUT]  1 H      0.000000000000   0.000000000000   0.000000000000 AA    0.000000000000   0.000000000000   0.000000000000 Bohr
[INPUT]  2 H      0.000000000000   0.000000000000   2.100000000000 AA    0.000000000000   0.000000000000   3.968424861587 Bohr

nuclear repulsion = 0.251989148057143
number of shells = 12
number of NR pGTOs = 32
number of NR cGTOs = 28
basis = cc-pvtz
ecp = {}
CPU time:       348.67


******** <class 'pyscf.scf.uhf.UHF'> ********
method = UHF
initial guess = minao
damping factor = 0
level_shift factor = 0
DIIS = <class 'pyscf.scf.diis.CDIIS'>
diis_start_cycle = 1
diis_space = 8
SCF conv_tol = 1e-09
SCF conv_tol_grad = None
SCF max_cycles = 1
direct_scf = True
direct_scf_tol = 1e-13
chkfile to save SCF result = /share/home/srwang/ExSCF/test/pytest/scan_h2/tmpm08zlasx
max_memory 4000 MB (current use 117 MB)
number electrons alpha = 1  beta = 1
Set gradient conv threshold to 3.16228e-05
init E= -0.651208003439758
  alpha nocc = 1  HOMO = -0.246626604329289  LUMO = -0.111912100495558
  beta  nocc = 1  HOMO = -0.245203159036257  LUMO = -0.111599687178142
cycle= 1 E= -0.91106318564387  delta_E= -0.26  |g|= 0.0337  |ddm|= 0.436
SCF not converged.
SCF energy = -0.91106318564387 after 1 cycles  <S^2> = 2.2033932e-07  2S+1 = 1.0000004


******** <class 'pyscf.scf.uhf.UHF'> ********
method = UHF
initial guess = minao
damping factor = 0
level_shift factor = 0
DIIS = <class 'pyscf.scf.diis.CDIIS'>
diis_start_cycle = 1
diis_space = 8
SCF conv_tol = 1e-09
SCF conv_tol_grad = None
SCF max_cycles = 1
direct_scf = True
direct_scf_tol = 1e-13
chkfile to save SCF result = /share/home/srwang/ExSCF/test/pytest/scan_h2/tmpm08zlasx
max_memory 4000 MB (current use 121 MB)
number electrons alpha = 1  beta = 1
Set gradient conv threshold to 3.16228e-05
init E= -0.88463010917409
  alpha nocc = 1  HOMO = -0.490919873861729  LUMO = -0.0271115591955548
  beta  nocc = 1  HOMO = -0.490919873861729  LUMO = -0.0271115591955553
cycle= 1 E= -0.994628987552322  delta_E= -0.11  |g|= 0.0495  |ddm|= 0.109
SCF not converged.
SCF energy = -0.994628987552322 after 1 cycles  <S^2> = 0.7709912  2S+1 = 2.0208822

******** <class 'pyphf.util.SUHF'> ********
max_cycle = 70
verbose: normal
DIIS: <class 'pyscf.scf.diis.CDIIS'>
diis_start_cyc = 40
SVD: S^(-1/2)
[[-0.17821899  0.29301795  0.08696669  0.          0.          0.          0.         -0.14756264 -0.02972752  0.          0.          0.         -0.
  -0.          0.          0.          0.          0.04991279 -0.6646199   0.64588099 -0.08777246 -0.         -0.         -0.         -0.          0.42902879
  -0.84410142  0.73496513]
 [-0.2535955   0.32057513  0.07511746  0.          0.         -0.          0.         -0.1038636  -0.0022857  -0.          0.         -0.          0.
   0.         -0.          0.          0.          0.00713905 -0.04641007 -0.21077066  0.0113776   0.          0.          0.          0.         -0.38797382
   1.67345762 -1.63224697]
 [-0.2770669   0.20675714  0.04922242  0.         -0.          0.          0.         -0.00893885  0.00062354  0.         -0.         -0.         -0.
  -0.         -0.         -0.         -0.         -0.01642179  0.48585551 -0.59202423  0.13115796  0.          0.          0.          0.         -0.29763523
  -0.98744122  1.6186908 ]
 [ 0.          0.         -0.         -0.35380042  0.14477668 -0.23517952  0.32885341 -0.          0.         -0.0210791  -0.00005833  0.          0.
   0.          0.          0.00054971  0.02156177 -0.          0.          0.         -0.         -0.2597397   0.75904706 -0.21700202  0.78051636 -0.
  -0.          0.        ]
 [ 0.          0.         -0.         -0.14477668 -0.35380042  0.32885341  0.23517952 -0.          0.          0.00005833 -0.0210791  -0.          0.
   0.          0.          0.02156177 -0.00054971  0.          0.          0.         -0.          0.75904706  0.2597397   0.78051636  0.21700202  0.
  -0.         -0.        ]
 [-0.0428038  -0.08681232 -0.33754053  0.          0.          0.         -0.         -0.43763878 -0.07531473  0.          0.         -0.         -0.
  -0.         -0.          0.         -0.          0.08999071 -0.13033035 -0.35782484  0.79679389  0.          0.          0.          0.          0.75372545
   0.03342961 -0.15233656]
 [ 0.          0.         -0.         -0.36765194  0.15044478 -0.22638104  0.31655043 -0.         -0.         -0.00051266 -0.00000142  0.         -0.
  -0.         -0.          0.00000658  0.0002582  -0.         -0.         -0.          0.          0.25017729 -0.73110247  0.22564489 -0.8116032   0.
  -0.         -0.        ]
 [ 0.          0.         -0.         -0.15044478 -0.36765194  0.31655043  0.22638104 -0.          0.          0.00000142 -0.00051266 -0.          0.
   0.          0.          0.0002582  -0.00000658  0.         -0.         -0.          0.         -0.73110247 -0.25017729 -0.8116032  -0.22564489  0.
   0.          0.        ]
 [-0.08473757 -0.11920462 -0.39250332  0.          0.          0.         -0.         -0.34337074 -0.00530394  0.         -0.          0.          0.
  -0.          0.         -0.          0.          0.00019505  0.02075267  0.25535945 -0.69301917 -0.         -0.         -0.         -0.         -1.04519599
  -0.0169698   0.33410928]
 [ 0.         -0.          0.          0.          0.         -0.         -0.         -0.         -0.         -0.         -0.          0.70702093 -0.
   0.          0.70719266  0.         -0.         -0.         -0.         -0.          0.         -0.         -0.         -0.         -0.         -0.
  -0.          0.        ]
 [-0.          0.         -0.         -0.00443526 -0.01083874 -0.01013191 -0.00724583 -0.         -0.         -0.001952    0.70545772  0.         -0.
   0.         -0.          0.70790165 -0.0180478  -0.         -0.         -0.         -0.          0.02214906  0.00757923 -0.02347749 -0.0065273  -0.
  -0.          0.        ]
 [-0.01346015 -0.00805332 -0.03556224 -0.         -0.         -0.         -0.          0.06718389  0.69673001  0.          0.          0.         -0.
  -0.         -0.          0.         -0.          0.70568046 -0.04287494 -0.01176738  0.07703063  0.          0.          0.          0.         -0.12917516
  -0.02615731  0.02153104]
 [ 0.          0.         -0.         -0.01083874  0.00443526  0.00724583 -0.01013191 -0.          0.          0.70545772  0.001952    0.         -0.
   0.          0.          0.0180478   0.70790165  0.         -0.          0.         -0.         -0.00757923  0.02214906  0.0065273  -0.02347749  0.
  -0.         -0.        ]
 [ 0.          0.          0.          0.          0.         -0.          0.          0.          0.          0.          0.          0.          0.70702093
  -0.70719266  0.         -0.          0.          0.          0.          0.          0.          0.          0.          0.          0.          0.
   0.          0.        ]
 [-0.17821899 -0.29301795  0.08696669 -0.         -0.          0.          0.          0.14756264 -0.02972752 -0.         -0.         -0.          0.
   0.         -0.         -0.          0.         -0.04991279 -0.6646199  -0.64588099 -0.08777246 -0.          0.         -0.          0.         -0.42902879
  -0.84410142 -0.73496513]
 [-0.2535955  -0.32057513  0.07511746 -0.         -0.         -0.          0.          0.1038636  -0.0022857  -0.          0.          0.         -0.
  -0.          0.          0.          0.         -0.00713905 -0.04641007  0.21077066  0.0113776   0.         -0.          0.         -0.          0.38797382
   1.67345762  1.63224697]
 [-0.2770669  -0.20675714  0.04922242 -0.          0.         -0.         -0.          0.00893885  0.00062354 -0.          0.          0.          0.
   0.          0.          0.         -0.          0.01642179  0.48585551  0.59202423  0.13115796  0.         -0.          0.         -0.          0.29763523
  -0.98744122 -1.6186908 ]
 [ 0.          0.         -0.         -0.35380042  0.14477668  0.23517952 -0.32885341 -0.         -0.         -0.0210791  -0.00005833 -0.          0.
  -0.         -0.         -0.00054971 -0.02156177 -0.          0.          0.         -0.         -0.2597397   0.75904706  0.21700202 -0.78051636  0.
  -0.         -0.        ]
 [ 0.          0.         -0.         -0.14477668 -0.35380042 -0.32885341 -0.23517952 -0.          0.          0.00005833 -0.0210791  -0.         -0.
   0.          0.         -0.02156177  0.00054971 -0.          0.          0.         -0.          0.75904706  0.2597397  -0.78051636 -0.21700202  0.
  -0.         -0.        ]
 [ 0.0428038  -0.08681232  0.33754053  0.          0.          0.          0.         -0.43763878  0.07531473  0.         -0.         -0.          0.
   0.         -0.         -0.         -0.          0.08999071  0.13033035 -0.35782484 -0.79679389 -0.         -0.         -0.         -0.          0.75372545
  -0.03342961 -0.15233656]
 [ 0.          0.         -0.         -0.36765194  0.15044478  0.22638104 -0.31655043 -0.         -0.         -0.00051266 -0.00000142 -0.          0.
  -0.         -0.         -0.00000658 -0.0002582  -0.         -0.         -0.          0.          0.25017729 -0.73110247 -0.22564489  0.8116032  -0.
  -0.          0.        ]
 [-0.          0.         -0.         -0.15044478 -0.36765194 -0.31655043 -0.22638104 -0.         -0.          0.00000142 -0.00051266  0.          0.
   0.         -0.         -0.0002582   0.00000658  0.          0.         -0.          0.         -0.73110247 -0.25017729  0.8116032   0.22564489 -0.
  -0.         -0.        ]
 [ 0.08473757 -0.11920462  0.39250332  0.          0.         -0.          0.         -0.34337074  0.00530394 -0.          0.         -0.         -0.
  -0.         -0.          0.         -0.          0.00019505 -0.02075267  0.25535945  0.69301917  0.          0.          0.          0.         -1.04519599
   0.0169698   0.33410928]
 [-0.         -0.         -0.          0.         -0.          0.         -0.         -0.          0.         -0.         -0.          0.70702093 -0.
  -0.         -0.70719266 -0.          0.          0.          0.         -0.         -0.          0.          0.         -0.         -0.          0.
   0.          0.        ]
 [-0.         -0.          0.          0.00443526  0.01083874 -0.01013191 -0.00724583  0.          0.          0.001952   -0.70545772 -0.          0.
  -0.          0.          0.70790165 -0.0180478  -0.         -0.         -0.          0.         -0.02214906 -0.00757923 -0.02347749 -0.0065273  -0.
   0.         -0.        ]
 [-0.01346015  0.00805332 -0.03556224  0.         -0.          0.          0.         -0.06718389  0.69673001 -0.          0.          0.         -0.
   0.         -0.         -0.          0.         -0.70568046 -0.04287494  0.01176738  0.07703063 -0.          0.         -0.         -0.          0.12917516
  -0.02615731 -0.02153104]
 [-0.         -0.          0.          0.01083874 -0.00443526  0.00724583 -0.01013191  0.          0.         -0.70545772 -0.001952    0.          0.
   0.          0.          0.0180478   0.70790165  0.         -0.         -0.          0.          0.00757923 -0.02214906  0.0065273  -0.02347749  0.
  -0.         -0.        ]
 [ 0.          0.          0.         -0.          0.         -0.          0.          0.          0.          0.          0.          0.          0.70702093
   0.70719266 -0.         -0.          0.          0.          0.          0.         -0.         -0.         -0.         -0.          0.         -0.
  -0.         -0.        ]]
C (ortho)
[[-0.84968071 -0.48780133 -0.01034859  0.1500762  -0.10729738  0.          0.          0.         -0.          0.01450192  0.04081567  0.0238895  -0.00628824
   0.          0.         -0.         -0.         -0.          0.         -0.          0.          0.00230649 -0.         -0.         -0.0586384   0.
   0.          0.00442722]
 [ 0.49301983 -0.78296805 -0.06548366  0.27025454  0.03351257 -0.          0.          0.          0.         -0.19038323 -0.02140255  0.13150188 -0.00789086
  -0.         -0.         -0.         -0.         -0.         -0.          0.         -0.          0.07357585 -0.          0.          0.00082376 -0.
   0.         -0.07727111]
 [ 0.1274249   0.04157489  0.04018916  0.05269674 -0.88172894  0.         -0.         -0.         -0.          0.05507926  0.00573517 -0.00286874  0.06147326
   0.          0.         -0.         -0.         -0.          0.         -0.          0.          0.02345835 -0.         -0.         -0.43813532  0.
   0.          0.02880504]
 [ 0.         -0.         -0.          0.          0.         -0.77207335  0.31434469 -0.13566469 -0.18259987  0.         -0.          0.         -0.
   0.04798567  0.0198962  -0.         -0.         -0.         -0.         -0.02252371 -0.00667375 -0.         -0.47765133 -0.0168794   0.         -0.11719493
  -0.0890047   0.        ]
 [ 0.         -0.          0.          0.          0.         -0.31434469 -0.77207335  0.18259987 -0.13566469  0.          0.          0.         -0.
  -0.0198962   0.04798567  0.         -0.          0.          0.          0.00667375 -0.02252371 -0.          0.0168794  -0.47765133  0.         -0.0890047
   0.11719493  0.        ]
 [ 0.          0.         -0.         -0.         -0.          0.03561118  0.22904211  0.76085681 -0.32759908  0.         -0.         -0.         -0.
  -0.00682586  0.00945173 -0.         -0.         -0.          0.         -0.02790796  0.04868993 -0.         -0.03665781  0.133634   -0.         -0.19746111
   0.44561092  0.        ]
 [ 0.         -0.          0.          0.          0.          0.22904211 -0.03561118 -0.32759908 -0.76085681 -0.          0.          0.         -0.
   0.00945173  0.00682586  0.         -0.          0.          0.          0.04868993  0.02790796 -0.          0.133634    0.03665781 -0.         -0.44561092
  -0.19746111 -0.        ]
 [-0.1009079   0.09183847  0.18841832 -0.22096497 -0.06939352 -0.          0.         -0.         -0.         -0.79741096  0.00177877 -0.03926407 -0.00979823
   0.          0.         -0.         -0.         -0.          0.         -0.         -0.          0.17316329 -0.         -0.         -0.01349803 -0.
  -0.         -0.47388612]
 [-0.00693804 -0.00194161 -0.00268548 -0.00462518  0.01830898 -0.          0.          0.          0.         -0.00489756  0.15790885  0.0579814   0.97743304
   0.         -0.         -0.         -0.         -0.          0.         -0.         -0.          0.07272598 -0.          0.          0.10271384 -0.
  -0.          0.00697816]
 [-0.         -0.          0.          0.          0.          0.00805763 -0.00793661  0.0033718   0.00202406 -0.         -0.         -0.         -0.
   0.955515    0.00178674  0.         -0.          0.          0.         -0.27829121  0.028801    0.          0.08557701 -0.03180751 -0.          0.00773211
   0.01319399 -0.        ]
 [-0.          0.          0.          0.          0.          0.00793661  0.00805763 -0.00202406  0.0033718  -0.         -0.         -0.          0.
  -0.00178674  0.955515    0.         -0.          0.         -0.         -0.028801   -0.27829121  0.          0.03180751  0.08557701  0.          0.01319399
  -0.00773211  0.        ]
 [-0.          0.         -0.          0.          0.          0.          0.          0.          0.         -0.         -0.          0.          0.
   0.          0.          0.00358822  0.74517642 -0.16296682  0.64663826  0.          0.         -0.          0.          0.         -0.          0.
   0.         -0.        ]
 [-0.         -0.          0.          0.         -0.         -0.          0.         -0.         -0.         -0.          0.         -0.          0.
  -0.         -0.          0.74517642 -0.00358822  0.64663826  0.16296682 -0.          0.          0.         -0.          0.         -0.         -0.
  -0.         -0.        ]
 [-0.         -0.         -0.          0.         -0.          0.          0.          0.          0.          0.          0.         -0.          0.
   0.          0.         -0.66684999  0.00321106  0.72259067  0.18210847  0.         -0.         -0.         -0.          0.         -0.          0.
   0.         -0.        ]
 [-0.          0.         -0.          0.          0.         -0.         -0.          0.         -0.         -0.         -0.          0.          0.
   0.         -0.          0.00321106  0.66684999  0.18210847 -0.72259067  0.         -0.         -0.         -0.         -0.         -0.         -0.
   0.         -0.        ]
 [ 0.          0.          0.          0.          0.         -0.00240392 -0.00233213 -0.00744994  0.01307489 -0.         -0.         -0.          0.
   0.00588751  0.28230166  0.         -0.          0.         -0.          0.119883    0.94757137  0.         -0.01534529 -0.03857841  0.          0.06796223
  -0.03778041  0.        ]
 [-0.         -0.         -0.         -0.         -0.         -0.00233213  0.00240392  0.01307489  0.00744994  0.          0.         -0.          0.
   0.28230166 -0.00588751  0.         -0.          0.          0.          0.94757137 -0.119883   -0.         -0.03857841  0.01534529  0.          0.03778041
   0.06796223  0.        ]
 [ 0.00621126  0.00526401 -0.04079431  0.0425156  -0.00132736 -0.          0.          0.          0.         -0.07163755 -0.04115656  0.16053276  0.07519032
   0.          0.          0.         -0.         -0.          0.         -0.          0.         -0.9383724   0.         -0.         -0.06180484  0.
   0.         -0.27174886]
 [ 0.01668719  0.15577281  0.58619027  0.50173069  0.13970847  0.          0.          0.         -0.         -0.00534902  0.54887972  0.17108337 -0.0814137
  -0.          0.          0.          0.         -0.         -0.          0.          0.          0.00432643 -0.         -0.         -0.15256237  0.
   0.          0.00979505]
 [-0.07648835  0.29316097 -0.47296054  0.44450192  0.0031323  -0.          0.          0.          0.          0.00951443 -0.15948553  0.56316395 -0.02120109
  -0.         -0.         -0.         -0.         -0.          0.          0.         -0.          0.23033993 -0.          0.         -0.00567335 -0.
   0.         -0.30117234]
 [ 0.00901391  0.01986168  0.14483751  0.1468897  -0.4228135   0.          0.          0.         -0.          0.03585234  0.0413381   0.00996949 -0.08554611
   0.         -0.          0.          0.          0.         -0.         -0.         -0.         -0.05160312  0.          0.          0.87328215 -0.
  -0.         -0.0500216 ]
 [ 0.         -0.          0.          0.         -0.         -0.20832742 -0.43642551  0.10657616 -0.08934879 -0.          0.         -0.         -0.
   0.02163871 -0.06229118 -0.          0.         -0.          0.         -0.00819361  0.03509774 -0.          0.01931128  0.82545685 -0.          0.15852893
  -0.18509461 -0.        ]
 [ 0.         -0.          0.         -0.         -0.         -0.43642551  0.20832742 -0.08934879 -0.10657616 -0.          0.         -0.          0.
  -0.06229118 -0.02163871  0.          0.          0.          0.          0.03509774  0.00819361  0.          0.82545685 -0.01931128  0.          0.18509461
   0.15852893 -0.        ]
 [ 0.          0.          0.          0.          0.         -0.06360809 -0.11536486 -0.35817849  0.33786492 -0.         -0.         -0.         -0.
  -0.00237667  0.00839737 -0.         -0.         -0.         -0.         -0.01135314  0.0658161  -0.          0.02013502  0.2452472  -0.         -0.57007146
   0.59171829 -0.        ]
 [ 0.         -0.          0.         -0.         -0.         -0.11536486  0.06360809  0.33786492  0.35817849  0.          0.         -0.         -0.
   0.00839737  0.00237667  0.         -0.          0.          0.          0.0658161   0.01135314 -0.          0.2452472  -0.02013502 -0.         -0.59171829
  -0.57007146 -0.        ]
 [-0.0398173   0.07842904 -0.03533424  0.01942652 -0.03493598 -0.          0.          0.          0.         -0.49818845 -0.10750835  0.3481292  -0.00616848
  -0.         -0.         -0.         -0.         -0.          0.          0.         -0.         -0.12114176  0.          0.          0.04218162 -0.
  -0.          0.7694028 ]
 [ 0.02592388 -0.07068386 -0.41764198 -0.39342325 -0.07238808 -0.         -0.         -0.          0.         -0.00366568  0.76828607  0.21621777 -0.14287713
  -0.          0.         -0.         -0.         -0.          0.          0.          0.         -0.01020104  0.          0.          0.04832223 -0.
  -0.         -0.00223997]
 [-0.00051258 -0.13063806  0.43915241 -0.47429603 -0.00239473 -0.         -0.         -0.          0.          0.26434889 -0.20242516  0.66105025 -0.01210627
  -0.          0.          0.          0.          0.         -0.          0.          0.          0.08772774  0.         -0.         -0.00162046  0.
  -0.         -0.09709319]]
[[-0.84968071 -0.48780133 -0.01034859  0.1500762   0.10729738  0.          0.          0.          0.         -0.01450192  0.04081567  0.0238895  -0.00628824
  -0.         -0.         -0.          0.         -0.          0.          0.          0.          0.00230649  0.         -0.          0.0586384  -0.
  -0.         -0.00442722]
 [-0.49301983  0.78296805  0.06548366 -0.27025454  0.03351257 -0.          0.          0.         -0.         -0.19038323  0.02140255 -0.13150188  0.00789086
  -0.          0.         -0.          0.         -0.          0.          0.          0.         -0.07357585  0.          0.          0.00082376 -0.
   0.         -0.07727111]
 [ 0.1274249   0.04157489  0.04018916  0.05269674  0.88172894  0.          0.          0.          0.         -0.05507926  0.00573517 -0.00286874  0.06147326
  -0.         -0.         -0.         -0.         -0.         -0.         -0.          0.          0.02345835  0.         -0.          0.43813532 -0.
  -0.         -0.02880504]
 [-0.          0.          0.         -0.          0.         -0.68991713 -0.46789337 -0.20225638 -0.10411522  0.          0.         -0.         -0.
   0.009226   -0.05112107 -0.          0.          0.         -0.          0.02003964  0.01225844  0.         -0.45199982  0.15534435  0.         -0.14610218
  -0.01762507  0.        ]
 [-0.          0.          0.         -0.          0.          0.46789337 -0.68991713 -0.10411522  0.20225638  0.         -0.         -0.          0.
  -0.05112107 -0.009226   -0.          0.         -0.         -0.         -0.01225844  0.02003964  0.         -0.15534435 -0.45199982 -0.          0.01762507
  -0.14610218  0.        ]
 [ 0.         -0.          0.          0.         -0.          0.17078845 -0.15671551  0.19931214 -0.80405156  0.          0.         -0.         -0.
   0.01164189 -0.00062757 -0.         -0.         -0.          0.         -0.03952417  0.03984224 -0.         -0.01364507 -0.13789726  0.         -0.16825495
   0.4574388  -0.        ]
 [ 0.         -0.          0.          0.         -0.         -0.15671551 -0.17078845  0.80405156  0.19931214 -0.         -0.          0.          0.
   0.00062757  0.01164189  0.         -0.          0.         -0.          0.03984224  0.03952417 -0.         -0.13789726  0.01364507  0.          0.4574388
   0.16825495 -0.        ]
 [ 0.1009079  -0.09183847 -0.18841832  0.22096497 -0.06939352 -0.         -0.         -0.         -0.         -0.79741096 -0.00177877  0.03926407  0.00979823
   0.         -0.         -0.         -0.         -0.          0.          0.          0.         -0.17316329 -0.          0.         -0.01349803 -0.
  -0.         -0.47388612]
 [-0.00693804 -0.00194161 -0.00268548 -0.00462518 -0.01830898 -0.          0.          0.         -0.          0.00489756  0.15790885  0.0579814   0.97743304
   0.         -0.          0.          0.          0.          0.         -0.         -0.          0.07272598 -0.          0.         -0.10271384 -0.
   0.         -0.00697816]
 [-0.          0.          0.         -0.         -0.          0.01107371  0.00229961  0.00254617  0.00299715 -0.         -0.         -0.         -0.
   0.5154138  -0.8045873  -0.          0.         -0.          0.          0.27630137  0.04396649 -0.          0.06850389 -0.06035197  0.          0.01473406
  -0.00409567  0.        ]
 [ 0.         -0.          0.          0.         -0.         -0.00229961  0.01107371  0.00299715 -0.00254617 -0.          0.         -0.          0.
  -0.8045873  -0.5154138  -0.          0.         -0.          0.         -0.04396649  0.27630137  0.          0.06035197  0.06850389 -0.          0.00409567
   0.01473406  0.        ]
 [ 0.         -0.          0.         -0.          0.         -0.          0.         -0.         -0.         -0.          0.         -0.          0.
  -0.         -0.          0.7450687   0.01316872  0.66685717  0.00085641  0.          0.         -0.          0.          0.          0.         -0.
   0.         -0.        ]
 [ 0.         -0.         -0.          0.         -0.         -0.         -0.          0.          0.          0.         -0.          0.         -0.
  -0.          0.         -0.01316872  0.7450687  -0.00085641  0.66685717 -0.         -0.          0.         -0.          0.         -0.          0.
  -0.          0.        ]
 [ 0.         -0.         -0.         -0.          0.         -0.          0.         -0.         -0.         -0.         -0.          0.         -0.
  -0.          0.         -0.01178454  0.66675359  0.00095701 -0.74518445  0.         -0.         -0.          0.         -0.          0.         -0.
   0.          0.        ]
 [ 0.         -0.          0.         -0.          0.          0.         -0.         -0.         -0.         -0.          0.         -0.         -0.
   0.          0.         -0.66675359 -0.01178454  0.74518445  0.00095701  0.         -0.         -0.         -0.         -0.          0.         -0.
   0.         -0.        ]
 [ 0.         -0.          0.         -0.          0.         -0.00060631  0.00329395 -0.01168704  0.00947986 -0.          0.         -0.          0.
   0.23424029  0.15767174 -0.         -0.          0.         -0.         -0.12862611  0.9464242  -0.          0.02814645  0.03052129 -0.         -0.02252163
  -0.07442446  0.        ]
 [ 0.          0.         -0.          0.          0.          0.00329395  0.00060631 -0.00947986 -0.01168704  0.          0.          0.          0.
  -0.15767174  0.23424029  0.          0.         -0.          0.          0.9464242   0.12862611  0.          0.03052129 -0.02814645  0.         -0.07442446
   0.02252163  0.        ]
 [-0.00621126 -0.00526401  0.04079431 -0.0425156  -0.00132736  0.          0.          0.         -0.         -0.07163755  0.04115656 -0.16053276 -0.07519032
   0.         -0.          0.         -0.          0.         -0.         -0.         -0.          0.9383724  -0.         -0.         -0.06180484  0.
   0.         -0.27174886]
 [ 0.01668719  0.15577281  0.58619027  0.50173069 -0.13970847  0.         -0.         -0.          0.          0.00534902  0.54887972  0.17108337 -0.0814137
   0.          0.         -0.          0.         -0.         -0.          0.         -0.          0.00432643  0.         -0.          0.15256237 -0.
  -0.         -0.00979505]
 [ 0.07648835 -0.29316097  0.47296054 -0.44450192  0.0031323  -0.          0.          0.         -0.          0.00951443  0.15948553 -0.56316395  0.02120109
  -0.          0.         -0.          0.         -0.          0.          0.         -0.         -0.23033993  0.         -0.         -0.00567335  0.
  -0.         -0.30117234]
 [ 0.00901391  0.01986168  0.14483751  0.1468897   0.4228135   0.          0.          0.          0.         -0.03585234  0.0413381   0.00996949 -0.08554611
   0.         -0.          0.          0.          0.          0.          0.         -0.         -0.05160312 -0.          0.         -0.87328215  0.
   0.          0.0500216 ]
 [-0.          0.          0.         -0.          0.          0.24748234 -0.41547567 -0.0707989   0.11970463  0.          0.         -0.         -0.
   0.06409516  0.01549952  0.         -0.          0.          0.          0.01697066 -0.03179596  0.          0.31372373  0.76376001  0.         -0.01493966
   0.24324523 -0.        ]
 [-0.          0.         -0.          0.          0.         -0.41547567 -0.24748234 -0.11970463 -0.0707989  -0.         -0.          0.          0.
  -0.01549952  0.06409516  0.         -0.         -0.          0.         -0.03179596 -0.01697066  0.          0.76376001 -0.31372373 -0.          0.24324523
   0.01493966 -0.        ]
 [ 0.         -0.          0.         -0.          0.         -0.06068163  0.11693065 -0.27502116  0.40842123  0.          0.         -0.         -0.
   0.00834821  0.00254397 -0.         -0.         -0.         -0.         -0.02794786  0.06065945 -0.         -0.10665092 -0.2217593   0.         -0.00231234
   0.82164874 -0.        ]
 [-0.          0.         -0.         -0.          0.          0.11693065  0.06068163 -0.40842123 -0.27502116  0.         -0.          0.          0.
  -0.00254397  0.00834821  0.         -0.          0.         -0.          0.06065945  0.02794786  0.         -0.2217593   0.10665092  0.          0.82164874
   0.00231234 -0.        ]
 [ 0.0398173  -0.07842904  0.03533424 -0.01942652 -0.03493598 -0.         -0.         -0.         -0.         -0.49818845  0.10750835 -0.3481292   0.00616848
   0.          0.         -0.         -0.         -0.         -0.         -0.         -0.          0.12114176  0.          0.          0.04218162  0.
   0.          0.7694028 ]
 [ 0.02592388 -0.07068386 -0.41764198 -0.39342325  0.07238808 -0.          0.          0.         -0.          0.00366568  0.76828607  0.21621777 -0.14287713
  -0.          0.         -0.         -0.         -0.         -0.          0.         -0.         -0.01020104 -0.          0.         -0.04832223  0.
   0.          0.00223997]
 [ 0.00051258  0.13063806 -0.43915241  0.47429603 -0.00239473  0.         -0.         -0.          0.          0.26434889  0.20242516 -0.66105025  0.01210627
  -0.         -0.          0.          0.          0.          0.          0.          0.         -0.08772774  0.         -0.         -0.00162046  0.
  -0.         -0.09709319]]
grids:  [0.06237655 0.31939555 0.74529195 1.28265786 1.85893479 2.39630071 2.8221971  3.07921611] 
weights:  [0.15900941 0.34931531 0.49276925 0.56970235 0.56970235 0.49276925 0.34931531 0.15900941]
S = 0.0, Sz = 0.0
Wigner small d:  1
value : [1. 1. 1. 1. 1. 1. 1. 1.]
**** Start Cycle 1 ****
dm (ortho)
[[[ 0.72195732 -0.41890944 -0.10827048 ...  0.03383199 -0.02202702  0.00043553]
  [-0.41890944  0.24306855  0.062823   ... -0.01963072  0.01278099 -0.00025271]
  [-0.10827048  0.062823    0.0162371  ... -0.00507371  0.00330335 -0.00006532]
  ...
  [ 0.03383199 -0.01963072 -0.00507371 ...  0.00158542 -0.00103222  0.00002041]
  [-0.02202702  0.01278099  0.00330335 ... -0.00103222  0.00067205 -0.00001329]
  [ 0.00043553 -0.00025271 -0.00006532 ...  0.00002041 -0.00001329  0.00000026]]

 [[ 0.72195732  0.41890944 -0.10827048 ... -0.03383199 -0.02202702 -0.00043553]
  [ 0.41890944  0.24306855 -0.062823   ... -0.01963072 -0.01278099 -0.00025271]
  [-0.10827048 -0.062823    0.0162371  ...  0.00507371  0.00330335  0.00006532]
  ...
  [-0.03383199 -0.01963072  0.00507371 ...  0.00158542  0.00103222  0.00002041]
  [-0.02202702 -0.01278099  0.00330335 ...  0.00103222  0.00067205  0.00001329]
  [-0.00043553 -0.00025271  0.00006532 ...  0.00002041  0.00001329  0.00000026]]]
Fock (ortho)
 (array([[-0.2622689 ,  0.26154905,  0.21970629,  0.        ,  0.        , -0.        ,  0.        , -0.08660372, -0.02938978,  0.        , -0.        ,
         0.        , -0.        , -0.        ,  0.        , -0.        , -0.        ,  0.01238607,  0.14271508,  0.02261451, -0.14721861, -0.        ,
        -0.        , -0.        , -0.        , -0.0056877 ,  0.0685799 , -0.01034465],
       [ 0.26154905,  0.07005048, -0.0752877 , -0.        , -0.        , -0.        , -0.        ,  0.34677127,  0.00621678, -0.        ,  0.        ,
         0.        , -0.        , -0.        ,  0.        ,  0.        ,  0.        , -0.07845532,  0.08917023,  0.44869031,  0.00670126,  0.        ,
        -0.        ,  0.        , -0.        , -0.04338175, -0.00988128,  0.16823595],
       [ 0.21970629, -0.0752877 ,  1.28187415,  0.        ,  0.        ,  0.        , -0.        , -0.0354727 ,  0.02358211,  0.        , -0.        ,
         0.        ,  0.        ,  0.        ,  0.        , -0.        , -0.        ,  0.00485173,  0.18844315, -0.01461986, -1.26503977, -0.        ,
        -0.        , -0.        , -0.        , -0.00003093, -0.08126999,  0.00026475],
       [ 0.        , -0.        ,  0.        ,  1.52083171, -0.        , -0.01374425,  0.05807045, -0.        ,  0.        ,  0.00663196,  0.00273528,
         0.        , -0.        ,  0.        , -0.        ,  0.00096922,  0.00220638, -0.        ,  0.        , -0.        ,  0.        , -0.07960297,
        -1.35421649,  0.00074176,  0.00629779,  0.        ,  0.        , -0.        ],
       [ 0.        , -0.        ,  0.        , -0.        ,  1.52083171,  0.05807045,  0.01374425, -0.        , -0.        , -0.00273528,  0.00663196,
         0.        ,  0.        , -0.        , -0.        ,  0.00220638, -0.00096922,  0.        ,  0.        , -0.        ,  0.        , -1.35421649,
         0.07960297,  0.00629779, -0.00074176,  0.        , -0.        ,  0.        ],
       [-0.        , -0.        ,  0.        , -0.01374425,  0.05807045,  1.65176838,  0.        , -0.        ,  0.        , -0.0010525 ,  0.00146315,
         0.        ,  0.        ,  0.        , -0.        ,  0.01326407, -0.01000641, -0.        , -0.        , -0.        , -0.        , -0.00855433,
         0.00256316,  1.27531373, -0.46501496,  0.        ,  0.        , -0.        ],
       [ 0.        , -0.        , -0.        ,  0.05807045,  0.01374425,  0.        ,  1.65176838,  0.        ,  0.        ,  0.00146315,  0.0010525 ,
         0.        , -0.        ,  0.        ,  0.        ,  0.01000641,  0.01326407, -0.        ,  0.        ,  0.        , -0.        , -0.00256316,
        -0.00855433,  0.46501496,  1.27531373, -0.        , -0.        ,  0.        ],
       [-0.08660372,  0.34677127, -0.0354727 , -0.        , -0.        , -0.        ,  0.        ,  1.8344541 , -0.01086601,  0.        ,  0.        ,
         0.        ,  0.        ,  0.        ,  0.        ,  0.        ,  0.        ,  0.01802059, -0.03839022,  0.60550309,  0.01112246, -0.        ,
        -0.        ,  0.        ,  0.        , -1.24294104,  0.00013857,  0.02774384],
       [-0.02938978,  0.00621678,  0.02358211,  0.        , -0.        ,  0.        ,  0.        , -0.01086601,  3.34213183, -0.        ,  0.        ,
        -0.        , -0.        , -0.        , -0.        , -0.        ,  0.        , -0.02274586, -0.08829499,  0.00141401,  0.06293226, -0.        ,
         0.        , -0.        , -0.        ,  0.00218061, -0.12166953,  0.00023397],
       [ 0.        , -0.        ,  0.        ,  0.00663196, -0.00273528, -0.0010525 ,  0.00146315,  0.        , -0.        ,  3.42116231, -0.        ,
        -0.        ,  0.        ,  0.        , -0.        , -0.00055673, -0.02449749,  0.        ,  0.        ,  0.        , -0.        , -0.01569363,
         0.04545114, -0.00015926,  0.00056675, -0.        ,  0.        ,  0.        ],
       [-0.        ,  0.        , -0.        ,  0.00273528,  0.00663196,  0.00146315,  0.0010525 ,  0.        ,  0.        , -0.        ,  3.42116231,
        -0.        ,  0.        ,  0.        ,  0.        , -0.02449749,  0.00055673, -0.        , -0.        , -0.        , -0.        ,  0.04545114,
         0.01569363,  0.00056675,  0.00015926, -0.        , -0.        ,  0.        ],
       [ 0.        ,  0.        ,  0.        ,  0.        ,  0.        ,  0.        ,  0.        ,  0.        , -0.        , -0.        , -0.        ,
         3.44828873, -0.        ,  0.        , -0.02477949, -0.        ,  0.        , -0.        ,  0.        , -0.        ,  0.        ,  0.        ,
         0.        , -0.        , -0.        , -0.        , -0.        ,  0.        ],
       [-0.        , -0.        ,  0.        , -0.        ,  0.        ,  0.        , -0.        ,  0.        , -0.        ,  0.        ,  0.        ,
        -0.        ,  3.44828873,  0.02477949,  0.        ,  0.        ,  0.        ,  0.        , -0.        ,  0.        , -0.        ,  0.        ,
        -0.        , -0.        ,  0.        ,  0.        ,  0.        ,  0.        ],
       [-0.        , -0.        ,  0.        ,  0.        , -0.        ,  0.        ,  0.        ,  0.        , -0.        ,  0.        ,  0.        ,
         0.        ,  0.02477949,  3.45274742,  0.        , -0.        ,  0.        ,  0.        , -0.        , -0.        , -0.        ,  0.        ,
         0.        ,  0.        , -0.        ,  0.        ,  0.        ,  0.        ],
       [ 0.        ,  0.        ,  0.        , -0.        , -0.        , -0.        ,  0.        ,  0.        , -0.        , -0.        ,  0.        ,
        -0.02477949,  0.        ,  0.        ,  3.45274742,  0.        ,  0.        , -0.        ,  0.        , -0.        ,  0.        , -0.        ,
        -0.        ,  0.        , -0.        , -0.        , -0.        ,  0.        ],
       [-0.        ,  0.        , -0.        ,  0.00096922,  0.00220638,  0.01326407,  0.01000641,  0.        , -0.        , -0.00055673, -0.02449749,
        -0.        ,  0.        , -0.        ,  0.        ,  3.48028905, -0.        , -0.        , -0.        , -0.        , -0.        , -0.00100416,
        -0.00037247, -0.05193199, -0.01587484, -0.        , -0.        ,  0.        ],
       [-0.        ,  0.        , -0.        ,  0.00220638, -0.00096922, -0.01000641,  0.01326407,  0.        ,  0.        , -0.02449749,  0.00055673,
         0.        ,  0.        ,  0.        ,  0.        , -0.        ,  3.48028905, -0.        , -0.        , -0.        ,  0.        ,  0.00037247,
        -0.00100416,  0.01587484, -0.05193199,  0.        , -0.        , -0.        ],
       [ 0.01238607, -0.07845532,  0.00485173, -0.        ,  0.        , -0.        , -0.        ,  0.01802059, -0.02274586,  0.        , -0.        ,
        -0.        ,  0.        ,  0.        , -0.        , -0.        , -0.        ,  3.54688752,  0.00951353, -0.14800238, -0.00403557,  0.        ,
         0.        ,  0.        ,  0.        , -0.3112308 ,  0.00108515,  0.07957653],
       [ 0.14271508,  0.08917023,  0.18844315,  0.        ,  0.        , -0.        ,  0.        , -0.03839022, -0.08829499,  0.        , -0.        ,
         0.        , -0.        , -0.        ,  0.        , -0.        , -0.        ,  0.00951353,  1.19889541,  0.04720322, -0.41051872, -0.        ,
        -0.        , -0.        , -0.        ,  0.0190493 ,  0.95243422,  0.01085656],
       [ 0.02261451,  0.44869031, -0.01461986, -0.        , -0.        , -0.        ,  0.        ,  0.60550309,  0.00141401,  0.        , -0.        ,
        -0.        ,  0.        , -0.        , -0.        , -0.        , -0.        , -0.14800238,  0.04720322,  1.65027823,  0.01572877,  0.        ,
         0.        ,  0.        ,  0.        , -0.53476025,  0.01806463,  1.07920255],
       [-0.14721861,  0.00670126, -1.26503977,  0.        ,  0.        , -0.        , -0.        ,  0.01112246,  0.06293226, -0.        , -0.        ,
         0.        , -0.        , -0.        ,  0.        , -0.        ,  0.        , -0.00403557, -0.41051872,  0.01572877,  3.14854987,  0.        ,
         0.        ,  0.        ,  0.        , -0.01352179,  0.26083134,  0.00274298],
       [-0.        ,  0.        , -0.        , -0.07960297, -1.35421649, -0.00855433, -0.00256316, -0.        , -0.        , -0.01569363,  0.04545114,
         0.        ,  0.        ,  0.        , -0.        , -0.00100416,  0.00037247,  0.        , -0.        ,  0.        ,  0.        ,  3.04685609,
        -0.        , -0.02106435,  0.00123424, -0.        ,  0.        , -0.        ],
       [-0.        , -0.        , -0.        , -1.35421649,  0.07960297,  0.00256316, -0.00855433, -0.        ,  0.        ,  0.04545114,  0.01569363,
         0.        , -0.        ,  0.        , -0.        , -0.00037247, -0.00100416,  0.        , -0.        ,  0.        ,  0.        , -0.        ,
         3.04685609, -0.00123424, -0.02106435, -0.        ,  0.        ,  0.        ],
       [-0.        ,  0.        , -0.        ,  0.00074176,  0.00629779,  1.27531373,  0.46501496,  0.        , -0.        , -0.00015926,  0.00056675,
        -0.        , -0.        ,  0.        ,  0.        , -0.05193199,  0.01587484,  0.        , -0.        ,  0.        ,  0.        , -0.02106435,
        -0.00123424,  3.12438264, -0.        , -0.        ,  0.        , -0.        ],
       [-0.        , -0.        , -0.        ,  0.00629779, -0.00074176, -0.46501496,  1.27531373,  0.        , -0.        ,  0.00056675,  0.00015926,
        -0.        ,  0.        , -0.        , -0.        , -0.01587484, -0.05193199,  0.        , -0.        ,  0.        ,  0.        ,  0.00123424,
        -0.02106435, -0.        ,  3.12438264, -0.        ,  0.        ,  0.        ],
       [-0.0056877 , -0.04338175, -0.00003093,  0.        ,  0.        ,  0.        , -0.        , -1.24294104,  0.00218061, -0.        , -0.        ,
        -0.        ,  0.        ,  0.        , -0.        , -0.        ,  0.        , -0.3112308 ,  0.0190493 , -0.53476025, -0.01352179, -0.        ,
        -0.        , -0.        , -0.        ,  3.22758907,  0.00999897,  0.1412044 ],
       [ 0.0685799 , -0.00988128, -0.08126999,  0.        , -0.        ,  0.        , -0.        ,  0.00013857, -0.12166953,  0.        , -0.        ,
        -0.        ,  0.        ,  0.        , -0.        , -0.        , -0.        ,  0.00108515,  0.95243422,  0.01806463,  0.26083134,  0.        ,
         0.        ,  0.        ,  0.        ,  0.00999897,  1.78080813,  0.01585911],
       [-0.01034465,  0.16823595,  0.00026475, -0.        ,  0.        , -0.        ,  0.        ,  0.02774384,  0.00023397,  0.        ,  0.        ,
         0.        ,  0.        ,  0.        ,  0.        ,  0.        , -0.        ,  0.07957653,  0.01085656,  1.07920255,  0.00274298, -0.        ,
         0.        , -0.        ,  0.        ,  0.1412044 ,  0.01585911,  1.55595442]]), array([[-0.2622689 , -0.26154905,  0.21970629, -0.        , -0.        , -0.        ,  0.        ,  0.08660372, -0.02938978, -0.        , -0.        ,
        -0.        ,  0.        ,  0.        , -0.        , -0.        ,  0.        , -0.01238607,  0.14271508, -0.02261451, -0.14721861, -0.        ,
        -0.        , -0.        , -0.        ,  0.0056877 ,  0.0685799 ,  0.01034465],
       [-0.26154905,  0.07005048,  0.0752877 , -0.        , -0.        , -0.        ,  0.        ,  0.34677127, -0.00621678, -0.        ,  0.        ,
         0.        ,  0.        ,  0.        ,  0.        ,  0.        ,  0.        , -0.07845532, -0.08917023,  0.44869031, -0.00670126,  0.        ,
        -0.        ,  0.        , -0.        , -0.04338175,  0.00988128,  0.16823595],
       [ 0.21970629,  0.0752877 ,  1.28187415, -0.        , -0.        ,  0.        , -0.        ,  0.0354727 ,  0.02358211,  0.        , -0.        ,
         0.        , -0.        , -0.        ,  0.        , -0.        , -0.        , -0.00485173,  0.18844315,  0.01461986, -1.26503977, -0.        ,
        -0.        , -0.        , -0.        ,  0.00003093, -0.08126999, -0.00026475],
       [-0.        , -0.        , -0.        ,  1.52083171,  0.        ,  0.01374425, -0.05807045, -0.        , -0.        ,  0.00663196,  0.00273528,
         0.        , -0.        ,  0.        , -0.        , -0.00096922, -0.00220638, -0.        , -0.        , -0.        ,  0.        , -0.07960297,
        -1.35421649, -0.00074176, -0.00629779,  0.        ,  0.        , -0.        ],
       [-0.        , -0.        , -0.        ,  0.        ,  1.52083171, -0.05807045, -0.01374425, -0.        , -0.        , -0.00273528,  0.00663196,
         0.        ,  0.        , -0.        , -0.        , -0.00220638,  0.00096922,  0.        , -0.        , -0.        ,  0.        , -1.35421649,
         0.07960297, -0.00629779,  0.00074176,  0.        , -0.        ,  0.        ],
       [-0.        , -0.        ,  0.        ,  0.01374425, -0.05807045,  1.65176838,  0.        ,  0.        ,  0.        ,  0.0010525 , -0.00146315,
        -0.        ,  0.        ,  0.        , -0.        ,  0.01326407, -0.01000641, -0.        , -0.        , -0.        , -0.        ,  0.00855433,
        -0.00256316,  1.27531373, -0.46501496,  0.        ,  0.        , -0.        ],
       [ 0.        ,  0.        , -0.        , -0.05807045, -0.01374425,  0.        ,  1.65176838, -0.        ,  0.        , -0.00146315, -0.0010525 ,
         0.        , -0.        ,  0.        ,  0.        ,  0.01000641,  0.01326407, -0.        ,  0.        ,  0.        , -0.        ,  0.00256316,
         0.00855433,  0.46501496,  1.27531373, -0.        , -0.        ,  0.        ],
       [ 0.08660372,  0.34677127,  0.0354727 , -0.        , -0.        ,  0.        , -0.        ,  1.8344541 ,  0.01086601,  0.        ,  0.        ,
         0.        , -0.        , -0.        ,  0.        , -0.        , -0.        ,  0.01802059,  0.03839022,  0.60550309, -0.01112246, -0.        ,
        -0.        ,  0.        , -0.        , -1.24294104, -0.00013857,  0.02774384],
       [-0.02938978, -0.00621678,  0.02358211, -0.        , -0.        ,  0.        ,  0.        ,  0.01086601,  3.34213183, -0.        ,  0.        ,
        -0.        ,  0.        ,  0.        , -0.        , -0.        ,  0.        ,  0.02274586, -0.08829499, -0.00141401,  0.06293226, -0.        ,
         0.        , -0.        , -0.        , -0.00218061, -0.12166953, -0.00023397],
       [-0.        , -0.        ,  0.        ,  0.00663196, -0.00273528,  0.0010525 , -0.00146315,  0.        , -0.        ,  3.42116231, -0.        ,
         0.        ,  0.        , -0.        ,  0.        ,  0.00055673,  0.02449749,  0.        , -0.        ,  0.        , -0.        , -0.01569363,
         0.04545114,  0.00015926, -0.00056675, -0.        ,  0.        ,  0.        ],
       [-0.        ,  0.        , -0.        ,  0.00273528,  0.00663196, -0.00146315, -0.0010525 ,  0.        ,  0.        , -0.        ,  3.42116231,
         0.        ,  0.        , -0.        , -0.        ,  0.02449749, -0.00055673, -0.        , -0.        , -0.        , -0.        ,  0.04545114,
         0.01569363, -0.00056675, -0.00015926, -0.        , -0.        ,  0.        ],
       [-0.        ,  0.        ,  0.        ,  0.        ,  0.        , -0.        ,  0.        ,  0.        , -0.        ,  0.        ,  0.        ,
         3.44828873, -0.        ,  0.        ,  0.02477949,  0.        , -0.        , -0.        , -0.        , -0.        ,  0.        ,  0.        ,
         0.        , -0.        , -0.        , -0.        , -0.        ,  0.        ],
       [ 0.        ,  0.        , -0.        , -0.        ,  0.        ,  0.        , -0.        , -0.        ,  0.        ,  0.        ,  0.        ,
        -0.        ,  3.44828873, -0.02477949,  0.        , -0.        , -0.        ,  0.        ,  0.        ,  0.        ,  0.        ,  0.        ,
        -0.        , -0.        ,  0.        , -0.        , -0.        , -0.        ],
       [ 0.        ,  0.        , -0.        ,  0.        , -0.        ,  0.        ,  0.        , -0.        ,  0.        , -0.        , -0.        ,
         0.        , -0.02477949,  3.45274742,  0.        ,  0.        , -0.        ,  0.        ,  0.        ,  0.        ,  0.        ,  0.        ,
         0.        ,  0.        , -0.        , -0.        , -0.        , -0.        ],
       [-0.        ,  0.        ,  0.        , -0.        , -0.        , -0.        ,  0.        ,  0.        , -0.        ,  0.        , -0.        ,
         0.02477949,  0.        ,  0.        ,  3.45274742, -0.        , -0.        , -0.        , -0.        , -0.        ,  0.        , -0.        ,
        -0.        ,  0.        , -0.        , -0.        , -0.        ,  0.        ],
       [-0.        ,  0.        , -0.        , -0.00096922, -0.00220638,  0.01326407,  0.01000641, -0.        , -0.        ,  0.00055673,  0.02449749,
         0.        , -0.        ,  0.        , -0.        ,  3.48028905,  0.        , -0.        , -0.        , -0.        , -0.        ,  0.00100416,
         0.00037247, -0.05193199, -0.01587484, -0.        , -0.        ,  0.        ],
       [ 0.        ,  0.        , -0.        , -0.00220638,  0.00096922, -0.01000641,  0.01326407, -0.        ,  0.        ,  0.02449749, -0.00055673,
        -0.        , -0.        , -0.        , -0.        ,  0.        ,  3.48028905, -0.        , -0.        , -0.        ,  0.        , -0.00037247,
         0.00100416,  0.01587484, -0.05193199,  0.        , -0.        , -0.        ],
       [-0.01238607, -0.07845532, -0.00485173, -0.        ,  0.        , -0.        , -0.        ,  0.01802059,  0.02274586,  0.        , -0.        ,
        -0.        ,  0.        ,  0.        , -0.        , -0.        , -0.        ,  3.54688752, -0.00951353, -0.14800238,  0.00403557,  0.        ,
         0.        ,  0.        ,  0.        , -0.3112308 , -0.00108515,  0.07957653],
       [ 0.14271508, -0.08917023,  0.18844315, -0.        , -0.        , -0.        ,  0.        ,  0.03839022, -0.08829499, -0.        , -0.        ,
        -0.        ,  0.        ,  0.        , -0.        , -0.        , -0.        , -0.00951353,  1.19889541, -0.04720322, -0.41051872, -0.        ,
        -0.        , -0.        , -0.        , -0.0190493 ,  0.95243422, -0.01085656],
       [-0.02261451,  0.44869031,  0.01461986, -0.        , -0.        , -0.        ,  0.        ,  0.60550309, -0.00141401,  0.        , -0.        ,
        -0.        ,  0.        ,  0.        , -0.        , -0.        , -0.        , -0.14800238, -0.04720322,  1.65027823, -0.01572877,  0.        ,
         0.        ,  0.        ,  0.        , -0.53476025, -0.01806463,  1.07920255],
       [-0.14721861, -0.00670126, -1.26503977,  0.        ,  0.        , -0.        , -0.        , -0.01112246,  0.06293226, -0.        , -0.        ,
         0.        ,  0.        ,  0.        ,  0.        , -0.        ,  0.        ,  0.00403557, -0.41051872, -0.01572877,  3.14854987,  0.        ,
         0.        ,  0.        ,  0.        ,  0.01352179,  0.26083134, -0.00274298],
       [-0.        ,  0.        , -0.        , -0.07960297, -1.35421649,  0.00855433,  0.00256316, -0.        , -0.        , -0.01569363,  0.04545114,
         0.        ,  0.        ,  0.        , -0.        ,  0.00100416, -0.00037247,  0.        , -0.        ,  0.        ,  0.        ,  3.04685609,
        -0.        ,  0.02106435, -0.00123424, -0.        ,  0.        , -0.        ],
       [-0.        , -0.        , -0.        , -1.35421649,  0.07960297, -0.00256316,  0.00855433, -0.        ,  0.        ,  0.04545114,  0.01569363,
         0.        , -0.        ,  0.        , -0.        ,  0.00037247,  0.00100416,  0.        , -0.        ,  0.        ,  0.        , -0.        ,
         3.04685609,  0.00123424,  0.02106435, -0.        ,  0.        ,  0.        ],
       [-0.        ,  0.        , -0.        , -0.00074176, -0.00629779,  1.27531373,  0.46501496,  0.        , -0.        ,  0.00015926, -0.00056675,
        -0.        , -0.        ,  0.        ,  0.        , -0.05193199,  0.01587484,  0.        , -0.        ,  0.        ,  0.        ,  0.02106435,
         0.00123424,  3.12438264, -0.        , -0.        ,  0.        , -0.        ],
       [-0.        , -0.        , -0.        , -0.00629779,  0.00074176, -0.46501496,  1.27531373, -0.        , -0.        , -0.00056675, -0.00015926,
        -0.        ,  0.        , -0.        , -0.        , -0.01587484, -0.05193199,  0.        , -0.        ,  0.        ,  0.        , -0.00123424,
         0.02106435, -0.        ,  3.12438264, -0.        ,  0.        ,  0.        ],
       [ 0.0056877 , -0.04338175,  0.00003093,  0.        ,  0.        ,  0.        , -0.        , -1.24294104, -0.00218061, -0.        , -0.        ,
        -0.        , -0.        , -0.        , -0.        , -0.        ,  0.        , -0.3112308 , -0.0190493 , -0.53476025,  0.01352179, -0.        ,
        -0.        , -0.        , -0.        ,  3.22758907, -0.00999897,  0.1412044 ],
       [ 0.0685799 ,  0.00988128, -0.08126999,  0.        , -0.        ,  0.        , -0.        , -0.00013857, -0.12166953,  0.        , -0.        ,
        -0.        , -0.        , -0.        , -0.        , -0.        , -0.        , -0.00108515,  0.95243422, -0.01806463,  0.26083134,  0.        ,
         0.        ,  0.        ,  0.        , -0.00999897,  1.78080813, -0.01585911],
       [ 0.01034465,  0.16823595, -0.00026475, -0.        ,  0.        , -0.        ,  0.        ,  0.02774384, -0.00023397,  0.        ,  0.        ,
         0.        , -0.        , -0.        ,  0.        ,  0.        , -0.        ,  0.07957653, -0.01085656,  1.07920255, -0.00274298, -0.        ,
         0.        , -0.        ,  0.        ,  0.1412044 , -0.01585911,  1.55595442]]))
E(UHF) =    -1.246618
NO eigenvalue
[-1. -0. -0. -0. -0. -0. -0. -0. -0. -0. -0. -0. -0. -0. -0. -0.  0.  0.  0.  0.  0.  0.  0.  0.  0.  0.  0.  0.] [-1. -0. -0. -0. -0. -0. -0. -0. -0. -0. -0. -0. -0. -0. -0. -0.  0.  0.  0.  0.  0.  0.  0.  0.  0.  0.  0.  0.]
NO vec
[[ 0.84968071  0.         -0.13948817 ...  0.          0.          0.        ]
 [-0.49301983  0.         -0.32104352 ...  0.          0.          0.        ]
 [-0.1274249   0.          0.25927894 ...  0.          0.          0.        ]
 ...
 [ 0.         -0.0398173   0.         ...  0.31701289  0.46035556  0.56642663]
 [ 0.         -0.02592388  0.         ...  0.60125428 -0.29397834 -0.15342488]
 [ 0.         -0.00051258  0.         ...  0.02509824 -0.01425391 -0.00465352]]
dm(NO)
[[ 1.  0. -0. ...  0.  0.  0.]
 [ 0.  1.  0. ...  0.  0.  0.]
 [-0.  0.  0. ...  0.  0.  0.]
 ...
 [ 0. -0.  0. ... -0.  0.  0.]
 [ 0.  0.  0. ...  0. -0. -0.]
 [ 0.  0.  0. ...  0.  0. -0.]]
D(g) (NO)
[[ 0.99951369  0.01492269 -0.         ... -0.0002284   0.00156521 -0.00424905]
 [-0.01492269  0.99951369  0.00924097 ...  0.          0.          0.        ]
 [-0.         -0.00924097  0.99951369 ... -0.01281376 -0.01282091 -0.01440669]
 ...
 [ 0.0002284  -0.          0.01281376 ...  0.99951369  0.          0.        ]
 [-0.00156521  0.          0.01282091 ...  0.          0.99951369  0.        ]
 [ 0.00424905  0.          0.01440669 ...  0.          0.          0.99951369]]
...
N(g) (NO)
[[ 1.00026359 -0.01493388]
 [ 0.01493388  1.00026359]]
...
P(g) (NO)
[[ 1.          0.         -0.         ...  0.          0.          0.        ]
 [-0.          1.          0.         ...  0.          0.          0.        ]
 [-0.000138   -0.00924341  0.         ... -0.         -0.         -0.        ]
 ...
 [ 0.00022846 -0.00000341 -0.         ... -0.         -0.         -0.        ]
 [-0.00156563  0.00002337  0.         ...  0.          0.          0.        ]
 [ 0.00425017 -0.00006345 -0.         ... -0.         -0.         -0.        ]]
...
Pg_ortho
[[ 0.72213263 -0.41901116 -0.10829677 ... -0.00055027 -0.00035827 -0.00000708]
 [-0.418621    0.24290119  0.06277974 ... -0.00090533 -0.00058943 -0.00001165]
 [-0.10829677  0.06283826  0.01624105 ...  0.00008252  0.00005373  0.00000106]
 ...
 [-0.00156027  0.00090533  0.00023399 ...  0.00158433  0.00103151  0.0000204 ]
 [ 0.00035827 -0.00020788 -0.00005373 ...  0.00103247  0.00067221  0.00001329]
 [-0.00002009  0.00001165  0.00000301 ...  0.0000204   0.00001328  0.00000026]]
G(g) (NO)
[[ 0.28666874 -0.00206711 -0.02206103 ... -0.00042311 -0.00026838  0.00005712]
 [ 0.00206711  0.28666874  0.00041191 ...  0.0015839   0.00399753  0.00892438]
 [-0.02203072  0.00605618  0.86497684 ...  0.00132322  0.0016342  -0.0004945 ]
 ...
 [-0.00019252  0.0015916  -0.00033803 ...  0.8636276   0.04664664  0.04482973]
 [ 0.00343355  0.0039921   0.00059398 ...  0.04664829  0.72532068 -0.02536117]
 [-0.00253902  0.00893179 -0.00057498 ...  0.04482742 -0.02536039  0.84394247]]
...
C(NO)
[[-1.          0.         -0.         ...  0.          0.          0.        ]
 [ 0.         -1.          0.         ...  0.         -0.          0.        ]
 [ 0.          0.          0.31500763 ...  0.          0.          0.        ]
 ...
 [ 0.          0.          0.         ... -0.          0.          0.38957006]
 [ 0.         -0.          0.         ... -0.         -0.          0.15014751]
 [ 0.         -0.          0.         ...  0.         -0.          0.71935094]]
detC 1.0000000000000016
detNg [1.00075027 1.01988396 1.11383228 1.38112031 1.98035914 3.01925475 4.02406245 4.35239603]
xg [0.99925029 0.98050371 0.89780124 0.72404988 0.50495891 0.33120756 0.24850509 0.2297585 ]
ciS 1.229008797565002
[[-0.76662801  0.          0.01149899 ...  0.          0.          0.        ]
 [ 0.         -0.76662801  0.         ... -0.00514611 -0.00084536 -0.00895604]
 [ 0.01149899  0.          2.24976243 ...  0.          0.          0.        ]
 ...
 [ 0.         -0.00514611  0.         ...  1.9946433   0.16108224  0.6184224 ]
 [ 0.         -0.00084536  0.         ...  0.16108224  0.31213472  0.61084468]
 [ 0.         -0.00895604  0.         ...  0.6184224   0.61084468  2.26237758]]
ciH -1.5357849192016166
S2 = 0.000000
X(g)
[[ 2.          0.         -0.000138   ... -0.00022846  0.00156563 -0.00425017]
 [-0.          2.          0.00924341 ... -0.00000341  0.00002337 -0.00006345]
 [-0.000138   -0.00924341  0.         ...  0.          0.          0.        ]
 ...
 [ 0.00022846 -0.00000341  0.         ...  0.          0.          0.        ]
 [-0.00156563  0.00002337  0.         ...  0.          0.          0.        ]
 [ 0.00425017 -0.00006345  0.         ...  0.          0.          0.        ]]
X(g) int
[[ 2.          0.         -0.11538989 ... -0.00468076  0.03207653 -0.08707742]
 [-0.          2.          0.18937889 ... -0.00285202  0.01954445 -0.05305689]
 [-0.11538989 -0.18937889  0.         ...  0.          0.          0.        ]
 ...
 [ 0.00468076 -0.00285202  0.         ...  0.          0.          0.        ]
 [-0.03207653  0.01954445  0.         ...  0.          0.          0.        ]
 [ 0.08707742 -0.05305689  0.         ...  0.          0.          0.        ]]
Hsp + Hph =  -1.24961263275285
Feff (mod,ortho)
[[-0.24230752  0.27287914  0.215682   ...  0.          0.          0.        ]
 [ 0.27287914  0.05018151 -0.07638877 ...  0.          0.          0.        ]
 [ 0.215682   -0.07638877  1.28263224 ...  0.          0.          0.        ]
 ...
 [ 0.          0.          0.         ...  3.2276938  -0.00988867  0.1411314 ]
 [ 0.          0.          0.         ... -0.00988867  1.78090736 -0.0159061 ]
 [ 0.          0.          0.         ...  0.1411314  -0.0159061   1.55595252]]
E(SUHF) =     -0.99762348
e_a, e_b
[-0.48551368  0.05317463  0.36962956  0.48590522  0.66242265  0.71277325  0.71277325  0.85715345  0.85715345  1.12362223  2.44794888  2.62304191  3.36149546
  3.40979328  3.40979328  3.4256385   3.4256385   3.47539765  3.47539765  3.48581782  3.48581782  3.54032176  3.83096782  3.83096782  3.88930657  3.94878457
  3.94878457  4.30384913] [-0.48551368  0.05317463  0.36962956  0.48590522  0.66242265  0.71277325  0.71277325  0.85715345  0.85715345  1.12362223  2.44794888  2.62304191  3.36149546
  3.40979328  3.40979328  3.4256385   3.4256385   3.47539765  3.47539765  3.48581782  3.48581782  3.54032176  3.83096782  3.83096782  3.88930657  3.94878457
  3.94878457  4.30384913]
P_a, P_b
[[ 0.63837468 -0.45302937 -0.10096309 -0.         -0.          0.         -0.          0.09544979  0.00554102 -0.          0.          0.          0.
   0.          0.          0.          0.         -0.00628284 -0.01923459  0.06489584 -0.01012781 -0.         -0.          0.         -0.          0.03615354
  -0.01542167  0.00367883]
 [-0.45302937  0.3214971   0.07164953  0.          0.         -0.          0.         -0.06773696 -0.00393224  0.         -0.         -0.         -0.
  -0.         -0.         -0.         -0.          0.00445868  0.01365003 -0.04605402  0.0071873   0.          0.         -0.          0.         -0.02565674
   0.01094415 -0.00261072]
 [-0.10096309  0.07164953  0.01596797  0.          0.         -0.          0.         -0.015096   -0.00087635  0.         -0.         -0.         -0.
  -0.         -0.         -0.         -0.          0.00099367  0.00304207 -0.0102637   0.00160178  0.          0.         -0.          0.         -0.00571792
   0.00243904 -0.00058183]
 [-0.          0.          0.          0.          0.         -0.          0.         -0.         -0.          0.         -0.         -0.         -0.
  -0.         -0.         -0.         -0.          0.          0.         -0.          0.          0.          0.         -0.          0.         -0.
   0.         -0.        ]
 [-0.          0.          0.          0.          0.         -0.          0.         -0.         -0.          0.         -0.         -0.         -0.
  -0.         -0.         -0.         -0.          0.          0.         -0.          0.          0.          0.         -0.          0.         -0.
   0.         -0.        ]
 [ 0.         -0.         -0.         -0.         -0.          0.         -0.          0.          0.         -0.          0.          0.          0.
   0.          0.          0.          0.         -0.         -0.          0.         -0.         -0.         -0.          0.         -0.          0.
  -0.          0.        ]
 [-0.          0.          0.          0.          0.         -0.          0.         -0.         -0.          0.         -0.         -0.         -0.
  -0.         -0.         -0.         -0.          0.          0.         -0.          0.          0.          0.         -0.          0.         -0.
   0.         -0.        ]
 [ 0.09544979 -0.06773696 -0.015096   -0.         -0.          0.         -0.          0.01427166  0.00082849 -0.          0.          0.          0.
   0.          0.          0.          0.         -0.00093941 -0.00287596  0.00970323 -0.00151431 -0.         -0.          0.         -0.          0.00540568
  -0.00230585  0.00055006]
 [ 0.00554102 -0.00393224 -0.00087635 -0.         -0.          0.         -0.          0.00082849  0.0000481  -0.          0.          0.          0.
   0.          0.          0.          0.         -0.00005453 -0.00016695  0.00056329 -0.00008791 -0.         -0.          0.         -0.          0.00031381
  -0.00013386  0.00003193]
 [-0.          0.          0.          0.          0.         -0.          0.         -0.         -0.          0.         -0.         -0.         -0.
  -0.         -0.         -0.         -0.          0.          0.         -0.          0.          0.          0.         -0.          0.         -0.
   0.         -0.        ]
 [ 0.         -0.         -0.         -0.         -0.          0.         -0.          0.          0.         -0.          0.          0.          0.
   0.          0.          0.          0.         -0.         -0.          0.         -0.         -0.         -0.          0.         -0.          0.
  -0.          0.        ]
 [ 0.         -0.         -0.         -0.         -0.          0.         -0.          0.          0.         -0.          0.          0.          0.
   0.          0.          0.          0.         -0.         -0.          0.         -0.         -0.         -0.          0.         -0.          0.
  -0.          0.        ]
 [ 0.         -0.         -0.         -0.         -0.          0.         -0.          0.          0.         -0.          0.          0.          0.
   0.          0.          0.          0.         -0.         -0.          0.         -0.         -0.         -0.          0.         -0.          0.
  -0.          0.        ]
 [ 0.         -0.         -0.         -0.         -0.          0.         -0.          0.          0.         -0.          0.          0.          0.
   0.          0.          0.          0.         -0.         -0.          0.         -0.         -0.         -0.          0.         -0.          0.
  -0.          0.        ]
 [ 0.         -0.         -0.         -0.         -0.          0.         -0.          0.          0.         -0.          0.          0.          0.
   0.          0.          0.          0.         -0.         -0.          0.         -0.         -0.         -0.          0.         -0.          0.
  -0.          0.        ]
 [ 0.         -0.         -0.         -0.         -0.          0.         -0.          0.          0.         -0.          0.          0.          0.
   0.          0.          0.          0.         -0.         -0.          0.         -0.         -0.         -0.          0.         -0.          0.
  -0.          0.        ]
 [ 0.         -0.         -0.         -0.         -0.          0.         -0.          0.          0.         -0.          0.          0.          0.
   0.          0.          0.          0.         -0.         -0.          0.         -0.         -0.         -0.          0.         -0.          0.
  -0.          0.        ]
 [-0.00628284  0.00445868  0.00099367  0.          0.         -0.          0.         -0.00093941 -0.00005453  0.         -0.         -0.         -0.
  -0.         -0.         -0.         -0.          0.00006184  0.00018931 -0.0006387   0.00009968  0.          0.         -0.          0.         -0.00035582
   0.00015178 -0.00003621]
 [-0.01923459  0.01365003  0.00304207  0.          0.         -0.          0.         -0.00287596 -0.00016695  0.         -0.         -0.         -0.
  -0.         -0.         -0.         -0.          0.00018931  0.00057955 -0.00195535  0.00030516  0.          0.         -0.          0.         -0.00108933
   0.00046466 -0.00011085]
 [ 0.06489584 -0.04605402 -0.0102637  -0.         -0.          0.         -0.          0.00970323  0.00056329 -0.          0.          0.          0.
   0.          0.          0.          0.         -0.0006387  -0.00195535  0.00659717 -0.00102957 -0.         -0.          0.         -0.          0.00367529
  -0.00156773  0.00037398]
 [-0.01012781  0.0071873   0.00160178  0.          0.         -0.          0.         -0.00151431 -0.00008791  0.         -0.         -0.         -0.
  -0.         -0.         -0.         -0.          0.00009968  0.00030516 -0.00102957  0.00016068  0.          0.         -0.          0.         -0.00057358
   0.00024466 -0.00005836]
 [-0.          0.          0.          0.          0.         -0.          0.         -0.         -0.          0.         -0.         -0.         -0.
  -0.         -0.         -0.         -0.          0.          0.         -0.          0.          0.          0.         -0.          0.         -0.
   0.         -0.        ]
 [-0.          0.          0.          0.          0.         -0.          0.         -0.         -0.          0.         -0.         -0.         -0.
  -0.         -0.         -0.         -0.          0.          0.         -0.          0.          0.          0.         -0.          0.         -0.
   0.         -0.        ]
 [ 0.         -0.         -0.         -0.         -0.          0.         -0.          0.          0.         -0.          0.          0.          0.
   0.          0.          0.          0.         -0.         -0.          0.         -0.         -0.         -0.          0.         -0.          0.
  -0.          0.        ]
 [-0.          0.          0.          0.          0.         -0.          0.         -0.         -0.          0.         -0.         -0.         -0.
  -0.         -0.         -0.         -0.          0.          0.         -0.          0.          0.          0.         -0.          0.         -0.
   0.         -0.        ]
 [ 0.03615354 -0.02565674 -0.00571792 -0.         -0.          0.         -0.          0.00540568  0.00031381 -0.          0.          0.          0.
   0.          0.          0.          0.         -0.00035582 -0.00108933  0.00367529 -0.00057358 -0.         -0.          0.         -0.          0.00204751
  -0.00087339  0.00020835]
 [-0.01542167  0.01094415  0.00243904  0.          0.         -0.          0.         -0.00230585 -0.00013386  0.         -0.         -0.         -0.
  -0.         -0.         -0.         -0.          0.00015178  0.00046466 -0.00156773  0.00024466  0.          0.         -0.          0.         -0.00087339
   0.00037255 -0.00008887]
 [ 0.00367883 -0.00261072 -0.00058183 -0.         -0.          0.         -0.          0.00055006  0.00003193 -0.          0.          0.          0.
   0.          0.          0.          0.         -0.00003621 -0.00011085  0.00037398 -0.00005836 -0.         -0.          0.         -0.          0.00020835
  -0.00008887  0.0000212 ]] 
 [[ 0.63837468  0.45302937 -0.10096309  0.          0.          0.         -0.         -0.09544979  0.00554102  0.         -0.         -0.         -0.
  -0.         -0.         -0.         -0.          0.00628284 -0.01923459 -0.06489584 -0.01012781 -0.         -0.         -0.          0.         -0.03615354
  -0.01542167 -0.00367883]
 [ 0.45302937  0.3214971  -0.07164953  0.          0.          0.         -0.         -0.06773696  0.00393224  0.         -0.         -0.         -0.
  -0.         -0.         -0.         -0.          0.00445868 -0.01365003 -0.04605402 -0.0071873  -0.         -0.         -0.          0.         -0.02565674
  -0.01094415 -0.00261072]
 [-0.10096309 -0.07164953  0.01596797 -0.         -0.         -0.          0.          0.015096   -0.00087635 -0.          0.          0.          0.
   0.          0.          0.          0.         -0.00099367  0.00304207  0.0102637   0.00160178  0.          0.          0.         -0.          0.00571792
   0.00243904  0.00058183]
 [ 0.          0.         -0.          0.          0.          0.         -0.         -0.          0.          0.         -0.         -0.         -0.
  -0.         -0.         -0.         -0.          0.         -0.         -0.         -0.         -0.         -0.         -0.          0.         -0.
  -0.         -0.        ]
 [ 0.          0.         -0.          0.          0.          0.         -0.         -0.          0.          0.         -0.         -0.         -0.
  -0.         -0.         -0.         -0.          0.         -0.         -0.         -0.         -0.         -0.         -0.          0.         -0.
  -0.         -0.        ]
 [ 0.          0.         -0.          0.          0.          0.         -0.         -0.          0.          0.         -0.         -0.         -0.
  -0.         -0.         -0.         -0.          0.         -0.         -0.         -0.         -0.         -0.         -0.          0.         -0.
  -0.         -0.        ]
 [-0.         -0.          0.         -0.         -0.         -0.          0.          0.         -0.         -0.          0.          0.          0.
   0.          0.          0.          0.         -0.          0.          0.          0.          0.          0.          0.         -0.          0.
   0.          0.        ]
 [-0.09544979 -0.06773696  0.015096   -0.         -0.         -0.          0.          0.01427166 -0.00082849 -0.          0.          0.          0.
   0.          0.          0.          0.         -0.00093941  0.00287596  0.00970323  0.00151431  0.          0.          0.         -0.          0.00540568
   0.00230585  0.00055006]
 [ 0.00554102  0.00393224 -0.00087635  0.          0.          0.         -0.         -0.00082849  0.0000481   0.         -0.         -0.         -0.
  -0.         -0.         -0.         -0.          0.00005453 -0.00016695 -0.00056329 -0.00008791 -0.         -0.         -0.          0.         -0.00031381
  -0.00013386 -0.00003193]
 [ 0.          0.         -0.          0.          0.          0.         -0.         -0.          0.          0.         -0.         -0.         -0.
  -0.         -0.         -0.         -0.          0.         -0.         -0.         -0.         -0.         -0.         -0.          0.         -0.
  -0.         -0.        ]
 [-0.         -0.          0.         -0.         -0.         -0.          0.          0.         -0.         -0.          0.          0.          0.
   0.          0.          0.          0.         -0.          0.          0.          0.          0.          0.          0.         -0.          0.
   0.          0.        ]
 [-0.         -0.          0.         -0.         -0.         -0.          0.          0.         -0.         -0.          0.          0.          0.
   0.          0.          0.          0.         -0.          0.          0.          0.          0.          0.          0.         -0.          0.
   0.          0.        ]
 [-0.         -0.          0.         -0.         -0.         -0.          0.          0.         -0.         -0.          0.          0.          0.
   0.          0.          0.          0.         -0.          0.          0.          0.          0.          0.          0.         -0.          0.
   0.          0.        ]
 [-0.         -0.          0.         -0.         -0.         -0.          0.          0.         -0.         -0.          0.          0.          0.
   0.          0.          0.          0.         -0.          0.          0.          0.          0.          0.          0.         -0.          0.
   0.          0.        ]
 [-0.         -0.          0.         -0.         -0.         -0.          0.          0.         -0.         -0.          0.          0.          0.
   0.          0.          0.          0.         -0.          0.          0.          0.          0.          0.          0.         -0.          0.
   0.          0.        ]
 [-0.         -0.          0.         -0.         -0.         -0.          0.          0.         -0.         -0.          0.          0.          0.
   0.          0.          0.          0.         -0.          0.          0.          0.          0.          0.          0.         -0.          0.
   0.          0.        ]
 [-0.         -0.          0.         -0.         -0.         -0.          0.          0.         -0.         -0.          0.          0.          0.
   0.          0.          0.          0.         -0.          0.          0.          0.          0.          0.          0.         -0.          0.
   0.          0.        ]
 [ 0.00628284  0.00445868 -0.00099367  0.          0.          0.         -0.         -0.00093941  0.00005453  0.         -0.         -0.         -0.
  -0.         -0.         -0.         -0.          0.00006184 -0.00018931 -0.0006387  -0.00009968 -0.         -0.         -0.          0.         -0.00035582
  -0.00015178 -0.00003621]
 [-0.01923459 -0.01365003  0.00304207 -0.         -0.         -0.          0.          0.00287596 -0.00016695 -0.          0.          0.          0.
   0.          0.          0.          0.         -0.00018931  0.00057955  0.00195535  0.00030516  0.          0.          0.         -0.          0.00108933
   0.00046466  0.00011085]
 [-0.06489584 -0.04605402  0.0102637  -0.         -0.         -0.          0.          0.00970323 -0.00056329 -0.          0.          0.          0.
   0.          0.          0.          0.         -0.0006387   0.00195535  0.00659717  0.00102957  0.          0.          0.         -0.          0.00367529
   0.00156773  0.00037398]
 [-0.01012781 -0.0071873   0.00160178 -0.         -0.         -0.          0.          0.00151431 -0.00008791 -0.          0.          0.          0.
   0.          0.          0.          0.         -0.00009968  0.00030516  0.00102957  0.00016068  0.          0.          0.         -0.          0.00057358
   0.00024466  0.00005836]
 [-0.         -0.          0.         -0.         -0.         -0.          0.          0.         -0.         -0.          0.          0.          0.
   0.          0.          0.          0.         -0.          0.          0.          0.          0.          0.          0.         -0.          0.
   0.          0.        ]
 [-0.         -0.          0.         -0.         -0.         -0.          0.          0.         -0.         -0.          0.          0.          0.
   0.          0.          0.          0.         -0.          0.          0.          0.          0.          0.          0.         -0.          0.
   0.          0.        ]
 [-0.         -0.          0.         -0.         -0.         -0.          0.          0.         -0.         -0.          0.          0.          0.
   0.          0.          0.          0.         -0.          0.          0.          0.          0.          0.          0.         -0.          0.
   0.          0.        ]
 [ 0.          0.         -0.          0.          0.          0.         -0.         -0.          0.          0.         -0.         -0.         -0.
  -0.         -0.         -0.         -0.          0.         -0.         -0.         -0.         -0.         -0.         -0.          0.         -0.
  -0.         -0.        ]
 [-0.03615354 -0.02565674  0.00571792 -0.         -0.         -0.          0.          0.00540568 -0.00031381 -0.          0.          0.          0.
   0.          0.          0.          0.         -0.00035582  0.00108933  0.00367529  0.00057358  0.          0.          0.         -0.          0.00204751
   0.00087339  0.00020835]
 [-0.01542167 -0.01094415  0.00243904 -0.         -0.         -0.          0.          0.00230585 -0.00013386 -0.          0.          0.          0.
   0.          0.          0.          0.         -0.00015178  0.00046466  0.00156773  0.00024466  0.          0.          0.         -0.          0.00087339
   0.00037255  0.00008887]
 [-0.00367883 -0.00261072  0.00058183 -0.         -0.         -0.          0.          0.00055006 -0.00003193 -0.          0.          0.          0.
[...]
Feff (mod,ortho)
[[-0.22817589  0.29099471  0.22196937 ...  0.          0.          0.        ]
 [ 0.29099471  0.04904642 -0.08668506 ...  0.          0.          0.        ]
 [ 0.22196937 -0.08668506  1.288036   ...  0.          0.          0.        ]
 ...
 [ 0.          0.          0.         ...  3.23011518 -0.01120018  0.14083337]
 [ 0.          0.          0.         ... -0.01120018  1.78528833 -0.01794118]
 [ 0.          0.          0.         ...  0.14083337 -0.01794118  1.56029533]]
E(SUHF) =     -1.01334982
e_a, e_b
[-0.49859463  0.06645621  0.36571808  0.49699695  0.66537971  0.71395616  0.71395616  0.86238665  0.86238665  1.12694424  2.45210313  2.6375701   3.36916135
  3.41527332  3.41527332  3.43018812  3.43018812  3.4857531   3.4857531   3.49367027  3.49367027  3.54480493  3.83770183  3.83770183  3.89744661  3.96287719
  3.96287719  4.31509319] [-0.49859463  0.06645621  0.36571808  0.49699695  0.66537971  0.71395616  0.71395616  0.86238665  0.86238665  1.12694424  2.45210313  2.6375701   3.36916135
  3.41527332  3.41527332  3.43018812  3.43018812  3.4857531   3.4857531   3.49367027  3.49367027  3.54480493  3.83770183  3.83770183  3.89744661  3.96287719
  3.96287719  4.31509319]
P_a, P_b
[[ 0.61434808 -0.45848626 -0.10376192 -0.         -0.          0.         -0.          0.10152546  0.00598595 -0.          0.          0.          0.
   0.          0.          0.          0.         -0.00714838 -0.00705622  0.05957814 -0.01091591  0.          0.         -0.         -0.          0.03719238
  -0.01964351  0.00814493]
 [-0.45848626  0.34216701  0.07743723  0.          0.         -0.          0.         -0.07576817 -0.0044673   0.         -0.         -0.         -0.
  -0.         -0.         -0.         -0.          0.00533482  0.00526604 -0.044463    0.00814651 -0.         -0.          0.          0.         -0.02775657
   0.0146599  -0.00607854]
 [-0.10376192  0.07743723  0.01752514  0.          0.         -0.          0.         -0.01714741 -0.00101101  0.         -0.         -0.         -0.
  -0.         -0.         -0.         -0.          0.00120734  0.00119178 -0.01006261  0.00184367 -0.         -0.          0.          0.         -0.0062817
   0.00331774 -0.00137566]
 [-0.          0.          0.          0.          0.         -0.          0.         -0.         -0.          0.         -0.         -0.         -0.
  -0.         -0.         -0.         -0.          0.          0.         -0.          0.         -0.         -0.          0.          0.         -0.
   0.         -0.        ]
 [-0.          0.          0.          0.          0.         -0.          0.         -0.         -0.          0.         -0.         -0.         -0.
  -0.         -0.         -0.         -0.          0.          0.         -0.          0.         -0.         -0.          0.          0.         -0.
   0.         -0.        ]
 [ 0.         -0.         -0.         -0.         -0.          0.         -0.          0.          0.         -0.          0.          0.          0.
   0.          0.          0.          0.         -0.         -0.          0.         -0.          0.          0.         -0.         -0.          0.
  -0.          0.        ]
 [-0.          0.          0.          0.          0.         -0.          0.         -0.         -0.          0.         -0.         -0.         -0.
  -0.         -0.         -0.         -0.          0.          0.         -0.          0.         -0.         -0.          0.          0.         -0.
   0.         -0.        ]
 [ 0.10152546 -0.07576817 -0.01714741 -0.         -0.          0.         -0.          0.01677782  0.00098922 -0.          0.          0.          0.
   0.          0.          0.          0.         -0.00118132 -0.00116609  0.00984572 -0.00180393  0.          0.         -0.         -0.          0.00614631
  -0.00324623  0.00134601]
 [ 0.00598595 -0.0044673  -0.00101101 -0.         -0.          0.         -0.          0.00098922  0.00005832 -0.          0.          0.          0.
   0.          0.          0.          0.         -0.00006965 -0.00006875  0.0005805  -0.00010636  0.          0.         -0.         -0.          0.00036239
  -0.0001914   0.00007936]
 [-0.          0.          0.          0.          0.         -0.          0.         -0.         -0.          0.         -0.         -0.         -0.
  -0.         -0.         -0.         -0.          0.          0.         -0.          0.         -0.         -0.          0.          0.         -0.
   0.         -0.        ]
 [ 0.         -0.         -0.         -0.         -0.          0.         -0.          0.          0.         -0.          0.          0.          0.
   0.          0.          0.          0.         -0.         -0.          0.         -0.          0.          0.         -0.         -0.          0.
  -0.          0.        ]
 [ 0.         -0.         -0.         -0.         -0.          0.         -0.          0.          0.         -0.          0.          0.          0.
   0.          0.          0.          0.         -0.         -0.          0.         -0.          0.          0.         -0.         -0.          0.
  -0.          0.        ]
 [ 0.         -0.         -0.         -0.         -0.          0.         -0.          0.          0.         -0.          0.          0.          0.
   0.          0.          0.          0.         -0.         -0.          0.         -0.          0.          0.         -0.         -0.          0.
  -0.          0.        ]
 [ 0.         -0.         -0.         -0.         -0.          0.         -0.          0.          0.         -0.          0.          0.          0.
   0.          0.          0.          0.         -0.         -0.          0.         -0.          0.          0.         -0.         -0.          0.
  -0.          0.        ]
 [ 0.         -0.         -0.         -0.         -0.          0.         -0.          0.          0.         -0.          0.          0.          0.
   0.          0.          0.          0.         -0.         -0.          0.         -0.          0.          0.         -0.         -0.          0.
  -0.          0.        ]
 [ 0.         -0.         -0.         -0.         -0.          0.         -0.          0.          0.         -0.          0.          0.          0.
   0.          0.          0.          0.         -0.         -0.          0.         -0.          0.          0.         -0.         -0.          0.
  -0.          0.        ]
 [ 0.         -0.         -0.         -0.         -0.          0.         -0.          0.          0.         -0.          0.          0.          0.
   0.          0.          0.          0.         -0.         -0.          0.         -0.          0.          0.         -0.         -0.          0.
  -0.          0.        ]
 [-0.00714838  0.00533482  0.00120734  0.          0.         -0.          0.         -0.00118132 -0.00006965  0.         -0.         -0.         -0.
  -0.         -0.         -0.         -0.          0.00008318  0.0000821  -0.00069323  0.00012701 -0.         -0.          0.          0.         -0.00043276
   0.00022857 -0.00009477]
 [-0.00705622  0.00526604  0.00119178  0.          0.         -0.          0.         -0.00116609 -0.00006875  0.         -0.         -0.         -0.
  -0.         -0.         -0.         -0.          0.0000821   0.00008105 -0.0006843   0.00012538 -0.         -0.          0.          0.         -0.00042718
   0.00022562 -0.00009355]
 [ 0.05957814 -0.044463   -0.01006261 -0.         -0.          0.         -0.          0.00984572  0.0005805  -0.          0.          0.          0.
   0.          0.          0.          0.         -0.00069323 -0.0006843   0.00577776 -0.0010586   0.          0.         -0.         -0.          0.00360684
  -0.00190499  0.00078988]
 [-0.01091591  0.00814651  0.00184367  0.          0.         -0.          0.         -0.00180393 -0.00010636  0.         -0.         -0.         -0.
  -0.         -0.         -0.         -0.          0.00012701  0.00012538 -0.0010586   0.00019396 -0.         -0.          0.          0.         -0.00066084
   0.00034903 -0.00014472]
 [ 0.         -0.         -0.         -0.         -0.          0.         -0.          0.          0.         -0.          0.          0.          0.
   0.          0.          0.          0.         -0.         -0.          0.         -0.          0.          0.         -0.         -0.          0.
  -0.          0.        ]
 [ 0.         -0.         -0.         -0.         -0.          0.         -0.          0.          0.         -0.          0.          0.          0.
   0.          0.          0.          0.         -0.         -0.          0.         -0.          0.          0.         -0.         -0.          0.
  -0.          0.        ]
 [-0.          0.          0.          0.          0.         -0.          0.         -0.         -0.          0.         -0.         -0.         -0.
  -0.         -0.         -0.         -0.          0.          0.         -0.          0.         -0.         -0.          0.          0.         -0.
   0.         -0.        ]
 [-0.          0.          0.          0.          0.         -0.          0.         -0.         -0.          0.         -0.         -0.         -0.
  -0.         -0.         -0.         -0.          0.          0.         -0.          0.         -0.         -0.          0.          0.         -0.
   0.         -0.        ]
 [ 0.03719238 -0.02775657 -0.0062817  -0.         -0.          0.         -0.          0.00614631  0.00036239 -0.          0.          0.          0.
   0.          0.          0.          0.         -0.00043276 -0.00042718  0.00360684 -0.00066084  0.          0.         -0.         -0.          0.00225161
  -0.00118921  0.00049309]
 [-0.01964351  0.0146599   0.00331774  0.          0.         -0.          0.         -0.00324623 -0.0001914   0.         -0.         -0.         -0.
  -0.         -0.         -0.         -0.          0.00022857  0.00022562 -0.00190499  0.00034903 -0.         -0.          0.          0.         -0.00118921
   0.00062809 -0.00026043]
 [ 0.00814493 -0.00607854 -0.00137566 -0.         -0.          0.         -0.          0.00134601  0.00007936 -0.          0.          0.          0.
   0.          0.          0.          0.         -0.00009477 -0.00009355  0.00078988 -0.00014472  0.          0.         -0.         -0.          0.00049309
  -0.00026043  0.00010798]] 
 [[ 0.61434808  0.45848626 -0.10376192  0.          0.          0.         -0.         -0.10152546  0.00598595  0.         -0.         -0.         -0.
  -0.         -0.         -0.         -0.          0.00714838 -0.00705622 -0.05957814 -0.01091591 -0.         -0.         -0.          0.         -0.03719238
  -0.01964351 -0.00814493]
 [ 0.45848626  0.34216701 -0.07743723  0.          0.          0.         -0.         -0.07576817  0.0044673   0.         -0.         -0.         -0.
  -0.         -0.         -0.         -0.          0.00533482 -0.00526604 -0.044463   -0.00814651 -0.         -0.         -0.          0.         -0.02775657
  -0.0146599  -0.00607854]
 [-0.10376192 -0.07743723  0.01752514 -0.         -0.         -0.          0.          0.01714741 -0.00101101 -0.          0.          0.          0.
   0.          0.          0.          0.         -0.00120734  0.00119178  0.01006261  0.00184367  0.          0.          0.         -0.          0.0062817
   0.00331774  0.00137566]
 [ 0.          0.         -0.          0.          0.          0.         -0.         -0.          0.          0.         -0.         -0.         -0.
  -0.         -0.         -0.         -0.          0.         -0.         -0.         -0.         -0.         -0.         -0.          0.         -0.
  -0.         -0.        ]
 [ 0.          0.         -0.          0.          0.          0.         -0.         -0.          0.          0.         -0.         -0.         -0.
  -0.         -0.         -0.         -0.          0.         -0.         -0.         -0.         -0.         -0.         -0.          0.         -0.
  -0.         -0.        ]
 [ 0.          0.         -0.          0.          0.          0.         -0.         -0.          0.          0.         -0.         -0.         -0.
  -0.         -0.         -0.         -0.          0.         -0.         -0.         -0.         -0.         -0.         -0.          0.         -0.
  -0.         -0.        ]
 [-0.         -0.          0.         -0.         -0.         -0.          0.          0.         -0.         -0.          0.          0.          0.
   0.          0.          0.          0.         -0.          0.          0.          0.          0.          0.          0.         -0.          0.
   0.          0.        ]
 [-0.10152546 -0.07576817  0.01714741 -0.         -0.         -0.          0.          0.01677782 -0.00098922 -0.          0.          0.          0.
   0.          0.          0.          0.         -0.00118132  0.00116609  0.00984572  0.00180393  0.          0.          0.         -0.          0.00614631
   0.00324623  0.00134601]
 [ 0.00598595  0.0044673  -0.00101101  0.          0.          0.         -0.         -0.00098922  0.00005832  0.         -0.         -0.         -0.
  -0.         -0.         -0.         -0.          0.00006965 -0.00006875 -0.0005805  -0.00010636 -0.         -0.         -0.          0.         -0.00036239
  -0.0001914  -0.00007936]
 [ 0.          0.         -0.          0.          0.          0.         -0.         -0.          0.          0.         -0.         -0.         -0.
  -0.         -0.         -0.         -0.          0.         -0.         -0.         -0.         -0.         -0.         -0.          0.         -0.
  -0.         -0.        ]
 [-0.         -0.          0.         -0.         -0.         -0.          0.          0.         -0.         -0.          0.          0.          0.
   0.          0.          0.          0.         -0.          0.          0.          0.          0.          0.          0.         -0.          0.
   0.          0.        ]
 [-0.         -0.          0.         -0.         -0.         -0.          0.          0.         -0.         -0.          0.          0.          0.
   0.          0.          0.          0.         -0.          0.          0.          0.          0.          0.          0.         -0.          0.
   0.          0.        ]
 [-0.         -0.          0.         -0.         -0.         -0.          0.          0.         -0.         -0.          0.          0.          0.
   0.          0.          0.          0.         -0.          0.          0.          0.          0.          0.          0.         -0.          0.
   0.          0.        ]
 [-0.         -0.          0.         -0.         -0.         -0.          0.          0.         -0.         -0.          0.          0.          0.
   0.          0.          0.          0.         -0.          0.          0.          0.          0.          0.          0.         -0.          0.
   0.          0.        ]
 [-0.         -0.          0.         -0.         -0.         -0.          0.          0.         -0.         -0.          0.          0.          0.
   0.          0.          0.          0.         -0.          0.          0.          0.          0.          0.          0.         -0.          0.
   0.          0.        ]
 [-0.         -0.          0.         -0.         -0.         -0.          0.          0.         -0.         -0.          0.          0.          0.
   0.          0.          0.          0.         -0.          0.          0.          0.          0.          0.          0.         -0.          0.
   0.          0.        ]
 [-0.         -0.          0.         -0.         -0.         -0.          0.          0.         -0.         -0.          0.          0.          0.
   0.          0.          0.          0.         -0.          0.          0.          0.          0.          0.          0.         -0.          0.
   0.          0.        ]
 [ 0.00714838  0.00533482 -0.00120734  0.          0.          0.         -0.         -0.00118132  0.00006965  0.         -0.         -0.         -0.
  -0.         -0.         -0.         -0.          0.00008318 -0.0000821  -0.00069323 -0.00012701 -0.         -0.         -0.          0.         -0.00043276
  -0.00022857 -0.00009477]
 [-0.00705622 -0.00526604  0.00119178 -0.         -0.         -0.          0.          0.00116609 -0.00006875 -0.          0.          0.          0.
   0.          0.          0.          0.         -0.0000821   0.00008105  0.0006843   0.00012538  0.          0.          0.         -0.          0.00042718
   0.00022562  0.00009355]
 [-0.05957814 -0.044463    0.01006261 -0.         -0.         -0.          0.          0.00984572 -0.0005805  -0.          0.          0.          0.
   0.          0.          0.          0.         -0.00069323  0.0006843   0.00577776  0.0010586   0.          0.          0.         -0.          0.00360684
   0.00190499  0.00078988]
 [-0.01091591 -0.00814651  0.00184367 -0.         -0.         -0.          0.          0.00180393 -0.00010636 -0.          0.          0.          0.
   0.          0.          0.          0.         -0.00012701  0.00012538  0.0010586   0.00019396  0.          0.          0.         -0.          0.00066084
   0.00034903  0.00014472]
 [-0.         -0.          0.         -0.         -0.         -0.          0.          0.         -0.         -0.          0.          0.          0.
   0.          0.          0.          0.         -0.          0.          0.          0.          0.          0.          0.         -0.          0.
   0.          0.        ]
 [-0.         -0.          0.         -0.         -0.         -0.          0.          0.         -0.         -0.          0.          0.          0.
   0.          0.          0.          0.         -0.          0.          0.          0.          0.          0.          0.         -0.          0.
   0.          0.        ]
 [-0.         -0.          0.         -0.         -0.         -0.          0.          0.         -0.         -0.          0.          0.          0.
   0.          0.          0.          0.         -0.          0.          0.          0.          0.          0.          0.         -0.          0.
   0.          0.        ]
 [ 0.          0.         -0.          0.          0.          0.         -0.         -0.          0.          0.         -0.         -0.         -0.
  -0.         -0.         -0.         -0.          0.         -0.         -0.         -0.         -0.         -0.         -0.          0.         -0.
  -0.         -0.        ]
 [-0.03719238 -0.02775657  0.0062817  -0.         -0.         -0.          0.          0.00614631 -0.00036239 -0.          0.          0.          0.
   0.          0.          0.          0.         -0.00043276  0.00042718  0.00360684  0.00066084  0.          0.          0.         -0.          0.00225161
   0.00118921  0.00049309]
 [-0.01964351 -0.0146599   0.00331774 -0.         -0.         -0.          0.          0.00324623 -0.0001914  -0.          0.          0.          0.
   0.          0.          0.          0.         -0.00022857  0.00022562  0.00190499  0.00034903  0.          0.          0.         -0.          0.00118921
   0.00062809  0.00026043]
 [-0.00814493 -0.00607854  0.00137566 -0.         -0.         -0.          0.          0.00134601 -0.00007936 -0.          0.          0.          0.
   0.          0.          0.          0.         -0.00009477  0.00009355  0.00078988  0.00014472  0.          0.          0.         -0.          0.00049309
   0.00026043  0.00010798]]

***************
SUHF converged at cycle 9
Final E(SUHF) =     -1.01334982, delta E = -5.322e-09
***** Start DFT Correlation for SUHF+DFT **********
tot grids = 20048
E(SUHF) =     -1.01334982
E_c(TPSS) =     -0.00395131
E(SUHF+DFT) =     -1.01730113
