

#INFO: **** input file is /share/home/srwang/ExSCF/test/pytest/scan_h2/scan_dft.py ****
#import phf
from pyscf import lib
#import scipy
import numpy as np
import sys, os, contextlib

from pyphf import util, sudft

#xyz = 'h2.xyz' #sys.argv[1]
fch = 'test_uhf.fchk' #sys.argv[2]
#bas = '../h2.bas'
bas = 'cc-pvtz'

lib.num_threads(4)

for r in np.arange(0.5, 2.55, 0.1):
    output = 'tpss_mod/sudft_%.1f_diis_mod.out' % r
    os.system("echo '\n' > %s" % output)
    with open(output, 'a', encoding='utf-8') as f:
        with contextlib.redirect_stdout(f):
            xyz = '''H 0.0 0.0 0.0; H 0.0 0.0 %f'''%r
            mf = util.guess_from_fchk(xyz, bas, fch)
            #mf = util.guess(xyz, bas)
            #f.flush()
            mf2 = util.SUHF(mf)
            #mf2.cut_no = False
            mf2.debug = False
            #mf2.max_cycle = 50
            mf2.diis_on = True
            #mf2.output = 'sudft_%.1f.out'%r
            #mf2.kernel()
            
            mf3 = sudft.SUDFT(mf2)
            mf3.suxc = 'TPSS'
            mf3.kernel()
                    
#INFO: ******************** input file end ********************


System: uname_result(system='Linux', node='xc02n18', release='3.10.0-693.el7.x86_64', version='#1 SMP Thu Jul 6 19:56:57 EDT 2017', machine='x86_64', processor='x86_64')  Threads 4
Python 3.7.4 (default, Aug 13 2019, 20:35:49) 
[GCC 7.3.0]
numpy 1.17.2  scipy 1.4.1
Date: Tue Nov 24 03:45:04 2020
PySCF version 1.7.5
PySCF path  /share/home/srwang/pyscf-1.7.5/pyscf

[CONFIG] conf_file None
[INPUT] verbose = 4
[INPUT] num. atoms = 2
[INPUT] num. electrons = 2
[INPUT] charge = 0
[INPUT] spin (= nelec alpha-beta = 2S) = 0
[INPUT] symmetry False subgroup None
[INPUT] Mole.unit = angstrom
[INPUT]  1 H      0.000000000000   0.000000000000   0.000000000000 AA    0.000000000000   0.000000000000   0.000000000000 Bohr
[INPUT]  2 H      0.000000000000   0.000000000000   2.000000000000 AA    0.000000000000   0.000000000000   3.779452249130 Bohr

nuclear repulsion = 0.26458860546
number of shells = 12
number of NR pGTOs = 32
number of NR cGTOs = 28
basis = cc-pvtz
ecp = {}
CPU time:       339.43


******** <class 'pyscf.scf.uhf.UHF'> ********
method = UHF
initial guess = minao
damping factor = 0
level_shift factor = 0
DIIS = <class 'pyscf.scf.diis.CDIIS'>
diis_start_cycle = 1
diis_space = 8
SCF conv_tol = 1e-09
SCF conv_tol_grad = None
SCF max_cycles = 1
direct_scf = True
direct_scf_tol = 1e-13
chkfile to save SCF result = /share/home/srwang/ExSCF/test/pytest/scan_h2/tmpn0x9baxc
max_memory 4000 MB (current use 117 MB)
number electrons alpha = 1  beta = 1
Set gradient conv threshold to 3.16228e-05
init E= -0.653398255934233
  alpha nocc = 1  HOMO = -0.255236700787302  LUMO = -0.101882778534492
  beta  nocc = 1  HOMO = -0.253756675067738  LUMO = -0.101501802249921
cycle= 1 E= -0.923861886515736  delta_E= -0.27  |g|= 0.0343  |ddm|= 0.424
SCF not converged.
SCF energy = -0.923861886515736 after 1 cycles  <S^2> = 2.4434253e-07  2S+1 = 1.0000005


******** <class 'pyscf.scf.uhf.UHF'> ********
method = UHF
initial guess = minao
damping factor = 0
level_shift factor = 0
DIIS = <class 'pyscf.scf.diis.CDIIS'>
diis_start_cycle = 1
diis_space = 8
SCF conv_tol = 1e-09
SCF conv_tol_grad = None
SCF max_cycles = 1
direct_scf = True
direct_scf_tol = 1e-13
chkfile to save SCF result = /share/home/srwang/ExSCF/test/pytest/scan_h2/tmpn0x9baxc
max_memory 4000 MB (current use 120 MB)
number electrons alpha = 1  beta = 1
Set gradient conv threshold to 3.16228e-05
init E= -0.899528750533982
  alpha nocc = 1  HOMO = -0.490301616198471  LUMO = -0.0172398103707794
  beta  nocc = 1  HOMO = -0.490301616198471  LUMO = -0.0172398103707799
cycle= 1 E= -0.996436369405893  delta_E= -0.0969  |g|= 0.0463  |ddm|= 0.0974
SCF not converged.
SCF energy = -0.996436369405893 after 1 cycles  <S^2> = 0.73441737  2S+1 = 1.9843562

******** <class 'pyphf.util.SUHF'> ********
max_cycle = 70
verbose: normal
DIIS: <class 'pyscf.scf.diis.CDIIS'>
diis_start_cyc = 40
SVD: S^(-1/2)
[[-0.17170134  0.29459894  0.09144968  0.          0.          0.         -0.          0.16691485 -0.02588288  0.          0.          0.          0.
   0.         -0.          0.          0.          0.06257547 -0.67057333 -0.63904788 -0.06298218 -0.         -0.         -0.         -0.          0.45597338
  -0.83881731  0.72930872]
 [-0.24882074  0.31893014  0.08020399  0.         -0.         -0.          0.          0.11257545  0.0011357  -0.         -0.         -0.         -0.
   0.          0.          0.         -0.          0.00709992 -0.04886652  0.22135712  0.00229648 -0.          0.         -0.          0.         -0.45035918
   1.67016411 -1.6206081 ]
 [-0.27314413  0.20022941  0.06284648 -0.          0.          0.          0.          0.01041502 -0.00677852 -0.         -0.         -0.          0.
  -0.         -0.         -0.          0.         -0.01664224  0.48388517  0.5874212   0.12906879  0.         -0.          0.         -0.         -0.3410198
  -0.98344571  1.66141258]
 [ 0.          0.         -0.          0.35572652 -0.12891517  0.34732128 -0.21380643  0.          0.         -0.01052333  0.02825621 -0.         -0.
  -0.          0.         -0.02705686 -0.01580464  0.          0.         -0.          0.         -0.02516046  0.80194356 -0.01623514  0.81026641 -0.
  -0.          0.        ]
 [ 0.          0.         -0.         -0.12891517 -0.35572652  0.21380643  0.34732128  0.         -0.         -0.02825621 -0.01052333  0.         -0.
  -0.         -0.          0.01580464 -0.02705686  0.          0.          0.         -0.         -0.80194356 -0.02516046 -0.81026641 -0.01623514  0.
   0.          0.        ]
 [-0.04709673 -0.0982759  -0.32865266 -0.          0.          0.          0.          0.44519842 -0.08923065  0.         -0.          0.          0.
  -0.         -0.         -0.          0.          0.12058933 -0.11553191  0.37673022  0.80566489 -0.         -0.         -0.         -0.          0.74624231
   0.04967082 -0.15104716]
 [-0.         -0.         -0.          0.37436475 -0.13566965  0.33021973 -0.20327895 -0.         -0.         -0.00043071  0.0011565  -0.         -0.
  -0.          0.         -0.00045488 -0.00026571  0.         -0.          0.         -0.          0.0239518  -0.76341949  0.01710921 -0.85388971  0.
   0.         -0.        ]
 [ 0.          0.         -0.         -0.13566965 -0.37436475  0.20327895  0.33021973 -0.         -0.         -0.0011565  -0.00043071  0.          0.
   0.         -0.          0.00026571 -0.00045488 -0.          0.         -0.          0.          0.76341949  0.0239518   0.85388971  0.01710921 -0.
  -0.         -0.        ]
 [-0.09415597 -0.13360406 -0.3890778   0.          0.         -0.         -0.          0.33020259 -0.00998358 -0.          0.         -0.         -0.
   0.          0.          0.         -0.          0.00083798  0.01203565 -0.27770434 -0.68457372  0.          0.          0.         -0.         -1.11986942
  -0.04936078  0.33963309]
 [ 0.          0.          0.          0.          0.          0.         -0.          0.          0.         -0.          0.          0.7069207   0.
   0.70729301 -0.         -0.          0.         -0.         -0.          0.          0.          0.         -0.         -0.         -0.          0.
  -0.          0.        ]
 [ 0.          0.         -0.         -0.00576023 -0.0158947  -0.00959934 -0.01559381  0.          0.          0.65961845  0.24565876  0.         -0.
   0.         -0.          0.35764382 -0.61227087  0.         -0.          0.         -0.         -0.03301452 -0.00103581  0.03517209  0.00070474 -0.
  -0.         -0.        ]
 [-0.01613674 -0.00766272 -0.04413107 -0.         -0.          0.          0.         -0.09221925  0.69131303  0.         -0.          0.         -0.
  -0.          0.          0.          0.          0.70520639 -0.03501985  0.00424865  0.09300798 -0.         -0.         -0.         -0.         -0.17024945
  -0.03809382  0.01623504]
 [-0.         -0.         -0.          0.0158947  -0.00576023 -0.01559381  0.00959934  0.          0.          0.24565876 -0.65961845  0.         -0.
   0.         -0.         -0.61227087 -0.35764382  0.         -0.          0.          0.         -0.00103581  0.03301452  0.00070474 -0.03517209  0.
  -0.         -0.        ]
 [ 0.          0.          0.          0.         -0.         -0.          0.          0.          0.          0.          0.         -0.          0.7069207
  -0.         -0.70729301 -0.          0.          0.          0.          0.         -0.          0.         -0.          0.         -0.         -0.
  -0.         -0.        ]
 [-0.17170134 -0.29459894  0.09144968 -0.         -0.          0.          0.         -0.16691485 -0.02588288 -0.          0.         -0.         -0.
  -0.          0.         -0.         -0.         -0.06257547 -0.67057333  0.63904788 -0.06298218  0.          0.          0.          0.         -0.45597338
  -0.83881731 -0.72930872]
 [-0.24882074 -0.31893014  0.08020399  0.         -0.          0.         -0.         -0.11257545  0.0011357   0.         -0.          0.          0.
   0.         -0.          0.          0.         -0.00709992 -0.04886652 -0.22135712  0.00229648 -0.         -0.         -0.          0.          0.45035918
   1.67016411  1.6206081 ]
 [-0.27314413 -0.20022941  0.06284648  0.          0.         -0.         -0.         -0.01041502 -0.00677852  0.          0.         -0.         -0.
   0.          0.         -0.          0.          0.01664224  0.48388517 -0.5874212   0.12906879 -0.         -0.         -0.         -0.          0.3410198
  -0.98344571 -1.66141258]
 [-0.         -0.         -0.          0.35572652 -0.12891517 -0.34732128  0.21380643  0.          0.         -0.01052333  0.02825621 -0.          0.
  -0.          0.          0.02705686  0.01580464  0.          0.         -0.          0.         -0.02516046  0.80194356  0.01623514 -0.81026641  0.
  -0.         -0.        ]
 [ 0.          0.         -0.         -0.12891517 -0.35572652 -0.21380643 -0.34732128  0.          0.         -0.02825621 -0.01052333 -0.          0.
  -0.          0.         -0.01580464  0.02705686  0.         -0.          0.         -0.         -0.80194356 -0.02516046  0.81026641  0.01623514 -0.
  -0.          0.        ]
 [ 0.04709673 -0.0982759   0.32865266 -0.         -0.          0.          0.          0.44519842  0.08923065 -0.          0.         -0.         -0.
   0.          0.          0.         -0.          0.12058933  0.11553191  0.37673022 -0.80566489  0.          0.          0.          0.          0.74624231
  -0.04967082 -0.15104716]
 [-0.         -0.         -0.          0.37436475 -0.13566965 -0.33021973  0.20327895  0.          0.         -0.00043071  0.0011565  -0.         -0.
   0.          0.          0.00045488  0.00026571  0.         -0.          0.         -0.          0.0239518  -0.76341949 -0.01710921  0.85388971 -0.
  -0.          0.        ]
 [ 0.          0.         -0.         -0.13566965 -0.37436475 -0.20327895 -0.33021973  0.          0.         -0.0011565  -0.00043071 -0.          0.
  -0.          0.         -0.00026571  0.00045488  0.          0.         -0.          0.          0.76341949  0.0239518  -0.85388971 -0.01710921  0.
  -0.          0.        ]
 [ 0.09415597 -0.13360406  0.3890778  -0.         -0.          0.          0.          0.33020259  0.00998358  0.         -0.          0.          0.
  -0.         -0.          0.          0.          0.00083798 -0.01203565 -0.27770434  0.68457372 -0.         -0.         -0.         -0.         -1.11986942
   0.04936078  0.33963309]
 [-0.         -0.         -0.          0.         -0.         -0.          0.          0.          0.          0.          0.          0.7069207   0.
  -0.70729301  0.         -0.         -0.          0.          0.          0.         -0.          0.         -0.         -0.         -0.          0.
   0.         -0.        ]
 [-0.         -0.          0.          0.00576023  0.0158947  -0.00959934 -0.01559381  0.         -0.         -0.65961845 -0.24565876 -0.         -0.
  -0.         -0.          0.35764382 -0.61227087  0.          0.         -0.          0.          0.03301452  0.00103581  0.03517209  0.00070474 -0.
   0.         -0.        ]
 [-0.01613674  0.00766272 -0.04413107  0.         -0.          0.          0.          0.09221925  0.69131303 -0.         -0.          0.          0.
  -0.         -0.          0.         -0.         -0.70520639 -0.03501985 -0.00424865  0.09300798 -0.         -0.          0.         -0.          0.17024945
  -0.03809382 -0.01623504]
 [ 0.         -0.          0.         -0.0158947   0.00576023 -0.01559381  0.00959934  0.          0.         -0.24565876  0.65961845 -0.         -0.
  -0.          0.         -0.61227087 -0.35764382  0.          0.         -0.         -0.          0.00103581 -0.03301452  0.00070474 -0.03517209  0.
   0.         -0.        ]
 [ 0.          0.          0.          0.         -0.         -0.          0.          0.          0.          0.         -0.         -0.          0.7069207
   0.          0.70729301 -0.         -0.          0.          0.          0.          0.         -0.          0.         -0.         -0.          0.
   0.          0.        ]]
C (ortho)
[[-0.85735782 -0.46872366 -0.00603197  0.15256821 -0.12519158 -0.         -0.          0.          0.          0.01683641  0.03639422  0.02037767 -0.01197371
  -0.          0.         -0.         -0.          0.         -0.         -0.         -0.          0.00277355  0.         -0.         -0.06369423 -0.
   0.          0.00424986]
 [ 0.47271466 -0.78623375 -0.06406164  0.28075982  0.0402293   0.         -0.         -0.          0.         -0.20049273 -0.01718958  0.13533122 -0.00747362
  -0.         -0.         -0.         -0.          0.         -0.          0.         -0.          0.09438816 -0.          0.          0.00319018  0.
   0.         -0.077759  ]
 [ 0.14701527  0.05228315  0.07691597  0.08657008 -0.88190615 -0.         -0.          0.          0.          0.05059477 -0.00505882 -0.00640161  0.0273383
  -0.          0.         -0.          0.         -0.         -0.         -0.         -0.          0.02160558  0.         -0.         -0.42435749 -0.
   0.          0.02375323]
 [-0.         -0.         -0.         -0.         -0.          0.81738328 -0.21003394  0.1573571  -0.1163035   0.          0.          0.          0.
   0.00002884 -0.060739   -0.          0.          0.          0.          0.01912805 -0.00983304 -0.         -0.26777899  0.39547791 -0.          0.0408939
   0.12469997 -0.        ]
 [-0.          0.         -0.         -0.          0.         -0.21003394 -0.81738328 -0.1163035  -0.1573571   0.         -0.          0.         -0.
   0.060739    0.00002884  0.          0.          0.          0.         -0.00983304 -0.01912805 -0.         -0.39547791 -0.26777899 -0.         -0.12469997
   0.0408939   0.        ]
 [ 0.         -0.         -0.         -0.         -0.          0.15887879  0.12027036 -0.8063078  -0.21707695 -0.          0.          0.          0.
   0.00622118  0.00494692  0.         -0.          0.         -0.          0.06876386  0.03109194  0.          0.03680188  0.11718842 -0.         -0.46154165
  -0.17079621 -0.        ]
 [ 0.         -0.         -0.         -0.         -0.         -0.12027036  0.15887879  0.21707695 -0.8063078  -0.         -0.         -0.         -0.
   0.00494692 -0.00622118 -0.          0.         -0.          0.         -0.03109194  0.06876386  0.          0.11718842 -0.03680188  0.         -0.17079621
   0.46154165  0.        ]
 [ 0.10591409 -0.10269912 -0.1798927   0.22997059  0.06815743  0.          0.          0.         -0.          0.79001134  0.00266044  0.03463997  0.00663803
   0.          0.         -0.         -0.          0.         -0.          0.          0.         -0.20452106  0.          0.          0.00667365 -0.
  -0.          0.4702121 ]
 [-0.00777214 -0.00584969 -0.01865747 -0.01708752  0.00416078 -0.         -0.          0.          0.         -0.00491367  0.18547583  0.06099264  0.97826049
   0.          0.         -0.         -0.          0.         -0.         -0.          0.          0.04632387  0.         -0.          0.04326909  0.
  -0.          0.00952647]
 [-0.          0.         -0.         -0.         -0.          0.00345666  0.01297558  0.00258204  0.00342966 -0.         -0.          0.         -0.
   0.97949886  0.00911774  0.         -0.          0.         -0.         -0.07984874 -0.15201098  0.          0.08488966  0.05857924 -0.          0.01275544
  -0.00405856 -0.        ]
 [ 0.          0.          0.          0.          0.         -0.01297558  0.00345666 -0.00342966  0.00258204 -0.         -0.         -0.          0.
   0.00911774 -0.97949886  0.          0.          0.         -0.          0.15201098 -0.07984874 -0.          0.05857924 -0.08488966 -0.         -0.00405856
  -0.01275544  0.        ]
 [-0.          0.          0.          0.         -0.         -0.          0.         -0.          0.         -0.         -0.          0.          0.
   0.          0.          0.00333051  0.77770975  0.62621056 -0.0549252  -0.          0.         -0.         -0.          0.          0.          0.
  -0.         -0.        ]
 [-0.         -0.         -0.          0.         -0.         -0.         -0.         -0.         -0.         -0.          0.         -0.          0.
  -0.         -0.          0.77770975 -0.00333051  0.0549252   0.62621056 -0.         -0.          0.          0.          0.         -0.         -0.
  -0.         -0.        ]
 [-0.          0.          0.          0.          0.          0.          0.          0.          0.         -0.         -0.         -0.          0.
   0.          0.          0.002692    0.62860894 -0.7747425   0.06795301  0.         -0.         -0.          0.          0.          0.          0.
   0.          0.        ]
 [-0.         -0.         -0.          0.         -0.         -0.          0.         -0.         -0.          0.          0.         -0.          0.
   0.         -0.         -0.62860894  0.002692    0.06795301  0.7747425   0.         -0.          0.          0.         -0.         -0.         -0.
  -0.         -0.        ]
 [ 0.          0.         -0.         -0.         -0.          0.00311575 -0.00143841 -0.01290423  0.01375996  0.          0.          0.         -0.
   0.03164274 -0.17245763 -0.          0.         -0.          0.         -0.77445095  0.5958887   0.         -0.03680853  0.03749344 -0.         -0.01438352
  -0.10518717 -0.        ]
 [-0.          0.          0.          0.          0.          0.00143841  0.00311575 -0.01375996 -0.01290423  0.          0.          0.          0.
  -0.17245763 -0.03164274 -0.          0.         -0.         -0.         -0.5958887  -0.77445095 -0.          0.03749344  0.03680853  0.         -0.10518717
   0.01438352 -0.        ]
 [ 0.00801962  0.003685   -0.04060092  0.04655524 -0.00038542  0.          0.         -0.         -0.         -0.07569888 -0.0469656   0.21350843  0.04463659
   0.          0.          0.         -0.          0.         -0.         -0.          0.         -0.91173111  0.         -0.         -0.06718124 -0.
   0.         -0.32376663]
 [ 0.01191408  0.1487713   0.60539219  0.46835367  0.1678664   0.         -0.         -0.         -0.         -0.00479654  0.5608612   0.1498916  -0.09011641
  -0.          0.         -0.         -0.          0.         -0.         -0.         -0.          0.00691611  0.         -0.         -0.13565173 -0.
   0.          0.00807393]
 [ 0.07647869 -0.30610644  0.44304692 -0.45507988 -0.00784749 -0.         -0.          0.          0.         -0.03473015  0.13579655 -0.56277913  0.0190265
   0.          0.          0.         -0.          0.          0.         -0.          0.         -0.27998441  0.          0.         -0.00172635 -0.
  -0.          0.28614072]
 [ 0.00909782  0.01927771  0.15720839  0.14879135 -0.39770482 -0.         -0.         -0.          0.          0.03234405  0.02884577  0.00556387 -0.03444642
   0.         -0.          0.         -0.          0.          0.          0.          0.         -0.05365621 -0.          0.          0.88695239  0.
  -0.         -0.04317254]
 [ 0.         -0.          0.          0.          0.         -0.03139079  0.48377182  0.03760365  0.11340515 -0.         -0.         -0.          0.
   0.07357382 -0.02404232 -0.          0.          0.          0.         -0.00561433 -0.03511982 -0.         -0.80179114 -0.22958508 -0.         -0.17637701
   0.12946595  0.        ]
 [ 0.         -0.         -0.          0.          0.         -0.48377182 -0.03139079 -0.11340515  0.03760365 -0.          0.         -0.          0.
  -0.02404232 -0.07357382 -0.         -0.          0.          0.          0.03511982 -0.00561433 -0.         -0.22958508  0.80179114 -0.          0.12946595
   0.17637701 -0.        ]
 [ 0.         -0.         -0.         -0.         -0.         -0.00862131  0.11303058 -0.15192242 -0.47615973 -0.         -0.         -0.          0.
  -0.0033372   0.00113253  0.         -0.          0.         -0.         -0.0133102  -0.08977411 -0.         -0.210914   -0.05781584 -0.          0.65979958
  -0.4959127   0.        ]
 [ 0.         -0.         -0.          0.          0.         -0.11303058 -0.00862131  0.47615973 -0.15192242 -0.          0.         -0.          0.
   0.00113253  0.0033372   0.         -0.          0.         -0.          0.08977411 -0.0133102   0.         -0.05781584  0.210914   -0.         -0.4959127
  -0.65979958 -0.        ]
 [-0.04165499  0.08680454 -0.04036086  0.02961124 -0.03261293  0.         -0.         -0.          0.         -0.50244601 -0.09541778  0.35564714 -0.00880365
   0.          0.          0.         -0.          0.          0.         -0.          0.         -0.1397455   0.          0.          0.03352069 -0.
  -0.          0.76051892]
 [ 0.02669296 -0.06961703 -0.43478992 -0.37033652 -0.11279783 -0.          0.          0.          0.         -0.00450631  0.76735285  0.18250593 -0.17348504
  -0.          0.          0.          0.         -0.          0.         -0.         -0.         -0.00788607 -0.         -0.          0.05659923  0.
  -0.         -0.00208468]
 [ 0.00103339 -0.14219332  0.42120031 -0.49843651 -0.00951479 -0.          0.          0.         -0.          0.26895978 -0.17311048  0.65704738 -0.01338776
  -0.         -0.          0.          0.         -0.          0.          0.         -0.          0.12032835 -0.          0.          0.00273726 -0.
  -0.         -0.07181444]]
[[-0.85735782 -0.46872366 -0.00603197  0.15256821  0.12519158 -0.         -0.         -0.         -0.         -0.01683641  0.03639422  0.02037767 -0.01197371
   0.          0.          0.          0.          0.         -0.          0.         -0.          0.00277355  0.         -0.          0.06369423  0.
   0.         -0.00424986]
 [-0.47271466  0.78623375  0.06406164 -0.28075982  0.0402293  -0.         -0.         -0.         -0.         -0.20049273  0.01718958 -0.13533122  0.00747362
  -0.          0.          0.          0.          0.          0.         -0.         -0.         -0.09438816  0.         -0.          0.00319018 -0.
  -0.         -0.077759  ]
 [ 0.14701527  0.05228315  0.07691597  0.08657008  0.88190615 -0.         -0.         -0.         -0.         -0.05059477 -0.00505882 -0.00640161  0.0273383
   0.          0.         -0.          0.          0.         -0.          0.         -0.          0.02160558  0.         -0.          0.42435749  0.
   0.         -0.02375323]
 [-0.          0.          0.          0.          0.          0.01827647  0.84373909  0.18558253  0.06202326  0.          0.         -0.         -0.
   0.05314963 -0.02939971  0.         -0.          0.          0.         -0.01994543  0.00804679  0.          0.47736114 -0.01532018 -0.          0.12271374
  -0.04651594  0.        ]
 [ 0.         -0.          0.         -0.         -0.         -0.84373909  0.01827647  0.06202326 -0.18558253 -0.         -0.         -0.         -0.
  -0.02939971 -0.05314963 -0.          0.         -0.         -0.          0.00804679  0.01994543 -0.         -0.01532018 -0.47736114  0.         -0.04651594
  -0.12271374 -0.        ]
 [-0.          0.          0.          0.          0.         -0.1586746  -0.12053963  0.2853673   0.78474211 -0.          0.         -0.          0.
   0.00733861  0.00305285 -0.         -0.          0.          0.          0.06564023  0.03723623  0.         -0.07944888 -0.09367699 -0.          0.42282262
   0.25181951  0.        ]
 [-0.          0.         -0.          0.          0.         -0.12053963  0.1586746  -0.78474211  0.2853673   0.         -0.          0.          0.
  -0.00305285  0.00733861  0.          0.          0.          0.         -0.03723623  0.06564023 -0.          0.09367699 -0.07944888 -0.         -0.25181951
   0.42282262  0.        ]
 [-0.10591409  0.10269912  0.1798927  -0.22997059  0.06815743 -0.         -0.         -0.         -0.          0.79001134 -0.00266044 -0.03463997 -0.00663803
   0.         -0.          0.         -0.         -0.         -0.          0.          0.          0.20452106 -0.         -0.          0.00667365  0.
  -0.          0.4702121 ]
 [-0.00777214 -0.00584969 -0.01865747 -0.01708752 -0.00416078 -0.          0.          0.         -0.          0.00491367  0.18547583  0.06099264  0.97826049
   0.         -0.          0.         -0.         -0.          0.          0.          0.          0.04632387  0.         -0.         -0.04326909  0.
  -0.         -0.00952647]
 [ 0.         -0.          0.         -0.         -0.          0.01342701 -0.0001722  -0.00132474  0.00408345 -0.          0.         -0.         -0.
  -0.48168376 -0.85292549  0.          0.         -0.          0.          0.06564628  0.1586623  -0.          0.00421887  0.1030533   0.          0.00485489
   0.0124741  -0.        ]
 [ 0.         -0.          0.         -0.         -0.         -0.0001722  -0.01342701 -0.00408345 -0.00132474 -0.          0.         -0.         -0.
   0.85292549 -0.48168376 -0.         -0.          0.          0.         -0.1586623   0.06564628 -0.         -0.1030533   0.00421887  0.         -0.0124741
   0.00485489 -0.        ]
 [ 0.         -0.         -0.         -0.          0.         -0.          0.         -0.         -0.          0.          0.         -0.          0.
  -0.         -0.         -0.02632893  0.77727108  0.62860894 -0.00269292  0.         -0.          0.          0.          0.         -0.          0.
  -0.         -0.        ]
 [ 0.         -0.         -0.          0.          0.         -0.         -0.          0.          0.          0.         -0.          0.         -0.
   0.          0.          0.77727108  0.02632893  0.00269292  0.62860894 -0.         -0.          0.         -0.         -0.         -0.          0.
   0.          0.        ]
 [ 0.         -0.         -0.         -0.         -0.          0.          0.         -0.          0.          0.          0.         -0.          0.
  -0.         -0.          0.02128121 -0.62825437  0.77770975 -0.00333166  0.         -0.          0.          0.          0.         -0.         -0.
  -0.          0.        ]
 [ 0.         -0.         -0.          0.          0.          0.         -0.         -0.          0.         -0.         -0.          0.         -0.
   0.         -0.          0.62825437  0.02128121 -0.00333166 -0.77770975 -0.         -0.         -0.         -0.         -0.          0.          0.
   0.          0.        ]
 [-0.         -0.          0.         -0.         -0.          0.00054447 -0.00338829  0.01867547  0.00266131 -0.          0.         -0.          0.
  -0.13564559  0.11109983 -0.          0.          0.         -0.         -0.82558928  0.52274272 -0.         -0.05135349  0.01111056  0.          0.09087815
  -0.05488524 -0.        ]
 [ 0.         -0.         -0.          0.          0.         -0.00338829 -0.00054447 -0.00266131  0.01867547  0.         -0.          0.          0.
  -0.11109983 -0.13564559 -0.         -0.         -0.         -0.         -0.52274272 -0.82558928  0.         -0.01111056 -0.05135349 -0.          0.05488524
   0.09087815 -0.        ]
 [-0.00801962 -0.003685    0.04060092 -0.04655524 -0.00038542  0.          0.          0.          0.         -0.07569888  0.0469656  -0.21350843 -0.04463659
   0.         -0.         -0.         -0.         -0.         -0.          0.          0.          0.91173111 -0.         -0.         -0.06718124 -0.
  -0.         -0.32376663]
 [ 0.01191408  0.1487713   0.60539219  0.46835367 -0.1678664   0.         -0.         -0.          0.          0.00479654  0.5608612   0.1498916  -0.09011641
  -0.          0.          0.          0.          0.         -0.         -0.         -0.          0.00691611  0.         -0.          0.13565173 -0.
   0.         -0.00807393]
 [-0.07647869  0.30610644 -0.44304692  0.45507988 -0.00784749 -0.          0.          0.         -0.         -0.03473015 -0.13579655  0.56277913 -0.0190265
   0.         -0.         -0.          0.          0.         -0.          0.          0.          0.27998441 -0.          0.         -0.00172635 -0.
   0.          0.28614072]
 [ 0.00909782  0.01927771  0.15720839  0.14879135  0.39770482  0.         -0.         -0.         -0.         -0.03234405  0.02884577  0.00556387 -0.03444642
  -0.         -0.          0.         -0.         -0.          0.         -0.          0.         -0.05365621  0.         -0.         -0.88695239  0.
  -0.          0.04317254]
 [ 0.          0.         -0.          0.         -0.          0.45736418 -0.16074378 -0.0712411   0.09591386 -0.         -0.          0.         -0.
  -0.01453788 -0.07602493 -0.          0.         -0.         -0.          0.0023866   0.03548558  0.          0.23387412 -0.80055058  0.         -0.01006347
  -0.21856122  0.        ]
 [ 0.          0.         -0.         -0.         -0.         -0.16074378 -0.45736418 -0.09591386 -0.0712411  -0.          0.          0.         -0.
   0.07602493 -0.01453788 -0.         -0.          0.          0.         -0.03548558  0.0023866   0.          0.80055058  0.23387412 -0.          0.21856122
  -0.01006347  0.        ]
 [-0.          0.         -0.          0.         -0.         -0.10651336  0.03879619 -0.30254977  0.39783433  0.         -0.          0.         -0.
  -0.00062265 -0.00346869 -0.         -0.         -0.         -0.         -0.00506374 -0.09061408 -0.         -0.0637008   0.20921184  0.         -0.02862011
  -0.82489137  0.        ]
 [-0.          0.          0.         -0.         -0.          0.03879619  0.10651336 -0.39783433 -0.30254977 -0.          0.          0.         -0.
   0.00346869 -0.00062265 -0.         -0.          0.          0.          0.09061408 -0.00506374  0.         -0.20921184 -0.0637008   0.          0.82489137
  -0.02862011  0.        ]
 [ 0.04165499 -0.08680454  0.04036086 -0.02961124 -0.03261293  0.          0.          0.          0.         -0.50244601  0.09541778 -0.35564714  0.00880365
  -0.          0.         -0.          0.          0.         -0.         -0.         -0.          0.1397455  -0.         -0.          0.03352069 -0.
  -0.          0.76051892]
 [ 0.02669296 -0.06961703 -0.43478992 -0.37033652  0.11279783 -0.         -0.         -0.         -0.          0.00450631  0.76735285  0.18250593 -0.17348504
  -0.         -0.          0.         -0.         -0.          0.         -0.          0.         -0.00788607 -0.         -0.         -0.05659923 -0.
   0.          0.00208468]
 [-0.00103339  0.14219332 -0.42120031  0.49843651 -0.00951479 -0.         -0.         -0.         -0.          0.26895978  0.17311048 -0.65704738  0.01338776
  -0.         -0.          0.         -0.         -0.          0.         -0.          0.         -0.12032835  0.          0.          0.00273726  0.
   0.         -0.07181444]]
grids:  [0.06237655 0.31939555 0.74529195 1.28265786 1.85893479 2.39630071 2.8221971  3.07921611] 
weights:  [0.15900941 0.34931531 0.49276925 0.56970235 0.56970235 0.49276925 0.34931531 0.15900941]
S = 0.0, Sz = 0.0
Wigner small d:  1
value : [1. 1. 1. 1. 1. 1. 1. 1.]
**** Start Cycle 1 ****
dm (ortho)
[[[ 0.73506242 -0.4052856  -0.12604469 ...  0.03571323 -0.02288542 -0.00088598]
  [-0.4052856   0.22345915  0.06949627 ... -0.01969092  0.01261815  0.0004885 ]
  [-0.12604469  0.06949627  0.02161349 ... -0.00612392  0.00392427  0.00015192]
  ...
  [ 0.03571323 -0.01969092 -0.00612392 ...  0.00173514 -0.00111189 -0.00004305]
  [-0.02288542  0.01261815  0.00392427 ... -0.00111189  0.00071251  0.00002758]
  [-0.00088598  0.0004885   0.00015192 ... -0.00004305  0.00002758  0.00000107]]

 [[ 0.73506242  0.4052856  -0.12604469 ... -0.03571323 -0.02288542  0.00088598]
  [ 0.4052856   0.22345915 -0.06949627 ... -0.01969092 -0.01261815  0.0004885 ]
  [-0.12604469 -0.06949627  0.02161349 ...  0.00612392  0.00392427 -0.00015192]
  ...
  [-0.03571323 -0.01969092  0.00612392 ...  0.00173514  0.00111189 -0.00004305]
  [-0.02288542 -0.01261815  0.00392427 ...  0.00111189  0.00071251 -0.00002758]
  [ 0.00088598  0.0004885  -0.00015192 ... -0.00004305 -0.00002758  0.00000107]]]
Fock (ortho)
 (array([[-0.26682624,  0.25168708,  0.24742777,  0.        , -0.        ,  0.        ,  0.        ,  0.09135075, -0.03520732,  0.        ,  0.        ,
         0.        , -0.        ,  0.        , -0.        ,  0.        , -0.        ,  0.01490677,  0.12789601, -0.01956909, -0.16905221,  0.        ,
         0.        ,  0.        ,  0.        , -0.00779677,  0.06286977, -0.00990288],
       [ 0.25168708,  0.1070961 , -0.08034883,  0.        ,  0.        , -0.        , -0.        , -0.38544028,  0.0045206 ,  0.        , -0.        ,
         0.        , -0.        ,  0.        , -0.        ,  0.        ,  0.        , -0.09985232,  0.08802101, -0.47782812,  0.00549736, -0.        ,
        -0.        , -0.        , -0.        , -0.04594948, -0.00948905,  0.17122026],
       [ 0.24742777, -0.08034883,  1.24450884,  0.        ,  0.        , -0.        , -0.        ,  0.02976043,  0.01330246, -0.        ,  0.        ,
        -0.        ,  0.        ,  0.        ,  0.        ,  0.        , -0.        ,  0.005774  ,  0.144124  ,  0.01416819, -1.24629746,  0.        ,
         0.        ,  0.        ,  0.        , -0.00033775, -0.08777035,  0.00036685],
       [ 0.        ,  0.        ,  0.        ,  1.50062434, -0.        , -0.0362946 ,  0.04568812, -0.        ,  0.        , -0.00007682,  0.00869599,
        -0.        ,  0.        , -0.        ,  0.        ,  0.00310512,  0.00056821, -0.        ,  0.        , -0.        ,  0.        ,  0.42099772,
         1.28625971, -0.00189219, -0.00556699, -0.        , -0.        , -0.        ],
       [-0.        ,  0.        ,  0.        , -0.        ,  1.50062434,  0.04568812,  0.0362946 , -0.        , -0.        ,  0.00869599,  0.00007682,
         0.        , -0.        ,  0.        ,  0.        ,  0.00056821, -0.00310512,  0.        ,  0.        , -0.        ,  0.        ,  1.28625971,
        -0.42099772, -0.00556699,  0.00189219,  0.        ,  0.        , -0.        ],
       [ 0.        , -0.        , -0.        , -0.0362946 ,  0.04568812,  1.67215621,  0.        , -0.        ,  0.        ,  0.00221031, -0.00172424,
         0.        , -0.        ,  0.        , -0.        , -0.00883179, -0.01654482, -0.        , -0.        , -0.        ,  0.        ,  0.00508922,
        -0.00771441, -0.73631541,  1.1441257 , -0.        , -0.        ,  0.        ],
       [ 0.        , -0.        , -0.        ,  0.04568812,  0.0362946 ,  0.        ,  1.67215621,  0.        , -0.        ,  0.00172424,  0.00221031,
        -0.        , -0.        , -0.        , -0.        ,  0.01654482, -0.00883179,  0.        , -0.        ,  0.        , -0.        ,  0.00771441,
         0.00508922, -1.1441257 , -0.73631541,  0.        ,  0.        ,  0.        ],
       [ 0.09135075, -0.38544028,  0.02976043, -0.        , -0.        , -0.        ,  0.        ,  1.887625  ,  0.01267015, -0.        , -0.        ,
        -0.        , -0.        , -0.        , -0.        , -0.        ,  0.        , -0.03837315,  0.04060796,  0.63020885, -0.01191135,  0.        ,
         0.        ,  0.        ,  0.        ,  1.24979472,  0.0001984 , -0.01404285],
       [-0.03520732,  0.0045206 ,  0.01330246,  0.        , -0.        ,  0.        , -0.        ,  0.01267015,  3.29889009,  0.        , -0.        ,
         0.        , -0.        , -0.        , -0.        , -0.        ,  0.        , -0.02144727, -0.04463714, -0.00059371,  0.03669925,  0.        ,
        -0.        ,  0.        , -0.        ,  0.00220418, -0.17406053,  0.00016751],
       [ 0.        ,  0.        , -0.        , -0.00007682,  0.00869599,  0.00221031,  0.00172424, -0.        ,  0.        ,  3.40017407, -0.        ,
         0.        ,  0.        , -0.        ,  0.        , -0.00408316,  0.02348323, -0.        , -0.        ,  0.        , -0.        , -0.05386832,
         0.01815967, -0.00081408,  0.00028475, -0.        , -0.        ,  0.        ],
       [ 0.        , -0.        ,  0.        ,  0.00869599,  0.00007682, -0.00172424,  0.00221031, -0.        , -0.        , -0.        ,  3.40017407,
        -0.        , -0.        , -0.        , -0.        , -0.02348323, -0.00408316, -0.        ,  0.        ,  0.        , -0.        , -0.01815967,
        -0.05386832, -0.00028475, -0.00081408, -0.        , -0.        , -0.        ],
       [ 0.        ,  0.        , -0.        , -0.        ,  0.        ,  0.        , -0.        , -0.        ,  0.        ,  0.        , -0.        ,
         3.44660484, -0.        , -0.02427141,  0.        ,  0.        , -0.        , -0.        ,  0.        ,  0.        ,  0.        , -0.        ,
         0.        ,  0.        , -0.        ,  0.        , -0.        ,  0.        ],
       [-0.        , -0.        ,  0.        ,  0.        , -0.        , -0.        , -0.        , -0.        , -0.        ,  0.        , -0.        ,
        -0.        ,  3.44660484,  0.        ,  0.02427141,  0.        , -0.        ,  0.        , -0.        , -0.        , -0.        ,  0.        ,
        -0.        , -0.        ,  0.        ,  0.        ,  0.        ,  0.        ],
       [ 0.        ,  0.        ,  0.        , -0.        ,  0.        ,  0.        , -0.        , -0.        , -0.        , -0.        , -0.        ,
        -0.02427141,  0.        ,  3.45520445, -0.        , -0.        ,  0.        , -0.        ,  0.        ,  0.        ,  0.        , -0.        ,
         0.        ,  0.        , -0.        ,  0.        , -0.        ,  0.        ],
       [-0.        , -0.        ,  0.        ,  0.        ,  0.        , -0.        , -0.        , -0.        , -0.        ,  0.        , -0.        ,
         0.        ,  0.02427141, -0.        ,  3.45520445, -0.        , -0.        ,  0.        , -0.        ,  0.        , -0.        , -0.        ,
        -0.        , -0.        ,  0.        ,  0.        ,  0.        ,  0.        ],
       [ 0.        ,  0.        ,  0.        ,  0.00310512,  0.00056821, -0.00883179,  0.01654482, -0.        , -0.        , -0.00408316, -0.02348323,
         0.        ,  0.        , -0.        , -0.        ,  3.50220169,  0.        ,  0.        ,  0.        ,  0.        , -0.        ,  0.00075044,
         0.00138252,  0.03413239,  0.06121696, -0.        , -0.        ,  0.        ],
       [-0.        ,  0.        , -0.        ,  0.00056821, -0.00310512, -0.01654482, -0.00883179,  0.        ,  0.        ,  0.02348323, -0.00408316,
        -0.        , -0.        ,  0.        , -0.        ,  0.        ,  3.50220169, -0.        , -0.        ,  0.        ,  0.        , -0.00138252,
         0.00075044, -0.06121696,  0.03413239,  0.        ,  0.        ,  0.        ],
       [ 0.01490677, -0.09985232,  0.005774  , -0.        ,  0.        , -0.        ,  0.        , -0.03837315, -0.02144727, -0.        , -0.        ,
        -0.        ,  0.        , -0.        ,  0.        ,  0.        , -0.        ,  3.60201353,  0.01102869,  0.16843572, -0.00542607, -0.        ,
         0.        , -0.        , -0.        , -0.37528769,  0.00150232,  0.05241507],
       [ 0.12789601,  0.08802101,  0.144124  ,  0.        ,  0.        , -0.        , -0.        ,  0.04060796, -0.04463714, -0.        ,  0.        ,
         0.        , -0.        ,  0.        , -0.        ,  0.        , -0.        ,  0.01102869,  1.19527443, -0.04550053, -0.40165887,  0.        ,
         0.        ,  0.        ,  0.        ,  0.01757907,  0.95560936,  0.01056558],
       [-0.01956909, -0.47782812,  0.01416819, -0.        , -0.        , -0.        ,  0.        ,  0.63020885, -0.00059371,  0.        ,  0.        ,
         0.        , -0.        ,  0.        ,  0.        ,  0.        ,  0.        ,  0.16843572, -0.04550053,  1.69169068, -0.01460082, -0.        ,
        -0.        , -0.        , -0.        ,  0.54087669, -0.01773271, -1.07785043],
       [-0.16905221,  0.00549736, -1.24629746,  0.        ,  0.        ,  0.        , -0.        , -0.01191135,  0.03669925, -0.        , -0.        ,
         0.        , -0.        ,  0.        , -0.        , -0.        ,  0.        , -0.00542607, -0.40165887, -0.01460082,  3.24232898, -0.        ,
         0.        , -0.        ,  0.        , -0.01286653,  0.25424802,  0.00211188],
       [ 0.        , -0.        ,  0.        ,  0.42099772,  1.28625971,  0.00508922,  0.00771441,  0.        ,  0.        , -0.05386832, -0.01815967,
        -0.        ,  0.        , -0.        , -0.        ,  0.00075044, -0.00138252, -0.        ,  0.        , -0.        , -0.        ,  3.05739953,
         0.        , -0.02054439,  0.00023278,  0.        , -0.        , -0.        ],
       [ 0.        , -0.        ,  0.        ,  1.28625971, -0.42099772, -0.00771441,  0.00508922,  0.        , -0.        ,  0.01815967, -0.05386832,
         0.        , -0.        ,  0.        , -0.        ,  0.00138252,  0.00075044,  0.        ,  0.        , -0.        ,  0.        ,  0.        ,
         3.05739953, -0.00023278, -0.02054439, -0.        , -0.        ,  0.        ],
       [ 0.        , -0.        ,  0.        , -0.00189219, -0.00556699, -0.73631541, -1.1441257 ,  0.        ,  0.        , -0.00081408, -0.00028475,
         0.        , -0.        ,  0.        , -0.        ,  0.03413239, -0.06121696, -0.        ,  0.        , -0.        , -0.        , -0.02054439,
        -0.00023278,  3.12748521, -0.        ,  0.        , -0.        , -0.        ],
       [ 0.        , -0.        ,  0.        , -0.00556699,  0.00189219,  1.1441257 , -0.73631541,  0.        , -0.        ,  0.00028475, -0.00081408,
        -0.        ,  0.        , -0.        ,  0.        ,  0.06121696,  0.03413239, -0.        ,  0.        , -0.        ,  0.        ,  0.00023278,
        -0.02054439, -0.        ,  3.12748521, -0.        , -0.        ,  0.        ],
       [-0.00779677, -0.04594948, -0.00033775, -0.        ,  0.        , -0.        ,  0.        ,  1.24979472,  0.00220418, -0.        , -0.        ,
         0.        ,  0.        ,  0.        ,  0.        , -0.        ,  0.        , -0.37528769,  0.01757907,  0.54087669, -0.01286653,  0.        ,
        -0.        ,  0.        , -0.        ,  3.25271012,  0.00967914,  0.18873542],
       [ 0.06286977, -0.00948905, -0.08777035, -0.        ,  0.        , -0.        ,  0.        ,  0.0001984 , -0.17406053, -0.        , -0.        ,
        -0.        ,  0.        , -0.        ,  0.        , -0.        ,  0.        ,  0.00150232,  0.95560936, -0.01773271,  0.25424802, -0.        ,
        -0.        , -0.        , -0.        ,  0.00967914,  1.77493388,  0.01530544],
       [-0.00990288,  0.17122026,  0.00036685, -0.        , -0.        ,  0.        ,  0.        , -0.01404285,  0.00016751,  0.        , -0.        ,
         0.        ,  0.        ,  0.        ,  0.        ,  0.        ,  0.        ,  0.05241507,  0.01056558, -1.07785043,  0.00211188, -0.        ,
         0.        , -0.        ,  0.        ,  0.18873542,  0.01530544,  1.53781431]]), array([[-0.26682624, -0.25168708,  0.24742777, -0.        ,  0.        , -0.        ,  0.        , -0.09135075, -0.03520732, -0.        ,  0.        ,
        -0.        ,  0.        ,  0.        ,  0.        , -0.        ,  0.        , -0.01490677,  0.12789601,  0.01956909, -0.16905221,  0.        ,
         0.        ,  0.        ,  0.        ,  0.00779677,  0.06286977,  0.00990288],
       [-0.25168708,  0.1070961 ,  0.08034883, -0.        , -0.        ,  0.        ,  0.        , -0.38544028, -0.0045206 ,  0.        ,  0.        ,
         0.        ,  0.        ,  0.        ,  0.        ,  0.        , -0.        , -0.09985232, -0.08802101, -0.47782812, -0.00549736, -0.        ,
        -0.        , -0.        , -0.        , -0.04594948,  0.00948905,  0.17122026],
       [ 0.24742777,  0.08034883,  1.24450884,  0.        ,  0.        , -0.        , -0.        , -0.02976043,  0.01330246, -0.        ,  0.        ,
        -0.        , -0.        ,  0.        , -0.        ,  0.        , -0.        , -0.005774  ,  0.144124  , -0.01416819, -1.24629746,  0.        ,
         0.        ,  0.        ,  0.        ,  0.00033775, -0.08777035, -0.00036685],
       [-0.        , -0.        ,  0.        ,  1.50062434, -0.        ,  0.0362946 , -0.04568812, -0.        ,  0.        , -0.00007682,  0.00869599,
        -0.        ,  0.        , -0.        ,  0.        , -0.00310512, -0.00056821, -0.        ,  0.        , -0.        ,  0.        ,  0.42099772,
         1.28625971,  0.00189219,  0.00556699, -0.        , -0.        , -0.        ],
       [ 0.        , -0.        ,  0.        , -0.        ,  1.50062434, -0.04568812, -0.0362946 , -0.        , -0.        ,  0.00869599,  0.00007682,
         0.        , -0.        ,  0.        ,  0.        , -0.00056821,  0.00310512,  0.        ,  0.        , -0.        ,  0.        ,  1.28625971,
        -0.42099772,  0.00556699, -0.00189219,  0.        ,  0.        , -0.        ],
       [-0.        ,  0.        , -0.        ,  0.0362946 , -0.04568812,  1.67215621,  0.        , -0.        ,  0.        , -0.00221031,  0.00172424,
         0.        , -0.        ,  0.        , -0.        , -0.00883179, -0.01654482,  0.        , -0.        , -0.        ,  0.        , -0.00508922,
         0.00771441, -0.73631541,  1.1441257 , -0.        , -0.        ,  0.        ],
       [ 0.        ,  0.        , -0.        , -0.04568812, -0.0362946 ,  0.        ,  1.67215621,  0.        , -0.        , -0.00172424, -0.00221031,
        -0.        ,  0.        , -0.        , -0.        ,  0.01654482, -0.00883179,  0.        ,  0.        ,  0.        , -0.        , -0.00771441,
        -0.00508922, -1.1441257 , -0.73631541,  0.        ,  0.        ,  0.        ],
       [-0.09135075, -0.38544028, -0.02976043, -0.        , -0.        , -0.        ,  0.        ,  1.887625  , -0.01267015, -0.        ,  0.        ,
        -0.        ,  0.        , -0.        ,  0.        , -0.        ,  0.        , -0.03837315, -0.04060796,  0.63020885,  0.01191135,  0.        ,
         0.        ,  0.        ,  0.        ,  1.24979472, -0.0001984 , -0.01404285],
       [-0.03520732, -0.0045206 ,  0.01330246,  0.        , -0.        ,  0.        , -0.        , -0.01267015,  3.29889009,  0.        , -0.        ,
         0.        ,  0.        , -0.        ,  0.        ,  0.        ,  0.        ,  0.02144727, -0.04463714,  0.00059371,  0.03669925,  0.        ,
        -0.        ,  0.        , -0.        , -0.00220418, -0.17406053, -0.00016751],
       [-0.        ,  0.        , -0.        , -0.00007682,  0.00869599, -0.00221031, -0.00172424, -0.        ,  0.        ,  3.40017407, -0.        ,
        -0.        , -0.        , -0.        , -0.        ,  0.00408316, -0.02348323, -0.        , -0.        ,  0.        , -0.        , -0.05386832,
         0.01815967,  0.00081408, -0.00028475, -0.        , -0.        ,  0.        ],
       [ 0.        ,  0.        ,  0.        ,  0.00869599,  0.00007682,  0.00172424, -0.00221031,  0.        , -0.        , -0.        ,  3.40017407,
         0.        ,  0.        ,  0.        , -0.        ,  0.02348323,  0.00408316, -0.        ,  0.        ,  0.        , -0.        , -0.01815967,
        -0.05386832,  0.00028475,  0.00081408, -0.        , -0.        , -0.        ],
       [-0.        ,  0.        , -0.        , -0.        ,  0.        ,  0.        , -0.        , -0.        ,  0.        , -0.        ,  0.        ,
         3.44660484, -0.        ,  0.02427141,  0.        , -0.        , -0.        , -0.        ,  0.        ,  0.        ,  0.        , -0.        ,
         0.        ,  0.        , -0.        ,  0.        , -0.        ,  0.        ],
       [ 0.        ,  0.        , -0.        ,  0.        , -0.        , -0.        ,  0.        ,  0.        ,  0.        , -0.        ,  0.        ,
        -0.        ,  3.44660484,  0.        , -0.02427141, -0.        ,  0.        ,  0.        ,  0.        , -0.        ,  0.        ,  0.        ,
        -0.        , -0.        ,  0.        , -0.        , -0.        , -0.        ],
       [ 0.        ,  0.        ,  0.        , -0.        ,  0.        ,  0.        , -0.        , -0.        , -0.        , -0.        ,  0.        ,
         0.02427141,  0.        ,  3.45520445,  0.        , -0.        , -0.        , -0.        ,  0.        ,  0.        ,  0.        , -0.        ,
         0.        ,  0.        , -0.        ,  0.        , -0.        ,  0.        ],
       [ 0.        ,  0.        , -0.        ,  0.        ,  0.        , -0.        , -0.        ,  0.        ,  0.        , -0.        , -0.        ,
         0.        , -0.02427141,  0.        ,  3.45520445,  0.        ,  0.        ,  0.        ,  0.        , -0.        ,  0.        , -0.        ,
        -0.        , -0.        ,  0.        , -0.        , -0.        , -0.        ],
       [-0.        ,  0.        ,  0.        , -0.00310512, -0.00056821, -0.00883179,  0.01654482, -0.        ,  0.        ,  0.00408316,  0.02348323,
        -0.        , -0.        , -0.        ,  0.        ,  3.50220169, -0.        ,  0.        ,  0.        ,  0.        , -0.        , -0.00075044,
        -0.00138252,  0.03413239,  0.06121696, -0.        , -0.        ,  0.        ],
       [ 0.        , -0.        , -0.        , -0.00056821,  0.00310512, -0.01654482, -0.00883179,  0.        ,  0.        , -0.02348323,  0.00408316,
        -0.        ,  0.        , -0.        ,  0.        , -0.        ,  3.50220169, -0.        , -0.        ,  0.        ,  0.        ,  0.00138252,
        -0.00075044, -0.06121696,  0.03413239,  0.        ,  0.        ,  0.        ],
       [-0.01490677, -0.09985232, -0.005774  , -0.        ,  0.        ,  0.        ,  0.        , -0.03837315,  0.02144727, -0.        , -0.        ,
        -0.        ,  0.        , -0.        ,  0.        ,  0.        , -0.        ,  3.60201353, -0.01102869,  0.16843572,  0.00542607, -0.        ,
         0.        , -0.        , -0.        , -0.37528769, -0.00150232,  0.05241507],
       [ 0.12789601, -0.08802101,  0.144124  ,  0.        ,  0.        , -0.        ,  0.        , -0.04060796, -0.04463714, -0.        ,  0.        ,
         0.        ,  0.        ,  0.        ,  0.        ,  0.        , -0.        , -0.01102869,  1.19527443,  0.04550053, -0.40165887,  0.        ,
         0.        ,  0.        ,  0.        , -0.01757907,  0.95560936, -0.01056558],
       [ 0.01956909, -0.47782812, -0.01416819, -0.        , -0.        , -0.        ,  0.        ,  0.63020885,  0.00059371,  0.        ,  0.        ,
         0.        , -0.        ,  0.        , -0.        ,  0.        ,  0.        ,  0.16843572,  0.04550053,  1.69169068,  0.01460082, -0.        ,
        -0.        , -0.        , -0.        ,  0.54087669,  0.01773271, -1.07785043],
       [-0.16905221, -0.00549736, -1.24629746,  0.        ,  0.        ,  0.        , -0.        ,  0.01191135,  0.03669925, -0.        , -0.        ,
         0.        ,  0.        ,  0.        ,  0.        , -0.        ,  0.        ,  0.00542607, -0.40165887,  0.01460082,  3.24232898, -0.        ,
         0.        , -0.        ,  0.        ,  0.01286653,  0.25424802, -0.00211188],
       [ 0.        , -0.        ,  0.        ,  0.42099772,  1.28625971, -0.00508922, -0.00771441,  0.        ,  0.        , -0.05386832, -0.01815967,
        -0.        ,  0.        , -0.        , -0.        , -0.00075044,  0.00138252, -0.        ,  0.        , -0.        , -0.        ,  3.05739953,
         0.        ,  0.02054439, -0.00023278,  0.        , -0.        , -0.        ],
       [ 0.        , -0.        ,  0.        ,  1.28625971, -0.42099772,  0.00771441, -0.00508922,  0.        , -0.        ,  0.01815967, -0.05386832,
         0.        , -0.        ,  0.        , -0.        , -0.00138252, -0.00075044,  0.        ,  0.        , -0.        ,  0.        ,  0.        ,
         3.05739953,  0.00023278,  0.02054439, -0.        , -0.        ,  0.        ],
       [ 0.        , -0.        ,  0.        ,  0.00189219,  0.00556699, -0.73631541, -1.1441257 ,  0.        ,  0.        ,  0.00081408,  0.00028475,
         0.        , -0.        ,  0.        , -0.        ,  0.03413239, -0.06121696, -0.        ,  0.        , -0.        , -0.        ,  0.02054439,
         0.00023278,  3.12748521, -0.        ,  0.        , -0.        , -0.        ],
       [ 0.        , -0.        ,  0.        ,  0.00556699, -0.00189219,  1.1441257 , -0.73631541,  0.        , -0.        , -0.00028475,  0.00081408,
        -0.        ,  0.        , -0.        ,  0.        ,  0.06121696,  0.03413239, -0.        ,  0.        , -0.        ,  0.        , -0.00023278,
         0.02054439, -0.        ,  3.12748521, -0.        , -0.        ,  0.        ],
       [ 0.00779677, -0.04594948,  0.00033775, -0.        ,  0.        , -0.        ,  0.        ,  1.24979472, -0.00220418, -0.        , -0.        ,
         0.        , -0.        ,  0.        , -0.        , -0.        ,  0.        , -0.37528769, -0.01757907,  0.54087669,  0.01286653,  0.        ,
        -0.        ,  0.        , -0.        ,  3.25271012, -0.00967914,  0.18873542],
       [ 0.06286977,  0.00948905, -0.08777035, -0.        ,  0.        , -0.        ,  0.        , -0.0001984 , -0.17406053, -0.        , -0.        ,
        -0.        , -0.        , -0.        , -0.        , -0.        ,  0.        , -0.00150232,  0.95560936,  0.01773271,  0.25424802, -0.        ,
        -0.        , -0.        , -0.        , -0.00967914,  1.77493388, -0.01530544],
       [ 0.00990288,  0.17122026, -0.00036685, -0.        , -0.        ,  0.        ,  0.        , -0.01404285, -0.00016751,  0.        , -0.        ,
         0.        , -0.        ,  0.        , -0.        ,  0.        ,  0.        ,  0.05241507, -0.01056558, -1.07785043, -0.00211188, -0.        ,
         0.        , -0.        ,  0.        ,  0.18873542, -0.01530544,  1.53781431]]))
E(UHF) =    -1.261025
NO eigenvalue
[-1. -0. -0. -0. -0. -0. -0. -0. -0. -0. -0. -0. -0. -0. -0. -0.  0.  0.  0.  0.  0.  0.  0.  0.  0.  0.  0.  0.] [-1. -0. -0. -0. -0. -0. -0. -0. -0. -0. -0. -0. -0. -0.  0.  0.  0.  0.  0.  0.  0.  0.  0.  0.  0.  0.  0.  0.]
NO vec
[[ 0.85735782  0.         -0.30942341 ...  0.          0.          0.        ]
 [-0.47271466  0.         -0.77107238 ...  0.          0.          0.        ]
 [-0.14701527  0.          0.24638213 ...  0.          0.          0.        ]
 ...
 [ 0.         -0.04165499  0.         ...  0.33425285  0.03544521  0.05558901]
 [ 0.         -0.02669296  0.         ... -0.45519439  0.08178278  0.15331558]
 [ 0.          0.00103339  0.         ...  0.02032347 -0.01574698 -0.0049724 ]]
dm(NO)
[[ 1.  0. -0. ...  0.  0.  0.]
 [ 0.  1.  0. ... -0. -0. -0.]
 [-0.  0. -0. ...  0.  0.  0.]
 ...
 [ 0. -0.  0. ... -0. -0. -0.]
 [ 0.  0.  0. ... -0. -0.  0.]
 [ 0. -0.  0. ...  0.  0.  0.]]
D(g) (NO)
[[ 0.99951369  0.01607018 -0.         ... -0.00173186 -0.00301022  0.00704045]
 [-0.01607018  0.99951369  0.01873482 ... -0.          0.         -0.        ]
 [-0.         -0.01873482  0.99951369 ...  0.00254824  0.01788543  0.00334672]
 ...
 [ 0.00173186 -0.         -0.00254824 ...  0.99951369  0.          0.        ]
 [ 0.00301022  0.         -0.01788543 ...  0.          0.99951369 -0.        ]
 [-0.00704045 -0.         -0.00334672 ... -0.         -0.          0.99951369]]
...
N(g) (NO)
[[ 1.00022799 -0.01608167]
 [ 0.01608167  1.00022799]]
...
P(g) (NO)
[[ 1.          0.         -0.         ...  0.          0.         -0.        ]
 [ 0.          1.         -0.         ... -0.         -0.         -0.        ]
 [-0.00030129 -0.01873909  0.         ...  0.          0.          0.        ]
 ...
 [ 0.00173226 -0.00002785 -0.         ...  0.          0.          0.        ]
 [ 0.00301091 -0.00004841 -0.         ...  0.          0.          0.        ]
 [-0.00704205  0.00011322  0.         ... -0.         -0.         -0.        ]]
...
Pg_ortho
[[ 0.73524107 -0.40538411 -0.12607533 ... -0.00053986 -0.00034595  0.00001339]
 [-0.40497762  0.22328934  0.06944346 ... -0.00093068 -0.00059639  0.00002309]
 [-0.12607533  0.06951317  0.02161874 ...  0.00009257  0.00005932 -0.0000023 ]
 ...
 [-0.00168796  0.00093068  0.00028944 ...  0.00173382  0.00111105 -0.00004301]
 [ 0.00034595 -0.00019074 -0.00005932 ...  0.00111217  0.00071269 -0.00002759]
 [ 0.00004188 -0.00002309 -0.00000718 ... -0.00004301 -0.00002756  0.00000107]]
G(g) (NO)
[[ 0.30301589 -0.00209836 -0.05008702 ... -0.00038848  0.00028595  0.00056407]
 [ 0.00209836  0.30301589  0.0010675  ...  0.02887982 -0.00325595  0.05759393]
 [-0.05001278  0.01193475  0.91316058 ...  0.00128971 -0.00294498 -0.00185113]
 ...
 [ 0.00020257  0.02888382  0.00025834 ...  0.7517525   0.06736894 -0.00238793]
 [-0.00136605 -0.00324701  0.00000461 ...  0.06736885  0.83730512 -0.05135779]
 [ 0.00376266  0.05754939 -0.00035239 ... -0.00239338 -0.05136302  0.88901772]]
...
C(NO)
[[-1.          0.          0.         ...  0.          0.          0.        ]
 [ 0.         -1.          0.         ...  0.         -0.          0.        ]
 [ 0.          0.          0.60952313 ...  0.          0.          0.        ]
 ...
 [ 0.         -0.          0.         ... -0.          0.          0.15780118]
 [ 0.         -0.          0.         ... -0.         -0.          0.56328195]
 [ 0.          0.          0.         ... -0.          0.         -0.1338574 ]]
detC 0.9999999999999988
detNg [1.00071465 1.01892286 1.10784999 1.35659395 1.89235388 2.75532684 3.51921757 3.75520882]
xg [0.99928586 0.98142856 0.90264928 0.73714025 0.52844239 0.36293335 0.28415407 0.26629678]
ciS 1.2655826332986766
[[-0.78200356  0.          0.0281269  ...  0.          0.          0.        ]
 [ 0.         -0.78200356  0.         ... -0.02713843  0.00273872 -0.04200967]
 [ 0.0281269   0.          0.148999   ...  0.          0.          0.        ]
 ...
 [ 0.         -0.02713843  0.         ...  1.35610286  0.52265288 -0.22776237]
 [ 0.          0.00273872  0.         ...  0.52265288  1.5922904  -0.19723145]
 [ 0.         -0.04200967  0.         ... -0.22776237 -0.19723145  0.35938324]]
ciH -1.6027585046752555
S2 = 0.000000
X(g)
[[ 2.         -0.         -0.00030129 ... -0.00173226 -0.00301091  0.00704205]
 [-0.          2.          0.01873909 ... -0.00002785 -0.00004841  0.00011322]
 [-0.00030129 -0.01873909  0.         ...  0.          0.          0.        ]
 ...
 [ 0.00173226 -0.00002785  0.         ...  0.          0.          0.        ]
 [ 0.00301091 -0.00004841  0.         ...  0.          0.          0.        ]
 [-0.00704205  0.00011322  0.         ...  0.          0.          0.        ]]
X(g) int
[[ 2.         -0.         -0.24464584 ... -0.03446611 -0.0599069   0.14011305]
 [ 0.          2.          0.37284463 ... -0.0226153  -0.03930853  0.09193662]
 [-0.24464584 -0.37284463  0.         ...  0.          0.          0.        ]
 ...
 [ 0.03446611 -0.0226153   0.         ...  0.          0.          0.        ]
 [ 0.0599069  -0.03930853  0.         ...  0.          0.          0.        ]
 [-0.14011305  0.09193662  0.         ...  0.          0.          0.        ]]
Hsp + Hph =  -1.266419483410378
Feff (mod,ortho)
[[-0.24803404  0.26360425  0.24290889 ...  0.          0.          0.        ]
 [ 0.26360425  0.08824191 -0.08167749 ...  0.          0.          0.        ]
 [ 0.24290889 -0.08167749  1.24550603 ...  0.          0.          0.        ]
 ...
 [ 0.          0.          0.         ...  3.25281593 -0.0095722   0.18865552]
 [ 0.          0.          0.         ... -0.0095722   1.7750275  -0.01535761]
 [ 0.          0.          0.         ...  0.18865552 -0.01535761  1.53781821]]
E(SUHF) =     -1.00183088
e_a, e_b
[-0.48407681  0.05434776  0.36805385  0.48093809  0.67800354  0.70543064  0.70543064  0.86739676  0.86739676  1.15950019  2.44076658  2.63358572  3.33225806
  3.39125133  3.39125133  3.42625532  3.42625532  3.47555398  3.47555398  3.50198273  3.50198273  3.59198625  3.83418903  3.83418903  3.9330585   3.95979056
  3.95979056  4.37963799] [-0.48407681  0.05434776  0.36805385  0.48093809  0.67800354  0.70543064  0.70543064  0.86739676  0.86739676  1.15950019  2.44076658  2.63358572  3.33225806
  3.39125133  3.39125133  3.42625532  3.42625532  3.47555398  3.47555398  3.50198273  3.50198273  3.59198625  3.83418903  3.83418903  3.9330585   3.95979056
  3.95979056  4.37963799]
P_a, P_b
[[ 0.65770686 -0.44093027 -0.11761941 -0.          0.         -0.         -0.         -0.10167413  0.006366    0.          0.          0.          0.
   0.          0.         -0.          0.         -0.00814729 -0.01663647 -0.0656939  -0.01006032  0.         -0.         -0.         -0.          0.03833898
  -0.01614266  0.0024595 ]
 [-0.44093027  0.29560207  0.0788527   0.         -0.          0.          0.          0.06816289 -0.0042678  -0.         -0.         -0.         -0.
  -0.         -0.          0.         -0.          0.00546199  0.01115318  0.04404155  0.00674449 -0.          0.          0.          0.         -0.02570266
   0.01082213 -0.00164886]
 [-0.11761941  0.0788527   0.02103418  0.         -0.          0.          0.          0.01818265 -0.00113845 -0.         -0.         -0.         -0.
  -0.         -0.          0.         -0.          0.001457    0.00297514  0.01174821  0.00179911 -0.          0.          0.          0.         -0.00685626
   0.00288683 -0.00043984]
 [-0.          0.          0.          0.         -0.          0.          0.          0.         -0.         -0.         -0.         -0.         -0.
  -0.         -0.          0.         -0.          0.          0.          0.          0.         -0.          0.          0.          0.         -0.
   0.         -0.        ]
 [ 0.         -0.         -0.         -0.          0.         -0.         -0.         -0.          0.          0.          0.          0.          0.
   0.          0.         -0.          0.         -0.         -0.         -0.         -0.          0.         -0.         -0.         -0.          0.
  -0.          0.        ]
 [-0.          0.          0.          0.         -0.          0.          0.          0.         -0.         -0.         -0.         -0.         -0.
  -0.         -0.          0.         -0.          0.          0.          0.          0.         -0.          0.          0.          0.         -0.
   0.         -0.        ]
 [-0.          0.          0.          0.         -0.          0.          0.          0.         -0.         -0.         -0.         -0.         -0.
  -0.         -0.          0.         -0.          0.          0.          0.          0.         -0.          0.          0.          0.         -0.
   0.         -0.        ]
 [-0.10167413  0.06816289  0.01818265  0.         -0.          0.          0.          0.01571768 -0.00098411 -0.         -0.         -0.         -0.
  -0.         -0.          0.         -0.          0.00125948  0.00257181  0.01015554  0.00155521 -0.          0.          0.          0.         -0.00592678
   0.00249547 -0.00038021]
 [ 0.006366   -0.0042678  -0.00113845 -0.          0.         -0.         -0.         -0.00098411  0.00006162  0.          0.          0.          0.
   0.          0.         -0.          0.         -0.00007886 -0.00016103 -0.00063586 -0.00009737  0.         -0.         -0.         -0.          0.00037109
  -0.00015625  0.00002381]
 [ 0.         -0.         -0.         -0.          0.         -0.         -0.         -0.          0.          0.          0.          0.          0.
   0.          0.         -0.          0.         -0.         -0.         -0.         -0.          0.         -0.         -0.         -0.          0.
  -0.          0.        ]
 [ 0.         -0.         -0.         -0.          0.         -0.         -0.         -0.          0.          0.          0.          0.          0.
   0.          0.         -0.          0.         -0.         -0.         -0.         -0.          0.         -0.         -0.         -0.          0.
  -0.          0.        ]
 [ 0.         -0.         -0.         -0.          0.         -0.         -0.         -0.          0.          0.          0.          0.          0.
   0.          0.         -0.          0.         -0.         -0.         -0.         -0.          0.         -0.         -0.         -0.          0.
  -0.          0.        ]
 [ 0.         -0.         -0.         -0.          0.         -0.         -0.         -0.          0.          0.          0.          0.          0.
   0.          0.         -0.          0.         -0.         -0.         -0.         -0.          0.         -0.         -0.         -0.          0.
  -0.          0.        ]
 [ 0.         -0.         -0.         -0.          0.         -0.         -0.         -0.          0.          0.          0.          0.          0.
   0.          0.         -0.          0.         -0.         -0.         -0.         -0.          0.         -0.         -0.         -0.          0.
  -0.          0.        ]
 [ 0.         -0.         -0.         -0.          0.         -0.         -0.         -0.          0.          0.          0.          0.          0.
   0.          0.         -0.          0.         -0.         -0.         -0.         -0.          0.         -0.         -0.         -0.          0.
  -0.          0.        ]
 [-0.          0.          0.          0.         -0.          0.          0.          0.         -0.         -0.         -0.         -0.         -0.
  -0.         -0.          0.         -0.          0.          0.          0.          0.         -0.          0.          0.          0.         -0.
   0.         -0.        ]
 [ 0.         -0.         -0.         -0.          0.         -0.         -0.         -0.          0.          0.          0.          0.          0.
   0.          0.         -0.          0.         -0.         -0.         -0.         -0.          0.         -0.         -0.         -0.          0.
  -0.          0.        ]
 [-0.00814729  0.00546199  0.001457    0.         -0.          0.          0.          0.00125948 -0.00007886 -0.         -0.         -0.         -0.
  -0.         -0.          0.         -0.          0.00010092  0.00020608  0.00081378  0.00012462 -0.          0.          0.          0.         -0.00047492
   0.00019997 -0.00003047]
 [-0.01663647  0.01115318  0.00297514  0.         -0.          0.          0.          0.00257181 -0.00016103 -0.         -0.         -0.         -0.
  -0.         -0.          0.         -0.          0.00020608  0.00042081  0.0016617   0.00025447 -0.          0.          0.          0.         -0.00096977
   0.00040832 -0.00006221]
 [-0.0656939   0.04404155  0.01174821  0.         -0.          0.          0.          0.01015554 -0.00063586 -0.         -0.         -0.         -0.
  -0.         -0.          0.         -0.          0.00081378  0.0016617   0.00656172  0.00100486 -0.          0.          0.          0.         -0.00382942
   0.00161238 -0.00024566]
 [-0.01006032  0.00674449  0.00179911  0.         -0.          0.          0.          0.00155521 -0.00009737 -0.         -0.         -0.         -0.
  -0.         -0.          0.         -0.          0.00012462  0.00025447  0.00100486  0.00015388 -0.          0.          0.          0.         -0.00058644
   0.00024692 -0.00003762]
 [ 0.         -0.         -0.         -0.          0.         -0.         -0.         -0.          0.          0.          0.          0.          0.
   0.          0.         -0.          0.         -0.         -0.         -0.         -0.          0.         -0.         -0.         -0.          0.
  -0.          0.        ]
 [-0.          0.          0.          0.         -0.          0.          0.          0.         -0.         -0.         -0.         -0.         -0.
  -0.         -0.          0.         -0.          0.          0.          0.          0.         -0.          0.          0.          0.         -0.
   0.         -0.        ]
 [-0.          0.          0.          0.         -0.          0.          0.          0.         -0.         -0.         -0.         -0.         -0.
  -0.         -0.          0.         -0.          0.          0.          0.          0.         -0.          0.          0.          0.         -0.
   0.         -0.        ]
 [-0.          0.          0.          0.         -0.          0.          0.          0.         -0.         -0.         -0.         -0.         -0.
  -0.         -0.          0.         -0.          0.          0.          0.          0.         -0.          0.          0.          0.         -0.
   0.         -0.        ]
 [ 0.03833898 -0.02570266 -0.00685626 -0.          0.         -0.         -0.         -0.00592678  0.00037109  0.          0.          0.          0.
   0.          0.         -0.          0.         -0.00047492 -0.00096977 -0.00382942 -0.00058644  0.         -0.         -0.         -0.          0.00223485
  -0.00094099  0.00014337]
 [-0.01614266  0.01082213  0.00288683  0.         -0.          0.          0.          0.00249547 -0.00015625 -0.         -0.         -0.         -0.
  -0.         -0.          0.         -0.          0.00019997  0.00040832  0.00161238  0.00024692 -0.          0.          0.          0.         -0.00094099
   0.0003962  -0.00006037]
 [ 0.0024595  -0.00164886 -0.00043984 -0.          0.         -0.         -0.         -0.00038021  0.00002381  0.          0.          0.          0.
   0.          0.         -0.          0.         -0.00003047 -0.00006221 -0.00024566 -0.00003762  0.         -0.         -0.         -0.          0.00014337
  -0.00006037  0.0000092 ]] 
 [[ 0.65770686  0.44093027 -0.11761941  0.          0.          0.          0.          0.10167413  0.006366   -0.         -0.         -0.         -0.
  -0.         -0.          0.         -0.          0.00814729 -0.01663647  0.0656939  -0.01006032  0.         -0.          0.          0.         -0.03833898
  -0.01614266 -0.0024595 ]
 [ 0.44093027  0.29560207 -0.0788527   0.          0.          0.          0.          0.06816289  0.0042678  -0.         -0.         -0.         -0.
  -0.         -0.          0.         -0.          0.00546199 -0.01115318  0.04404155 -0.00674449  0.         -0.          0.          0.         -0.02570266
  -0.01082213 -0.00164886]
 [-0.11761941 -0.0788527   0.02103418 -0.         -0.         -0.         -0.         -0.01818265 -0.00113845  0.          0.          0.          0.
   0.          0.         -0.          0.         -0.001457    0.00297514 -0.01174821  0.00179911 -0.          0.         -0.         -0.          0.00685626
   0.00288683  0.00043984]
 [ 0.          0.         -0.          0.          0.          0.          0.          0.          0.         -0.         -0.         -0.         -0.
  -0.         -0.          0.         -0.          0.         -0.          0.         -0.          0.         -0.          0.          0.         -0.
  -0.         -0.        ]
 [ 0.          0.         -0.          0.          0.          0.          0.          0.          0.         -0.         -0.         -0.         -0.
  -0.         -0.          0.         -0.          0.         -0.          0.         -0.          0.         -0.          0.          0.         -0.
  -0.         -0.        ]
 [ 0.          0.         -0.          0.          0.          0.          0.          0.          0.         -0.         -0.         -0.         -0.
  -0.         -0.          0.         -0.          0.         -0.          0.         -0.          0.         -0.          0.          0.         -0.
  -0.         -0.        ]
 [ 0.          0.         -0.          0.          0.          0.          0.          0.          0.         -0.         -0.         -0.         -0.
  -0.         -0.          0.         -0.          0.         -0.          0.         -0.          0.         -0.          0.          0.         -0.
  -0.         -0.        ]
 [ 0.10167413  0.06816289 -0.01818265  0.          0.          0.          0.          0.01571768  0.00098411 -0.         -0.         -0.         -0.
  -0.         -0.          0.         -0.          0.00125948 -0.00257181  0.01015554 -0.00155521  0.         -0.          0.          0.         -0.00592678
  -0.00249547 -0.00038021]
 [ 0.006366    0.0042678  -0.00113845  0.          0.          0.          0.          0.00098411  0.00006162 -0.         -0.         -0.         -0.
  -0.         -0.          0.         -0.          0.00007886 -0.00016103  0.00063586 -0.00009737  0.         -0.          0.          0.         -0.00037109
  -0.00015625 -0.00002381]
 [-0.         -0.          0.         -0.         -0.         -0.         -0.         -0.         -0.          0.          0.          0.          0.
   0.          0.         -0.          0.         -0.          0.         -0.          0.         -0.          0.         -0.         -0.          0.
   0.          0.        ]
 [-0.         -0.          0.         -0.         -0.         -0.         -0.         -0.         -0.          0.          0.          0.          0.
   0.          0.         -0.          0.         -0.          0.         -0.          0.         -0.          0.         -0.         -0.          0.
   0.          0.        ]
 [-0.         -0.          0.         -0.         -0.         -0.         -0.         -0.         -0.          0.          0.          0.          0.
   0.          0.         -0.          0.         -0.          0.         -0.          0.         -0.          0.         -0.         -0.          0.
   0.          0.        ]
 [-0.         -0.          0.         -0.         -0.         -0.         -0.         -0.         -0.          0.          0.          0.          0.
   0.          0.         -0.          0.         -0.          0.         -0.          0.         -0.          0.         -0.         -0.          0.
   0.          0.        ]
 [-0.         -0.          0.         -0.         -0.         -0.         -0.         -0.         -0.          0.          0.          0.          0.
   0.          0.         -0.          0.         -0.          0.         -0.          0.         -0.          0.         -0.         -0.          0.
   0.          0.        ]
 [-0.         -0.          0.         -0.         -0.         -0.         -0.         -0.         -0.          0.          0.          0.          0.
   0.          0.         -0.          0.         -0.          0.         -0.          0.         -0.          0.         -0.         -0.          0.
   0.          0.        ]
 [ 0.          0.         -0.          0.          0.          0.          0.          0.          0.         -0.         -0.         -0.         -0.
  -0.         -0.          0.         -0.          0.         -0.          0.         -0.          0.         -0.          0.          0.         -0.
  -0.         -0.        ]
 [-0.         -0.          0.         -0.         -0.         -0.         -0.         -0.         -0.          0.          0.          0.          0.
   0.          0.         -0.          0.         -0.          0.         -0.          0.         -0.          0.         -0.         -0.          0.
   0.          0.        ]
 [ 0.00814729  0.00546199 -0.001457    0.          0.          0.          0.          0.00125948  0.00007886 -0.         -0.         -0.         -0.
  -0.         -0.          0.         -0.          0.00010092 -0.00020608  0.00081378 -0.00012462  0.         -0.          0.          0.         -0.00047492
  -0.00019997 -0.00003047]
 [-0.01663647 -0.01115318  0.00297514 -0.         -0.         -0.         -0.         -0.00257181 -0.00016103  0.          0.          0.          0.
   0.          0.         -0.          0.         -0.00020608  0.00042081 -0.0016617   0.00025447 -0.          0.         -0.         -0.          0.00096977
   0.00040832  0.00006221]
 [ 0.0656939   0.04404155 -0.01174821  0.          0.          0.          0.          0.01015554  0.00063586 -0.         -0.         -0.         -0.
  -0.         -0.          0.         -0.          0.00081378 -0.0016617   0.00656172 -0.00100486  0.         -0.          0.          0.         -0.00382942
  -0.00161238 -0.00024566]
 [-0.01006032 -0.00674449  0.00179911 -0.         -0.         -0.         -0.         -0.00155521 -0.00009737  0.          0.          0.          0.
   0.          0.         -0.          0.         -0.00012462  0.00025447 -0.00100486  0.00015388 -0.          0.         -0.         -0.          0.00058644
   0.00024692  0.00003762]
 [ 0.          0.         -0.          0.          0.          0.          0.          0.          0.         -0.         -0.         -0.         -0.
  -0.         -0.          0.         -0.          0.         -0.          0.         -0.          0.         -0.          0.          0.         -0.
  -0.         -0.        ]
 [-0.         -0.          0.         -0.         -0.         -0.         -0.         -0.         -0.          0.          0.          0.          0.
   0.          0.         -0.          0.         -0.          0.         -0.          0.         -0.          0.         -0.         -0.          0.
   0.          0.        ]
 [ 0.          0.         -0.          0.          0.          0.          0.          0.          0.         -0.         -0.         -0.         -0.
  -0.         -0.          0.         -0.          0.         -0.          0.         -0.          0.         -0.          0.          0.         -0.
  -0.         -0.        ]
 [ 0.          0.         -0.          0.          0.          0.          0.          0.          0.         -0.         -0.         -0.         -0.
  -0.         -0.          0.         -0.          0.         -0.          0.         -0.          0.         -0.          0.          0.         -0.
  -0.         -0.        ]
 [-0.03833898 -0.02570266  0.00685626 -0.         -0.         -0.         -0.         -0.00592678 -0.00037109  0.          0.          0.          0.
   0.          0.         -0.          0.         -0.00047492  0.00096977 -0.00382942  0.00058644 -0.          0.         -0.         -0.          0.00223485
   0.00094099  0.00014337]
 [-0.01614266 -0.01082213  0.00288683 -0.         -0.         -0.         -0.         -0.00249547 -0.00015625  0.          0.          0.          0.
   0.          0.         -0.          0.         -0.00019997  0.00040832 -0.00161238  0.00024692 -0.          0.         -0.         -0.          0.00094099
   0.0003962   0.00006037]
 [-0.0024595  -0.00164886  0.00043984 -0.         -0.         -0.         -0.         -0.00038021 -0.00002381  0.          0.          0.          0.
[...]
Feff (mod,ortho)
[[-0.23008173  0.28433005  0.24868596 ...  0.          0.          0.        ]
 [ 0.28433005  0.08486003 -0.0930351  ...  0.          0.          0.        ]
 [ 0.24868596 -0.0930351   1.25058202 ...  0.          0.          0.        ]
 ...
 [ 0.          0.          0.         ...  3.25528494 -0.01104103  0.18835227]
 [ 0.          0.          0.         ... -0.01104103  1.77961742 -0.01758829]
 [ 0.          0.          0.         ...  0.18835227 -0.01758829  1.5421736 ]]
E(SUHF) =     -1.01755515
e_a, e_b
[-0.49848301  0.06867066  0.36373398  0.4930613   0.68102277  0.70673059  0.70673059  0.8725507   0.8725507   1.16308722  2.44519637  2.6480714   3.33994215
  3.39750577  3.39750577  3.4305335   3.4305335   3.48624068  3.48624068  3.50891088  3.50891088  3.59601066  3.84097009  3.84097009  3.94170214  3.97424755
  3.97424755  4.39096147] [-0.49848301  0.06867066  0.36373398  0.4930613   0.68102277  0.70673059  0.70673059  0.8725507   0.8725507   1.16308722  2.44519637  2.6480714   3.33994215
  3.39750577  3.39750577  3.4305335   3.4305335   3.48624068  3.48624068  3.50891088  3.50891088  3.59601066  3.84097009  3.84097009  3.94170214  3.97424755
  3.97424755  4.39096147]
P_a, P_b
[[ 0.6272108  -0.44929948 -0.11881246  0.          0.         -0.         -0.         -0.10965457  0.0064949   0.          0.          0.          0.
   0.          0.          0.          0.         -0.00936977 -0.00452045 -0.05920575 -0.01079029 -0.         -0.         -0.         -0.          0.03958121
  -0.02008206  0.00804615]
 [-0.44929948  0.32185355  0.08511074 -0.         -0.          0.          0.          0.07855053 -0.00465259 -0.         -0.         -0.         -0.
  -0.         -0.         -0.         -0.          0.00671199  0.0032382   0.04241176  0.00772957  0.          0.          0.          0.         -0.02835382
   0.01438569 -0.00576382]
 [-0.11881246  0.08511074  0.02250663 -0.         -0.          0.          0.          0.02077185 -0.00123033 -0.         -0.         -0.         -0.
  -0.         -0.         -0.         -0.          0.00177491  0.00085631  0.01121534  0.002044    0.          0.          0.          0.         -0.00749786
   0.00380414 -0.00152418]
 [ 0.         -0.         -0.          0.          0.         -0.         -0.         -0.          0.          0.          0.          0.          0.
   0.          0.          0.          0.         -0.         -0.         -0.         -0.         -0.         -0.         -0.         -0.          0.
  -0.          0.        ]
 [ 0.         -0.         -0.          0.          0.         -0.         -0.         -0.          0.          0.          0.          0.          0.
   0.          0.          0.          0.         -0.         -0.         -0.         -0.         -0.         -0.         -0.         -0.          0.
  -0.          0.        ]
 [-0.          0.          0.         -0.         -0.          0.          0.          0.         -0.         -0.         -0.         -0.         -0.
  -0.         -0.         -0.         -0.          0.          0.          0.          0.          0.          0.          0.          0.         -0.
   0.         -0.        ]
 [-0.          0.          0.         -0.         -0.          0.          0.          0.         -0.         -0.         -0.         -0.         -0.
  -0.         -0.         -0.         -0.          0.          0.          0.          0.          0.          0.          0.          0.         -0.
   0.         -0.        ]
 [-0.10965457  0.07855053  0.02077185 -0.         -0.          0.          0.          0.01917079 -0.0011355  -0.         -0.         -0.         -0.
  -0.         -0.         -0.         -0.          0.00163811  0.00079031  0.01035088  0.00188645  0.          0.          0.          0.         -0.00691994
   0.00351092 -0.0014067 ]
 [ 0.0064949  -0.00465259 -0.00123033  0.          0.         -0.         -0.         -0.0011355   0.00006726  0.          0.          0.          0.
   0.          0.          0.          0.         -0.00009703 -0.00004681 -0.00061309 -0.00011174 -0.         -0.         -0.         -0.          0.00040987
  -0.00020795  0.00008332]
 [ 0.         -0.         -0.          0.          0.         -0.         -0.         -0.          0.          0.          0.          0.          0.
   0.          0.          0.          0.         -0.         -0.         -0.         -0.         -0.         -0.         -0.         -0.          0.
  -0.          0.        ]
 [ 0.         -0.         -0.          0.          0.         -0.         -0.         -0.          0.          0.          0.          0.          0.
   0.          0.          0.          0.         -0.         -0.         -0.         -0.         -0.         -0.         -0.         -0.          0.
  -0.          0.        ]
 [ 0.         -0.         -0.          0.          0.         -0.         -0.         -0.          0.          0.          0.          0.          0.
   0.          0.          0.          0.         -0.         -0.         -0.         -0.         -0.         -0.         -0.         -0.          0.
  -0.          0.        ]
 [ 0.         -0.         -0.          0.          0.         -0.         -0.         -0.          0.          0.          0.          0.          0.
   0.          0.          0.          0.         -0.         -0.         -0.         -0.         -0.         -0.         -0.         -0.          0.
  -0.          0.        ]
 [ 0.         -0.         -0.          0.          0.         -0.         -0.         -0.          0.          0.          0.          0.          0.
   0.          0.          0.          0.         -0.         -0.         -0.         -0.         -0.         -0.         -0.         -0.          0.
  -0.          0.        ]
 [ 0.         -0.         -0.          0.          0.         -0.         -0.         -0.          0.          0.          0.          0.          0.
   0.          0.          0.          0.         -0.         -0.         -0.         -0.         -0.         -0.         -0.         -0.          0.
  -0.          0.        ]
 [ 0.         -0.         -0.          0.          0.         -0.         -0.         -0.          0.          0.          0.          0.          0.
   0.          0.          0.          0.         -0.         -0.         -0.         -0.         -0.         -0.         -0.         -0.          0.
  -0.          0.        ]
 [ 0.         -0.         -0.          0.          0.         -0.         -0.         -0.          0.          0.          0.          0.          0.
   0.          0.          0.          0.         -0.         -0.         -0.         -0.         -0.         -0.         -0.         -0.          0.
  -0.          0.        ]
 [-0.00936977  0.00671199  0.00177491 -0.         -0.          0.          0.          0.00163811 -0.00009703 -0.         -0.         -0.         -0.
  -0.         -0.         -0.         -0.          0.00013997  0.00006753  0.00088446  0.00016119  0.          0.          0.          0.         -0.0005913
   0.0003     -0.0001202 ]
 [-0.00452045  0.0032382   0.00085631 -0.         -0.          0.          0.          0.00079031 -0.00004681 -0.         -0.         -0.         -0.
  -0.         -0.         -0.         -0.          0.00006753  0.00003258  0.00042671  0.00007777  0.          0.          0.          0.         -0.00028527
   0.00014474 -0.00005799]
 [-0.05920575  0.04241176  0.01121534 -0.         -0.          0.          0.          0.01035088 -0.00061309 -0.         -0.         -0.         -0.
  -0.         -0.         -0.         -0.          0.00088446  0.00042671  0.00558874  0.00101855  0.          0.          0.          0.         -0.00373628
   0.00189565 -0.00075952]
 [-0.01079029  0.00772957  0.002044   -0.         -0.          0.          0.          0.00188645 -0.00011174 -0.         -0.         -0.         -0.
  -0.         -0.         -0.         -0.          0.00016119  0.00007777  0.00101855  0.00018563  0.          0.          0.          0.         -0.00068094
   0.00034548 -0.00013842]
 [-0.          0.          0.         -0.         -0.          0.          0.          0.         -0.         -0.         -0.         -0.         -0.
  -0.         -0.         -0.         -0.          0.          0.          0.          0.          0.          0.          0.          0.         -0.
   0.         -0.        ]
 [-0.          0.          0.         -0.         -0.          0.          0.          0.         -0.         -0.         -0.         -0.         -0.
  -0.         -0.         -0.         -0.          0.          0.          0.          0.          0.          0.          0.          0.         -0.
   0.         -0.        ]
 [-0.          0.          0.         -0.         -0.          0.          0.          0.         -0.         -0.         -0.         -0.         -0.
  -0.         -0.         -0.         -0.          0.          0.          0.          0.          0.          0.          0.          0.         -0.
   0.         -0.        ]
 [-0.          0.          0.         -0.         -0.          0.          0.          0.         -0.         -0.         -0.         -0.         -0.
  -0.         -0.         -0.         -0.          0.          0.          0.          0.          0.          0.          0.          0.         -0.
   0.         -0.        ]
 [ 0.03958121 -0.02835382 -0.00749786  0.          0.         -0.         -0.         -0.00691994  0.00040987  0.          0.          0.          0.
   0.          0.          0.          0.         -0.0005913  -0.00028527 -0.00373628 -0.00068094 -0.         -0.         -0.         -0.          0.00249784
  -0.00126731  0.00050777]
 [-0.02008206  0.01438569  0.00380414 -0.         -0.          0.          0.          0.00351092 -0.00020795 -0.         -0.         -0.         -0.
  -0.         -0.         -0.         -0.          0.0003      0.00014474  0.00189565  0.00034548  0.          0.          0.          0.         -0.00126731
   0.00064299 -0.00025762]
 [ 0.00804615 -0.00576382 -0.00152418  0.          0.         -0.         -0.         -0.0014067   0.00008332  0.          0.          0.          0.
   0.          0.          0.          0.         -0.0001202  -0.00005799 -0.00075952 -0.00013842 -0.         -0.         -0.         -0.          0.00050777
  -0.00025762  0.00010322]] 
 [[ 0.6272108   0.44929948 -0.11881246  0.          0.         -0.         -0.          0.10965457  0.0064949  -0.         -0.         -0.         -0.
  -0.         -0.         -0.          0.          0.00936977 -0.00452045  0.05920575 -0.01079029  0.         -0.          0.          0.         -0.03958121
  -0.02008206 -0.00804615]
 [ 0.44929948  0.32185355 -0.08511074  0.          0.         -0.         -0.          0.07855053  0.00465259 -0.         -0.         -0.         -0.
  -0.         -0.         -0.          0.          0.00671199 -0.0032382   0.04241176 -0.00772957  0.         -0.          0.          0.         -0.02835382
  -0.01438569 -0.00576382]
 [-0.11881246 -0.08511074  0.02250663 -0.         -0.          0.          0.         -0.02077185 -0.00123033  0.          0.          0.          0.
   0.          0.          0.         -0.         -0.00177491  0.00085631 -0.01121534  0.002044   -0.          0.         -0.         -0.          0.00749786
   0.00380414  0.00152418]
 [ 0.          0.         -0.          0.          0.         -0.         -0.          0.          0.         -0.         -0.         -0.         -0.
  -0.         -0.         -0.          0.          0.         -0.          0.         -0.          0.         -0.          0.          0.         -0.
  -0.         -0.        ]
 [ 0.          0.         -0.          0.          0.         -0.         -0.          0.          0.         -0.         -0.         -0.         -0.
  -0.         -0.         -0.          0.          0.         -0.          0.         -0.          0.         -0.          0.          0.         -0.
  -0.         -0.        ]
 [-0.         -0.          0.         -0.         -0.          0.          0.         -0.         -0.          0.          0.          0.          0.
   0.          0.          0.         -0.         -0.          0.         -0.          0.         -0.          0.         -0.         -0.          0.
   0.          0.        ]
 [-0.         -0.          0.         -0.         -0.          0.          0.         -0.         -0.          0.          0.          0.          0.
   0.          0.          0.         -0.         -0.          0.         -0.          0.         -0.          0.         -0.         -0.          0.
   0.          0.        ]
 [ 0.10965457  0.07855053 -0.02077185  0.          0.         -0.         -0.          0.01917079  0.0011355  -0.         -0.         -0.         -0.
  -0.         -0.         -0.          0.          0.00163811 -0.00079031  0.01035088 -0.00188645  0.         -0.          0.          0.         -0.00691994
  -0.00351092 -0.0014067 ]
 [ 0.0064949   0.00465259 -0.00123033  0.          0.         -0.         -0.          0.0011355   0.00006726 -0.         -0.         -0.         -0.
  -0.         -0.         -0.          0.          0.00009703 -0.00004681  0.00061309 -0.00011174  0.         -0.          0.          0.         -0.00040987
  -0.00020795 -0.00008332]
 [-0.         -0.          0.         -0.         -0.          0.          0.         -0.         -0.          0.          0.          0.          0.
   0.          0.          0.         -0.         -0.          0.         -0.          0.         -0.          0.         -0.         -0.          0.
   0.          0.        ]
 [-0.         -0.          0.         -0.         -0.          0.          0.         -0.         -0.          0.          0.          0.          0.
   0.          0.          0.         -0.         -0.          0.         -0.          0.         -0.          0.         -0.         -0.          0.
   0.          0.        ]
 [-0.         -0.          0.         -0.         -0.          0.          0.         -0.         -0.          0.          0.          0.          0.
   0.          0.          0.         -0.         -0.          0.         -0.          0.         -0.          0.         -0.         -0.          0.
   0.          0.        ]
 [-0.         -0.          0.         -0.         -0.          0.          0.         -0.         -0.          0.          0.          0.          0.
   0.          0.          0.         -0.         -0.          0.         -0.          0.         -0.          0.         -0.         -0.          0.
   0.          0.        ]
 [-0.         -0.          0.         -0.         -0.          0.          0.         -0.         -0.          0.          0.          0.          0.
   0.          0.          0.         -0.         -0.          0.         -0.          0.         -0.          0.         -0.         -0.          0.
   0.          0.        ]
 [-0.         -0.          0.         -0.         -0.          0.          0.         -0.         -0.          0.          0.          0.          0.
   0.          0.          0.         -0.         -0.          0.         -0.          0.         -0.          0.         -0.         -0.          0.
   0.          0.        ]
 [-0.         -0.          0.         -0.         -0.          0.          0.         -0.         -0.          0.          0.          0.          0.
   0.          0.          0.         -0.         -0.          0.         -0.          0.         -0.          0.         -0.         -0.          0.
   0.          0.        ]
 [ 0.          0.         -0.          0.          0.         -0.         -0.          0.          0.         -0.         -0.         -0.         -0.
  -0.         -0.         -0.          0.          0.         -0.          0.         -0.          0.         -0.          0.          0.         -0.
  -0.         -0.        ]
 [ 0.00936977  0.00671199 -0.00177491  0.          0.         -0.         -0.          0.00163811  0.00009703 -0.         -0.         -0.         -0.
  -0.         -0.         -0.          0.          0.00013997 -0.00006753  0.00088446 -0.00016119  0.         -0.          0.          0.         -0.0005913
  -0.0003     -0.0001202 ]
 [-0.00452045 -0.0032382   0.00085631 -0.         -0.          0.          0.         -0.00079031 -0.00004681  0.          0.          0.          0.
   0.          0.          0.         -0.         -0.00006753  0.00003258 -0.00042671  0.00007777 -0.          0.         -0.         -0.          0.00028527
   0.00014474  0.00005799]
 [ 0.05920575  0.04241176 -0.01121534  0.          0.         -0.         -0.          0.01035088  0.00061309 -0.         -0.         -0.         -0.
  -0.         -0.         -0.          0.          0.00088446 -0.00042671  0.00558874 -0.00101855  0.         -0.          0.          0.         -0.00373628
  -0.00189565 -0.00075952]
 [-0.01079029 -0.00772957  0.002044   -0.         -0.          0.          0.         -0.00188645 -0.00011174  0.          0.          0.          0.
   0.          0.          0.         -0.         -0.00016119  0.00007777 -0.00101855  0.00018563 -0.          0.         -0.         -0.          0.00068094
   0.00034548  0.00013842]
 [ 0.          0.         -0.          0.          0.         -0.         -0.          0.          0.         -0.         -0.         -0.         -0.
  -0.         -0.         -0.          0.          0.         -0.          0.         -0.          0.         -0.          0.          0.         -0.
  -0.         -0.        ]
 [-0.         -0.          0.         -0.         -0.          0.          0.         -0.         -0.          0.          0.          0.          0.
   0.          0.          0.         -0.         -0.          0.         -0.          0.         -0.          0.         -0.         -0.          0.
   0.          0.        ]
 [ 0.          0.         -0.          0.          0.         -0.         -0.          0.          0.         -0.         -0.         -0.         -0.
  -0.         -0.         -0.          0.          0.         -0.          0.         -0.          0.         -0.          0.          0.         -0.
  -0.         -0.        ]
 [ 0.          0.         -0.          0.          0.         -0.         -0.          0.          0.         -0.         -0.         -0.         -0.
  -0.         -0.         -0.          0.          0.         -0.          0.         -0.          0.         -0.          0.          0.         -0.
  -0.         -0.        ]
 [-0.03958121 -0.02835382  0.00749786 -0.         -0.          0.          0.         -0.00691994 -0.00040987  0.          0.          0.          0.
   0.          0.          0.         -0.         -0.0005913   0.00028527 -0.00373628  0.00068094 -0.          0.         -0.         -0.          0.00249784
   0.00126731  0.00050777]
 [-0.02008206 -0.01438569  0.00380414 -0.         -0.          0.          0.         -0.00351092 -0.00020795  0.          0.          0.          0.
   0.          0.          0.         -0.         -0.0003      0.00014474 -0.00189565  0.00034548 -0.          0.         -0.         -0.          0.00126731
   0.00064299  0.00025762]
 [-0.00804615 -0.00576382  0.00152418 -0.         -0.          0.          0.         -0.0014067  -0.00008332  0.          0.          0.          0.
   0.          0.          0.         -0.         -0.0001202   0.00005799 -0.00075952  0.00013842 -0.          0.         -0.         -0.          0.00050777
   0.00025762  0.00010322]]

***************
SUHF converged at cycle 10
Final E(SUHF) =     -1.01755515, delta E = -3.71195e-09
***** Start DFT Correlation for SUHF+DFT **********
tot grids = 20048
E(SUHF) =     -1.01755515
E_c(TPSS) =     -0.00517598
E(SUHF+DFT) =     -1.02273112
