

#INFO: **** input file is /share/home/srwang/ExSCF/test/pytest/scan_h2/scan_dft.py ****
#import phf
from pyscf import lib
#import scipy
import numpy as np
import sys, os, contextlib

from pyphf import util, sudft

#xyz = 'h2.xyz' #sys.argv[1]
fch = 'test_uhf.fchk' #sys.argv[2]
#bas = '../h2.bas'
bas = 'cc-pvtz'

lib.num_threads(4)

for r in np.arange(0.5, 2.55, 0.1):
    output = 'tpss_mod/sudft_%.1f_diis_mod.out' % r
    os.system("echo '\n' > %s" % output)
    with open(output, 'a', encoding='utf-8') as f:
        with contextlib.redirect_stdout(f):
            xyz = '''H 0.0 0.0 0.0; H 0.0 0.0 %f'''%r
            mf = util.guess_from_fchk(xyz, bas, fch)
            #mf = util.guess(xyz, bas)
            #f.flush()
            mf2 = util.SUHF(mf)
            #mf2.cut_no = False
            mf2.debug = False
            #mf2.max_cycle = 50
            mf2.diis_on = True
            #mf2.output = 'sudft_%.1f.out'%r
            #mf2.kernel()
            
            mf3 = sudft.SUDFT(mf2)
            mf3.suxc = 'TPSS'
            mf3.kernel()
                    
#INFO: ******************** input file end ********************


System: uname_result(system='Linux', node='xc02n18', release='3.10.0-693.el7.x86_64', version='#1 SMP Thu Jul 6 19:56:57 EDT 2017', machine='x86_64', processor='x86_64')  Threads 4
Python 3.7.4 (default, Aug 13 2019, 20:35:49) 
[GCC 7.3.0]
numpy 1.17.2  scipy 1.4.1
Date: Tue Nov 24 03:44:53 2020
PySCF version 1.7.5
PySCF path  /share/home/srwang/pyscf-1.7.5/pyscf

[CONFIG] conf_file None
[INPUT] verbose = 4
[INPUT] num. atoms = 2
[INPUT] num. electrons = 2
[INPUT] charge = 0
[INPUT] spin (= nelec alpha-beta = 2S) = 0
[INPUT] symmetry False subgroup None
[INPUT] Mole.unit = angstrom
[INPUT]  1 H      0.000000000000   0.000000000000   0.000000000000 AA    0.000000000000   0.000000000000   0.000000000000 Bohr
[INPUT]  2 H      0.000000000000   0.000000000000   1.600000000000 AA    0.000000000000   0.000000000000   3.023561799304 Bohr

nuclear repulsion = 0.330735756825
number of shells = 12
number of NR pGTOs = 32
number of NR cGTOs = 28
basis = cc-pvtz
ecp = {}
CPU time:       294.02


******** <class 'pyscf.scf.uhf.UHF'> ********
method = UHF
initial guess = minao
damping factor = 0
level_shift factor = 0
DIIS = <class 'pyscf.scf.diis.CDIIS'>
diis_start_cycle = 1
diis_space = 8
SCF conv_tol = 1e-09
SCF conv_tol_grad = None
SCF max_cycles = 1
direct_scf = True
direct_scf_tol = 1e-13
chkfile to save SCF result = /share/home/srwang/ExSCF/test/pytest/scan_h2/tmp5maeocm1
max_memory 4000 MB (current use 117 MB)
number electrons alpha = 1  beta = 1
Set gradient conv threshold to 3.16228e-05
init E= -0.671053549815293
  alpha nocc = 1  HOMO = -0.303503140178609  LUMO = -0.0472824475900301
  beta  nocc = 1  HOMO = -0.301776199778324  LUMO = -0.0466711214948878
cycle= 1 E= -0.985181803294675  delta_E= -0.314  |g|= 0.0353  |ddm|= 0.377
SCF not converged.
SCF energy = -0.985181803294675 after 1 cycles  <S^2> = 4.3111873e-07  2S+1 = 1.0000009


******** <class 'pyscf.scf.uhf.UHF'> ********
method = UHF
initial guess = minao
damping factor = 0
level_shift factor = 0
DIIS = <class 'pyscf.scf.diis.CDIIS'>
diis_start_cycle = 1
diis_space = 8
SCF conv_tol = 1e-09
SCF conv_tol_grad = None
SCF max_cycles = 1
direct_scf = True
direct_scf_tol = 1e-13
chkfile to save SCF result = /share/home/srwang/ExSCF/test/pytest/scan_h2/tmp5maeocm1
max_memory 4000 MB (current use 120 MB)
number electrons alpha = 1  beta = 1
Set gradient conv threshold to 3.16228e-05
init E= -0.978765965486302
  alpha nocc = 1  HOMO = -0.488970331061899  LUMO = 0.0397346989512155
  beta  nocc = 1  HOMO = -0.488970331061901  LUMO = 0.0397346989512157
cycle= 1 E= -1.01394472512435  delta_E= -0.0352  |g|= 0.0211  |ddm|= 0.0376
SCF not converged.
SCF energy = -1.01394472512435 after 1 cycles  <S^2> = 0.54406307  2S+1 = 1.7822043

******** <class 'pyphf.util.SUHF'> ********
max_cycle = 70
verbose: normal
DIIS: <class 'pyscf.scf.diis.CDIIS'>
diis_start_cyc = 40
SVD: S^(-1/2)
[[-0.14874595  0.09163827  0.29711445 -0.         -0.          0.          0.          0.23575145 -0.01603463 -0.          0.         -0.         -0.
  -0.         -0.         -0.         -0.          0.15988468  0.68326138  0.63016265  0.         -0.         -0.11344462 -0.         -0.          0.82599069
  -0.37586844  0.83154801]
 [-0.22953455  0.09503007  0.30484075 -0.          0.         -0.         -0.          0.13024719 -0.01519952 -0.         -0.          0.          0.
   0.          0.          0.          0.          0.0002542   0.0632822  -0.26301915 -0.          0.          0.0216319   0.          0.         -1.64458402
   0.58431391 -1.80916429]
 [-0.24589622  0.12740829  0.1673466   0.         -0.          0.          0.          0.01203489  0.03853147  0.          0.         -0.         -0.
  -0.         -0.         -0.         -0.         -0.02038013 -0.48416692 -0.55191048 -0.         -0.         -0.07530629  0.         -0.          0.95995377
   1.0060557   1.68217561]
 [ 0.         -0.          0.          0.34849921 -0.01009777 -0.43011351 -0.00286462  0.         -0.         -0.09192827 -0.00543417 -0.          0.
  -0.          0.         -0.11053726  0.03647166  0.         -0.         -0.          0.40592771 -0.70124899  0.          0.35198046 -0.71968425 -0.
  -0.         -0.        ]
 [ 0.          0.          0.         -0.01009777 -0.34849921 -0.00286462  0.43011351  0.          0.          0.00543417 -0.09192827  0.          0.
   0.         -0.         -0.03647166 -0.11053726  0.         -0.         -0.          0.70124899  0.40592771  0.         -0.71968425 -0.35198046 -0.
   0.         -0.        ]
 [-0.06364225 -0.30258544 -0.14055381 -0.         -0.         -0.          0.          0.45798361  0.10813363  0.          0.          0.          0.
   0.          0.         -0.         -0.          0.30886769 -0.0106774  -0.4243623   0.          0.         -0.86853056  0.          0.         -0.09507891
  -0.67753001  0.03222742]
 [ 0.         -0.          0.          0.39974577 -0.01158264 -0.37680699 -0.00250959  0.         -0.         -0.02320629 -0.0013718  -0.         -0.
  -0.         -0.         -0.00313708  0.00103508 -0.          0.          0.         -0.3604037   0.62260527 -0.         -0.41204659  0.84249972 -0.
   0.          0.        ]
 [-0.          0.         -0.         -0.01158264 -0.39974577 -0.00250959  0.37680699  0.          0.          0.0013718  -0.02320629  0.          0.
  -0.          0.         -0.00103508 -0.00313708 -0.          0.          0.         -0.62260527 -0.3604037  -0.          0.84249972  0.41204659 -0.
  -0.          0.        ]
 [-0.12535026 -0.35827086 -0.19453148 -0.          0.          0.         -0.          0.24673326  0.07253897 -0.         -0.         -0.         -0.
  -0.         -0.         -0.          0.         -0.00478714  0.03912344  0.38176609 -0.         -0.          0.70003149  0.         -0.          0.17765067
   1.69135954 -0.13928351]
 [ 0.          0.          0.          0.          0.          0.         -0.          0.          0.         -0.          0.          0.70430413 -0.
   0.69317464  0.15338908  0.         -0.         -0.          0.          0.         -0.         -0.          0.         -0.          0.          0.
   0.          0.        ]
 [ 0.          0.         -0.         -0.00176635 -0.06096116  0.00047159 -0.07080835 -0.          0.         -0.04006111  0.67770274 -0.         -0.
  -0.         -0.         -0.22704916 -0.68813411  0.         -0.         -0.          0.07380264  0.04272168  0.          0.11176446  0.05466134 -0.
  -0.         -0.        ]
 [-0.02999275 -0.08689307 -0.00239797 -0.          0.          0.         -0.         -0.25226417 -0.65267381  0.          0.          0.         -0.
  -0.         -0.          0.          0.          0.70464257 -0.04426404  0.02975249 -0.         -0.         -0.06825647  0.          0.          0.07867059
   0.42264623 -0.15444668]
 [ 0.         -0.          0.          0.06096116 -0.00176635  0.07080835  0.00047159  0.          0.          0.67770274  0.04006111  0.         -0.
   0.          0.         -0.68813411  0.22704916 -0.          0.         -0.          0.04272168 -0.07380264  0.         -0.05466134  0.11176446 -0.
   0.          0.        ]
 [ 0.          0.          0.         -0.          0.         -0.         -0.          0.          0.         -0.         -0.         -0.         -0.70430413
  -0.15338908  0.69317464 -0.         -0.          0.          0.         -0.          0.         -0.         -0.         -0.          0.         -0.
  -0.         -0.        ]
 [-0.14874595  0.09163827 -0.29711445  0.         -0.         -0.          0.         -0.23575145 -0.01603463 -0.         -0.          0.         -0.
  -0.          0.         -0.          0.         -0.15988468  0.68326138 -0.63016265 -0.         -0.         -0.11344462  0.          0.          0.82599069
   0.37586844 -0.83154801]
 [-0.22953455  0.09503007 -0.30484075  0.          0.         -0.         -0.         -0.13024719 -0.01519952 -0.          0.         -0.          0.
   0.          0.         -0.         -0.         -0.0002542   0.0632822   0.26301915  0.          0.          0.0216319  -0.         -0.         -1.64458402
  -0.58431391  1.80916429]
 [-0.24589622  0.12740829 -0.1673466   0.          0.         -0.         -0.         -0.01203489  0.03853147  0.         -0.          0.          0.
   0.          0.          0.          0.          0.02038013 -0.48416692  0.55191048  0.          0.         -0.07530629 -0.          0.          0.95995377
  -1.0060557  -1.68217561]
 [ 0.         -0.          0.          0.34849921 -0.01009777  0.43011351  0.00286462 -0.         -0.         -0.09192827 -0.00543417 -0.          0.
  -0.         -0.          0.11053726 -0.03647166  0.         -0.         -0.          0.40592771 -0.70124899  0.         -0.35198046  0.71968425 -0.
  -0.          0.        ]
 [ 0.          0.         -0.         -0.01009777 -0.34849921  0.00286462 -0.43011351 -0.          0.          0.00543417 -0.09192827  0.          0.
   0.          0.          0.03647166  0.11053726  0.          0.         -0.          0.70124899  0.40592771  0.          0.71968425  0.35198046 -0.
  -0.          0.        ]
 [ 0.06364225  0.30258544 -0.14055381  0.          0.         -0.         -0.          0.45798361 -0.10813363  0.         -0.         -0.          0.
  -0.         -0.          0.          0.          0.30886769  0.0106774  -0.4243623  -0.         -0.          0.86853056 -0.          0.          0.09507891
  -0.67753001  0.03222742]
 [ 0.         -0.          0.          0.39974577 -0.01158264  0.37680699  0.00250959 -0.         -0.         -0.02320629 -0.0013718  -0.         -0.
  -0.          0.          0.00313708 -0.00103508  0.          0.          0.         -0.3604037   0.62260527 -0.          0.41204659 -0.84249972 -0.
  -0.         -0.        ]
 [ 0.          0.         -0.         -0.01158264 -0.39974577  0.00250959 -0.37680699 -0.          0.          0.0013718  -0.02320629 -0.          0.
  -0.          0.          0.00103508  0.00313708  0.         -0.          0.         -0.62260527 -0.3604037  -0.         -0.84249972 -0.41204659  0.
   0.         -0.        ]
 [ 0.12535026  0.35827086 -0.19453148  0.          0.         -0.         -0.          0.24673326 -0.07253897 -0.          0.          0.         -0.
  -0.          0.         -0.         -0.         -0.00478714 -0.03912344  0.38176609  0.         -0.         -0.70003149  0.         -0.         -0.17765067
   1.69135954 -0.13928351]
 [-0.         -0.          0.         -0.          0.          0.         -0.          0.          0.         -0.         -0.          0.70430413 -0.
  -0.69317464 -0.15338908 -0.         -0.          0.         -0.         -0.         -0.          0.         -0.         -0.          0.         -0.
  -0.          0.        ]
 [ 0.         -0.          0.          0.00176635  0.06096116  0.00047159 -0.07080835 -0.         -0.          0.04006111 -0.67770274 -0.          0.
   0.         -0.         -0.22704916 -0.68813411 -0.         -0.          0.         -0.07380264 -0.04272168 -0.          0.11176446  0.05466134 -0.
  -0.          0.        ]
 [-0.02999275 -0.08689307  0.00239797 -0.         -0.          0.         -0.          0.25226417 -0.65267381  0.          0.          0.          0.
   0.          0.         -0.          0.         -0.70464257 -0.04426404 -0.02975249  0.          0.         -0.06825647 -0.         -0.          0.07867059
  -0.42264623  0.15444668]
 [-0.          0.         -0.         -0.06096116  0.00176635  0.07080835  0.00047159 -0.         -0.         -0.67770274 -0.04006111 -0.          0.
  -0.         -0.         -0.68813411  0.22704916  0.         -0.          0.         -0.04272168  0.07380264 -0.         -0.05466134  0.11176446  0.
   0.          0.        ]
 [ 0.          0.          0.         -0.          0.         -0.          0.          0.          0.         -0.         -0.         -0.         -0.70430413
   0.15338908 -0.69317464  0.          0.          0.          0.          0.         -0.         -0.          0.          0.         -0.          0.
   0.          0.        ]]
C (ortho)
[[-0.88620198 -0.37041614  0.02628044  0.16078911  0.          0.         -0.20434188 -0.         -0.          0.02489454  0.00137874  0.00932851 -0.06426044
  -0.         -0.          0.          0.         -0.         -0.         -0.          0.         -0.         -0.         -0.00399471  0.          0.
   0.06543815 -0.00153515]
 [ 0.22617897  0.08855426  0.21635259  0.11531275  0.          0.         -0.84829729 -0.         -0.          0.03790727 -0.08693114 -0.02958904 -0.21712521
   0.         -0.          0.          0.          0.         -0.          0.          0.         -0.          0.         -0.02467774  0.          0.
   0.32194734 -0.00394032]
 [ 0.38057958 -0.78883712 -0.05265581  0.36739996  0.         -0.          0.04267236 -0.          0.         -0.20118364 -0.01630986  0.14165349 -0.00649681
  -0.         -0.         -0.          0.         -0.         -0.         -0.          0.         -0.         -0.         -0.17780586  0.          0.
  -0.01960612  0.02169716]
 [-0.          0.         -0.         -0.          0.51217923  0.71274441  0.         -0.01191387  0.11523232  0.         -0.         -0.         -0.
   0.00105625  0.01529229 -0.          0.          0.         -0.          0.01099229  0.04617031  0.45711317 -0.00517692 -0.          0.06887616  0.00606134
   0.          0.        ]
 [-0.         -0.          0.          0.         -0.71274441  0.51217923 -0.         -0.11523232 -0.01191387 -0.         -0.         -0.         -0.
  -0.01529229  0.00105625  0.          0.         -0.          0.         -0.04617031  0.01099229 -0.00517692 -0.45711317  0.          0.00606134 -0.06887616
  -0.          0.        ]
 [ 0.         -0.         -0.         -0.         -0.07058205 -0.09118311 -0.         -0.05620889  0.83273453  0.          0.          0.         -0.
  -0.00014165 -0.00134938 -0.         -0.          0.         -0.         -0.05945209 -0.21535468 -0.04073696 -0.00099019  0.          0.48467421  0.06011634
  -0.         -0.        ]
 [ 0.          0.         -0.          0.          0.09118311 -0.07058205  0.         -0.83273453 -0.05620889  0.          0.          0.          0.
   0.00134938 -0.00014165 -0.         -0.          0.         -0.          0.21535468 -0.05945209 -0.00099019  0.04073696 -0.          0.06011634 -0.48467421
   0.         -0.        ]
 [ 0.10266345 -0.12086042 -0.11909179  0.25199188  0.         -0.          0.05491265  0.          0.          0.75695562  0.01815829 -0.01118438  0.0048972
   0.          0.          0.         -0.          0.          0.          0.         -0.          0.         -0.          0.40544662 -0.         -0.
   0.03989778 -0.3933388 ]
 [ 0.00555248  0.0208838   0.0837848   0.03437069 -0.         -0.          0.1591379   0.          0.         -0.00100895 -0.13601448 -0.05096944 -0.91811543
   0.         -0.         -0.          0.          0.         -0.          0.          0.          0.          0.          0.04641188 -0.         -0.
  -0.31573014  0.01151349]
 [ 0.          0.          0.          0.         -0.00614383 -0.00911623 -0.         -0.00019315  0.00144257 -0.          0.          0.         -0.
   0.03884874  0.99859208  0.         -0.         -0.          0.         -0.00593797 -0.02875316 -0.00724603  0.00030017 -0.         -0.01631493 -0.00094241
   0.          0.        ]
 [ 0.          0.          0.          0.         -0.00911623  0.00614383  0.          0.00144257  0.00019315  0.         -0.         -0.          0.
   0.99859208 -0.03884874  0.          0.         -0.         -0.         -0.02875316  0.00593797 -0.00030017 -0.00724603 -0.          0.00094241 -0.01631493
   0.         -0.        ]
 [ 0.         -0.         -0.         -0.          0.         -0.         -0.         -0.          0.         -0.         -0.         -0.          0.
   0.          0.         -0.05994727  0.97252227  0.01349077  0.22455456  0.         -0.         -0.          0.          0.          0.         -0.
  -0.         -0.        ]
 [ 0.          0.          0.          0.         -0.         -0.          0.         -0.         -0.          0.          0.          0.         -0.
   0.          0.         -0.97252227 -0.05994727 -0.22455456  0.01349077  0.          0.         -0.         -0.         -0.         -0.         -0.
   0.         -0.        ]
 [ 0.         -0.         -0.         -0.         -0.         -0.         -0.          0.         -0.         -0.         -0.         -0.          0.
  -0.          0.         -0.06202582  0.21623956  0.1530889  -0.96226661 -0.          0.         -0.         -0.          0.         -0.          0.
  -0.         -0.        ]
 [ 0.         -0.         -0.         -0.          0.          0.         -0.         -0.          0.         -0.         -0.         -0.          0.
  -0.         -0.          0.21623956  0.06202582 -0.96226661 -0.1530889   0.         -0.          0.          0.          0.          0.          0.
  -0.         -0.        ]
 [ 0.          0.          0.          0.          0.00198614  0.00135887  0.         -0.00784452 -0.03142271 -0.          0.          0.         -0.
  -0.01281405 -0.02895593 -0.          0.         -0.          0.         -0.5062387  -0.77033259  0.14512714  0.05074057 -0.         -0.32006806 -0.14890488
   0.          0.        ]
 [-0.          0.         -0.         -0.          0.00135887 -0.00198614 -0.         -0.03142271  0.00784452 -0.          0.         -0.         -0.
  -0.02895593  0.01281405 -0.         -0.         -0.          0.         -0.77033259  0.5062387  -0.05074057  0.14512714  0.          0.14890488 -0.32006806
  -0.         -0.        ]
 [ 0.01468747 -0.00144814 -0.03562017  0.06594447 -0.         -0.          0.00133763  0.          0.         -0.07753425 -0.0876913   0.41178885  0.00407002
   0.         -0.          0.         -0.          0.          0.          0.         -0.          0.          0.          0.67244079 -0.         -0.
   0.07877409  0.59371121]
 [ 0.00863522 -0.12232377 -0.69552946 -0.32058833 -0.          0.         -0.1738745  -0.         -0.          0.00148929 -0.5893054  -0.14247212 -0.00475435
   0.          0.          0.         -0.          0.          0.          0.         -0.          0.          0.          0.00501254  0.         -0.
  -0.02350565  0.00320367]
 [-0.07034991  0.37003191 -0.29662547  0.4693006   0.         -0.          0.0089556   0.          0.          0.15907041 -0.11887645  0.5463804  -0.01932
  -0.         -0.         -0.          0.         -0.         -0.         -0.          0.         -0.         -0.         -0.45157096  0.          0.
  -0.04485853  0.07449107]
 [-0.          0.          0.          0.         -0.45630011  0.05841911 -0.         -0.0555117  -0.03787909  0.         -0.          0.          0.
   0.0057232   0.00260268 -0.         -0.          0.         -0.          0.09533287  0.02556858  0.42300133  0.7614157  -0.          0.04922983  0.11389403
  -0.          0.        ]
 [-0.         -0.         -0.         -0.          0.05841911  0.45630011  0.         -0.03787909  0.0555117  -0.          0.          0.          0.
   0.00260268 -0.0057232   0.         -0.         -0.          0.          0.02556858 -0.09533287 -0.7614157   0.42300133  0.         -0.11389403  0.04922983
  -0.         -0.        ]
 [-0.01171977 -0.00743368 -0.1172368  -0.07470516 -0.         -0.          0.35510332  0.          0.         -0.02303725  0.04074855  0.00427369 -0.26556091
  -0.         -0.         -0.          0.         -0.         -0.         -0.          0.         -0.          0.         -0.08960474  0.          0.
   0.87946797 -0.01259962]
 [ 0.          0.         -0.         -0.          0.03041813 -0.06080434 -0.         -0.49509319  0.19821367  0.         -0.         -0.          0.
   0.00431014 -0.00265919  0.          0.         -0.          0.         -0.22291348  0.19455289  0.03804366 -0.07443037 -0.         -0.42474408  0.66031055
   0.          0.        ]
 [ 0.          0.          0.          0.          0.06080434  0.03041813  0.         -0.19821367 -0.49509319 -0.          0.          0.         -0.
   0.00265919  0.00431014 -0.          0.         -0.          0.         -0.19455289 -0.22291348 -0.07443037 -0.03804366  0.          0.66031055  0.42474408
  -0.         -0.        ]
 [-0.02935792  0.06439618  0.4888547   0.24789134  0.         -0.          0.22641486  0.          0.          0.00752761 -0.75870658 -0.1601429   0.18559663
  -0.          0.         -0.          0.         -0.         -0.         -0.         -0.         -0.         -0.         -0.00950624  0.          0.
   0.08616203  0.00022573]
 [ 0.04284682 -0.16802953  0.12427807 -0.21639196 -0.          0.          0.0211087   0.         -0.          0.57984771  0.0447296  -0.17208794  0.0036173
  -0.          0.         -0.          0.         -0.         -0.         -0.          0.         -0.          0.         -0.35835086  0.         -0.
  -0.02347462  0.6406218 ]
 [-0.00179083 -0.18253157  0.29553408 -0.56565077 -0.          0.         -0.01878669 -0.         -0.          0.12789724 -0.15794401  0.657701   -0.01819021
   0.         -0.         -0.          0.         -0.         -0.         -0.          0.         -0.         -0.         -0.09255434  0.          0.
  -0.01403497 -0.27578271]]
[[-0.88620198 -0.37041614  0.02628044  0.16078911  0.          0.          0.20434188  0.         -0.         -0.02489454  0.00137874  0.00932851 -0.06426044
   0.         -0.          0.         -0.          0.         -0.         -0.         -0.         -0.          0.          0.00399471 -0.          0.
  -0.06543815  0.00153515]
 [ 0.22617897  0.08855426  0.21635259  0.11531275  0.          0.          0.84829729  0.         -0.         -0.03790727 -0.08693114 -0.02958904 -0.21712521
  -0.          0.          0.         -0.          0.         -0.         -0.         -0.         -0.          0.          0.02467774  0.          0.
  -0.32194734  0.00394032]
 [-0.38057958  0.78883712  0.05265581 -0.36739996 -0.          0.          0.04267236 -0.         -0.         -0.20118364  0.01630986 -0.14165349  0.00649681
   0.          0.         -0.         -0.          0.         -0.         -0.          0.          0.         -0.         -0.17780586 -0.         -0.
  -0.01960612  0.02169716]
 [ 0.         -0.         -0.          0.         -0.14715201  0.86526207 -0.          0.02987191  0.11192898 -0.         -0.         -0.         -0.
  -0.00976275 -0.01181772  0.         -0.          0.          0.         -0.02072436 -0.04269695  0.4417878   0.11748528 -0.          0.06612101  0.02021575
  -0.          0.        ]
 [ 0.         -0.         -0.          0.         -0.86526207 -0.14715201  0.         -0.11192898  0.02987191 -0.          0.         -0.         -0.
   0.01181772 -0.00976275 -0.          0.          0.         -0.          0.04269695 -0.02072436  0.11748528 -0.4417878   0.          0.02021575 -0.06612101
  -0.          0.        ]
 [ 0.          0.         -0.          0.         -0.01527124  0.11429337  0.         -0.24380261 -0.79822711  0.          0.         -0.          0.
  -0.00090084 -0.00101458  0.         -0.          0.          0.         -0.10465202 -0.19738324  0.03898229  0.01186852  0.         -0.46166431 -0.15933967
  -0.         -0.        ]
 [-0.          0.          0.         -0.         -0.11429337 -0.01527124 -0.          0.79822711 -0.24380261  0.         -0.          0.          0.
   0.00101458 -0.00090084 -0.          0.          0.         -0.          0.19738324 -0.10465202  0.01186852 -0.03898229  0.         -0.15933967  0.46166431
   0.         -0.        ]
 [-0.10266345  0.12086042  0.11909179 -0.25199188 -0.          0.          0.05491265 -0.          0.          0.75695562 -0.01815829  0.01118438 -0.0048972
  -0.          0.          0.          0.         -0.          0.          0.         -0.          0.          0.          0.40544662  0.          0.
   0.03989778 -0.3933388 ]
 [ 0.00555248  0.0208838   0.0837848   0.03437069  0.         -0.         -0.1591379  -0.         -0.          0.00100895 -0.13601448 -0.05096944 -0.91811543
  -0.          0.         -0.          0.         -0.          0.          0.         -0.         -0.         -0.         -0.04641188 -0.         -0.
   0.31573014 -0.01151349]
 [-0.          0.          0.         -0.          0.00216821 -0.01077734 -0.          0.00033284  0.00141687 -0.          0.         -0.         -0.
  -0.61301957 -0.78924164 -0.         -0.          0.         -0.          0.01202026  0.02678651 -0.00706153 -0.00165221 -0.         -0.01576464 -0.00430595
  -0.          0.        ]
 [ 0.         -0.         -0.         -0.         -0.01077734 -0.00216821  0.          0.00141687 -0.00033284  0.          0.          0.          0.
  -0.78924164  0.61301957 -0.         -0.          0.          0.          0.02678651 -0.01202026  0.00165221 -0.00706153 -0.          0.00430595 -0.01576464
  -0.         -0.        ]
 [ 0.         -0.         -0.          0.          0.         -0.          0.          0.         -0.         -0.         -0.          0.          0.
  -0.         -0.          0.91465218 -0.33586403 -0.01814673  0.22422633  0.          0.         -0.         -0.         -0.         -0.          0.
   0.         -0.        ]
 [-0.          0.         -0.          0.          0.          0.          0.          0.          0.         -0.         -0.          0.          0.
   0.         -0.         -0.33586403 -0.91465218 -0.22422633 -0.01814673  0.         -0.          0.         -0.          0.          0.         -0.
   0.          0.        ]
 [ 0.         -0.         -0.         -0.         -0.         -0.          0.          0.          0.         -0.          0.          0.          0.
  -0.         -0.         -0.18943071  0.12133737 -0.28657678  0.93127171  0.         -0.         -0.         -0.         -0.         -0.         -0.
  -0.         -0.        ]
 [-0.         -0.         -0.          0.          0.         -0.          0.          0.         -0.         -0.         -0.          0.          0.
   0.         -0.         -0.12133737 -0.18943071  0.93127171  0.28657678 -0.          0.         -0.          0.         -0.          0.          0.
   0.         -0.        ]
 [-0.         -0.          0.         -0.         -0.00042897 -0.00236796 -0.          0.01851294  0.02657432 -0.          0.         -0.         -0.
  -0.02727764 -0.0160803  -0.         -0.          0.          0.         -0.66096248 -0.64250955 -0.12622641 -0.08776892 -0.          0.28222154  0.21205477
   0.          0.        ]
 [ 0.         -0.          0.         -0.         -0.00236796  0.00042897 -0.          0.02657432 -0.01851294 -0.          0.          0.         -0.
  -0.0160803   0.02727764 -0.         -0.         -0.          0.         -0.64250955  0.66096248  0.08776892 -0.12622641  0.         -0.21205477  0.28222154
   0.         -0.        ]
 [-0.01468747  0.00144814  0.03562017 -0.06594447 -0.         -0.          0.00133763 -0.         -0.         -0.07753425  0.0876913  -0.41178885 -0.00407002
  -0.          0.          0.         -0.         -0.          0.          0.         -0.         -0.          0.          0.67244079  0.          0.
   0.07877409  0.59371121]
 [ 0.00863522 -0.12232377 -0.69552946 -0.32058833  0.         -0.          0.1738745   0.         -0.         -0.00148929 -0.5893054  -0.14247212 -0.00475435
   0.         -0.         -0.          0.          0.          0.         -0.          0.          0.          0.         -0.00501254  0.          0.
   0.02350565 -0.00320367]
 [ 0.07034991 -0.37003191  0.29662547 -0.4693006  -0.          0.          0.0089556  -0.          0.          0.15907041  0.11887645 -0.5463804   0.01932
   0.          0.         -0.          0.          0.         -0.         -0.          0.         -0.         -0.         -0.45157096 -0.         -0.
  -0.04485853  0.07449107]
 [ 0.         -0.         -0.          0.         -0.36222205 -0.28358026  0.         -0.06535742 -0.0156455   0.          0.         -0.          0.
  -0.00616842  0.00121637  0.         -0.         -0.          0.         -0.0986071  -0.00432974  0.20353231  0.8469112  -0.          0.02453538  0.12162829
   0.          0.        ]
 [-0.          0.         -0.          0.         -0.28358026  0.36222205  0.         -0.0156455   0.06535742 -0.         -0.         -0.          0.
   0.00121637  0.00616842 -0.         -0.         -0.         -0.         -0.00432974  0.0986071  -0.8469112   0.20353231  0.         -0.12162829  0.02453538
   0.         -0.        ]
 [-0.01171977 -0.00743368 -0.1172368  -0.07470516 -0.         -0.         -0.35510332 -0.         -0.          0.02303725  0.04074855  0.00427369 -0.26556091
   0.          0.          0.         -0.         -0.          0.         -0.         -0.         -0.          0.          0.08960474  0.          0.
  -0.87946797  0.01259962]
 [-0.          0.          0.         -0.         -0.06463511  0.02108868  0.          0.39214992 -0.36141992  0.          0.          0.          0.
   0.00195584 -0.00467154 -0.          0.         -0.          0.         -0.17552312  0.23818665 -0.05659466  0.06151622 -0.          0.55246789 -0.55785015
   0.          0.        ]
 [ 0.          0.          0.         -0.         -0.02108868 -0.06463511 -0.          0.36141992  0.39214992 -0.         -0.          0.          0.
   0.00467154  0.00195584 -0.         -0.          0.          0.         -0.23818665 -0.17552312  0.06151622  0.05659466  0.         -0.55785015 -0.55246789
  -0.         -0.        ]
 [-0.02935792  0.06439618  0.4888547   0.24789134 -0.         -0.         -0.22641486 -0.         -0.         -0.00752761 -0.75870658 -0.1601429   0.18559663
  -0.         -0.          0.         -0.         -0.          0.         -0.         -0.         -0.         -0.          0.00950624 -0.         -0.
  -0.08616203 -0.00022573]
 [-0.04284682  0.16802953 -0.12427807  0.21639196 -0.          0.          0.0211087  -0.          0.          0.57984771 -0.0447296   0.17208794 -0.0036173
   0.         -0.          0.         -0.         -0.          0.         -0.          0.         -0.         -0.         -0.35835086 -0.          0.
  -0.02347462  0.6406218 ]
 [ 0.00179083  0.18253157 -0.29553408  0.56565077  0.          0.         -0.01878669  0.          0.          0.12789724  0.15794401 -0.657701    0.01819021
   0.         -0.         -0.          0.          0.          0.         -0.          0.         -0.         -0.         -0.09255434 -0.         -0.
  -0.01403497 -0.27578271]]
grids:  [0.06237655 0.31939555 0.74529195 1.28265786 1.85893479 2.39630071 2.8221971  3.07921611] 
weights:  [0.15900941 0.34931531 0.49276925 0.56970235 0.56970235 0.49276925 0.34931531 0.15900941]
S = 0.0, Sz = 0.0
Wigner small d:  1
value : [1. 1. 1. 1. 1. 1. 1. 1.]
**** Start Cycle 1 ****
dm (ortho)
[[[ 0.78535395 -0.20044025 -0.33727038 ...  0.02601704 -0.03797094  0.00158704]
  [-0.20044025  0.05115693  0.0860791  ... -0.00664014  0.00969105 -0.00040505]
  [-0.33727038  0.0860791   0.14484082 ... -0.01117302  0.01630662 -0.00068155]
  ...
  [ 0.02601704 -0.00664014 -0.01117302 ...  0.00086189 -0.00125789  0.00005258]
  [-0.03797094  0.00969105  0.01630662 ... -0.00125789  0.00183585 -0.00007673]
  [ 0.00158704 -0.00040505 -0.00068155 ...  0.00005258 -0.00007673  0.00000321]]

 [[ 0.78535395 -0.20044025  0.33727038 ...  0.02601704  0.03797094 -0.00158704]
  [-0.20044025  0.05115693 -0.0860791  ... -0.00664014 -0.00969105  0.00040505]
  [ 0.33727038 -0.0860791   0.14484082 ...  0.01117302  0.01630662 -0.00068155]
  ...
  [ 0.02601704 -0.00664014  0.01117302 ...  0.00086189  0.00125789 -0.00005258]
  [ 0.03797094 -0.00969105  0.01630662 ...  0.00125789  0.00183585 -0.00007673]
  [-0.00158704  0.00040505 -0.00068155 ... -0.00005258 -0.00007673  0.00000321]]]
Fock (ortho)
 (array([[-0.28021282,  0.37468865,  0.20753126,  0.        , -0.        , -0.        ,  0.        ,  0.09263101,  0.07844004, -0.        , -0.        ,
        -0.        ,  0.        , -0.        , -0.        ,  0.        ,  0.        ,  0.02596722, -0.01308266,  0.01133451, -0.        , -0.        ,
         0.22696321, -0.        ,  0.        , -0.04601208,  0.01228944, -0.01059912],
       [ 0.37468865,  1.1734164 , -0.08657706,  0.        , -0.        ,  0.        ,  0.        ,  0.00971346,  0.13758415, -0.        , -0.        ,
        -0.        , -0.        , -0.        , -0.        ,  0.        ,  0.        ,  0.00789699,  0.153587  , -0.00951157, -0.        ,  0.        ,
         1.11518631, -0.        ,  0.        ,  0.07124164, -0.00045842,  0.00065462],
       [ 0.20753126, -0.08657706,  0.26858965,  0.        ,  0.        , -0.        , -0.        , -0.49709748,  0.00799067, -0.        ,  0.        ,
        -0.        ,  0.        , -0.        , -0.        , -0.        , -0.        , -0.22350245, -0.07993836,  0.58253523,  0.        , -0.        ,
         0.0045856 , -0.        , -0.        ,  0.00731875,  0.06134263,  0.16514145],
       [ 0.        ,  0.        ,  0.        ,  1.37244926,  0.        ,  0.04996962,  0.00178102,  0.        ,  0.        ,  0.02107874,  0.00063419,
         0.        ,  0.        ,  0.        , -0.        ,  0.00766735, -0.00277856,  0.        ,  0.        , -0.        ,  0.62528934, -1.15619195,
         0.        , -0.00142622,  0.00271403, -0.        , -0.        , -0.        ],
       [-0.        , -0.        ,  0.        ,  0.        ,  1.37244926, -0.00178102,  0.04996962, -0.        ,  0.        ,  0.00063419, -0.02107874,
         0.        , -0.        ,  0.        ,  0.        , -0.00277856, -0.00766735, -0.        , -0.        ,  0.        , -1.15619195, -0.62528934,
        -0.        , -0.00271403, -0.00142622,  0.        , -0.        ,  0.        ],
       [-0.        ,  0.        , -0.        ,  0.04996962, -0.00178102,  1.81179742,  0.        , -0.        , -0.        , -0.00987779, -0.00064995,
         0.        ,  0.        ,  0.        , -0.        ,  0.01724747, -0.00556369, -0.        , -0.        ,  0.        ,  0.00527845, -0.00898016,
         0.        , -0.60309199,  1.25422115,  0.        ,  0.        ,  0.        ],
       [ 0.        ,  0.        , -0.        ,  0.00178102,  0.04996962,  0.        ,  1.81179742,  0.        ,  0.        , -0.00064995,  0.00987779,
         0.        ,  0.        , -0.        , -0.        , -0.00556369, -0.01724747,  0.        ,  0.        , -0.        , -0.00898016, -0.00527845,
        -0.        , -1.25422115, -0.60309199, -0.        ,  0.        , -0.        ],
       [ 0.09263101,  0.00971346, -0.49709748,  0.        , -0.        , -0.        ,  0.        ,  2.18961607, -0.01481296, -0.        , -0.        ,
         0.        ,  0.        ,  0.        ,  0.        , -0.        ,  0.        , -0.13592313, -0.04045713, -0.66445765, -0.        , -0.        ,
         0.01593688,  0.        , -0.        , -0.00169012, -1.25324166,  0.39889168],
       [ 0.07844004,  0.13758415,  0.00799067,  0.        ,  0.        , -0.        ,  0.        , -0.01481296,  3.16720067, -0.        ,  0.        ,
         0.        , -0.        ,  0.        ,  0.        , -0.        , -0.        ,  0.01504216,  0.21629132,  0.00294418, -0.        ,  0.        ,
        -0.37977457, -0.        , -0.        , -0.32805495,  0.00131158, -0.00029006],
       [-0.        , -0.        , -0.        ,  0.02107874,  0.00063419, -0.00987779, -0.00064995, -0.        , -0.        ,  3.2173701 ,  0.        ,
        -0.        ,  0.        , -0.        , -0.        ,  0.01759644, -0.00698229, -0.        ,  0.        , -0.        , -0.00914651,  0.01820004,
         0.        ,  0.00118378, -0.002097  ,  0.        ,  0.        ,  0.        ],
       [-0.        , -0.        ,  0.        ,  0.00063419, -0.02107874, -0.00064995,  0.00987779, -0.        ,  0.        ,  0.        ,  3.2173701 ,
        -0.        , -0.        , -0.        ,  0.        ,  0.00698229,  0.01759644, -0.        , -0.        ,  0.        , -0.01820004, -0.00914651,
        -0.        , -0.002097  , -0.00118378, -0.        , -0.        , -0.        ],
       [-0.        , -0.        , -0.        ,  0.        ,  0.        ,  0.        ,  0.        ,  0.        ,  0.        , -0.        , -0.        ,
         3.41402843,  0.        , -0.02082643, -0.00460858,  0.        , -0.        , -0.        ,  0.        , -0.        , -0.        ,  0.        ,
        -0.        , -0.        , -0.        ,  0.        ,  0.        , -0.        ],
       [ 0.        , -0.        ,  0.        ,  0.        , -0.        ,  0.        ,  0.        ,  0.        , -0.        ,  0.        , -0.        ,
         0.        ,  3.41402843, -0.00460858,  0.02082643, -0.        ,  0.        , -0.        , -0.        ,  0.        , -0.        , -0.        ,
        -0.        ,  0.        , -0.        ,  0.        , -0.        , -0.        ],
       [-0.        , -0.        , -0.        ,  0.        ,  0.        ,  0.        , -0.        ,  0.        ,  0.        , -0.        , -0.        ,
        -0.02082643, -0.00460858,  3.49474309,  0.        , -0.        , -0.        , -0.        ,  0.        , -0.        , -0.        , -0.        ,
         0.        , -0.        , -0.        ,  0.        ,  0.        ,  0.        ],
       [-0.        , -0.        , -0.        , -0.        ,  0.        , -0.        , -0.        ,  0.        ,  0.        , -0.        ,  0.        ,
        -0.00460858,  0.02082643,  0.        ,  3.49474309,  0.        , -0.        , -0.        ,  0.        , -0.        ,  0.        , -0.        ,
        -0.        , -0.        , -0.        ,  0.        ,  0.        , -0.        ],
       [ 0.        ,  0.        , -0.        ,  0.00766735, -0.00277856,  0.01724747, -0.00556369, -0.        , -0.        ,  0.01759644,  0.00698229,
         0.        , -0.        , -0.        ,  0.        ,  3.74927632, -0.        , -0.        ,  0.        , -0.        ,  0.00359543, -0.00320057,
         0.        ,  0.0194635 , -0.14205191,  0.        ,  0.        ,  0.        ],
       [ 0.        ,  0.        , -0.        , -0.00277856, -0.00766735, -0.00556369, -0.01724747,  0.        , -0.        , -0.00698229,  0.01759644,
        -0.        ,  0.        , -0.        , -0.        , -0.        ,  3.74927632, -0.        ,  0.        , -0.        ,  0.00320057,  0.00359543,
        -0.        , -0.14205191, -0.0194635 ,  0.        ,  0.        ,  0.        ],
       [ 0.02596722,  0.00789699, -0.22350245,  0.        , -0.        , -0.        ,  0.        , -0.13592313,  0.01504216, -0.        , -0.        ,
        -0.        , -0.        , -0.        , -0.        , -0.        , -0.        ,  4.00295793, -0.01642889, -0.3599151 , -0.        , -0.        ,
         0.01119238,  0.        ,  0.        , -0.00425187,  0.63110467, -0.32007268],
       [-0.01308266,  0.153587  , -0.07993836,  0.        , -0.        , -0.        ,  0.        , -0.04045713,  0.21629132,  0.        , -0.        ,
         0.        , -0.        ,  0.        ,  0.        ,  0.        ,  0.        , -0.01642889,  1.17195583, -0.03931152,  0.        ,  0.        ,
        -0.15452708,  0.        ,  0.        ,  0.97292658,  0.00629966, -0.0104569 ],
       [ 0.01133451, -0.00951157,  0.58253523, -0.        ,  0.        ,  0.        , -0.        , -0.66445765,  0.00294418, -0.        ,  0.        ,
        -0.        ,  0.        , -0.        , -0.        , -0.        , -0.        , -0.3599151 , -0.03931152,  1.84671843, -0.        ,  0.        ,
        -0.00703305, -0.        ,  0.        , -0.01635903,  0.66357204,  0.94635338],
       [-0.        , -0.        ,  0.        ,  0.62528934, -1.15619195,  0.00527845, -0.00898016, -0.        , -0.        , -0.00914651, -0.01820004,
        -0.        , -0.        , -0.        ,  0.        ,  0.00359543,  0.00320057, -0.        ,  0.        , -0.        ,  3.18011264,  0.        ,
        -0.        ,  0.00961162,  0.01431826, -0.        ,  0.        , -0.        ],
       [-0.        ,  0.        , -0.        , -1.15619195, -0.62528934, -0.00898016, -0.00527845, -0.        ,  0.        ,  0.01820004, -0.00914651,
         0.        , -0.        , -0.        , -0.        , -0.00320057,  0.00359543, -0.        ,  0.        ,  0.        ,  0.        ,  3.18011264,
         0.        ,  0.01431826, -0.00961162,  0.        ,  0.        ,  0.        ],
       [ 0.22696321,  1.11518631,  0.0045856 ,  0.        , -0.        ,  0.        , -0.        ,  0.01593688, -0.37977457,  0.        , -0.        ,
        -0.        , -0.        ,  0.        , -0.        ,  0.        , -0.        ,  0.01119238, -0.15452708, -0.00703305, -0.        ,  0.        ,
         3.59313788, -0.        ,  0.        ,  0.11777221, -0.00947495,  0.00325708],
       [-0.        , -0.        , -0.        , -0.00142622, -0.00271403, -0.60309199, -1.25422115,  0.        , -0.        ,  0.00118378, -0.002097  ,
        -0.        ,  0.        , -0.        , -0.        ,  0.0194635 , -0.14205191,  0.        ,  0.        , -0.        ,  0.00961162,  0.01431826,
        -0.        ,  3.10774212,  0.        ,  0.        , -0.        , -0.        ],
       [ 0.        ,  0.        , -0.        ,  0.00271403, -0.00142622,  1.25422115, -0.60309199, -0.        , -0.        , -0.002097  , -0.00118378,
        -0.        , -0.        , -0.        , -0.        , -0.14205191, -0.0194635 ,  0.        ,  0.        ,  0.        ,  0.01431826, -0.00961162,
         0.        , -0.        ,  3.10774212,  0.        ,  0.        ,  0.        ],
       [-0.04601208,  0.07124164,  0.00731875, -0.        ,  0.        ,  0.        , -0.        , -0.00169012, -0.32805495,  0.        , -0.        ,
         0.        ,  0.        ,  0.        ,  0.        ,  0.        ,  0.        , -0.00425187,  0.97292658, -0.01635903, -0.        ,  0.        ,
         0.11777221,  0.        ,  0.        ,  1.79375454,  0.00376681, -0.01376787],
       [ 0.01228944, -0.00045842,  0.06134263, -0.        , -0.        ,  0.        ,  0.        , -1.25324166,  0.00131158,  0.        , -0.        ,
         0.        , -0.        ,  0.        ,  0.        ,  0.        ,  0.        ,  0.63110467,  0.00629966,  0.66357204,  0.        ,  0.        ,
        -0.00947495, -0.        ,  0.        ,  0.00376681,  3.05327091, -0.88331696],
       [-0.01059912,  0.00065462,  0.16514145, -0.        ,  0.        ,  0.        , -0.        ,  0.39889168, -0.00029006,  0.        , -0.        ,
        -0.        , -0.        ,  0.        , -0.        ,  0.        ,  0.        , -0.32007268, -0.0104569 ,  0.94635338, -0.        ,  0.        ,
         0.00325708, -0.        ,  0.        , -0.01376787, -0.88331696,  1.82843229]]), array([[-0.28021282,  0.37468865, -0.20753126,  0.        ,  0.        , -0.        , -0.        , -0.09263101,  0.07844004, -0.        , -0.        ,
        -0.        , -0.        , -0.        , -0.        ,  0.        ,  0.        , -0.02596722, -0.01308266, -0.01133451, -0.        , -0.        ,
         0.22696321, -0.        ,  0.        , -0.04601208, -0.01228944,  0.01059912],
       [ 0.37468865,  1.1734164 ,  0.08657706, -0.        , -0.        ,  0.        ,  0.        , -0.00971346,  0.13758415, -0.        , -0.        ,
        -0.        ,  0.        , -0.        , -0.        ,  0.        ,  0.        , -0.00789699,  0.153587  ,  0.00951157, -0.        ,  0.        ,
         1.11518631, -0.        ,  0.        ,  0.07124164,  0.00045842, -0.00065462],
       [-0.20753126,  0.08657706,  0.26858965,  0.        ,  0.        , -0.        , -0.        , -0.49709748, -0.00799067, -0.        ,  0.        ,
        -0.        , -0.        , -0.        , -0.        , -0.        ,  0.        , -0.22350245,  0.07993836,  0.58253523,  0.        , -0.        ,
        -0.0045856 , -0.        , -0.        , -0.00731875,  0.06134263,  0.16514145],
       [ 0.        , -0.        ,  0.        ,  1.37244926,  0.        , -0.04996962, -0.00178102,  0.        ,  0.        ,  0.02107874,  0.00063419,
         0.        ,  0.        ,  0.        , -0.        , -0.00766735,  0.00277856,  0.        ,  0.        , -0.        ,  0.62528934, -1.15619195,
         0.        ,  0.00142622, -0.00271403, -0.        , -0.        , -0.        ],
       [ 0.        , -0.        ,  0.        ,  0.        ,  1.37244926,  0.00178102, -0.04996962, -0.        ,  0.        ,  0.00063419, -0.02107874,
         0.        , -0.        ,  0.        ,  0.        ,  0.00277856,  0.00766735, -0.        , -0.        ,  0.        , -1.15619195, -0.62528934,
        -0.        ,  0.00271403,  0.00142622,  0.        , -0.        ,  0.        ],
       [-0.        ,  0.        , -0.        , -0.04996962,  0.00178102,  1.81179742,  0.        , -0.        , -0.        ,  0.00987779,  0.00064995,
         0.        ,  0.        ,  0.        , -0.        ,  0.01724747, -0.00556369, -0.        , -0.        ,  0.        , -0.00527845,  0.00898016,
         0.        , -0.60309199,  1.25422115,  0.        ,  0.        ,  0.        ],
       [-0.        ,  0.        , -0.        , -0.00178102, -0.04996962,  0.        ,  1.81179742,  0.        ,  0.        ,  0.00064995, -0.00987779,
         0.        ,  0.        , -0.        , -0.        , -0.00556369, -0.01724747,  0.        ,  0.        , -0.        ,  0.00898016,  0.00527845,
        -0.        , -1.25422115, -0.60309199, -0.        ,  0.        , -0.        ],
       [-0.09263101, -0.00971346, -0.49709748,  0.        , -0.        , -0.        ,  0.        ,  2.18961607,  0.01481296, -0.        ,  0.        ,
         0.        , -0.        ,  0.        ,  0.        , -0.        ,  0.        , -0.13592313,  0.04045713, -0.66445765, -0.        , -0.        ,
        -0.01593688,  0.        , -0.        ,  0.00169012, -1.25324166,  0.39889168],
       [ 0.07844004,  0.13758415, -0.00799067,  0.        ,  0.        , -0.        ,  0.        ,  0.01481296,  3.16720067, -0.        ,  0.        ,
         0.        , -0.        ,  0.        ,  0.        , -0.        , -0.        , -0.01504216,  0.21629132, -0.00294418, -0.        ,  0.        ,
        -0.37977457, -0.        , -0.        , -0.32805495, -0.00131158,  0.00029006],
       [-0.        , -0.        , -0.        ,  0.02107874,  0.00063419,  0.00987779,  0.00064995, -0.        , -0.        ,  3.2173701 ,  0.        ,
        -0.        ,  0.        , -0.        , -0.        , -0.01759644,  0.00698229, -0.        ,  0.        , -0.        , -0.00914651,  0.01820004,
         0.        , -0.00118378,  0.002097  ,  0.        ,  0.        ,  0.        ],
       [-0.        , -0.        ,  0.        ,  0.00063419, -0.02107874,  0.00064995, -0.00987779,  0.        ,  0.        ,  0.        ,  3.2173701 ,
        -0.        , -0.        , -0.        ,  0.        , -0.00698229, -0.01759644, -0.        , -0.        ,  0.        , -0.01820004, -0.00914651,
        -0.        ,  0.002097  ,  0.00118378, -0.        , -0.        , -0.        ],
       [-0.        , -0.        , -0.        ,  0.        ,  0.        ,  0.        ,  0.        ,  0.        ,  0.        , -0.        , -0.        ,
         3.41402843,  0.        ,  0.02082643,  0.00460858,  0.        ,  0.        , -0.        ,  0.        , -0.        , -0.        ,  0.        ,
        -0.        , -0.        , -0.        ,  0.        ,  0.        , -0.        ],
       [-0.        ,  0.        , -0.        ,  0.        , -0.        ,  0.        ,  0.        , -0.        , -0.        ,  0.        , -0.        ,
         0.        ,  3.41402843,  0.00460858, -0.02082643, -0.        ,  0.        , -0.        ,  0.        , -0.        , -0.        , -0.        ,
        -0.        ,  0.        , -0.        , -0.        , -0.        ,  0.        ],
       [-0.        , -0.        , -0.        ,  0.        ,  0.        ,  0.        , -0.        ,  0.        ,  0.        , -0.        , -0.        ,
         0.02082643,  0.00460858,  3.49474309,  0.        , -0.        , -0.        , -0.        ,  0.        , -0.        , -0.        , -0.        ,
         0.        , -0.        , -0.        ,  0.        ,  0.        ,  0.        ],
       [-0.        , -0.        , -0.        , -0.        ,  0.        , -0.        , -0.        ,  0.        ,  0.        , -0.        ,  0.        ,
         0.00460858, -0.02082643,  0.        ,  3.49474309,  0.        , -0.        , -0.        ,  0.        , -0.        ,  0.        , -0.        ,
        -0.        , -0.        , -0.        ,  0.        ,  0.        , -0.        ],
       [ 0.        ,  0.        , -0.        , -0.00766735,  0.00277856,  0.01724747, -0.00556369, -0.        , -0.        , -0.01759644, -0.00698229,
         0.        , -0.        , -0.        ,  0.        ,  3.74927632,  0.        , -0.        ,  0.        , -0.        , -0.00359543,  0.00320057,
         0.        ,  0.0194635 , -0.14205191,  0.        ,  0.        ,  0.        ],
       [ 0.        ,  0.        ,  0.        ,  0.00277856,  0.00766735, -0.00556369, -0.01724747,  0.        , -0.        ,  0.00698229, -0.01759644,
         0.        ,  0.        , -0.        , -0.        , -0.        ,  3.74927632, -0.        ,  0.        , -0.        , -0.00320057, -0.00359543,
        -0.        , -0.14205191, -0.0194635 ,  0.        ,  0.        ,  0.        ],
       [-0.02596722, -0.00789699, -0.22350245,  0.        , -0.        , -0.        ,  0.        , -0.13592313, -0.01504216, -0.        , -0.        ,
        -0.        , -0.        , -0.        , -0.        , -0.        , -0.        ,  4.00295793,  0.01642889, -0.3599151 , -0.        , -0.        ,
        -0.01119238,  0.        ,  0.        ,  0.00425187,  0.63110467, -0.32007268],
       [-0.01308266,  0.153587  ,  0.07993836,  0.        , -0.        , -0.        ,  0.        ,  0.04045713,  0.21629132,  0.        , -0.        ,
         0.        ,  0.        ,  0.        ,  0.        ,  0.        ,  0.        ,  0.01642889,  1.17195583,  0.03931152,  0.        ,  0.        ,
        -0.15452708,  0.        ,  0.        ,  0.97292658, -0.00629966,  0.0104569 ],
       [-0.01133451,  0.00951157,  0.58253523, -0.        ,  0.        ,  0.        , -0.        , -0.66445765, -0.00294418, -0.        ,  0.        ,
        -0.        , -0.        , -0.        , -0.        , -0.        , -0.        , -0.3599151 ,  0.03931152,  1.84671843, -0.        ,  0.        ,
         0.00703305, -0.        ,  0.        ,  0.01635903,  0.66357204,  0.94635338],
       [-0.        , -0.        ,  0.        ,  0.62528934, -1.15619195, -0.00527845,  0.00898016, -0.        , -0.        , -0.00914651, -0.01820004,
        -0.        , -0.        , -0.        ,  0.        , -0.00359543, -0.00320057, -0.        ,  0.        , -0.        ,  3.18011264,  0.        ,
        -0.        , -0.00961162, -0.01431826, -0.        ,  0.        , -0.        ],
       [-0.        ,  0.        , -0.        , -1.15619195, -0.62528934,  0.00898016,  0.00527845, -0.        ,  0.        ,  0.01820004, -0.00914651,
         0.        , -0.        , -0.        , -0.        ,  0.00320057, -0.00359543, -0.        ,  0.        ,  0.        ,  0.        ,  3.18011264,
         0.        , -0.01431826,  0.00961162,  0.        ,  0.        ,  0.        ],
       [ 0.22696321,  1.11518631, -0.0045856 ,  0.        , -0.        ,  0.        , -0.        , -0.01593688, -0.37977457,  0.        , -0.        ,
        -0.        , -0.        ,  0.        , -0.        ,  0.        , -0.        , -0.01119238, -0.15452708,  0.00703305, -0.        ,  0.        ,
         3.59313788, -0.        ,  0.        ,  0.11777221,  0.00947495, -0.00325708],
       [-0.        , -0.        , -0.        ,  0.00142622,  0.00271403, -0.60309199, -1.25422115,  0.        , -0.        , -0.00118378,  0.002097  ,
        -0.        ,  0.        , -0.        , -0.        ,  0.0194635 , -0.14205191,  0.        ,  0.        , -0.        , -0.00961162, -0.01431826,
        -0.        ,  3.10774212, -0.        ,  0.        , -0.        , -0.        ],
       [ 0.        ,  0.        , -0.        , -0.00271403,  0.00142622,  1.25422115, -0.60309199, -0.        , -0.        ,  0.002097  ,  0.00118378,
        -0.        , -0.        , -0.        , -0.        , -0.14205191, -0.0194635 ,  0.        ,  0.        ,  0.        , -0.01431826,  0.00961162,
         0.        , -0.        ,  3.10774212,  0.        ,  0.        ,  0.        ],
       [-0.04601208,  0.07124164, -0.00731875, -0.        ,  0.        ,  0.        , -0.        ,  0.00169012, -0.32805495,  0.        , -0.        ,
         0.        , -0.        ,  0.        ,  0.        ,  0.        ,  0.        ,  0.00425187,  0.97292658,  0.01635903, -0.        ,  0.        ,
         0.11777221,  0.        ,  0.        ,  1.79375454, -0.00376681,  0.01376787],
       [-0.01228944,  0.00045842,  0.06134263, -0.        , -0.        ,  0.        ,  0.        , -1.25324166, -0.00131158,  0.        , -0.        ,
         0.        , -0.        ,  0.        ,  0.        ,  0.        ,  0.        ,  0.63110467, -0.00629966,  0.66357204,  0.        ,  0.        ,
         0.00947495, -0.        ,  0.        , -0.00376681,  3.05327091, -0.88331696],
       [ 0.01059912, -0.00065462,  0.16514145, -0.        ,  0.        ,  0.        , -0.        ,  0.39889168,  0.00029006,  0.        , -0.        ,
        -0.        ,  0.        ,  0.        , -0.        ,  0.        ,  0.        , -0.32007268,  0.0104569 ,  0.94635338, -0.        ,  0.        ,
        -0.00325708, -0.        ,  0.        ,  0.01376787, -0.88331696,  1.82843229]]))
E(UHF) =    -1.344680
NO eigenvalue
[-1. -0. -0. -0. -0. -0. -0. -0. -0. -0. -0. -0. -0. -0. -0. -0. -0. -0.  0.  0.  0.  0.  0.  0.  0.  0.  0.  0.] [-1. -0. -0. -0. -0. -0. -0. -0. -0. -0. -0. -0. -0. -0. -0.  0.  0.  0.  0.  0.  0.  0.  0.  0.  0.  0.  0.  0.]
NO vec
[[ 0.88620198  0.          0.26306021 ...  0.          0.          0.        ]
 [-0.22617897  0.          0.94626088 ...  0.          0.          0.        ]
 [-0.38057958  0.         -0.01056115 ...  0.          0.          0.        ]
 ...
 [ 0.          0.02935792  0.         ... -0.21929566 -0.03352835  0.02687466]
 [ 0.          0.04284682  0.         ...  0.26334119 -0.17237355  0.04574348]
 [ 0.         -0.00179083  0.         ...  0.03479727 -0.00441202 -0.00514788]]
dm(NO)
[[ 1.  0.  0. ...  0.  0.  0.]
 [ 0.  1.  0. ...  0.  0. -0.]
 [-0.  0. -0. ...  0.  0.  0.]
 ...
 [ 0.  0.  0. ... -0. -0. -0.]
 [ 0. -0.  0. ... -0.  0.  0.]
 [ 0. -0.  0. ...  0. -0. -0.]]
D(g) (NO)
[[ 0.99951369  0.02105588 -0.         ... -0.0019413   0.01739705 -0.01453075]
 [-0.02105588  0.99951369 -0.00115129 ...  0.         -0.         -0.        ]
 [-0.          0.00115129  0.99951369 ...  0.00056284 -0.02030198 -0.02196169]
 ...
 [ 0.0019413   0.         -0.00056284 ...  0.99951369 -0.          0.        ]
 [-0.01739705 -0.          0.02030198 ... -0.          0.99951369  0.        ]
 [ 0.01453075  0.          0.02196169 ...  0.          0.          0.99951369]]
...
N(g) (NO)
[[ 1.00004275 -0.02106702]
 [ 0.02106702  1.00004275]]
...
P(g) (NO)
[[ 1.          0.          0.         ...  0.          0.         -0.        ]
 [ 0.          1.         -0.         ...  0.          0.         -0.        ]
 [ 0.00002425  0.00115134  0.         ...  0.          0.         -0.        ]
 ...
 [ 0.00194138 -0.0000409   0.         ... -0.         -0.          0.        ]
 [-0.01739779  0.0003665  -0.         ...  0.          0.         -0.        ]
 [ 0.01453137 -0.00030612  0.         ... -0.         -0.          0.        ]]
...
Pg_ortho
[[ 0.7855215  -0.20048301 -0.33734234 ...  0.00026349  0.00038456 -0.00001607]
 [-0.20048301  0.05116784  0.08609746 ... -0.00006725 -0.00009815  0.0000041 ]
 [-0.3368992   0.08598436  0.14468142 ...  0.00058369  0.00085188 -0.00003561]
 ...
 [-0.00026349  0.00006725  0.00011316 ...  0.00086207  0.00125816 -0.00005259]
 [ 0.00198365 -0.00050627 -0.00085188 ...  0.00125651  0.00183383 -0.00007665]
 [-0.00008291  0.00002116  0.00003561 ... -0.00005252 -0.00007665  0.0000032 ]]
G(g) (NO)
[[ 0.38145414 -0.00196102  0.06520843 ...  0.00075157  0.00129446 -0.00116777]
 [ 0.00196102  0.38145414 -0.00023212 ... -0.01480354  0.02229113 -0.10065084]
 [ 0.06518365 -0.00008281  0.9434754  ...  0.00022585  0.00025115  0.00170763]
 ...
 [ 0.00138875 -0.01481191  0.00050206 ...  0.81852215  0.10486704 -0.10310841]
 [ 0.01031919  0.02218962 -0.00083874 ...  0.10486701  0.90294064  0.02975572]
 [-0.00766787 -0.10054629 -0.00093871 ... -0.10312307  0.02971811  0.91690561]]
...
C(NO)
[[-1.          0.         -0.         ...  0.          0.          0.        ]
 [ 0.         -1.          0.         ...  0.         -0.         -0.        ]
 [ 0.          0.         -0.04888305 ...  0.          0.          0.        ]
 ...
 [ 0.         -0.          0.         ...  0.         -0.0071481   0.05877998]
 [ 0.          0.          0.         ... -0.          0.25536558 -0.0410527 ]
 [ 0.          0.          0.         ...  0.          0.23770482 -0.05938464]]
detC 1.0000000000000007
detNg [1.00052932 1.01394981 1.07772359 1.24181782 1.53688723 1.89374132 2.12904201 2.19074381]
xg [0.99947096 0.98624211 0.9278817  0.8052711  0.65066583 0.52805523 0.46969482 0.45646597]
ciS 1.4559369285614294
[[-0.86304665  0.         -0.06103088 ...  0.          0.          0.        ]
 [ 0.         -0.86304665  0.         ...  0.01702385 -0.01392142  0.08940469]
 [-0.06103088  0.          0.32400159 ...  0.          0.          0.        ]
 ...
 [ 0.          0.01702385  0.         ...  0.50867803  0.05349851 -0.04860249]
 [ 0.         -0.01392142  0.         ...  0.05349851 -0.17060234  0.560197  ]
 [ 0.          0.08940469  0.         ... -0.04860249  0.560197   -0.11019523]]
ciH -1.9838411050305533
S2 = 0.000000
X(g)
[[ 2.          0.          0.00002425 ... -0.00194138  0.01739779 -0.01453137]
 [-0.          2.         -0.00115134 ... -0.0000409   0.0003665  -0.00030612]
 [ 0.00002425  0.00115134  0.         ...  0.          0.          0.        ]
 ...
 [ 0.00194138 -0.0000409   0.         ...  0.          0.          0.        ]
 [-0.01739779  0.0003665   0.         ...  0.          0.          0.        ]
 [ 0.01453137 -0.00030612  0.         ...  0.          0.          0.        ]]
X(g) int
[[ 2.          0.          0.01712275 ... -0.03358291  0.30095529 -0.25137061]
 [-0.          2.         -0.01991641 ... -0.02887227  0.25874055 -0.21611106]
 [ 0.01712275  0.01991641  0.         ...  0.          0.          0.        ]
 ...
 [ 0.03358291 -0.02887227  0.         ...  0.          0.          0.        ]
 [-0.30095529  0.25874055  0.         ...  0.          0.          0.        ]
 [ 0.25137061 -0.21611106  0.         ...  0.          0.          0.        ]]
Hsp + Hph =  -1.362587256434749
Feff (mod,ortho)
[[-0.26221247  0.36833154  0.22552581 ...  0.          0.          0.        ]
 [ 0.36833154  1.17548884 -0.09041255 ...  0.          0.          0.        ]
 [ 0.22552581 -0.09041255  0.24981436 ...  0.          0.          0.        ]
 ...
 [ 0.          0.          0.         ...  1.79380697 -0.00370909  0.01382183]
 [ 0.          0.          0.         ... -0.00370909  3.05332771 -0.88323705]
 [ 0.          0.          0.         ...  0.01382183 -0.88323705  1.82842551]]
E(SUHF) =     -1.03185150
e_a, e_b
[-0.4845889   0.06709702  0.35900979  0.47222859  0.67540832  0.67540832  0.78603101  0.92673018  0.92673018  1.30370302  2.48859033  2.68362826  3.16304502
  3.21692522  3.21692522  3.40873827  3.40873827  3.50003325  3.50003325  3.70731127  3.70731127  3.86988527  3.86988527  3.9279353   4.04248759  4.04248759
  4.17348174  4.86867659] [-0.4845889   0.06709702  0.35900979  0.47222859  0.67540832  0.67540832  0.78603101  0.92673018  0.92673018  1.30370302  2.48859033  2.68362826  3.16304502
  3.21692522  3.21692522  3.40873827  3.40873827  3.50003325  3.50003325  3.70731127  3.70731127  3.86988527  3.86988527  3.9279353   4.04248759  4.04248759
  4.17348174  4.86867659]
P_a, P_b
[[ 0.73754271 -0.19048727 -0.37419914 -0.          0.          0.         -0.         -0.10380908 -0.00546706 -0.         -0.         -0.         -0.
  -0.         -0.         -0.          0.         -0.01548064 -0.00008144  0.06327645  0.          0.          0.01040728 -0.         -0.          0.02089711
  -0.04049013  0.0053697 ]
 [-0.19048727  0.0491977   0.09664549  0.         -0.         -0.          0.          0.02681107  0.00141199  0.          0.          0.          0.
   0.          0.          0.         -0.          0.00399823  0.00002103 -0.01634259 -0.         -0.         -0.00268792  0.          0.         -0.00539716
   0.0104575  -0.00138685]
 [-0.37419914  0.09664549  0.1898534   0.         -0.         -0.          0.          0.0526685   0.00277376  0.          0.          0.          0.
   0.          0.          0.         -0.          0.00785425  0.00004132 -0.03210389 -0.         -0.         -0.00528023  0.          0.         -0.01060234
   0.02054304 -0.00272437]
 [-0.          0.          0.          0.         -0.         -0.          0.          0.          0.          0.          0.          0.          0.
   0.          0.          0.         -0.          0.          0.         -0.         -0.         -0.         -0.          0.          0.         -0.
   0.         -0.        ]
 [ 0.         -0.         -0.         -0.          0.          0.         -0.         -0.         -0.         -0.         -0.         -0.         -0.
  -0.         -0.         -0.          0.         -0.         -0.          0.          0.          0.          0.         -0.         -0.          0.
  -0.          0.        ]
 [ 0.         -0.         -0.         -0.          0.          0.         -0.         -0.         -0.         -0.         -0.         -0.         -0.
  -0.         -0.         -0.          0.         -0.         -0.          0.          0.          0.          0.         -0.         -0.          0.
  -0.          0.        ]
 [-0.          0.          0.          0.         -0.         -0.          0.          0.          0.          0.          0.          0.          0.
   0.          0.          0.         -0.          0.          0.         -0.         -0.         -0.         -0.          0.          0.         -0.
   0.         -0.        ]
 [-0.10380908  0.02681107  0.0526685   0.         -0.         -0.          0.          0.01461112  0.00076949  0.          0.          0.          0.
   0.          0.          0.         -0.          0.0021789   0.00001146 -0.00890616 -0.         -0.         -0.00146482  0.          0.         -0.00294127
   0.00569898 -0.00075579]
 [-0.00546706  0.00141199  0.00277376  0.         -0.         -0.          0.          0.00076949  0.00004052  0.          0.          0.          0.
   0.          0.          0.         -0.          0.00011475  0.0000006  -0.00046904 -0.         -0.         -0.00007714  0.          0.         -0.0001549
   0.00030013 -0.0000398 ]
 [-0.          0.          0.          0.         -0.         -0.          0.          0.          0.          0.          0.          0.          0.
   0.          0.          0.         -0.          0.          0.         -0.         -0.         -0.         -0.          0.          0.         -0.
   0.         -0.        ]
 [-0.          0.          0.          0.         -0.         -0.          0.          0.          0.          0.          0.          0.          0.
   0.          0.          0.         -0.          0.          0.         -0.         -0.         -0.         -0.          0.          0.         -0.
   0.         -0.        ]
 [-0.          0.          0.          0.         -0.         -0.          0.          0.          0.          0.          0.          0.          0.
   0.          0.          0.         -0.          0.          0.         -0.         -0.         -0.         -0.          0.          0.         -0.
   0.         -0.        ]
 [-0.          0.          0.          0.         -0.         -0.          0.          0.          0.          0.          0.          0.          0.
   0.          0.          0.         -0.          0.          0.         -0.         -0.         -0.         -0.          0.          0.         -0.
   0.         -0.        ]
 [-0.          0.          0.          0.         -0.         -0.          0.          0.          0.          0.          0.          0.          0.
   0.          0.          0.         -0.          0.          0.         -0.         -0.         -0.         -0.          0.          0.         -0.
   0.         -0.        ]
 [-0.          0.          0.          0.         -0.         -0.          0.          0.          0.          0.          0.          0.          0.
   0.          0.          0.         -0.          0.          0.         -0.         -0.         -0.         -0.          0.          0.         -0.
   0.         -0.        ]
 [-0.          0.          0.          0.         -0.         -0.          0.          0.          0.          0.          0.          0.          0.
   0.          0.          0.         -0.          0.          0.         -0.         -0.         -0.         -0.          0.          0.         -0.
   0.         -0.        ]
 [ 0.         -0.         -0.         -0.          0.          0.         -0.         -0.         -0.         -0.         -0.         -0.         -0.
  -0.         -0.         -0.          0.         -0.         -0.          0.          0.          0.          0.         -0.         -0.          0.
  -0.          0.        ]
 [-0.01548064  0.00399823  0.00785425  0.         -0.         -0.          0.          0.0021789   0.00011475  0.          0.          0.          0.
   0.          0.          0.         -0.          0.00032493  0.00000171 -0.00132814 -0.         -0.         -0.00021844  0.          0.         -0.00043862
   0.00084987 -0.00011271]
 [-0.00008144  0.00002103  0.00004132  0.         -0.         -0.          0.          0.00001146  0.0000006   0.          0.          0.          0.
   0.          0.          0.         -0.          0.00000171  0.00000001 -0.00000699 -0.         -0.         -0.00000115  0.          0.         -0.00000231
   0.00000447 -0.00000059]
 [ 0.06327645 -0.01634259 -0.03210389 -0.          0.          0.         -0.         -0.00890616 -0.00046904 -0.         -0.         -0.         -0.
  -0.         -0.         -0.          0.         -0.00132814 -0.00000699  0.00542872  0.          0.          0.00089288 -0.         -0.          0.00179284
  -0.00347379  0.00046069]
 [ 0.         -0.         -0.         -0.          0.          0.         -0.         -0.         -0.         -0.         -0.         -0.         -0.
  -0.         -0.         -0.          0.         -0.         -0.          0.          0.          0.          0.         -0.         -0.          0.
  -0.          0.        ]
 [ 0.         -0.         -0.         -0.          0.          0.         -0.         -0.         -0.         -0.         -0.         -0.         -0.
  -0.         -0.         -0.          0.         -0.         -0.          0.          0.          0.          0.         -0.         -0.          0.
  -0.          0.        ]
 [ 0.01040728 -0.00268792 -0.00528023 -0.          0.          0.         -0.         -0.00146482 -0.00007714 -0.         -0.         -0.         -0.
  -0.         -0.         -0.          0.         -0.00021844 -0.00000115  0.00089288  0.          0.          0.00014685 -0.         -0.          0.00029487
  -0.00057135  0.00007577]
 [-0.          0.          0.          0.         -0.         -0.          0.          0.          0.          0.          0.          0.          0.
   0.          0.          0.         -0.          0.          0.         -0.         -0.         -0.         -0.          0.          0.         -0.
   0.         -0.        ]
 [-0.          0.          0.          0.         -0.         -0.          0.          0.          0.          0.          0.          0.          0.
   0.          0.          0.         -0.          0.          0.         -0.         -0.         -0.         -0.          0.          0.         -0.
   0.         -0.        ]
 [ 0.02089711 -0.00539716 -0.01060234 -0.          0.          0.         -0.         -0.00294127 -0.0001549  -0.         -0.         -0.         -0.
  -0.         -0.         -0.          0.         -0.00043862 -0.00000231  0.00179284  0.          0.          0.00029487 -0.         -0.          0.00059209
  -0.00114722  0.00015214]
 [-0.04049013  0.0104575   0.02054304  0.         -0.         -0.          0.          0.00569898  0.00030013  0.          0.          0.          0.
   0.          0.          0.         -0.          0.00084987  0.00000447 -0.00347379 -0.         -0.         -0.00057135  0.          0.         -0.00114722
   0.00222286 -0.00029479]
 [ 0.0053697  -0.00138685 -0.00272437 -0.          0.          0.         -0.         -0.00075579 -0.0000398  -0.         -0.         -0.         -0.
  -0.         -0.         -0.          0.         -0.00011271 -0.00000059  0.00046069  0.          0.          0.00007577 -0.         -0.          0.00015214
  -0.00029479  0.00003909]] 
 [[ 0.73754271 -0.19048727  0.37419914 -0.         -0.          0.          0.          0.10380908 -0.00546706  0.          0.         -0.          0.
  -0.         -0.         -0.         -0.          0.01548064 -0.00008144 -0.06327645 -0.          0.          0.01040728  0.         -0.          0.02089711
   0.04049013 -0.0053697 ]
 [-0.19048727  0.0491977  -0.09664549  0.          0.         -0.         -0.         -0.02681107  0.00141199 -0.         -0.          0.         -0.
   0.          0.          0.          0.         -0.00399823  0.00002103  0.01634259  0.         -0.         -0.00268792 -0.          0.         -0.00539716
  -0.0104575   0.00138685]
 [ 0.37419914 -0.09664549  0.1898534  -0.         -0.          0.          0.          0.0526685  -0.00277376  0.          0.         -0.          0.
  -0.         -0.         -0.         -0.          0.00785425 -0.00004132 -0.03210389 -0.          0.          0.00528023  0.         -0.          0.01060234
   0.02054304 -0.00272437]
 [-0.          0.         -0.          0.          0.         -0.         -0.         -0.          0.         -0.         -0.          0.         -0.
   0.          0.          0.          0.         -0.          0.          0.          0.         -0.         -0.         -0.          0.         -0.
  -0.          0.        ]
 [-0.          0.         -0.          0.          0.         -0.         -0.         -0.          0.         -0.         -0.          0.         -0.
   0.          0.          0.          0.         -0.          0.          0.          0.         -0.         -0.         -0.          0.         -0.
  -0.          0.        ]
 [ 0.         -0.          0.         -0.         -0.          0.          0.          0.         -0.          0.          0.         -0.          0.
  -0.         -0.         -0.         -0.          0.         -0.         -0.         -0.          0.          0.          0.         -0.          0.
   0.         -0.        ]
 [ 0.         -0.          0.         -0.         -0.          0.          0.          0.         -0.          0.          0.         -0.          0.
  -0.         -0.         -0.         -0.          0.         -0.         -0.         -0.          0.          0.          0.         -0.          0.
   0.         -0.        ]
 [ 0.10380908 -0.02681107  0.0526685  -0.         -0.          0.          0.          0.01461112 -0.00076949  0.          0.         -0.          0.
  -0.         -0.         -0.         -0.          0.0021789  -0.00001146 -0.00890616 -0.          0.          0.00146482  0.         -0.          0.00294127
   0.00569898 -0.00075579]
 [-0.00546706  0.00141199 -0.00277376  0.          0.         -0.         -0.         -0.00076949  0.00004052 -0.         -0.          0.         -0.
   0.          0.          0.          0.         -0.00011475  0.0000006   0.00046904  0.         -0.         -0.00007714 -0.          0.         -0.0001549
  -0.00030013  0.0000398 ]
 [ 0.         -0.          0.         -0.         -0.          0.          0.          0.         -0.          0.          0.         -0.          0.
  -0.         -0.         -0.         -0.          0.         -0.         -0.         -0.          0.          0.          0.         -0.          0.
   0.         -0.        ]
 [ 0.         -0.          0.         -0.         -0.          0.          0.          0.         -0.          0.          0.         -0.          0.
  -0.         -0.         -0.         -0.          0.         -0.         -0.         -0.          0.          0.          0.         -0.          0.
   0.         -0.        ]
 [-0.          0.         -0.          0.          0.         -0.         -0.         -0.          0.         -0.         -0.          0.         -0.
   0.          0.          0.          0.         -0.          0.          0.          0.         -0.         -0.         -0.          0.         -0.
  -0.          0.        ]
 [ 0.         -0.          0.         -0.         -0.          0.          0.          0.         -0.          0.          0.         -0.          0.
  -0.         -0.         -0.         -0.          0.         -0.         -0.         -0.          0.          0.          0.         -0.          0.
   0.         -0.        ]
 [-0.          0.         -0.          0.          0.         -0.         -0.         -0.          0.         -0.         -0.          0.         -0.
   0.          0.          0.          0.         -0.          0.          0.          0.         -0.         -0.         -0.          0.         -0.
  -0.          0.        ]
 [-0.          0.         -0.          0.          0.         -0.         -0.         -0.          0.         -0.         -0.          0.         -0.
   0.          0.          0.          0.         -0.          0.          0.          0.         -0.         -0.         -0.          0.         -0.
  -0.          0.        ]
 [-0.          0.         -0.          0.          0.         -0.         -0.         -0.          0.         -0.         -0.          0.         -0.
   0.          0.          0.          0.         -0.          0.          0.          0.         -0.         -0.         -0.          0.         -0.
  -0.          0.        ]
 [-0.          0.         -0.          0.          0.         -0.         -0.         -0.          0.         -0.         -0.          0.         -0.
   0.          0.          0.          0.         -0.          0.          0.          0.         -0.         -0.         -0.          0.         -0.
  -0.          0.        ]
 [ 0.01548064 -0.00399823  0.00785425 -0.         -0.          0.          0.          0.0021789  -0.00011475  0.          0.         -0.          0.
  -0.         -0.         -0.         -0.          0.00032493 -0.00000171 -0.00132814 -0.          0.          0.00021844  0.         -0.          0.00043862
   0.00084987 -0.00011271]
 [-0.00008144  0.00002103 -0.00004132  0.          0.         -0.         -0.         -0.00001146  0.0000006  -0.         -0.          0.         -0.
   0.          0.          0.          0.         -0.00000171  0.00000001  0.00000699  0.         -0.         -0.00000115 -0.          0.         -0.00000231
  -0.00000447  0.00000059]
 [-0.06327645  0.01634259 -0.03210389  0.          0.         -0.         -0.         -0.00890616  0.00046904 -0.         -0.          0.         -0.
   0.          0.          0.          0.         -0.00132814  0.00000699  0.00542872  0.         -0.         -0.00089288 -0.          0.         -0.00179284
  -0.00347379  0.00046069]
 [-0.          0.         -0.          0.          0.         -0.         -0.         -0.          0.         -0.         -0.          0.         -0.
   0.          0.          0.          0.         -0.          0.          0.          0.         -0.         -0.         -0.          0.         -0.
  -0.          0.        ]
 [ 0.         -0.          0.         -0.         -0.          0.          0.          0.         -0.          0.          0.         -0.          0.
  -0.         -0.         -0.         -0.          0.         -0.         -0.         -0.          0.          0.          0.         -0.          0.
   0.         -0.        ]
 [ 0.01040728 -0.00268792  0.00528023 -0.         -0.          0.          0.          0.00146482 -0.00007714  0.          0.         -0.          0.
  -0.         -0.         -0.         -0.          0.00021844 -0.00000115 -0.00089288 -0.          0.          0.00014685  0.         -0.          0.00029487
   0.00057135 -0.00007577]
 [ 0.         -0.          0.         -0.         -0.          0.          0.          0.         -0.          0.          0.         -0.          0.
  -0.         -0.         -0.         -0.          0.         -0.         -0.         -0.          0.          0.          0.         -0.          0.
   0.         -0.        ]
 [-0.          0.         -0.          0.          0.         -0.         -0.         -0.          0.         -0.         -0.          0.         -0.
   0.          0.          0.          0.         -0.          0.          0.          0.         -0.         -0.         -0.          0.         -0.
  -0.          0.        ]
 [ 0.02089711 -0.00539716  0.01060234 -0.         -0.          0.          0.          0.00294127 -0.0001549   0.          0.         -0.          0.
  -0.         -0.         -0.         -0.          0.00043862 -0.00000231 -0.00179284 -0.          0.          0.00029487  0.         -0.          0.00059209
   0.00114722 -0.00015214]
 [ 0.04049013 -0.0104575   0.02054304 -0.         -0.          0.          0.          0.00569898 -0.00030013  0.          0.         -0.          0.
  -0.         -0.         -0.         -0.          0.00084987 -0.00000447 -0.00347379 -0.          0.          0.00057135  0.         -0.          0.00114722
   0.00222286 -0.00029479]
 [-0.0053697   0.00138685 -0.00272437  0.          0.         -0.         -0.         -0.00075579  0.0000398  -0.         -0.          0.         -0.
   0.          0.          0.          0.         -0.00011271  0.00000059  0.00046069  0.         -0.         -0.00007577 -0.          0.         -0.00015214
[...]
Feff (mod,ortho)
[[-0.22776187  0.36974398  0.25967338 ...  0.          0.          0.        ]
 [ 0.36974398  1.18151437 -0.10664187 ...  0.          0.          0.        ]
 [ 0.25967338 -0.10664187  0.23818859 ...  0.          0.          0.        ]
 ...
 [ 0.          0.          0.         ...  1.79991207 -0.0048934   0.01744571]
 [ 0.          0.          0.         ... -0.0048934   3.05781388 -0.88340711]
 [ 0.          0.          0.         ...  0.01744571 -0.88340711  1.83311271]]
E(SUHF) =     -1.04660329
e_a, e_b
[-0.50069887  0.08415774  0.35396565  0.48848138  0.67846974  0.67846974  0.79116965  0.93253543  0.93253543  1.30915927  2.49333946  2.70098272  3.16969459
  3.22528732  3.22528732  3.41480364  3.41480364  3.51109091  3.51109091  3.7124826   3.7124826   3.88049366  3.88049366  3.93550545  4.05874413  4.05874413
  4.18763766  4.87924941] [-0.50069887  0.08415774  0.35396565  0.48848138  0.67846974  0.67846974  0.79116965  0.93253543  0.93253543  1.30915927  2.49333946  2.70098272  3.16969459
  3.22528732  3.22528732  3.41480364  3.41480364  3.51109091  3.51109091  3.7124826   3.7124826   3.88049366  3.88049366  3.93550545  4.05874413  4.05874413
  4.18763766  4.87924941]
P_a, P_b
[[ 0.68418402 -0.18200359 -0.40249264  0.         -0.         -0.          0.         -0.1237623  -0.00376749 -0.         -0.          0.          0.
   0.          0.          0.          0.         -0.02020366 -0.01055651  0.04996932  0.          0.          0.01138658 -0.         -0.          0.02347843
  -0.03997662  0.01799244]
 [-0.18200359  0.04841579  0.1070693  -0.          0.          0.         -0.          0.0329227   0.00100221  0.          0.         -0.         -0.
  -0.         -0.         -0.         -0.          0.00537449  0.0028082  -0.01329262 -0.         -0.         -0.00302901  0.          0.         -0.00624563
   0.0106344  -0.00478627]
 [-0.40249264  0.1070693   0.23677888 -0.          0.          0.         -0.          0.07280704  0.00221634  0.          0.         -0.         -0.
  -0.         -0.         -0.         -0.          0.01188544  0.0062102  -0.02939602 -0.         -0.         -0.00669851  0.          0.         -0.01381192
   0.0235175  -0.01058462]
 [ 0.         -0.         -0.          0.         -0.         -0.          0.         -0.         -0.         -0.         -0.          0.          0.
   0.          0.          0.          0.         -0.         -0.          0.          0.          0.          0.         -0.         -0.          0.
  -0.          0.        ]
 [-0.          0.          0.         -0.          0.          0.         -0.          0.          0.          0.          0.         -0.         -0.
  -0.         -0.         -0.         -0.          0.          0.         -0.         -0.         -0.         -0.          0.          0.         -0.
   0.         -0.        ]
 [-0.          0.          0.         -0.          0.          0.         -0.          0.          0.          0.          0.         -0.         -0.
  -0.         -0.         -0.         -0.          0.          0.         -0.         -0.         -0.         -0.          0.          0.         -0.
   0.         -0.        ]
 [ 0.         -0.         -0.          0.         -0.         -0.          0.         -0.         -0.         -0.         -0.          0.          0.
   0.          0.          0.          0.         -0.         -0.          0.          0.          0.          0.         -0.         -0.          0.
  -0.          0.        ]
 [-0.1237623   0.0329227   0.07280704 -0.          0.          0.         -0.          0.02238741  0.0006815   0.          0.         -0.         -0.
  -0.         -0.         -0.         -0.          0.00365465  0.00190957 -0.00903897 -0.         -0.         -0.00205972  0.          0.         -0.00424702
   0.00723138 -0.00325466]
 [-0.00376749  0.00100221  0.00221634 -0.          0.          0.         -0.          0.0006815   0.00002075  0.          0.         -0.         -0.
  -0.         -0.         -0.         -0.          0.00011125  0.00005813 -0.00027516 -0.         -0.         -0.0000627   0.          0.         -0.00012929
   0.00022013 -0.00009908]
 [-0.          0.          0.         -0.          0.          0.         -0.          0.          0.          0.          0.         -0.         -0.
  -0.         -0.         -0.         -0.          0.          0.         -0.         -0.         -0.         -0.          0.          0.         -0.
   0.         -0.        ]
 [-0.          0.          0.         -0.          0.          0.         -0.          0.          0.          0.          0.         -0.         -0.
  -0.         -0.         -0.         -0.          0.          0.         -0.         -0.         -0.         -0.          0.          0.         -0.
   0.         -0.        ]
 [ 0.         -0.         -0.          0.         -0.         -0.          0.         -0.         -0.         -0.         -0.          0.          0.
   0.          0.          0.          0.         -0.         -0.          0.          0.          0.          0.         -0.         -0.          0.
  -0.          0.        ]
 [ 0.         -0.         -0.          0.         -0.         -0.          0.         -0.         -0.         -0.         -0.          0.          0.
   0.          0.          0.          0.         -0.         -0.          0.          0.          0.          0.         -0.         -0.          0.
  -0.          0.        ]
 [ 0.         -0.         -0.          0.         -0.         -0.          0.         -0.         -0.         -0.         -0.          0.          0.
   0.          0.          0.          0.         -0.         -0.          0.          0.          0.          0.         -0.         -0.          0.
  -0.          0.        ]
 [ 0.         -0.         -0.          0.         -0.         -0.          0.         -0.         -0.         -0.         -0.          0.          0.
   0.          0.          0.          0.         -0.         -0.          0.          0.          0.          0.         -0.         -0.          0.
  -0.          0.        ]
 [ 0.         -0.         -0.          0.         -0.         -0.          0.         -0.         -0.         -0.         -0.          0.          0.
   0.          0.          0.          0.         -0.         -0.          0.          0.          0.          0.         -0.         -0.          0.
  -0.          0.        ]
 [ 0.         -0.         -0.          0.         -0.         -0.          0.         -0.         -0.         -0.         -0.          0.          0.
   0.          0.          0.          0.         -0.         -0.          0.          0.          0.          0.         -0.         -0.          0.
  -0.          0.        ]
 [-0.02020366  0.00537449  0.01188544 -0.          0.          0.         -0.          0.00365465  0.00011125  0.          0.         -0.         -0.
  -0.         -0.         -0.         -0.          0.00059661  0.00031173 -0.00147557 -0.         -0.         -0.00033624  0.          0.         -0.00069331
   0.00118049 -0.00053131]
 [-0.01055651  0.0028082   0.0062102  -0.          0.          0.         -0.          0.00190957  0.00005813  0.          0.         -0.         -0.
  -0.         -0.         -0.         -0.          0.00031173  0.00016288 -0.00077099 -0.         -0.         -0.00017569  0.          0.         -0.00036226
   0.00061681 -0.00027761]
 [ 0.04996932 -0.01329262 -0.02939602  0.         -0.         -0.          0.         -0.00903897 -0.00027516 -0.         -0.          0.          0.
   0.          0.          0.          0.         -0.00147557 -0.00077099  0.00364951  0.          0.          0.00083162 -0.         -0.          0.00171475
  -0.00291969  0.00131408]
 [ 0.         -0.         -0.          0.         -0.         -0.          0.         -0.         -0.         -0.         -0.          0.          0.
   0.          0.          0.          0.         -0.         -0.          0.          0.          0.          0.         -0.         -0.          0.
  -0.          0.        ]
 [ 0.         -0.         -0.          0.         -0.         -0.          0.         -0.         -0.         -0.         -0.          0.          0.
   0.          0.          0.          0.         -0.         -0.          0.          0.          0.          0.         -0.         -0.          0.
  -0.          0.        ]
 [ 0.01138658 -0.00302901 -0.00669851  0.         -0.         -0.          0.         -0.00205972 -0.0000627  -0.         -0.          0.          0.
   0.          0.          0.          0.         -0.00033624 -0.00017569  0.00083162  0.          0.          0.0001895  -0.         -0.          0.00039074
  -0.00066531  0.00029944]
 [-0.          0.          0.         -0.          0.          0.         -0.          0.          0.          0.          0.         -0.         -0.
  -0.         -0.         -0.         -0.          0.          0.         -0.         -0.         -0.         -0.          0.          0.         -0.
   0.         -0.        ]
 [-0.          0.          0.         -0.          0.          0.         -0.          0.          0.          0.          0.         -0.         -0.
  -0.         -0.         -0.         -0.          0.          0.         -0.         -0.         -0.         -0.          0.          0.         -0.
   0.         -0.        ]
 [ 0.02347843 -0.00624563 -0.01381192  0.         -0.         -0.          0.         -0.00424702 -0.00012929 -0.         -0.          0.          0.
   0.          0.          0.          0.         -0.00069331 -0.00036226  0.00171475  0.          0.          0.00039074 -0.         -0.          0.00080569
  -0.00137184  0.00061743]
 [-0.03997662  0.0106344   0.0235175  -0.          0.          0.         -0.          0.00723138  0.00022013  0.          0.         -0.         -0.
  -0.         -0.         -0.         -0.          0.00118049  0.00061681 -0.00291969 -0.         -0.         -0.00066531  0.          0.         -0.00137184
   0.00233582 -0.00105129]
 [ 0.01799244 -0.00478627 -0.01058462  0.         -0.         -0.          0.         -0.00325466 -0.00009908 -0.         -0.          0.          0.
   0.          0.          0.          0.         -0.00053131 -0.00027761  0.00131408  0.          0.          0.00029944 -0.         -0.          0.00061743
  -0.00105129  0.00047316]] 
 [[ 0.68418402 -0.18200359  0.40249264 -0.          0.          0.          0.          0.1237623  -0.00376749  0.          0.         -0.          0.
  -0.         -0.         -0.         -0.          0.02020366 -0.01055651 -0.04996932 -0.         -0.          0.01138658  0.         -0.          0.02347843
   0.03997662 -0.01799244]
 [-0.18200359  0.04841579 -0.1070693   0.         -0.         -0.         -0.         -0.0329227   0.00100221 -0.         -0.          0.         -0.
   0.          0.          0.          0.         -0.00537449  0.0028082   0.01329262  0.          0.         -0.00302901 -0.          0.         -0.00624563
  -0.0106344   0.00478627]
 [ 0.40249264 -0.1070693   0.23677888 -0.          0.          0.          0.          0.07280704 -0.00221634  0.          0.         -0.          0.
  -0.         -0.         -0.         -0.          0.01188544 -0.0062102  -0.02939602 -0.         -0.          0.00669851  0.         -0.          0.01381192
   0.0235175  -0.01058462]
 [-0.          0.         -0.          0.         -0.         -0.         -0.         -0.          0.         -0.         -0.          0.         -0.
   0.          0.          0.          0.         -0.          0.          0.          0.          0.         -0.         -0.          0.         -0.
  -0.          0.        ]
 [ 0.         -0.          0.         -0.          0.          0.          0.          0.         -0.          0.          0.         -0.          0.
  -0.         -0.         -0.         -0.          0.         -0.         -0.         -0.         -0.          0.          0.         -0.          0.
   0.         -0.        ]
 [ 0.         -0.          0.         -0.          0.          0.          0.          0.         -0.          0.          0.         -0.          0.
  -0.         -0.         -0.         -0.          0.         -0.         -0.         -0.         -0.          0.          0.         -0.          0.
   0.         -0.        ]
 [ 0.         -0.          0.         -0.          0.          0.          0.          0.         -0.          0.          0.         -0.          0.
  -0.         -0.         -0.         -0.          0.         -0.         -0.         -0.         -0.          0.          0.         -0.          0.
   0.         -0.        ]
 [ 0.1237623  -0.0329227   0.07280704 -0.          0.          0.          0.          0.02238741 -0.0006815   0.          0.         -0.          0.
  -0.         -0.         -0.         -0.          0.00365465 -0.00190957 -0.00903897 -0.         -0.          0.00205972  0.         -0.          0.00424702
   0.00723138 -0.00325466]
 [-0.00376749  0.00100221 -0.00221634  0.         -0.         -0.         -0.         -0.0006815   0.00002075 -0.         -0.          0.         -0.
   0.          0.          0.          0.         -0.00011125  0.00005813  0.00027516  0.          0.         -0.0000627  -0.          0.         -0.00012929
  -0.00022013  0.00009908]
 [ 0.         -0.          0.         -0.          0.          0.          0.          0.         -0.          0.          0.         -0.          0.
  -0.         -0.         -0.         -0.          0.         -0.         -0.         -0.         -0.          0.          0.         -0.          0.
   0.         -0.        ]
 [ 0.         -0.          0.         -0.          0.          0.          0.          0.         -0.          0.          0.         -0.          0.
  -0.         -0.         -0.         -0.          0.         -0.         -0.         -0.         -0.          0.          0.         -0.          0.
   0.         -0.        ]
 [-0.          0.         -0.          0.         -0.         -0.         -0.         -0.          0.         -0.         -0.          0.         -0.
   0.          0.          0.          0.         -0.          0.          0.          0.          0.         -0.         -0.          0.         -0.
  -0.          0.        ]
 [ 0.         -0.          0.         -0.          0.          0.          0.          0.         -0.          0.          0.         -0.          0.
  -0.         -0.         -0.         -0.          0.         -0.         -0.         -0.         -0.          0.          0.         -0.          0.
   0.         -0.        ]
 [-0.          0.         -0.          0.         -0.         -0.         -0.         -0.          0.         -0.         -0.          0.         -0.
   0.          0.          0.          0.         -0.          0.          0.          0.          0.         -0.         -0.          0.         -0.
  -0.          0.        ]
 [-0.          0.         -0.          0.         -0.         -0.         -0.         -0.          0.         -0.         -0.          0.         -0.
   0.          0.          0.          0.         -0.          0.          0.          0.          0.         -0.         -0.          0.         -0.
  -0.          0.        ]
 [-0.          0.         -0.          0.         -0.         -0.         -0.         -0.          0.         -0.         -0.          0.         -0.
   0.          0.          0.          0.         -0.          0.          0.          0.          0.         -0.         -0.          0.         -0.
  -0.          0.        ]
 [-0.          0.         -0.          0.         -0.         -0.         -0.         -0.          0.         -0.         -0.          0.         -0.
   0.          0.          0.          0.         -0.          0.          0.          0.          0.         -0.         -0.          0.         -0.
  -0.          0.        ]
 [ 0.02020366 -0.00537449  0.01188544 -0.          0.          0.          0.          0.00365465 -0.00011125  0.          0.         -0.          0.
  -0.         -0.         -0.         -0.          0.00059661 -0.00031173 -0.00147557 -0.         -0.          0.00033624  0.         -0.          0.00069331
   0.00118049 -0.00053131]
 [-0.01055651  0.0028082  -0.0062102   0.         -0.         -0.         -0.         -0.00190957  0.00005813 -0.         -0.          0.         -0.
   0.          0.          0.          0.         -0.00031173  0.00016288  0.00077099  0.          0.         -0.00017569 -0.          0.         -0.00036226
  -0.00061681  0.00027761]
 [-0.04996932  0.01329262 -0.02939602  0.         -0.         -0.         -0.         -0.00903897  0.00027516 -0.         -0.          0.         -0.
   0.          0.          0.          0.         -0.00147557  0.00077099  0.00364951  0.          0.         -0.00083162 -0.          0.         -0.00171475
  -0.00291969  0.00131408]
 [-0.          0.         -0.          0.         -0.         -0.         -0.         -0.          0.         -0.         -0.          0.         -0.
   0.          0.          0.          0.         -0.          0.          0.          0.          0.         -0.         -0.          0.         -0.
  -0.          0.        ]
 [-0.          0.         -0.          0.         -0.         -0.         -0.         -0.          0.         -0.         -0.          0.         -0.
   0.          0.          0.          0.         -0.          0.          0.          0.          0.         -0.         -0.          0.         -0.
  -0.          0.        ]
 [ 0.01138658 -0.00302901  0.00669851 -0.          0.          0.          0.          0.00205972 -0.0000627   0.          0.         -0.          0.
  -0.         -0.         -0.         -0.          0.00033624 -0.00017569 -0.00083162 -0.         -0.          0.0001895   0.         -0.          0.00039074
   0.00066531 -0.00029944]
 [ 0.         -0.          0.         -0.          0.          0.          0.          0.         -0.          0.          0.         -0.          0.
  -0.         -0.         -0.         -0.          0.         -0.         -0.         -0.         -0.          0.          0.         -0.          0.
   0.         -0.        ]
 [-0.          0.         -0.          0.         -0.         -0.         -0.         -0.          0.         -0.         -0.          0.         -0.
   0.          0.          0.          0.         -0.          0.          0.          0.          0.         -0.         -0.          0.         -0.
  -0.          0.        ]
 [ 0.02347843 -0.00624563  0.01381192 -0.          0.          0.          0.          0.00424702 -0.00012929  0.          0.         -0.          0.
  -0.         -0.         -0.         -0.          0.00069331 -0.00036226 -0.00171475 -0.         -0.          0.00039074  0.         -0.          0.00080569
   0.00137184 -0.00061743]
 [ 0.03997662 -0.0106344   0.0235175  -0.          0.          0.          0.          0.00723138 -0.00022013  0.          0.         -0.          0.
  -0.         -0.         -0.         -0.          0.00118049 -0.00061681 -0.00291969 -0.         -0.          0.00066531  0.         -0.          0.00137184
   0.00233582 -0.00105129]
 [-0.01799244  0.00478627 -0.01058462  0.         -0.         -0.         -0.         -0.00325466  0.00009908 -0.         -0.          0.         -0.
   0.          0.          0.          0.         -0.00053131  0.00027761  0.00131408  0.          0.         -0.00029944 -0.          0.         -0.00061743
  -0.00105129  0.00047316]]

***************
SUHF converged at cycle 15
Final E(SUHF) =     -1.04660329, delta E = -4.33168e-09
***** Start DFT Correlation for SUHF+DFT **********
tot grids = 20048
E(SUHF) =     -1.04660329
E_c(TPSS) =     -0.01166806
E(SUHF+DFT) =     -1.05827135
