

#INFO: **** input file is /share/home/srwang/ExSCF/test/pytest/scan_h2/scan_dft.py ****
#import phf
from pyscf import lib
#import scipy
import numpy as np
import sys, os, contextlib

from pyphf import util, sudft

#xyz = 'h2.xyz' #sys.argv[1]
fch = 'test_uhf.fchk' #sys.argv[2]
#bas = '../h2.bas'
bas = 'cc-pvtz'

lib.num_threads(4)

for r in np.arange(0.5, 2.55, 0.1):
    output = 'tpss_mod/sudft_%.1f_diis_mod.out' % r
    os.system("echo '\n' > %s" % output)
    with open(output, 'a', encoding='utf-8') as f:
        with contextlib.redirect_stdout(f):
            xyz = '''H 0.0 0.0 0.0; H 0.0 0.0 %f'''%r
            mf = util.guess_from_fchk(xyz, bas, fch)
            #mf = util.guess(xyz, bas)
            #f.flush()
            mf2 = util.SUHF(mf)
            #mf2.cut_no = False
            mf2.debug = False
            #mf2.max_cycle = 50
            mf2.diis_on = True
            #mf2.output = 'sudft_%.1f.out'%r
            #mf2.kernel()
            
            mf3 = sudft.SUDFT(mf2)
            mf3.suxc = 'TPSS'
            mf3.kernel()
                    
#INFO: ******************** input file end ********************


System: uname_result(system='Linux', node='xc02n18', release='3.10.0-693.el7.x86_64', version='#1 SMP Thu Jul 6 19:56:57 EDT 2017', machine='x86_64', processor='x86_64')  Threads 4
Python 3.7.4 (default, Aug 13 2019, 20:35:49) 
[GCC 7.3.0]
numpy 1.17.2  scipy 1.4.1
Date: Tue Nov 24 03:45:09 2020
PySCF version 1.7.5
PySCF path  /share/home/srwang/pyscf-1.7.5/pyscf

[CONFIG] conf_file None
[INPUT] verbose = 4
[INPUT] num. atoms = 2
[INPUT] num. electrons = 2
[INPUT] charge = 0
[INPUT] spin (= nelec alpha-beta = 2S) = 0
[INPUT] symmetry False subgroup None
[INPUT] Mole.unit = angstrom
[INPUT]  1 H      0.000000000000   0.000000000000   0.000000000000 AA    0.000000000000   0.000000000000   0.000000000000 Bohr
[INPUT]  2 H      0.000000000000   0.000000000000   2.200000000000 AA    0.000000000000   0.000000000000   4.157397474043 Bohr

nuclear repulsion = 0.240535095872727
number of shells = 12
number of NR pGTOs = 32
number of NR cGTOs = 28
basis = cc-pvtz
ecp = {}
CPU time:       356.99


******** <class 'pyscf.scf.uhf.UHF'> ********
method = UHF
initial guess = minao
damping factor = 0
level_shift factor = 0
DIIS = <class 'pyscf.scf.diis.CDIIS'>
diis_start_cycle = 1
diis_space = 8
SCF conv_tol = 1e-09
SCF conv_tol_grad = None
SCF max_cycles = 1
direct_scf = True
direct_scf_tol = 1e-13
chkfile to save SCF result = /share/home/srwang/ExSCF/test/pytest/scan_h2/tmp5d20_o6a
max_memory 4000 MB (current use 118 MB)
number electrons alpha = 1  beta = 1
Set gradient conv threshold to 3.16228e-05
init E= -0.649551796991941
  alpha nocc = 1  HOMO = -0.239049388508467  LUMO = -0.120735847604367
  beta  nocc = 1  HOMO = -0.237686741456873  LUMO = -0.12049573486578
cycle= 1 E= -0.899190039010813  delta_E= -0.25  |g|= 0.0329  |ddm|= 0.447
SCF not converged.
SCF energy = -0.899190039010813 after 1 cycles  <S^2> = 2.0907434e-07  2S+1 = 1.0000004


******** <class 'pyscf.scf.uhf.UHF'> ********
method = UHF
initial guess = minao
damping factor = 0
level_shift factor = 0
DIIS = <class 'pyscf.scf.diis.CDIIS'>
diis_start_cycle = 1
diis_space = 8
SCF conv_tol = 1e-09
SCF conv_tol_grad = None
SCF max_cycles = 1
direct_scf = True
direct_scf_tol = 1e-13
chkfile to save SCF result = /share/home/srwang/ExSCF/test/pytest/scan_h2/tmp5d20_o6a
max_memory 4000 MB (current use 121 MB)
number electrons alpha = 1  beta = 1
Set gradient conv threshold to 3.16228e-05
init E= -0.871385452304214
  alpha nocc = 1  HOMO = -0.491511711852852  LUMO = -0.0355362423483155
  beta  nocc = 1  HOMO = -0.491511711852851  LUMO = -0.0355362423483181
cycle= 1 E= -0.993445926443811  delta_E= -0.122  |g|= 0.0518  |ddm|= 0.12
SCF not converged.
SCF energy = -0.993445926443811 after 1 cycles  <S^2> = 0.80309565  2S+1 = 2.052409

******** <class 'pyphf.util.SUHF'> ********
max_cycle = 70
verbose: normal
DIIS: <class 'pyscf.scf.diis.CDIIS'>
diis_start_cyc = 40
SVD: S^(-1/2)
[[-0.18462144  0.29104131  0.08144124  0.          0.         -0.          0.         -0.12903284 -0.0312537   0.          0.          0.          0.
   0.          0.          0.          0.          0.04026794 -0.65925407 -0.65350977 -0.10537483 -0.         -0.         -0.         -0.          0.40001314
  -0.84938511  0.74209296]
 [-0.25817761  0.32162579  0.06976794 -0.          0.          0.          0.         -0.09444553 -0.00501076  0.          0.         -0.          0.
   0.          0.          0.         -0.          0.0071401  -0.04430046  0.20061654  0.02121993 -0.          0.         -0.          0.         -0.33512315
   1.6747108  -1.64482218]
 [-0.2798212   0.21267876  0.03740664  0.          0.         -0.         -0.         -0.00720527  0.00641794 -0.         -0.         -0.         -0.
  -0.         -0.         -0.         -0.         -0.01616186  0.48945575  0.59561333  0.1284228   0.          0.          0.          0.         -0.26228873
  -0.99011981  1.57863096]
 [ 0.         -0.          0.         -0.32612916  0.20510798  0.40124792 -0.01372533  0.          0.          0.0001159  -0.0143561  -0.         -0.
   0.         -0.         -0.0000066  -0.01455141  0.          0.         -0.         -0.          0.33642559  0.72859601  0.2603893   0.76652543 -0.
  -0.         -0.        ]
 [ 0.          0.         -0.         -0.20510798 -0.32612916  0.01372533  0.40124792 -0.         -0.         -0.0143561  -0.0001159  -0.          0.
  -0.          0.          0.01455141 -0.0000066  -0.          0.          0.          0.         -0.72859601  0.33642559 -0.76652543  0.2603893  -0.
  -0.          0.        ]
 [-0.03865343 -0.0756908  -0.34627668 -0.          0.          0.          0.         -0.43007749 -0.0609045   0.         -0.         -0.         -0.
  -0.         -0.          0.         -0.          0.06560296 -0.13836697  0.3365432   0.79110405  0.          0.          0.          0.          0.7601111
   0.01616229 -0.15012765]
 [-0.         -0.          0.         -0.33555266  0.21103458  0.39002694 -0.0133415   0.          0.          0.00000164 -0.00020323  0.         -0.
   0.         -0.         -0.00000005 -0.00011792  0.         -0.          0.          0.         -0.32711274 -0.7084272  -0.26799386 -0.78891147 -0.
   0.          0.        ]
 [ 0.          0.         -0.         -0.21103458 -0.33555266  0.0133415   0.39002694 -0.         -0.         -0.00020323 -0.00000164 -0.          0.
  -0.         -0.          0.00011792 -0.00000005 -0.          0.         -0.         -0.          0.7084272  -0.32711274  0.78891147 -0.26799386  0.
   0.         -0.        ]
 [-0.07555883 -0.10528112 -0.39463553 -0.          0.          0.         -0.         -0.35422246 -0.00286124 -0.         -0.          0.         -0.
  -0.          0.         -0.         -0.         -0.00028096  0.02718811 -0.23379118 -0.70424258 -0.         -0.         -0.         -0.         -0.98697296
   0.0138409   0.32171963]
 [ 0.          0.          0.          0.          0.          0.          0.         -0.          0.         -0.         -0.          0.57791463  0.40738281
   0.56347348  0.42726055 -0.         -0.          0.         -0.          0.          0.          0.          0.          0.          0.          0.
   0.          0.        ]
 [ 0.          0.         -0.         -0.00422981 -0.00672555 -0.00028447 -0.00831623 -0.         -0.          0.70628242  0.00570216  0.         -0.
   0.         -0.          0.7076184  -0.00032075 -0.         -0.          0.         -0.         -0.0146058   0.00674416  0.0156313  -0.00530996 -0.
  -0.          0.        ]
 [-0.01118954 -0.00799273 -0.02792884 -0.         -0.         -0.          0.          0.04797288  0.70049824  0.         -0.          0.         -0.
  -0.          0.          0.         -0.          0.70599523 -0.046134    0.01751481  0.06017938  0.         -0.          0.          0.         -0.09645505
  -0.01538387  0.0245249 ]
 [-0.         -0.          0.         -0.00672555  0.00422981 -0.00831623  0.00028447  0.         -0.         -0.00570216  0.70628242 -0.          0.
   0.         -0.         -0.00032075 -0.7076184   0.          0.         -0.         -0.          0.00674416  0.0146058  -0.00530996 -0.0156313   0.
   0.          0.        ]
 [ 0.          0.          0.         -0.         -0.          0.         -0.          0.          0.          0.         -0.         -0.40738281  0.57791463
  -0.42726055  0.56347348  0.         -0.          0.          0.          0.         -0.          0.         -0.         -0.          0.         -0.
  -0.         -0.        ]
 [-0.18462144 -0.29104131  0.08144124  0.         -0.         -0.          0.          0.12903284 -0.0312537  -0.          0.         -0.         -0.
   0.          0.         -0.          0.         -0.04026794 -0.65925407  0.65350977 -0.10537483  0.         -0.          0.         -0.         -0.40001314
  -0.84938511 -0.74209296]
 [-0.25817761 -0.32162579  0.06976794  0.         -0.         -0.          0.          0.09444553 -0.00501076  0.         -0.         -0.         -0.
  -0.         -0.          0.         -0.         -0.0071401  -0.04430046 -0.20061654  0.02121993 -0.          0.         -0.          0.          0.33512315
   1.6747108   1.64482218]
 [-0.2798212  -0.21267876  0.03740664  0.         -0.         -0.         -0.          0.00720527  0.00641794  0.         -0.          0.          0.
   0.          0.          0.         -0.          0.01616186  0.48945575 -0.59561333  0.1284228  -0.         -0.         -0.         -0.          0.26228873
  -0.99011981 -1.57863096]
 [-0.         -0.          0.         -0.32612916  0.20510798 -0.40124792  0.01372533  0.         -0.          0.0001159  -0.0143561   0.         -0.
  -0.          0.          0.0000066   0.01455141  0.          0.         -0.         -0.          0.33642559  0.72859601 -0.2603893  -0.76652543  0.
   0.          0.        ]
 [ 0.          0.         -0.         -0.20510798 -0.32612916 -0.01372533 -0.40124792 -0.          0.         -0.0143561  -0.0001159  -0.          0.
  -0.          0.         -0.01455141  0.0000066  -0.         -0.          0.          0.         -0.72859601  0.33642559  0.76652543 -0.2603893   0.
   0.         -0.        ]
 [ 0.03865343 -0.0756908   0.34627668  0.          0.          0.          0.         -0.43007749  0.0609045  -0.         -0.          0.          0.
   0.          0.         -0.         -0.          0.06560296  0.13836697  0.3365432  -0.79110405 -0.         -0.         -0.         -0.          0.7601111
  -0.01616229 -0.15012765]
 [-0.         -0.          0.         -0.33555266  0.21103458 -0.39002694  0.0133415   0.         -0.          0.00000164 -0.00020323  0.         -0.
   0.         -0.          0.00000005  0.00011792  0.         -0.          0.          0.         -0.32711274 -0.7084272   0.26799386  0.78891147  0.
  -0.         -0.        ]
 [ 0.          0.         -0.         -0.21103458 -0.33555266 -0.0133415  -0.39002694 -0.          0.         -0.00020323 -0.00000164  0.         -0.
   0.          0.         -0.00011792  0.00000005 -0.          0.         -0.         -0.          0.7084272  -0.32711274 -0.78891147  0.26799386 -0.
  -0.         -0.        ]
 [ 0.07555883 -0.10528112  0.39463553  0.          0.         -0.          0.         -0.35422246  0.00286124  0.          0.          0.         -0.
  -0.         -0.          0.          0.         -0.00028096 -0.02718811 -0.23379118  0.70424258  0.          0.          0.          0.         -0.98697296
  -0.0138409   0.32171963]
 [-0.         -0.         -0.         -0.          0.          0.         -0.         -0.          0.          0.         -0.          0.57791463  0.40738281
  -0.56347348 -0.42726055  0.         -0.          0.          0.          0.         -0.         -0.          0.         -0.          0.         -0.
  -0.         -0.        ]
 [-0.         -0.          0.          0.00422981  0.00672555 -0.00028447 -0.00831623  0.         -0.         -0.70628242 -0.00570216 -0.          0.
  -0.          0.          0.7076184  -0.00032075  0.          0.         -0.         -0.          0.0146058  -0.00674416  0.0156313  -0.00530996  0.
   0.         -0.        ]
 [-0.01118954  0.00799273 -0.02792884  0.          0.          0.         -0.         -0.04797288  0.70049824  0.          0.          0.         -0.
  -0.          0.          0.          0.         -0.70599523 -0.046134   -0.01751481  0.06017938 -0.          0.         -0.          0.          0.09645505
  -0.01538387 -0.0245249 ]
 [ 0.          0.         -0.          0.00672555 -0.00422981 -0.00831623  0.00028447 -0.         -0.          0.00570216 -0.70628242 -0.         -0.
   0.         -0.         -0.00032075 -0.7076184  -0.         -0.          0.          0.         -0.00674416 -0.0146058  -0.00530996 -0.0156313  -0.
   0.          0.        ]
 [ 0.          0.          0.         -0.          0.         -0.          0.          0.          0.          0.         -0.         -0.40738281  0.57791463
   0.42726055 -0.56347348  0.          0.          0.          0.          0.          0.          0.         -0.          0.         -0.          0.
   0.          0.        ]]
C (ortho)
[[-0.84183249 -0.5046467  -0.01168403  0.14862314 -0.09358494  0.          0.         -0.         -0.          0.01219102  0.04307253  0.02811149 -0.00301564
   0.         -0.         -0.          0.         -0.         -0.          0.          0.          0.00188278  0.         -0.         -0.0532869   0.
  -0.          0.0044735 ]
 [ 0.51189019 -0.77907159 -0.06470547  0.26327053  0.02302946  0.          0.         -0.         -0.         -0.17796765 -0.02769308  0.12640621 -0.00859498
   0.         -0.         -0.         -0.          0.         -0.         -0.          0.          0.05542386  0.          0.         -0.00092133  0.
  -0.         -0.07364047]
 [ 0.10947114  0.03150038  0.00408325  0.00522826 -0.87820982 -0.          0.         -0.          0.          0.06065746  0.01004861 -0.00057832  0.08219893
   0.         -0.         -0.         -0.         -0.         -0.          0.          0.          0.02802723  0.         -0.         -0.45083525  0.
  -0.          0.03394189]
 [ 0.         -0.          0.          0.          0.         -0.70114486 -0.42710047 -0.23737906 -0.11753172 -0.          0.          0.          0.
   0.02103478  0.03330955  0.          0.         -0.          0.         -0.00820165 -0.0231273  -0.         -0.34252099 -0.32977093  0.         -0.07948255
  -0.14586793 -0.        ]
 [ 0.         -0.         -0.          0.          0.         -0.42710047  0.70114486  0.11753172 -0.23737906  0.          0.         -0.          0.
   0.03330955 -0.02103478 -0.          0.         -0.         -0.         -0.0231273   0.00820165  0.          0.32977093 -0.34252099  0.         -0.14586793
   0.07948255  0.        ]
 [ 0.          0.         -0.         -0.          0.          0.12848853  0.23718813 -0.81616761  0.0551582   0.         -0.         -0.         -0.
   0.00051433  0.01426567  0.          0.          0.         -0.         -0.00738152  0.0391357   0.          0.15271356  0.03724501  0.          0.01361775
  -0.48101618  0.        ]
 [ 0.         -0.         -0.         -0.         -0.          0.23718813 -0.12848853 -0.0551582  -0.81616761 -0.          0.         -0.         -0.
   0.01426567 -0.00051433  0.         -0.          0.          0.          0.0391357   0.00738152  0.         -0.03724501  0.15271356 -0.         -0.48101618
  -0.01361775 -0.        ]
 [-0.09415922  0.07982906  0.19246891 -0.21395344 -0.06973536 -0.          0.         -0.         -0.         -0.80406897  0.00718009 -0.04272598 -0.01469613
   0.         -0.         -0.         -0.          0.         -0.         -0.          0.          0.14531563  0.         -0.         -0.01966233 -0.
  -0.         -0.47639773]
 [-0.00601998  0.00133481  0.01031888  0.00825799  0.02360413  0.          0.         -0.         -0.         -0.00456337  0.12542794  0.0539298   0.97270035
  -0.         -0.         -0.          0.         -0.         -0.          0.          0.          0.12145419 -0.          0.          0.14018568 -0.
   0.          0.00442932]
 [-0.          0.         -0.          0.         -0.          0.00789416 -0.00401335  0.00032092  0.00341864  0.          0.          0.          0.
   0.90526049 -0.00897893  0.         -0.         -0.          0.         -0.40847681 -0.08815039 -0.         -0.01563728  0.07226656 -0.          0.015528
   0.00084591 -0.        ]
 [-0.          0.         -0.         -0.         -0.          0.00401335  0.00789416  0.00341864 -0.00032092  0.          0.         -0.          0.
   0.00897893  0.90526049 -0.         -0.          0.         -0.          0.08815039 -0.40847681  0.          0.07226656  0.01563728  0.         -0.00084591
   0.015528    0.        ]
 [-0.          0.         -0.         -0.         -0.          0.         -0.         -0.          0.          0.         -0.          0.         -0.
   0.         -0.         -0.42011383  0.59291224  0.66103094 -0.18707626 -0.         -0.          0.         -0.          0.          0.          0.
  -0.         -0.        ]
 [-0.          0.         -0.         -0.         -0.         -0.          0.          0.         -0.          0.         -0.          0.         -0.
  -0.          0.          0.59291224  0.42011383  0.18707626  0.66103094  0.          0.          0.          0.         -0.          0.         -0.
   0.          0.        ]
 [-0.          0.         -0.         -0.         -0.          0.         -0.          0.          0.          0.         -0.         -0.         -0.
   0.          0.         -0.41641276  0.54640631 -0.69190601  0.22205097 -0.          0.          0.         -0.          0.          0.          0.
   0.          0.        ]
 [-0.          0.         -0.         -0.         -0.         -0.          0.         -0.         -0.          0.         -0.          0.         -0.
  -0.         -0.          0.54640631  0.41641276 -0.22205097 -0.69190601  0.         -0.          0.          0.         -0.          0.         -0.
  -0.         -0.        ]
 [-0.          0.         -0.          0.          0.         -0.00280314  0.00139833  0.00117061  0.01152559  0.          0.          0.         -0.
   0.4195858  -0.00096432  0.         -0.          0.          0.          0.88351428  0.19772244 -0.          0.0065999  -0.0316664   0.          0.05525436
   0.00343254  0.        ]
 [ 0.          0.         -0.         -0.          0.          0.00139833  0.00280314 -0.01152559  0.00117061  0.          0.         -0.         -0.
  -0.00096432 -0.4195858  -0.         -0.         -0.          0.          0.19772244 -0.88351428  0.          0.0316664   0.0065999   0.          0.00343254
  -0.05525436  0.        ]
 [ 0.00475907  0.0063856  -0.04064818  0.03945994 -0.00242282 -0.          0.          0.         -0.         -0.06547083 -0.03519364  0.11204471  0.12637994
  -0.          0.          0.          0.         -0.         -0.          0.         -0.         -0.95309276  0.         -0.         -0.05655157 -0.
  -0.         -0.22602329]
 [ 0.02133887  0.16312757  0.57334028  0.52919042  0.09663745  0.         -0.          0.         -0.         -0.00564752  0.53204669  0.20178562 -0.06969875
   0.          0.          0.          0.         -0.          0.          0.          0.          0.00051024  0.         -0.         -0.16131779  0.
  -0.          0.01136041]
 [ 0.0761448  -0.28161803  0.49649229 -0.43679467  0.00493513 -0.          0.         -0.          0.          0.01399291  0.19412484 -0.55812741  0.02510285
   0.          0.         -0.          0.         -0.         -0.          0.         -0.         -0.18437167 -0.          0.          0.01168292 -0.
   0.          0.3056611 ]
 [ 0.00893757  0.01920423  0.12483091  0.12870262 -0.45001765  0.          0.         -0.          0.          0.04000276  0.05380283  0.0172251  -0.11613743
  -0.          0.          0.         -0.          0.          0.         -0.          0.         -0.05437137 -0.          0.          0.86047953 -0.
   0.         -0.05681084]
 [ 0.         -0.          0.         -0.         -0.          0.2997719  -0.37378684 -0.05254652  0.15295745 -0.          0.         -0.          0.
   0.04493135 -0.02084749 -0.          0.          0.         -0.         -0.03493843  0.00751854  0.          0.48554171 -0.65540735  0.         -0.25569932
   0.09920045  0.        ]
 [ 0.         -0.          0.          0.         -0.         -0.37378684 -0.2997719  -0.15295745 -0.05254652 -0.         -0.         -0.         -0.
  -0.02084749 -0.04493135 -0.         -0.          0.         -0.          0.00751854  0.03493843  0.          0.65540735  0.48554171  0.          0.09920045
   0.25569932  0.        ]
 [ 0.         -0.          0.         -0.         -0.          0.10803051 -0.1089722   0.10838438 -0.47182115  0.          0.         -0.          0.
  -0.01198611  0.00409637 -0.          0.         -0.         -0.         -0.04683859  0.00502401 -0.          0.14124127 -0.23968715  0.          0.78542333
  -0.21312842  0.        ]
 [ 0.         -0.          0.          0.         -0.         -0.1089722  -0.10803051  0.47182115  0.10838438 -0.         -0.         -0.         -0.
   0.00409637  0.01198611  0.          0.          0.         -0.          0.00502401  0.04683859  0.          0.23968715  0.14124127  0.         -0.21312842
  -0.78542333  0.        ]
 [-0.03752276  0.07031813 -0.02979854  0.00993294 -0.03753897  0.          0.         -0.         -0.         -0.49571766 -0.12363603  0.33222786 -0.00133026
  -0.          0.          0.          0.          0.         -0.         -0.         -0.         -0.10799337 -0.          0.          0.05052766 -0.
   0.          0.77822684]
 [ 0.02514332 -0.07174808 -0.40252381 -0.40808932 -0.02593886 -0.         -0.         -0.          0.         -0.00292752  0.76247937  0.2649195  -0.10835993
  -0.          0.          0.         -0.          0.          0.         -0.         -0.         -0.0130013  -0.         -0.          0.03878027 -0.
   0.         -0.00209295]
 [-0.00207534 -0.12079364  0.45070743 -0.45512537  0.00848126 -0.          0.         -0.          0.          0.25708544 -0.24482858  0.65792469 -0.01034008
  -0.          0.         -0.          0.         -0.         -0.          0.         -0.          0.05571843 -0.          0.         -0.00535058 -0.
   0.         -0.1136549 ]]
[[-0.84183249 -0.5046467  -0.01168403  0.14862314  0.09358494  0.          0.          0.          0.         -0.01219102  0.04307253  0.02811149 -0.00301564
  -0.         -0.         -0.          0.          0.         -0.          0.         -0.          0.00188278 -0.          0.          0.0532869   0.
  -0.         -0.0044735 ]
 [-0.51189019  0.77907159  0.06470547 -0.26327053  0.02302946 -0.          0.         -0.          0.         -0.17796765  0.02769308 -0.12640621  0.00859498
   0.          0.         -0.          0.          0.         -0.          0.         -0.         -0.05542386  0.         -0.         -0.00092133 -0.
   0.         -0.07364047]
 [ 0.10947114  0.03150038  0.00408325  0.00522826  0.87820982  0.          0.          0.          0.         -0.06065746  0.01004861 -0.00057832  0.08219893
  -0.         -0.          0.         -0.         -0.          0.         -0.          0.          0.02802723 -0.          0.          0.45083525  0.
  -0.         -0.03394189]
 [-0.          0.         -0.          0.          0.         -0.35104305 -0.74215073 -0.20126705 -0.17220365  0.          0.         -0.         -0.
  -0.03483159 -0.01840512 -0.         -0.          0.          0.          0.02076001  0.01308285  0.         -0.10789973 -0.46306279  0.         -0.16519207
   0.01750734  0.        ]
 [-0.          0.         -0.         -0.         -0.         -0.74215073  0.35104305 -0.17220365  0.20126705  0.         -0.          0.          0.
  -0.01840512  0.03483159  0.         -0.         -0.          0.         -0.01308285  0.02076001 -0.         -0.46306279  0.10789973 -0.         -0.01750734
  -0.16519207  0.        ]
 [-0.         -0.          0.         -0.         -0.          0.02300791 -0.26877156  0.26959479  0.77232807 -0.         -0.          0.          0.
   0.007552    0.01211368  0.          0.          0.          0.          0.0398012   0.00139795 -0.          0.04619576 -0.15024837 -0.          0.38803329
  -0.28459125  0.        ]
 [ 0.         -0.          0.         -0.         -0.         -0.26877156 -0.02300791  0.77232807 -0.26959479 -0.         -0.          0.         -0.
   0.01211368 -0.007552   -0.          0.         -0.          0.         -0.00139795  0.0398012  -0.         -0.15024837 -0.04619576 -0.          0.28459125
   0.38803329 -0.        ]
 [ 0.09415922 -0.07982906 -0.19246891  0.21395344 -0.06973536 -0.          0.         -0.          0.         -0.80406897 -0.00718009  0.04272598  0.01469613
   0.          0.         -0.         -0.          0.         -0.          0.         -0.         -0.14531563 -0.         -0.         -0.01966233 -0.
  -0.         -0.47639773]
 [-0.00601998  0.00133481  0.01031888  0.00825799 -0.02360413 -0.          0.         -0.          0.          0.00456337  0.12542794  0.0539298   0.97270035
  -0.         -0.         -0.          0.          0.         -0.         -0.          0.          0.12145419  0.         -0.         -0.14018568 -0.
   0.         -0.00442932]
 [ 0.         -0.          0.          0.          0.          0.00880077  0.00098551  0.00327029 -0.00104657 -0.          0.         -0.         -0.
  -0.78048602  0.45871424  0.         -0.          0.          0.         -0.00375622  0.41786324 -0.          0.07008232  0.02356797 -0.          0.00952138
   0.01229543  0.        ]
 [-0.          0.         -0.          0.          0.         -0.00098551  0.00880077  0.00104657  0.00327029 -0.          0.         -0.         -0.
  -0.45871424 -0.78048602 -0.         -0.          0.          0.          0.41786324  0.00375622 -0.         -0.02356797  0.07008232 -0.          0.01229543
  -0.00952138  0.        ]
 [ 0.         -0.         -0.          0.          0.          0.          0.          0.          0.         -0.          0.         -0.          0.
  -0.          0.          0.6246936  -0.37121217 -0.39406813  0.56273417 -0.         -0.          0.          0.          0.         -0.          0.
  -0.         -0.        ]
 [ 0.         -0.         -0.          0.          0.         -0.          0.         -0.         -0.         -0.         -0.         -0.         -0.
   0.         -0.          0.37121217  0.6246936   0.56273417  0.39406813 -0.         -0.         -0.         -0.         -0.         -0.         -0.
  -0.          0.        ]
 [ 0.         -0.         -0.          0.          0.          0.          0.         -0.         -0.         -0.         -0.          0.         -0.
  -0.          0.         -0.57804064  0.37125255 -0.43725141  0.58038932  0.         -0.         -0.          0.          0.         -0.         -0.
   0.          0.        ]
 [ 0.         -0.         -0.          0.          0.         -0.         -0.          0.          0.         -0.         -0.         -0.          0.
   0.         -0.         -0.37125255 -0.57804064  0.58038932  0.43725141 -0.         -0.          0.         -0.         -0.         -0.          0.
  -0.         -0.        ]
 [ 0.         -0.         -0.          0.          0.          0.00311036  0.00037232 -0.01106023  0.00344685 -0.          0.         -0.         -0.
   0.36334586 -0.20984033  0.          0.         -0.          0.         -0.0012393   0.9053674  -0.          0.03058017  0.01054385 -0.         -0.0342282
  -0.04351157  0.        ]
 [-0.         -0.          0.         -0.         -0.          0.00037232 -0.00311036  0.00344685  0.01106023 -0.          0.         -0.         -0.
  -0.20984033 -0.36334586 -0.          0.         -0.         -0.         -0.9053674  -0.0012393  -0.          0.01054385 -0.03058017 -0.          0.04351157
  -0.0342282   0.        ]
 [-0.00475907 -0.0063856   0.04064818 -0.03945994 -0.00242282 -0.          0.         -0.          0.         -0.06547083  0.03519364 -0.11204471 -0.12637994
  -0.         -0.          0.         -0.         -0.          0.         -0.          0.          0.95309276 -0.          0.         -0.05655157  0.
  -0.         -0.22602329]
 [ 0.02133887  0.16312757  0.57334028  0.52919042 -0.09663745 -0.         -0.         -0.         -0.          0.00564752  0.53204669  0.20178562 -0.06969875
  -0.          0.          0.          0.          0.          0.          0.          0.          0.00051024 -0.          0.          0.16131779  0.
  -0.         -0.01136041]
 [-0.0761448   0.28161803 -0.49649229  0.43679467  0.00493513  0.          0.          0.          0.          0.01399291 -0.19412484  0.55812741 -0.02510285
  -0.         -0.          0.         -0.         -0.          0.         -0.          0.          0.18437167  0.         -0.          0.01168292  0.
   0.          0.3056611 ]
 [ 0.00893757  0.01920423  0.12483091  0.12870262  0.45001765 -0.          0.         -0.          0.         -0.04000276  0.05380283  0.0172251  -0.11613743
   0.          0.         -0.          0.          0.         -0.          0.         -0.         -0.05437137  0.         -0.         -0.86047953 -0.
   0.          0.05681084]
 [-0.          0.          0.          0.          0.          0.4558668  -0.14753051  0.1200611  -0.10836259 -0.         -0.          0.          0.
  -0.02857578  0.04045824 -0.         -0.         -0.          0.         -0.01501163  0.0324326  -0.         -0.81158237  0.08150829 -0.         -0.06370669
  -0.26676643  0.        ]
 [ 0.          0.         -0.          0.          0.         -0.14753051 -0.4558668  -0.10836259 -0.1200611   0.          0.          0.          0.
   0.04045824  0.02857578  0.          0.         -0.         -0.         -0.0324326  -0.01501163 -0.          0.08150829  0.81158237 -0.          0.26676643
  -0.06370669  0.        ]
 [-0.          0.          0.          0.          0.         -0.15014192  0.03166919  0.39142463 -0.28486685 -0.         -0.          0.          0.
  -0.00835276  0.00952252  0.         -0.          0.         -0.          0.01519283 -0.04459005  0.          0.27820331  0.00139439  0.         -0.27103844
  -0.76736673  0.        ]
 [-0.          0.         -0.          0.          0.          0.03166919  0.15014192 -0.28486685 -0.39142463  0.          0.          0.          0.
   0.00952252  0.00835276  0.          0.          0.          0.          0.04459005  0.01519283 -0.          0.00139439 -0.27820331 -0.          0.76736673
  -0.27103844  0.        ]
 [ 0.03752276 -0.07031813  0.02979854 -0.00993294 -0.03753897 -0.          0.         -0.          0.         -0.49571766  0.12363603 -0.33222786  0.00133026
  -0.         -0.         -0.         -0.         -0.         -0.         -0.         -0.          0.10799337 -0.         -0.          0.05052766  0.
  -0.          0.77822684]
 [ 0.02514332 -0.07174808 -0.40252381 -0.40808932  0.02593886  0.          0.          0.         -0.          0.00292752  0.76247937  0.2649195  -0.10835993
   0.          0.         -0.         -0.         -0.         -0.          0.         -0.         -0.0130013  -0.         -0.         -0.03878027 -0.
  -0.          0.00209295]
 [ 0.00207534  0.12079364 -0.45070743  0.45512537  0.00848126  0.          0.          0.          0.          0.25708544  0.24482858 -0.65792469  0.01034008
   0.          0.          0.          0.          0.          0.          0.         -0.         -0.05571843  0.         -0.         -0.00535058 -0.
   0.         -0.1136549 ]]
grids:  [0.06237655 0.31939555 0.74529195 1.28265786 1.85893479 2.39630071 2.8221971  3.07921611] 
weights:  [0.15900941 0.34931531 0.49276925 0.56970235 0.56970235 0.49276925 0.34931531 0.15900941]
S = 0.0, Sz = 0.0
Wigner small d:  1
value : [1. 1. 1. 1. 1. 1. 1. 1.]
**** Start Cycle 1 ****
dm (ortho)
[[[ 0.70868194 -0.4309258  -0.09215636 ...  0.03158788 -0.02116647  0.00174709]
  [-0.4309258   0.26203157  0.0560372  ... -0.01920753  0.01287062 -0.00106235]
  [-0.09215636  0.0560372   0.01198393 ... -0.00410766  0.00275247 -0.00022719]
  ...
  [ 0.03158788 -0.01920753 -0.00410766 ...  0.00140796 -0.00094345  0.00007787]
  [-0.02116647  0.01287062  0.00275247 ... -0.00094345  0.00063219 -0.00005218]
  [ 0.00174709 -0.00106235 -0.00022719 ...  0.00007787 -0.00005218  0.00000431]]

 [[ 0.70868194  0.4309258  -0.09215636 ... -0.03158788 -0.02116647 -0.00174709]
  [ 0.4309258   0.26203157 -0.0560372  ... -0.01920753 -0.01287062 -0.00106235]
  [-0.09215636 -0.0560372   0.01198393 ...  0.00410766  0.00275247  0.00022719]
  ...
  [-0.03158788 -0.01920753  0.00410766 ...  0.00140796  0.00094345  0.00007787]
  [-0.02116647 -0.01287062  0.00275247 ...  0.00094345  0.00063219  0.00005218]
  [-0.00174709 -0.00106235  0.00022719 ...  0.00007787  0.00005218  0.00000431]]]
Fock (ortho)
 (array([[-0.25693977,  0.27051533,  0.19443677,  0.        ,  0.        , -0.        ,  0.        , -0.08063259, -0.02493031, -0.        , -0.        ,
         0.        ,  0.        ,  0.        ,  0.        , -0.        ,  0.        ,  0.01030748,  0.15364729, -0.02584094, -0.12644133, -0.        ,
        -0.        , -0.        , -0.        , -0.00367982,  0.07463075, -0.01075358],
       [ 0.27051533,  0.03641079, -0.06948927,  0.        , -0.        , -0.        , -0.        ,  0.30701675,  0.00725707,  0.        ,  0.        ,
         0.        ,  0.        ,  0.        ,  0.        ,  0.        ,  0.        , -0.06124038,  0.09001799, -0.42047252,  0.00728429, -0.        ,
        -0.        , -0.        , -0.        , -0.03923159, -0.01022578,  0.16481085],
       [ 0.19443677, -0.06948927,  1.32167098, -0.        ,  0.        ,  0.        , -0.        , -0.04083112,  0.02795632, -0.        , -0.        ,
         0.        ,  0.        ,  0.        ,  0.        , -0.        , -0.        ,  0.00392554,  0.2192464 ,  0.01474318, -1.28215146, -0.        ,
        -0.        , -0.        , -0.        ,  0.00051627, -0.07051665,  0.00015754],
       [ 0.        ,  0.        , -0.        ,  1.53695371, -0.        ,  0.05253709,  0.03058632,  0.        ,  0.        ,  0.00281515,  0.00455742,
         0.        , -0.        ,  0.        , -0.        ,  0.00098069, -0.0015609 , -0.        ,  0.        ,  0.        ,  0.        ,  0.17454615,
        -1.34732495, -0.00155876,  0.00654105,  0.        ,  0.        ,  0.        ],
       [ 0.        , -0.        ,  0.        , -0.        ,  1.53695371, -0.03058632,  0.05253709, -0.        ,  0.        ,  0.00455742, -0.00281515,
         0.        , -0.        ,  0.        , -0.        ,  0.0015609 ,  0.00098069, -0.        ,  0.        ,  0.        , -0.        ,  1.34732495,
         0.17454615, -0.00654105, -0.00155876,  0.        ,  0.        , -0.        ],
       [-0.        , -0.        ,  0.        ,  0.05253709, -0.03058632,  1.63564911, -0.        , -0.        ,  0.        ,  0.00002758,  0.00105553,
        -0.        ,  0.        ,  0.        , -0.        ,  0.00047862, -0.01418006, -0.        , -0.        , -0.        , -0.        , -0.00336126,
        -0.00798607,  0.39186788,  1.29763969,  0.        , -0.        , -0.        ],
       [ 0.        , -0.        , -0.        ,  0.03058632,  0.05253709, -0.        ,  1.63564911,  0.        , -0.        ,  0.00105553, -0.00002758,
         0.        , -0.        ,  0.        , -0.        ,  0.01418006,  0.00047862,  0.        ,  0.        ,  0.        ,  0.        ,  0.00798607,
        -0.00336126, -1.29763969,  0.39186788, -0.        , -0.        ,  0.        ],
       [-0.08063259,  0.30701675, -0.04083112,  0.        , -0.        , -0.        ,  0.        ,  1.78915857, -0.00892258, -0.        , -0.        ,
         0.        , -0.        , -0.        ,  0.        , -0.        ,  0.        ,  0.00426891, -0.03557395, -0.57588419,  0.01047344,  0.        ,
         0.        ,  0.        ,  0.        , -1.24202633,  0.00041746,  0.03556751],
       [-0.02493031,  0.00725707,  0.02795632,  0.        ,  0.        ,  0.        , -0.        , -0.00892258,  3.37736546,  0.        ,  0.        ,
         0.        , -0.        , -0.        ,  0.        ,  0.        ,  0.        , -0.02379403, -0.11712979, -0.00205677,  0.06918068,  0.        ,
        -0.        ,  0.        ,  0.        ,  0.00203658, -0.07166167,  0.00029357],
       [-0.        ,  0.        , -0.        ,  0.00281515,  0.00455742,  0.00002758,  0.00105553, -0.        ,  0.        ,  3.4342295 , -0.        ,
         0.        , -0.        ,  0.        , -0.        , -0.02504149, -0.00019082,  0.        , -0.        ,  0.        ,  0.        , -0.03461645,
         0.01564617, -0.00036529,  0.00012081, -0.        , -0.        ,  0.        ],
       [-0.        ,  0.        , -0.        ,  0.00455742, -0.00281515,  0.00105553, -0.00002758, -0.        ,  0.        , -0.        ,  3.4342295 ,
         0.        , -0.        , -0.        ,  0.        , -0.00019082,  0.02504149, -0.        ,  0.        , -0.        , -0.        ,  0.01564617,
         0.03461645,  0.00012081,  0.00036529,  0.        , -0.        , -0.        ],
       [ 0.        ,  0.        ,  0.        ,  0.        ,  0.        , -0.        ,  0.        ,  0.        ,  0.        ,  0.        ,  0.        ,
         3.44915389, -0.        , -0.02520068, -0.00087604, -0.        , -0.        ,  0.        , -0.        ,  0.        ,  0.        , -0.        ,
         0.        ,  0.        ,  0.        , -0.        , -0.        ,  0.        ],
       [ 0.        ,  0.        ,  0.        , -0.        , -0.        ,  0.        , -0.        , -0.        , -0.        , -0.        , -0.        ,
        -0.        ,  3.44915389,  0.00087604, -0.02520068,  0.        ,  0.        , -0.        ,  0.        ,  0.        ,  0.        ,  0.        ,
        -0.        , -0.        , -0.        ,  0.        , -0.        ,  0.        ],
       [ 0.        ,  0.        ,  0.        ,  0.        ,  0.        ,  0.        ,  0.        , -0.        , -0.        ,  0.        , -0.        ,
        -0.02520068,  0.00087604,  3.45139368,  0.        , -0.        ,  0.        , -0.        , -0.        ,  0.        ,  0.        , -0.        ,
         0.        ,  0.        , -0.        ,  0.        , -0.        ,  0.        ],
       [ 0.        ,  0.        ,  0.        , -0.        , -0.        , -0.        , -0.        ,  0.        ,  0.        , -0.        ,  0.        ,
        -0.00087604, -0.02520068,  0.        ,  3.45139368,  0.        ,  0.        ,  0.        , -0.        ,  0.        ,  0.        ,  0.        ,
        -0.        ,  0.        ,  0.        , -0.        , -0.        ,  0.        ],
       [-0.        ,  0.        , -0.        ,  0.00098069,  0.0015609 ,  0.00047862,  0.01418006, -0.        ,  0.        , -0.02504149, -0.00019082,
        -0.        ,  0.        , -0.        ,  0.        ,  3.46691316, -0.        ,  0.        , -0.        ,  0.        ,  0.        ,  0.00063425,
        -0.00029251,  0.03861415, -0.01309774, -0.        , -0.        ,  0.        ],
       [ 0.        ,  0.        , -0.        , -0.0015609 ,  0.00098069, -0.01418006,  0.00047862,  0.        ,  0.        , -0.00019082,  0.02504149,
        -0.        ,  0.        ,  0.        ,  0.        , -0.        ,  3.46691316,  0.        ,  0.        , -0.        , -0.        ,  0.00029251,
         0.00063425,  0.01309774,  0.03861415,  0.        ,  0.        , -0.        ],
       [ 0.01030748, -0.06124038,  0.00392554, -0.        , -0.        , -0.        ,  0.        ,  0.00426891, -0.02379403,  0.        , -0.        ,
         0.        , -0.        , -0.        ,  0.        ,  0.        ,  0.        ,  3.50795802,  0.00812463,  0.13389147, -0.00285622,  0.        ,
         0.        ,  0.        , -0.        , -0.252896  ,  0.00076842,  0.09853832],
       [ 0.15364729,  0.09001799,  0.2192464 ,  0.        ,  0.        , -0.        ,  0.        , -0.03557395, -0.11712979, -0.        ,  0.        ,
        -0.        ,  0.        , -0.        , -0.        , -0.        ,  0.        ,  0.00812463,  1.19381693, -0.04901664, -0.40030902, -0.        ,
        -0.        , -0.        , -0.        ,  0.02000542,  0.95245084,  0.01117267],
       [-0.02584094, -0.42047252,  0.01474318,  0.        ,  0.        , -0.        ,  0.        , -0.57588419, -0.00205677,  0.        , -0.        ,
         0.        ,  0.        ,  0.        ,  0.        ,  0.        , -0.        ,  0.13389147, -0.04901664,  1.60718583, -0.01641429, -0.        ,
        -0.        , -0.        , -0.        ,  0.5206078 , -0.01841487, -1.07832517],
       [-0.12644133,  0.00728429, -1.28215146,  0.        , -0.        , -0.        ,  0.        ,  0.01047344,  0.06918068,  0.        , -0.        ,
         0.        ,  0.        ,  0.        ,  0.        ,  0.        , -0.        , -0.00285622, -0.40030902, -0.01641429,  3.07333836,  0.        ,
         0.        ,  0.        ,  0.        , -0.01427355,  0.25070716,  0.00323092],
       [-0.        , -0.        , -0.        ,  0.17454615,  1.34732495, -0.00336126,  0.00798607,  0.        ,  0.        , -0.03461645,  0.01564617,
        -0.        ,  0.        , -0.        ,  0.        ,  0.00063425,  0.00029251,  0.        , -0.        , -0.        ,  0.        ,  3.04276407,
        -0.        , -0.02145245, -0.00226316,  0.        ,  0.        , -0.        ],
       [-0.        , -0.        , -0.        , -1.34732495,  0.17454615, -0.00798607, -0.00336126,  0.        , -0.        ,  0.01564617,  0.03461645,
         0.        , -0.        ,  0.        , -0.        , -0.00029251,  0.00063425,  0.        , -0.        , -0.        ,  0.        , -0.        ,
         3.04276407,  0.00226316, -0.02145245, -0.        , -0.        , -0.        ],
       [-0.        , -0.        , -0.        , -0.00155876, -0.00654105,  0.39186788, -1.29763969,  0.        ,  0.        , -0.00036529,  0.00012081,
         0.        , -0.        ,  0.        ,  0.        ,  0.03861415,  0.01309774,  0.        , -0.        , -0.        ,  0.        , -0.02145245,
         0.00226316,  3.11957503, -0.        ,  0.        ,  0.        , -0.        ],
       [-0.        , -0.        , -0.        ,  0.00654105, -0.00155876,  1.29763969,  0.39186788,  0.        ,  0.        ,  0.00012081,  0.00036529,
         0.        , -0.        , -0.        ,  0.        , -0.01309774,  0.03861415, -0.        , -0.        , -0.        ,  0.        , -0.00226316,
        -0.02145245,  0.        ,  3.11957503, -0.        , -0.        , -0.        ],
       [-0.00367982, -0.03923159,  0.00051627,  0.        ,  0.        ,  0.        , -0.        , -1.24202633,  0.00203658, -0.        ,  0.        ,
        -0.        ,  0.        ,  0.        , -0.        , -0.        ,  0.        , -0.252896  ,  0.02000542,  0.5206078 , -0.01427355,  0.        ,
        -0.        ,  0.        , -0.        ,  3.2064153 ,  0.01013758,  0.10406285],
       [ 0.07463075, -0.01022578, -0.07051665,  0.        ,  0.        , -0.        , -0.        ,  0.00041746, -0.07166167, -0.        , -0.        ,
        -0.        , -0.        , -0.        , -0.        , -0.        ,  0.        ,  0.00076842,  0.95245084, -0.01841487,  0.25070716,  0.        ,
        -0.        ,  0.        , -0.        ,  0.01013758,  1.79215172,  0.0163951 ],
       [-0.01075358,  0.16481085,  0.00015754,  0.        , -0.        , -0.        ,  0.        ,  0.03556751,  0.00029357,  0.        , -0.        ,
         0.        ,  0.        ,  0.        ,  0.        ,  0.        , -0.        ,  0.09853832,  0.01117267, -1.07832517,  0.00323092, -0.        ,
        -0.        , -0.        , -0.        ,  0.10406285,  0.0163951 ,  1.57422527]]), array([[-0.25693977, -0.27051533,  0.19443677,  0.        , -0.        , -0.        ,  0.        ,  0.08063259, -0.02493031, -0.        , -0.        ,
        -0.        ,  0.        ,  0.        , -0.        , -0.        , -0.        , -0.01030748,  0.15364729,  0.02584094, -0.12644133, -0.        ,
        -0.        , -0.        , -0.        ,  0.00367982,  0.07463075,  0.01075358],
       [-0.27051533,  0.03641079,  0.06948927,  0.        , -0.        , -0.        , -0.        ,  0.30701675, -0.00725707,  0.        ,  0.        ,
         0.        ,  0.        ,  0.        ,  0.        ,  0.        ,  0.        , -0.06124038, -0.09001799, -0.42047252, -0.00728429, -0.        ,
        -0.        , -0.        , -0.        , -0.03923159,  0.01022578,  0.16481085],
       [ 0.19443677,  0.06948927,  1.32167098, -0.        ,  0.        ,  0.        , -0.        ,  0.04083112,  0.02795632, -0.        , -0.        ,
         0.        ,  0.        ,  0.        ,  0.        , -0.        , -0.        , -0.00392554,  0.2192464 , -0.01474318, -1.28215146, -0.        ,
        -0.        , -0.        , -0.        , -0.00051627, -0.07051665, -0.00015754],
       [ 0.        ,  0.        , -0.        ,  1.53695371,  0.        , -0.05253709, -0.03058632,  0.        ,  0.        ,  0.00281515,  0.00455742,
         0.        , -0.        ,  0.        , -0.        , -0.00098069,  0.0015609 , -0.        ,  0.        ,  0.        ,  0.        ,  0.17454615,
        -1.34732495,  0.00155876, -0.00654105,  0.        ,  0.        ,  0.        ],
       [-0.        , -0.        ,  0.        ,  0.        ,  1.53695371,  0.03058632, -0.05253709, -0.        , -0.        ,  0.00455742, -0.00281515,
         0.        , -0.        ,  0.        , -0.        , -0.0015609 , -0.00098069, -0.        , -0.        ,  0.        , -0.        ,  1.34732495,
         0.17454615,  0.00654105,  0.00155876,  0.        ,  0.        , -0.        ],
       [-0.        , -0.        ,  0.        , -0.05253709,  0.03058632,  1.63564911,  0.        ,  0.        ,  0.        , -0.00002758, -0.00105553,
        -0.        ,  0.        ,  0.        , -0.        ,  0.00047862, -0.01418006, -0.        , -0.        , -0.        , -0.        ,  0.00336126,
         0.00798607,  0.39186788,  1.29763969,  0.        , -0.        , -0.        ],
       [ 0.        , -0.        , -0.        , -0.03058632, -0.05253709,  0.        ,  1.63564911, -0.        , -0.        , -0.00105553,  0.00002758,
         0.        , -0.        ,  0.        , -0.        ,  0.01418006,  0.00047862,  0.        ,  0.        ,  0.        ,  0.        , -0.00798607,
         0.00336126, -1.29763969,  0.39186788, -0.        , -0.        ,  0.        ],
       [ 0.08063259,  0.30701675,  0.04083112,  0.        , -0.        ,  0.        , -0.        ,  1.78915857,  0.00892258, -0.        , -0.        ,
         0.        , -0.        , -0.        ,  0.        , -0.        , -0.        ,  0.00426891,  0.03557395, -0.57588419, -0.01047344,  0.        ,
         0.        ,  0.        ,  0.        , -1.24202633, -0.00041746,  0.03556751],
       [-0.02493031, -0.00725707,  0.02795632,  0.        , -0.        ,  0.        , -0.        ,  0.00892258,  3.37736546,  0.        ,  0.        ,
         0.        , -0.        , -0.        ,  0.        ,  0.        ,  0.        ,  0.02379403, -0.11712979,  0.00205677,  0.06918068,  0.        ,
        -0.        ,  0.        ,  0.        , -0.00203658, -0.07166167, -0.00029357],
       [-0.        ,  0.        , -0.        ,  0.00281515,  0.00455742, -0.00002758, -0.00105553, -0.        ,  0.        ,  3.4342295 ,  0.        ,
        -0.        ,  0.        , -0.        ,  0.        ,  0.02504149,  0.00019082,  0.        , -0.        ,  0.        ,  0.        , -0.03461645,
         0.01564617,  0.00036529, -0.00012081, -0.        , -0.        ,  0.        ],
       [-0.        ,  0.        , -0.        ,  0.00455742, -0.00281515, -0.00105553,  0.00002758, -0.        ,  0.        ,  0.        ,  3.4342295 ,
        -0.        ,  0.        ,  0.        , -0.        ,  0.00019082, -0.02504149, -0.        ,  0.        , -0.        , -0.        ,  0.01564617,
         0.03461645, -0.00012081, -0.00036529,  0.        ,  0.        , -0.        ],
       [-0.        ,  0.        ,  0.        ,  0.        ,  0.        , -0.        ,  0.        ,  0.        ,  0.        , -0.        , -0.        ,
         3.44915389,  0.        ,  0.02520068,  0.00087604,  0.        ,  0.        ,  0.        , -0.        ,  0.        ,  0.        , -0.        ,
         0.        ,  0.        ,  0.        , -0.        , -0.        ,  0.        ],
       [ 0.        ,  0.        ,  0.        , -0.        , -0.        ,  0.        , -0.        , -0.        , -0.        ,  0.        ,  0.        ,
         0.        ,  3.44915389, -0.00087604,  0.02520068, -0.        , -0.        , -0.        , -0.        ,  0.        ,  0.        ,  0.        ,
        -0.        , -0.        , -0.        ,  0.        , -0.        ,  0.        ],
       [ 0.        ,  0.        ,  0.        ,  0.        ,  0.        ,  0.        ,  0.        , -0.        , -0.        , -0.        ,  0.        ,
         0.02520068, -0.00087604,  3.45139368, -0.        ,  0.        , -0.        , -0.        , -0.        ,  0.        ,  0.        , -0.        ,
         0.        ,  0.        , -0.        ,  0.        , -0.        ,  0.        ],
       [-0.        ,  0.        ,  0.        , -0.        , -0.        , -0.        , -0.        ,  0.        ,  0.        ,  0.        , -0.        ,
         0.00087604,  0.02520068, -0.        ,  3.45139368, -0.        ,  0.        ,  0.        , -0.        ,  0.        ,  0.        ,  0.        ,
        -0.        , -0.        ,  0.        , -0.        , -0.        ,  0.        ],
       [-0.        ,  0.        , -0.        , -0.00098069, -0.0015609 ,  0.00047862,  0.01418006, -0.        ,  0.        ,  0.02504149,  0.00019082,
         0.        , -0.        ,  0.        , -0.        ,  3.46691316,  0.        ,  0.        , -0.        ,  0.        ,  0.        , -0.00063425,
         0.00029251,  0.03861415, -0.01309774, -0.        , -0.        ,  0.        ],
       [-0.        ,  0.        , -0.        ,  0.0015609 , -0.00098069, -0.01418006,  0.00047862, -0.        ,  0.        ,  0.00019082, -0.02504149,
         0.        , -0.        , -0.        ,  0.        ,  0.        ,  3.46691316, -0.        ,  0.        , -0.        , -0.        , -0.00029251,
        -0.00063425,  0.01309774,  0.03861415,  0.        ,  0.        , -0.        ],
       [-0.01030748, -0.06124038, -0.00392554, -0.        , -0.        , -0.        ,  0.        ,  0.00426891,  0.02379403,  0.        , -0.        ,
         0.        , -0.        , -0.        ,  0.        ,  0.        , -0.        ,  3.50795802, -0.00812463,  0.13389147,  0.00285622,  0.        ,
         0.        ,  0.        , -0.        , -0.252896  , -0.00076842,  0.09853832],
       [ 0.15364729, -0.09001799,  0.2192464 ,  0.        , -0.        , -0.        ,  0.        ,  0.03557395, -0.11712979, -0.        ,  0.        ,
        -0.        , -0.        , -0.        , -0.        , -0.        ,  0.        , -0.00812463,  1.19381693,  0.04901664, -0.40030902, -0.        ,
        -0.        , -0.        , -0.        , -0.02000542,  0.95245084, -0.01117267],
       [ 0.02584094, -0.42047252, -0.01474318,  0.        ,  0.        , -0.        ,  0.        , -0.57588419,  0.00205677,  0.        , -0.        ,
         0.        ,  0.        ,  0.        ,  0.        ,  0.        , -0.        ,  0.13389147,  0.04901664,  1.60718583,  0.01641429, -0.        ,
        -0.        , -0.        , -0.        ,  0.5206078 ,  0.01841487, -1.07832517],
       [-0.12644133, -0.00728429, -1.28215146,  0.        , -0.        , -0.        ,  0.        , -0.01047344,  0.06918068,  0.        , -0.        ,
         0.        ,  0.        ,  0.        ,  0.        ,  0.        , -0.        ,  0.00285622, -0.40030902,  0.01641429,  3.07333836,  0.        ,
         0.        ,  0.        ,  0.        ,  0.01427355,  0.25070716, -0.00323092],
       [-0.        , -0.        , -0.        ,  0.17454615,  1.34732495,  0.00336126, -0.00798607,  0.        ,  0.        , -0.03461645,  0.01564617,
        -0.        ,  0.        , -0.        ,  0.        , -0.00063425, -0.00029251,  0.        , -0.        , -0.        ,  0.        ,  3.04276407,
        -0.        ,  0.02145245,  0.00226316,  0.        ,  0.        , -0.        ],
       [-0.        , -0.        , -0.        , -1.34732495,  0.17454615,  0.00798607,  0.00336126,  0.        , -0.        ,  0.01564617,  0.03461645,
         0.        , -0.        ,  0.        , -0.        ,  0.00029251, -0.00063425,  0.        , -0.        , -0.        ,  0.        , -0.        ,
         3.04276407, -0.00226316,  0.02145245, -0.        , -0.        , -0.        ],
       [-0.        , -0.        , -0.        ,  0.00155876,  0.00654105,  0.39186788, -1.29763969,  0.        ,  0.        ,  0.00036529, -0.00012081,
         0.        , -0.        ,  0.        , -0.        ,  0.03861415,  0.01309774,  0.        , -0.        , -0.        ,  0.        ,  0.02145245,
        -0.00226316,  3.11957503, -0.        ,  0.        ,  0.        , -0.        ],
       [-0.        , -0.        , -0.        , -0.00654105,  0.00155876,  1.29763969,  0.39186788,  0.        ,  0.        , -0.00012081, -0.00036529,
         0.        , -0.        , -0.        ,  0.        , -0.01309774,  0.03861415, -0.        , -0.        , -0.        ,  0.        ,  0.00226316,
         0.02145245,  0.        ,  3.11957503, -0.        , -0.        , -0.        ],
       [ 0.00367982, -0.03923159, -0.00051627,  0.        ,  0.        ,  0.        , -0.        , -1.24202633, -0.00203658, -0.        ,  0.        ,
        -0.        ,  0.        ,  0.        , -0.        , -0.        ,  0.        , -0.252896  , -0.02000542,  0.5206078 ,  0.01427355,  0.        ,
        -0.        ,  0.        , -0.        ,  3.2064153 , -0.01013758,  0.10406285],
       [ 0.07463075,  0.01022578, -0.07051665,  0.        ,  0.        , -0.        , -0.        , -0.00041746, -0.07166167, -0.        ,  0.        ,
        -0.        , -0.        , -0.        , -0.        , -0.        ,  0.        , -0.00076842,  0.95245084,  0.01841487,  0.25070716,  0.        ,
        -0.        ,  0.        , -0.        , -0.01013758,  1.79215172, -0.0163951 ],
       [ 0.01075358,  0.16481085, -0.00015754,  0.        , -0.        , -0.        ,  0.        ,  0.03556751, -0.00029357,  0.        , -0.        ,
         0.        ,  0.        ,  0.        ,  0.        ,  0.        , -0.        ,  0.09853832, -0.01117267, -1.07832517, -0.00323092, -0.        ,
        -0.        , -0.        , -0.        ,  0.10406285, -0.0163951 ,  1.57422527]]))
E(UHF) =    -1.233981
NO eigenvalue
[-1. -0. -0. -0. -0. -0. -0. -0. -0. -0. -0. -0. -0. -0. -0. -0.  0.  0.  0.  0.  0.  0.  0.  0.  0.  0.  0.  0.] [-1. -0. -0. -0. -0. -0. -0. -0. -0. -0. -0. -0. -0. -0. -0. -0. -0.  0.  0.  0.  0.  0.  0.  0.  0.  0.  0.  0.]
NO vec
[[ 0.84183249  0.          0.49358579 ...  0.          0.          0.        ]
 [-0.51189019  0.          0.84678087 ...  0.          0.          0.        ]
 [-0.10947114  0.         -0.17906353 ...  0.          0.          0.        ]
 ...
 [ 0.         -0.03752276  0.         ... -0.90069177 -0.37448077  0.00324206]
 [ 0.         -0.02514332  0.         ... -0.16726617  0.68252128 -0.06049014]
 [ 0.         -0.00207534  0.         ... -0.07415038  0.051849   -0.00320323]]
dm(NO)
[[ 1.  0.  0. ...  0.  0.  0.]
 [ 0.  1.  0. ...  0.  0. -0.]
 [ 0.  0. -0. ...  0.  0.  0.]
 ...
 [ 0.  0.  0. ... -0.  0.  0.]
 [ 0.  0.  0. ... -0. -0. -0.]
 [ 0.  0.  0. ...  0. -0. -0.]]
D(g) (NO)
[[ 0.99951369  0.01383721  0.         ... -0.00207811  0.00148205 -0.00465234]
 [-0.01383721  0.99951369 -0.02709149 ...  0.         -0.          0.        ]
 [ 0.          0.02709149  0.99951369 ... -0.00289738  0.00010961  0.00594213]
 ...
 [ 0.00207811  0.          0.00289738 ...  0.99951369  0.          0.        ]
 [-0.00148205  0.         -0.00010961 ...  0.          0.99951369 -0.        ]
 [ 0.00465234  0.         -0.00594213 ...  0.         -0.          0.99951369]]
...
N(g) (NO)
[[ 1.00029484 -0.01384803]
 [ 0.01384803  1.00029484]]
...
P(g) (NO)
[[ 1.         -0.          0.         ... -0.          0.          0.        ]
 [-0.          1.         -0.         ...  0.          0.         -0.        ]
 [ 0.00037516  0.02709948  0.         ...  0.          0.         -0.        ]
 ...
 [ 0.00207872 -0.00002878  0.         ... -0.         -0.          0.        ]
 [-0.00148249  0.00002052 -0.         ...  0.          0.         -0.        ]
 [ 0.00465371 -0.00006443  0.         ... -0.         -0.          0.        ]]
...
Pg_ortho
[[ 0.70885218 -0.43102931 -0.0921785  ... -0.00054809 -0.00036726 -0.00003031]
 [-0.43065714  0.26186821  0.05600227 ... -0.00086499 -0.00057961 -0.00004784]
 [-0.0921785   0.05605066  0.01198681 ...  0.00007127  0.00004776  0.00000394]
 ...
 [-0.00142252  0.00086499  0.00018498 ...  0.00140708  0.00094286  0.00007782]
 [ 0.00036726 -0.00022332 -0.00004776 ...  0.00094367  0.00063234  0.00005219]
 [-0.00007868  0.00004784  0.00001023 ...  0.00007782  0.00005215  0.0000043 ]]
G(g) (NO)
[[ 0.27159127 -0.00201797  0.06754834 ... -0.00002222  0.00011404  0.00016228]
 [ 0.00201797  0.27159127 -0.00097986 ...  0.01924282 -0.0335196  -0.03163503]
 [ 0.0674618  -0.01633797  0.85115087 ...  0.00001892  0.00057575  0.00042032]
 ...
 [-0.00028309  0.01924616 -0.00000004 ...  0.8182256   0.05848042  0.10146604]
 [ 0.000514   -0.03351431 -0.00043777 ...  0.05848121  0.70105933  0.01426749]
 [-0.00136223 -0.03162597  0.0002625  ...  0.10146576  0.01427049  0.78554183]]
...
C(NO)
[[-1.          0.          0.         ...  0.          0.          0.        ]
 [ 0.         -1.          0.         ...  0.          0.          0.        ]
 [-0.          0.         -0.91035883 ...  0.          0.          0.        ]
 ...
 [ 0.         -0.          0.         ... -0.         -0.         -0.74651764]
 [ 0.         -0.          0.         ... -0.         -0.         -0.26553376]
 [ 0.          0.          0.         ... -0.         -0.         -0.38185125]]
detC 0.999999999999999
detNg [1.00078153 1.0207291  1.11913702 1.40339219 2.0646433  3.29642741 4.60378707 5.05854568]
xg [0.99921908 0.97969187 0.89354563 0.71255919 0.48434516 0.30335872 0.21721248 0.19768528]
ciS 1.196904351751274
[[-0.75277218  0.         -0.03454319 ...  0.          0.          0.        ]
 [ 0.         -0.75277218  0.         ... -0.01674512  0.02806548  0.02807004]
 [-0.03454319  0.         -0.62390326 ...  0.          0.          0.        ]
 ...
 [ 0.         -0.01674512  0.         ...  2.17886595  0.78592718  0.95407408]
 [ 0.          0.02806548  0.         ...  0.78592718  0.63849705  0.25500654]
 [ 0.          0.02807004  0.         ...  0.95407408  0.25500654  0.69235251]]
ciH -1.4781477758156611
S2 = 0.000000
X(g)
[[ 2.         -0.          0.00037516 ... -0.00207872  0.00148249 -0.00465371]
 [ 0.          2.         -0.02709948 ... -0.00002878  0.00002052 -0.00006443]
 [ 0.00037516  0.02709948  0.         ...  0.          0.          0.        ]
 ...
 [ 0.00207872 -0.00002878  0.         ...  0.          0.          0.        ]
 [-0.00148249  0.00002052  0.         ...  0.          0.          0.        ]
 [ 0.00465371 -0.00006443  0.         ...  0.          0.          0.        ]]
X(g) int
[[ 2.         -0.          0.32209219 ... -0.04372986  0.03118695 -0.09789953]
 [ 0.          2.         -0.57008868 ... -0.02470676  0.01762019 -0.05531188]
 [ 0.32209219  0.57008868  0.         ...  0.          0.          0.        ]
 ...
 [ 0.04372986 -0.02470676  0.         ...  0.          0.          0.        ]
 [-0.03118695  0.01762019  0.         ...  0.          0.          0.        ]
 [ 0.09789953 -0.05531188  0.         ...  0.          0.          0.        ]]
Hsp + Hph =  -1.2349756884523648
Feff (mod,ortho)
[[-0.23563462  0.28138413  0.19092068 ...  0.          0.          0.        ]
 [ 0.28138413  0.01531541 -0.07044927 ...  0.          0.          0.        ]
 [ 0.19092068 -0.07044927  1.32222517 ...  0.          0.          0.        ]
 ...
 [ 0.          0.          0.         ...  3.20651288 -0.0100284   0.10399753]
 [ 0.          0.          0.         ... -0.0100284   1.79225423 -0.01643644]
 [ 0.          0.          0.         ...  0.10399753 -0.01643644  1.57421775]]
E(SUHF) =     -0.99444059
e_a, e_b
[-0.48714447  0.05246189  0.37076255  0.49058196  0.65382745  0.71916383  0.71916383  0.84884125  0.84884125  1.08832667  2.4578647   2.61390542  3.38446663
  3.41920969  3.41920969  3.42503303  3.42503303  3.47551454  3.47551454  3.47852358  3.47852358  3.50580002  3.8302894   3.8302894   3.85292821  3.94005684
  3.94005684  4.23897644] [-0.48714447  0.05246189  0.37076255  0.49058196  0.65382745  0.71916383  0.71916383  0.84884125  0.84884125  1.08832667  2.4578647   2.61390542  3.38446663
  3.41920969  3.41920969  3.42503303  3.42503303  3.47551454  3.47551454  3.47852358  3.47852358  3.50580002  3.8302894   3.8302894   3.85292821  3.94005684
  3.94005684  4.23897644]
P_a, P_b
[[ 0.61970161 -0.46315197 -0.08610923 -0.         -0.          0.         -0.          0.08772914  0.00472154  0.         -0.          0.          0.
   0.          0.          0.         -0.         -0.00480216 -0.02145058 -0.06380492 -0.01005824 -0.         -0.         -0.         -0.          0.03359773
  -0.01484939  0.00485252]
 [-0.46315197  0.34615006  0.06435623  0.          0.         -0.          0.         -0.06556692 -0.00352878 -0.          0.         -0.         -0.
  -0.         -0.         -0.          0.          0.00358903  0.01603171  0.04768646  0.00751732  0.          0.          0.          0.         -0.02511024
   0.01109812 -0.00362667]
 [-0.08610923  0.06435623  0.01196511  0.          0.         -0.          0.         -0.0121902  -0.00065607 -0.          0.         -0.         -0.
  -0.         -0.         -0.          0.          0.00066727  0.00298062  0.00886587  0.00139762  0.          0.          0.          0.         -0.0046685
   0.00206336 -0.00067427]
 [-0.          0.          0.          0.          0.         -0.          0.         -0.         -0.         -0.          0.         -0.         -0.
  -0.         -0.         -0.          0.          0.          0.          0.          0.          0.          0.          0.          0.         -0.
   0.         -0.        ]
 [-0.          0.          0.          0.          0.         -0.          0.         -0.         -0.         -0.          0.         -0.         -0.
  -0.         -0.         -0.          0.          0.          0.          0.          0.          0.          0.          0.          0.         -0.
   0.         -0.        ]
 [ 0.         -0.         -0.         -0.         -0.          0.         -0.          0.          0.          0.         -0.          0.          0.
   0.          0.          0.         -0.         -0.         -0.         -0.         -0.         -0.         -0.         -0.         -0.          0.
  -0.          0.        ]
 [-0.          0.          0.          0.          0.         -0.          0.         -0.         -0.         -0.          0.         -0.         -0.
  -0.         -0.         -0.          0.          0.          0.          0.          0.          0.          0.          0.          0.         -0.
   0.         -0.        ]
 [ 0.08772914 -0.06556692 -0.0121902  -0.         -0.          0.         -0.          0.01241953  0.00066841  0.         -0.          0.          0.
   0.          0.          0.         -0.         -0.00067983 -0.00303669 -0.00903266 -0.00142391 -0.         -0.         -0.         -0.          0.00475632
  -0.00210218  0.00068696]
 [ 0.00472154 -0.00352878 -0.00065607 -0.         -0.          0.         -0.          0.00066841  0.00003597  0.         -0.          0.          0.
   0.          0.          0.         -0.         -0.00003659 -0.00016343 -0.00048613 -0.00007663 -0.         -0.         -0.         -0.          0.00025598
  -0.00011314  0.00003697]
 [ 0.         -0.         -0.         -0.         -0.          0.         -0.          0.          0.          0.         -0.          0.          0.
   0.          0.          0.         -0.         -0.         -0.         -0.         -0.         -0.         -0.         -0.         -0.          0.
  -0.          0.        ]
 [-0.          0.          0.          0.          0.         -0.          0.         -0.         -0.         -0.          0.         -0.         -0.
  -0.         -0.         -0.          0.          0.          0.          0.          0.          0.          0.          0.          0.         -0.
   0.         -0.        ]
 [ 0.         -0.         -0.         -0.         -0.          0.         -0.          0.          0.          0.         -0.          0.          0.
   0.          0.          0.         -0.         -0.         -0.         -0.         -0.         -0.         -0.         -0.         -0.          0.
  -0.          0.        ]
 [ 0.         -0.         -0.         -0.         -0.          0.         -0.          0.          0.          0.         -0.          0.          0.
   0.          0.          0.         -0.         -0.         -0.         -0.         -0.         -0.         -0.         -0.         -0.          0.
  -0.          0.        ]
 [ 0.         -0.         -0.         -0.         -0.          0.         -0.          0.          0.          0.         -0.          0.          0.
   0.          0.          0.         -0.         -0.         -0.         -0.         -0.         -0.         -0.         -0.         -0.          0.
  -0.          0.        ]
 [ 0.         -0.         -0.         -0.         -0.          0.         -0.          0.          0.          0.         -0.          0.          0.
   0.          0.          0.         -0.         -0.         -0.         -0.         -0.         -0.         -0.         -0.         -0.          0.
  -0.          0.        ]
 [ 0.         -0.         -0.         -0.         -0.          0.         -0.          0.          0.          0.         -0.          0.          0.
   0.          0.          0.         -0.         -0.         -0.         -0.         -0.         -0.         -0.         -0.         -0.          0.
  -0.          0.        ]
 [-0.          0.          0.          0.          0.         -0.          0.         -0.         -0.         -0.          0.         -0.         -0.
  -0.         -0.         -0.          0.          0.          0.          0.          0.          0.          0.          0.          0.         -0.
   0.         -0.        ]
 [-0.00480216  0.00358903  0.00066727  0.          0.         -0.          0.         -0.00067983 -0.00003659 -0.          0.         -0.         -0.
  -0.         -0.         -0.          0.          0.00003721  0.00016622  0.00049443  0.00007794  0.          0.          0.          0.         -0.00026035
   0.00011507 -0.0000376 ]
 [-0.02145058  0.01603171  0.00298062  0.          0.         -0.          0.         -0.00303669 -0.00016343 -0.          0.         -0.         -0.
  -0.         -0.         -0.          0.          0.00016622  0.0007425   0.00220857  0.00034816  0.          0.          0.          0.         -0.00116296
   0.000514   -0.00016797]
 [-0.06380492  0.04768646  0.00886587  0.          0.         -0.          0.         -0.00903266 -0.00048613 -0.          0.         -0.         -0.
  -0.         -0.         -0.          0.          0.00049443  0.00220857  0.0065694   0.0010356   0.          0.          0.          0.         -0.00345925
   0.0015289  -0.00049962]
 [-0.01005824  0.00751732  0.00139762  0.          0.         -0.          0.         -0.00142391 -0.00007663 -0.          0.         -0.         -0.
  -0.         -0.         -0.          0.          0.00007794  0.00034816  0.0010356   0.00016325  0.          0.          0.          0.         -0.00054532
   0.00024102 -0.00007876]
 [-0.          0.          0.          0.          0.         -0.          0.         -0.         -0.         -0.          0.         -0.         -0.
  -0.         -0.         -0.          0.          0.          0.          0.          0.          0.          0.          0.          0.         -0.
   0.         -0.        ]
 [-0.          0.          0.          0.          0.         -0.          0.         -0.         -0.         -0.          0.         -0.         -0.
  -0.         -0.         -0.          0.          0.          0.          0.          0.          0.          0.          0.          0.         -0.
   0.         -0.        ]
 [-0.          0.          0.          0.          0.         -0.          0.         -0.         -0.         -0.          0.         -0.         -0.
  -0.         -0.         -0.          0.          0.          0.          0.          0.          0.          0.          0.          0.         -0.
   0.         -0.        ]
 [-0.          0.          0.          0.          0.         -0.          0.         -0.         -0.         -0.          0.         -0.         -0.
  -0.         -0.         -0.          0.          0.          0.          0.          0.          0.          0.          0.          0.         -0.
   0.         -0.        ]
 [ 0.03359773 -0.02511024 -0.0046685  -0.         -0.          0.         -0.          0.00475632  0.00025598  0.         -0.          0.          0.
   0.          0.          0.         -0.         -0.00026035 -0.00116296 -0.00345925 -0.00054532 -0.         -0.         -0.         -0.          0.00182153
  -0.00080507  0.00026308]
 [-0.01484939  0.01109812  0.00206336  0.          0.         -0.          0.         -0.00210218 -0.00011314 -0.          0.         -0.         -0.
  -0.         -0.         -0.          0.          0.00011507  0.000514    0.0015289   0.00024102  0.          0.          0.          0.         -0.00080507
   0.00035582 -0.00011628]
 [ 0.00485252 -0.00362667 -0.00067427 -0.         -0.          0.         -0.          0.00068696  0.00003697  0.         -0.          0.          0.
   0.          0.          0.         -0.         -0.0000376  -0.00016797 -0.00049962 -0.00007876 -0.         -0.         -0.         -0.          0.00026308
  -0.00011628  0.000038  ]] 
 [[ 0.61970161  0.46315197 -0.08610923  0.          0.          0.         -0.         -0.08772914  0.00472154 -0.          0.         -0.         -0.
  -0.         -0.         -0.          0.          0.00480216 -0.02145058  0.06380492 -0.01005824  0.          0.          0.          0.         -0.03359773
  -0.01484939 -0.00485252]
 [ 0.46315197  0.34615006 -0.06435623  0.          0.          0.         -0.         -0.06556692  0.00352878 -0.          0.         -0.         -0.
  -0.         -0.         -0.          0.          0.00358903 -0.01603171  0.04768646 -0.00751732  0.          0.          0.          0.         -0.02511024
  -0.01109812 -0.00362667]
 [-0.08610923 -0.06435623  0.01196511 -0.         -0.         -0.          0.          0.0121902  -0.00065607  0.         -0.          0.          0.
   0.          0.          0.         -0.         -0.00066727  0.00298062 -0.00886587  0.00139762 -0.         -0.         -0.         -0.          0.0046685
   0.00206336  0.00067427]
 [ 0.          0.         -0.          0.          0.          0.         -0.         -0.          0.         -0.          0.         -0.         -0.
  -0.         -0.         -0.          0.          0.         -0.          0.         -0.          0.          0.          0.          0.         -0.
  -0.         -0.        ]
 [ 0.          0.         -0.          0.          0.          0.         -0.         -0.          0.         -0.          0.         -0.         -0.
  -0.         -0.         -0.          0.          0.         -0.          0.         -0.          0.          0.          0.          0.         -0.
  -0.         -0.        ]
 [ 0.          0.         -0.          0.          0.          0.         -0.         -0.          0.         -0.          0.         -0.         -0.
  -0.         -0.         -0.          0.          0.         -0.          0.         -0.          0.          0.          0.          0.         -0.
  -0.         -0.        ]
 [-0.         -0.          0.         -0.         -0.         -0.          0.          0.         -0.          0.         -0.          0.          0.
   0.          0.          0.         -0.         -0.          0.         -0.          0.         -0.         -0.         -0.         -0.          0.
   0.          0.        ]
 [-0.08772914 -0.06556692  0.0121902  -0.         -0.         -0.          0.          0.01241953 -0.00066841  0.         -0.          0.          0.
   0.          0.          0.         -0.         -0.00067983  0.00303669 -0.00903266  0.00142391 -0.         -0.         -0.         -0.          0.00475632
   0.00210218  0.00068696]
 [ 0.00472154  0.00352878 -0.00065607  0.          0.          0.         -0.         -0.00066841  0.00003597 -0.          0.         -0.         -0.
  -0.         -0.         -0.          0.          0.00003659 -0.00016343  0.00048613 -0.00007663  0.          0.          0.          0.         -0.00025598
  -0.00011314 -0.00003697]
 [-0.         -0.          0.         -0.         -0.         -0.          0.          0.         -0.          0.         -0.          0.          0.
   0.          0.          0.         -0.         -0.          0.         -0.          0.         -0.         -0.         -0.         -0.          0.
   0.          0.        ]
 [ 0.          0.         -0.          0.          0.          0.         -0.         -0.          0.         -0.          0.         -0.         -0.
  -0.         -0.         -0.          0.          0.         -0.          0.         -0.          0.          0.          0.          0.         -0.
  -0.         -0.        ]
 [-0.         -0.          0.         -0.         -0.         -0.          0.          0.         -0.          0.         -0.          0.          0.
   0.          0.          0.         -0.         -0.          0.         -0.          0.         -0.         -0.         -0.         -0.          0.
   0.          0.        ]
 [-0.         -0.          0.         -0.         -0.         -0.          0.          0.         -0.          0.         -0.          0.          0.
   0.          0.          0.         -0.         -0.          0.         -0.          0.         -0.         -0.         -0.         -0.          0.
   0.          0.        ]
 [-0.         -0.          0.         -0.         -0.         -0.          0.          0.         -0.          0.         -0.          0.          0.
   0.          0.          0.         -0.         -0.          0.         -0.          0.         -0.         -0.         -0.         -0.          0.
   0.          0.        ]
 [-0.         -0.          0.         -0.         -0.         -0.          0.          0.         -0.          0.         -0.          0.          0.
   0.          0.          0.         -0.         -0.          0.         -0.          0.         -0.         -0.         -0.         -0.          0.
   0.          0.        ]
 [-0.         -0.          0.         -0.         -0.         -0.          0.          0.         -0.          0.         -0.          0.          0.
   0.          0.          0.         -0.         -0.          0.         -0.          0.         -0.         -0.         -0.         -0.          0.
   0.          0.        ]
 [ 0.          0.         -0.          0.          0.          0.         -0.         -0.          0.         -0.          0.         -0.         -0.
  -0.         -0.         -0.          0.          0.         -0.          0.         -0.          0.          0.          0.          0.         -0.
  -0.         -0.        ]
 [ 0.00480216  0.00358903 -0.00066727  0.          0.          0.         -0.         -0.00067983  0.00003659 -0.          0.         -0.         -0.
  -0.         -0.         -0.          0.          0.00003721 -0.00016622  0.00049443 -0.00007794  0.          0.          0.          0.         -0.00026035
  -0.00011507 -0.0000376 ]
 [-0.02145058 -0.01603171  0.00298062 -0.         -0.         -0.          0.          0.00303669 -0.00016343  0.         -0.          0.          0.
   0.          0.          0.         -0.         -0.00016622  0.0007425  -0.00220857  0.00034816 -0.         -0.         -0.         -0.          0.00116296
   0.000514    0.00016797]
 [ 0.06380492  0.04768646 -0.00886587  0.          0.          0.         -0.         -0.00903266  0.00048613 -0.          0.         -0.         -0.
  -0.         -0.         -0.          0.          0.00049443 -0.00220857  0.0065694  -0.0010356   0.          0.          0.          0.         -0.00345925
  -0.0015289  -0.00049962]
 [-0.01005824 -0.00751732  0.00139762 -0.         -0.         -0.          0.          0.00142391 -0.00007663  0.         -0.          0.          0.
   0.          0.          0.         -0.         -0.00007794  0.00034816 -0.0010356   0.00016325 -0.         -0.         -0.         -0.          0.00054532
   0.00024102  0.00007876]
 [ 0.          0.         -0.          0.          0.          0.         -0.         -0.          0.         -0.          0.         -0.         -0.
  -0.         -0.         -0.          0.          0.         -0.          0.         -0.          0.          0.          0.          0.         -0.
  -0.         -0.        ]
 [ 0.          0.         -0.          0.          0.          0.         -0.         -0.          0.         -0.          0.         -0.         -0.
  -0.         -0.         -0.          0.          0.         -0.          0.         -0.          0.          0.          0.          0.         -0.
  -0.         -0.        ]
 [ 0.          0.         -0.          0.          0.          0.         -0.         -0.          0.         -0.          0.         -0.         -0.
  -0.         -0.         -0.          0.          0.         -0.          0.         -0.          0.          0.          0.          0.         -0.
  -0.         -0.        ]
 [ 0.          0.         -0.          0.          0.          0.         -0.         -0.          0.         -0.          0.         -0.         -0.
  -0.         -0.         -0.          0.          0.         -0.          0.         -0.          0.          0.          0.          0.         -0.
  -0.         -0.        ]
 [-0.03359773 -0.02511024  0.0046685  -0.         -0.         -0.          0.          0.00475632 -0.00025598  0.         -0.          0.          0.
   0.          0.          0.         -0.         -0.00026035  0.00116296 -0.00345925  0.00054532 -0.         -0.         -0.         -0.          0.00182153
   0.00080507  0.00026308]
 [-0.01484939 -0.01109812  0.00206336 -0.         -0.         -0.          0.          0.00210218 -0.00011314  0.         -0.          0.          0.
   0.          0.          0.         -0.         -0.00011507  0.000514   -0.0015289   0.00024102 -0.         -0.         -0.         -0.          0.00080507
   0.00035582  0.00011628]
 [-0.00485252 -0.00362667  0.00067427 -0.         -0.         -0.          0.          0.00068696 -0.00003697  0.         -0.          0.          0.
[...]
Feff (mod,ortho)
[[-0.22519774  0.29712512  0.19745829 ...  0.          0.          0.        ]
 [ 0.29712512  0.01652731 -0.07976676 ...  0.          0.          0.        ]
 [ 0.19745829 -0.07976676  1.32801984 ...  0.          0.          0.        ]
 ...
 [ 0.          0.          0.         ...  3.20903107 -0.01118317  0.10370903]
 [ 0.          0.          0.         ... -0.01118317  1.79647756 -0.01829951]
 [ 0.          0.          0.         ...  0.10370903 -0.01829951  1.57854209]]
E(SUHF) =     -1.01004457
e_a, e_b
[-0.49876445  0.06464911  0.3672668   0.50067726  0.65689552  0.72031187  0.72031187  0.85418918  0.85418918  1.09146918  2.46171471  2.62856539  3.39184783
  3.42412715  3.42412715  3.42987842  3.42987842  3.48558095  3.48558095  3.48711975  3.48711975  3.51107068  3.83704249  3.83704249  3.86082866  3.95386657
  3.95386657  4.25009664] [-0.49876445  0.06464911  0.3672668   0.50067726  0.65689552  0.72031187  0.72031187  0.85418918  0.85418918  1.09146918  2.46171471  2.62856539  3.39184783
  3.42412715  3.42412715  3.42987842  3.42987842  3.48558095  3.48558095  3.48711975  3.48711975  3.51107068  3.83704249  3.83704249  3.86082866  3.95386657
  3.95386657  4.25009664]
P_a, P_b
[[ 0.60208121 -0.46637897 -0.09007419 -0.         -0.         -0.         -0.          0.09231768  0.00537995  0.          0.          0.          0.
   0.          0.          0.          0.         -0.00543311 -0.00934984 -0.05946537 -0.0109576  -0.         -0.         -0.         -0.          0.0344722
  -0.01931248  0.00841337]
 [-0.46637897  0.36126246  0.06977249  0.          0.          0.          0.         -0.07151033 -0.00416737 -0.         -0.         -0.         -0.
  -0.         -0.         -0.         -0.          0.00420855  0.00724249  0.04606255  0.00848789  0.          0.          0.          0.         -0.02670256
   0.01495967 -0.0065171 ]
 [-0.09007419  0.06977249  0.01347552  0.          0.          0.          0.         -0.01381116 -0.00080487 -0.         -0.         -0.         -0.
  -0.         -0.         -0.         -0.          0.00081282  0.00139878  0.0088963   0.00163931  0.          0.          0.          0.         -0.0051572
   0.00288924 -0.00125868]
 [-0.          0.          0.          0.          0.          0.          0.         -0.         -0.         -0.         -0.         -0.         -0.
  -0.         -0.         -0.         -0.          0.          0.          0.          0.          0.          0.          0.          0.         -0.
   0.         -0.        ]
 [-0.          0.          0.          0.          0.          0.          0.         -0.         -0.         -0.         -0.         -0.         -0.
  -0.         -0.         -0.         -0.          0.          0.          0.          0.          0.          0.          0.          0.         -0.
   0.         -0.        ]
 [-0.          0.          0.          0.          0.          0.          0.         -0.         -0.         -0.         -0.         -0.         -0.
  -0.         -0.         -0.         -0.          0.          0.          0.          0.          0.          0.          0.          0.         -0.
   0.         -0.        ]
 [-0.          0.          0.          0.          0.          0.          0.         -0.         -0.         -0.         -0.         -0.         -0.
  -0.         -0.         -0.         -0.          0.          0.          0.          0.          0.          0.          0.          0.         -0.
   0.         -0.        ]
 [ 0.09231768 -0.07151033 -0.01381116 -0.         -0.         -0.         -0.          0.01415516  0.00082491  0.          0.          0.          0.
   0.          0.          0.          0.         -0.00083306 -0.00143362 -0.00911788 -0.00168014 -0.         -0.         -0.         -0.          0.00528565
  -0.0029612   0.00129003]
 [ 0.00537995 -0.00416737 -0.00080487 -0.         -0.         -0.         -0.          0.00082491  0.00004807  0.          0.          0.          0.
   0.          0.          0.          0.         -0.00004855 -0.00008355 -0.00053136 -0.00009791 -0.         -0.         -0.         -0.          0.00030803
  -0.00017257  0.00007518]
 [ 0.         -0.         -0.         -0.         -0.         -0.         -0.          0.          0.          0.          0.          0.          0.
   0.          0.          0.          0.         -0.         -0.         -0.         -0.         -0.         -0.         -0.         -0.          0.
  -0.          0.        ]
 [ 0.         -0.         -0.         -0.         -0.         -0.         -0.          0.          0.          0.          0.          0.          0.
   0.          0.          0.          0.         -0.         -0.         -0.         -0.         -0.         -0.         -0.         -0.          0.
  -0.          0.        ]
 [ 0.         -0.         -0.         -0.         -0.         -0.         -0.          0.          0.          0.          0.          0.          0.
   0.          0.          0.          0.         -0.         -0.         -0.         -0.         -0.         -0.         -0.         -0.          0.
  -0.          0.        ]
 [ 0.         -0.         -0.         -0.         -0.         -0.         -0.          0.          0.          0.          0.          0.          0.
   0.          0.          0.          0.         -0.         -0.         -0.         -0.         -0.         -0.         -0.         -0.          0.
  -0.          0.        ]
 [ 0.         -0.         -0.         -0.         -0.         -0.         -0.          0.          0.          0.          0.          0.          0.
   0.          0.          0.          0.         -0.         -0.         -0.         -0.         -0.         -0.         -0.         -0.          0.
  -0.          0.        ]
 [ 0.         -0.         -0.         -0.         -0.         -0.         -0.          0.          0.          0.          0.          0.          0.
   0.          0.          0.          0.         -0.         -0.         -0.         -0.         -0.         -0.         -0.         -0.          0.
  -0.          0.        ]
 [ 0.         -0.         -0.         -0.         -0.         -0.         -0.          0.          0.          0.          0.          0.          0.
   0.          0.          0.          0.         -0.         -0.         -0.         -0.         -0.         -0.         -0.         -0.          0.
  -0.          0.        ]
 [ 0.         -0.         -0.         -0.         -0.         -0.         -0.          0.          0.          0.          0.          0.          0.
   0.          0.          0.          0.         -0.         -0.         -0.         -0.         -0.         -0.         -0.         -0.          0.
  -0.          0.        ]
 [-0.00543311  0.00420855  0.00081282  0.          0.          0.          0.         -0.00083306 -0.00004855 -0.         -0.         -0.         -0.
  -0.         -0.         -0.         -0.          0.00004903  0.00008437  0.00053661  0.00009888  0.          0.          0.          0.         -0.00031107
   0.00017427 -0.00007592]
 [-0.00934984  0.00724249  0.00139878  0.          0.          0.          0.         -0.00143362 -0.00008355 -0.         -0.         -0.         -0.
  -0.         -0.         -0.         -0.          0.00008437  0.0001452   0.00092345  0.00017016  0.          0.          0.          0.         -0.00053533
   0.00029991 -0.00013065]
 [-0.05946537  0.04606255  0.0088963   0.          0.          0.          0.         -0.00911788 -0.00053136 -0.         -0.         -0.         -0.
  -0.         -0.         -0.         -0.          0.00053661  0.00092345  0.00587318  0.00108224  0.          0.          0.          0.         -0.00340469
   0.00190742 -0.00083096]
 [-0.0109576   0.00848789  0.00163931  0.          0.          0.          0.         -0.00168014 -0.00009791 -0.         -0.         -0.         -0.
  -0.         -0.         -0.         -0.          0.00009888  0.00017016  0.00108224  0.00019942  0.          0.          0.          0.         -0.00062738
   0.00035148 -0.00015312]
 [-0.          0.          0.          0.          0.          0.          0.         -0.         -0.         -0.         -0.         -0.         -0.
  -0.         -0.         -0.         -0.          0.          0.          0.          0.          0.          0.          0.          0.         -0.
   0.         -0.        ]
 [-0.          0.          0.          0.          0.          0.          0.         -0.         -0.         -0.         -0.         -0.         -0.
  -0.         -0.         -0.         -0.          0.          0.          0.          0.          0.          0.          0.          0.         -0.
   0.         -0.        ]
 [-0.          0.          0.          0.          0.          0.          0.         -0.         -0.         -0.         -0.         -0.         -0.
  -0.         -0.         -0.         -0.          0.          0.          0.          0.          0.          0.          0.          0.         -0.
   0.         -0.        ]
 [-0.          0.          0.          0.          0.          0.          0.         -0.         -0.         -0.         -0.         -0.         -0.
  -0.         -0.         -0.         -0.          0.          0.          0.          0.          0.          0.          0.          0.         -0.
   0.         -0.        ]
 [ 0.0344722  -0.02670256 -0.0051572  -0.         -0.         -0.         -0.          0.00528565  0.00030803  0.          0.          0.          0.
   0.          0.          0.          0.         -0.00031107 -0.00053533 -0.00340469 -0.00062738 -0.         -0.         -0.         -0.          0.00197371
  -0.00110574  0.00048171]
 [-0.01931248  0.01495967  0.00288924  0.          0.          0.          0.         -0.0029612  -0.00017257 -0.         -0.         -0.         -0.
  -0.         -0.         -0.         -0.          0.00017427  0.00029991  0.00190742  0.00035148  0.          0.          0.          0.         -0.00110574
   0.00061947 -0.00026987]
 [ 0.00841337 -0.0065171  -0.00125868 -0.         -0.         -0.         -0.          0.00129003  0.00007518  0.          0.          0.          0.
   0.          0.          0.          0.         -0.00007592 -0.00013065 -0.00083096 -0.00015312 -0.         -0.         -0.         -0.          0.00048171
  -0.00026987  0.00011757]] 
 [[ 0.60208121  0.46637897 -0.09007419 -0.          0.          0.         -0.         -0.09231768  0.00537995 -0.         -0.         -0.         -0.
  -0.         -0.         -0.         -0.          0.00543311 -0.00934984  0.05946537 -0.0109576   0.         -0.          0.         -0.         -0.0344722
  -0.01931248 -0.00841337]
 [ 0.46637897  0.36126246 -0.06977249 -0.          0.          0.         -0.         -0.07151033  0.00416737 -0.         -0.         -0.         -0.
  -0.         -0.         -0.         -0.          0.00420855 -0.00724249  0.04606255 -0.00848789  0.         -0.          0.         -0.         -0.02670256
  -0.01495967 -0.0065171 ]
 [-0.09007419 -0.06977249  0.01347552  0.         -0.         -0.          0.          0.01381116 -0.00080487  0.          0.          0.          0.
   0.          0.          0.          0.         -0.00081282  0.00139878 -0.0088963   0.00163931 -0.          0.         -0.          0.          0.0051572
   0.00288924  0.00125868]
 [-0.         -0.          0.          0.         -0.         -0.          0.          0.         -0.          0.          0.          0.          0.
   0.          0.          0.          0.         -0.          0.         -0.          0.         -0.          0.         -0.          0.          0.
   0.          0.        ]
 [ 0.          0.         -0.         -0.          0.          0.         -0.         -0.          0.         -0.         -0.         -0.         -0.
  -0.         -0.         -0.         -0.          0.         -0.          0.         -0.          0.         -0.          0.         -0.         -0.
  -0.         -0.        ]
 [ 0.          0.         -0.         -0.          0.          0.         -0.         -0.          0.         -0.         -0.         -0.         -0.
  -0.         -0.         -0.         -0.          0.         -0.          0.         -0.          0.         -0.          0.         -0.         -0.
  -0.         -0.        ]
 [-0.         -0.          0.          0.         -0.         -0.          0.          0.         -0.          0.          0.          0.          0.
   0.          0.          0.          0.         -0.          0.         -0.          0.         -0.          0.         -0.          0.          0.
   0.          0.        ]
 [-0.09231768 -0.07151033  0.01381116  0.         -0.         -0.          0.          0.01415516 -0.00082491  0.          0.          0.          0.
   0.          0.          0.          0.         -0.00083306  0.00143362 -0.00911788  0.00168014 -0.          0.         -0.          0.          0.00528565
   0.0029612   0.00129003]
 [ 0.00537995  0.00416737 -0.00080487 -0.          0.          0.         -0.         -0.00082491  0.00004807 -0.         -0.         -0.         -0.
  -0.         -0.         -0.         -0.          0.00004855 -0.00008355  0.00053136 -0.00009791  0.         -0.          0.         -0.         -0.00030803
  -0.00017257 -0.00007518]
 [-0.         -0.          0.          0.         -0.         -0.          0.          0.         -0.          0.          0.          0.          0.
   0.          0.          0.          0.         -0.          0.         -0.          0.         -0.          0.         -0.          0.          0.
   0.          0.        ]
 [-0.         -0.          0.          0.         -0.         -0.          0.          0.         -0.          0.          0.          0.          0.
   0.          0.          0.          0.         -0.          0.         -0.          0.         -0.          0.         -0.          0.          0.
   0.          0.        ]
 [-0.         -0.          0.          0.         -0.         -0.          0.          0.         -0.          0.          0.          0.          0.
   0.          0.          0.          0.         -0.          0.         -0.          0.         -0.          0.         -0.          0.          0.
   0.          0.        ]
 [-0.         -0.          0.          0.         -0.         -0.          0.          0.         -0.          0.          0.          0.          0.
   0.          0.          0.          0.         -0.          0.         -0.          0.         -0.          0.         -0.          0.          0.
   0.          0.        ]
 [-0.         -0.          0.          0.         -0.         -0.          0.          0.         -0.          0.          0.          0.          0.
   0.          0.          0.          0.         -0.          0.         -0.          0.         -0.          0.         -0.          0.          0.
   0.          0.        ]
 [-0.         -0.          0.          0.         -0.         -0.          0.          0.         -0.          0.          0.          0.          0.
   0.          0.          0.          0.         -0.          0.         -0.          0.         -0.          0.         -0.          0.          0.
   0.          0.        ]
 [-0.         -0.          0.          0.         -0.         -0.          0.          0.         -0.          0.          0.          0.          0.
   0.          0.          0.          0.         -0.          0.         -0.          0.         -0.          0.         -0.          0.          0.
   0.          0.        ]
 [-0.         -0.          0.          0.         -0.         -0.          0.          0.         -0.          0.          0.          0.          0.
   0.          0.          0.          0.         -0.          0.         -0.          0.         -0.          0.         -0.          0.          0.
   0.          0.        ]
 [ 0.00543311  0.00420855 -0.00081282 -0.          0.          0.         -0.         -0.00083306  0.00004855 -0.         -0.         -0.         -0.
  -0.         -0.         -0.         -0.          0.00004903 -0.00008437  0.00053661 -0.00009888  0.         -0.          0.         -0.         -0.00031107
  -0.00017427 -0.00007592]
 [-0.00934984 -0.00724249  0.00139878  0.         -0.         -0.          0.          0.00143362 -0.00008355  0.          0.          0.          0.
   0.          0.          0.          0.         -0.00008437  0.0001452  -0.00092345  0.00017016 -0.          0.         -0.          0.          0.00053533
   0.00029991  0.00013065]
 [ 0.05946537  0.04606255 -0.0088963  -0.          0.          0.         -0.         -0.00911788  0.00053136 -0.         -0.         -0.         -0.
  -0.         -0.         -0.         -0.          0.00053661 -0.00092345  0.00587318 -0.00108224  0.         -0.          0.         -0.         -0.00340469
  -0.00190742 -0.00083096]
 [-0.0109576  -0.00848789  0.00163931  0.         -0.         -0.          0.          0.00168014 -0.00009791  0.          0.          0.          0.
   0.          0.          0.          0.         -0.00009888  0.00017016 -0.00108224  0.00019942 -0.          0.         -0.          0.          0.00062738
   0.00035148  0.00015312]
 [ 0.          0.         -0.         -0.          0.          0.         -0.         -0.          0.         -0.         -0.         -0.         -0.
  -0.         -0.         -0.         -0.          0.         -0.          0.         -0.          0.         -0.          0.         -0.         -0.
  -0.         -0.        ]
 [-0.         -0.          0.          0.         -0.         -0.          0.          0.         -0.          0.          0.          0.          0.
   0.          0.          0.          0.         -0.          0.         -0.          0.         -0.          0.         -0.          0.          0.
   0.          0.        ]
 [ 0.          0.         -0.         -0.          0.          0.         -0.         -0.          0.         -0.         -0.         -0.         -0.
  -0.         -0.         -0.         -0.          0.         -0.          0.         -0.          0.         -0.          0.         -0.         -0.
  -0.         -0.        ]
 [-0.         -0.          0.          0.         -0.         -0.          0.          0.         -0.          0.          0.          0.          0.
   0.          0.          0.          0.         -0.          0.         -0.          0.         -0.          0.         -0.          0.          0.
   0.          0.        ]
 [-0.0344722  -0.02670256  0.0051572   0.         -0.         -0.          0.          0.00528565 -0.00030803  0.          0.          0.          0.
   0.          0.          0.          0.         -0.00031107  0.00053533 -0.00340469  0.00062738 -0.          0.         -0.          0.          0.00197371
   0.00110574  0.00048171]
 [-0.01931248 -0.01495967  0.00288924  0.         -0.         -0.          0.          0.0029612  -0.00017257  0.          0.          0.          0.
   0.          0.          0.          0.         -0.00017427  0.00029991 -0.00190742  0.00035148 -0.          0.         -0.          0.          0.00110574
   0.00061947  0.00026987]
 [-0.00841337 -0.0065171   0.00125868  0.         -0.         -0.          0.          0.00129003 -0.00007518  0.          0.          0.          0.
   0.          0.          0.          0.         -0.00007592  0.00013065 -0.00083096  0.00015312 -0.          0.         -0.          0.          0.00048171
   0.00026987  0.00011757]]

***************
SUHF converged at cycle 9
Final E(SUHF) =     -1.01004457, delta E = -2.15691e-09
***** Start DFT Correlation for SUHF+DFT **********
tot grids = 20048
E(SUHF) =     -1.01004457
E_c(TPSS) =     -0.00295024
E(SUHF+DFT) =     -1.01299480
