 Entering Gaussian System, Link 0=g09
 Input=test_simple.gjf
 Output=test_simple.log
 Initial command:
 /share/home/srwang/g09/l1.exe /scratch/scr/srwang/gau/Gau-3125.inp -scrdir=/scratch/scr/srwang/gau/
 Entering Link 1 = /share/home/srwang/g09/l1.exe PID=      3126.
  
 Copyright (c) 1988,1990,1992,1993,1995,1998,2003,2009,2011,
            Gaussian, Inc.  All Rights Reserved.
  
 This is part of the Gaussian(R) 09 program.  It is based on
 the Gaussian(R) 03 system (copyright 2003, Gaussian, Inc.),
 the Gaussian(R) 98 system (copyright 1998, Gaussian, Inc.),
 the Gaussian(R) 94 system (copyright 1995, Gaussian, Inc.),
 the Gaussian 92(TM) system (copyright 1992, Gaussian, Inc.),
 the Gaussian 90(TM) system (copyright 1990, Gaussian, Inc.),
 the Gaussian 88(TM) system (copyright 1988, Gaussian, Inc.),
 the Gaussian 86(TM) system (copyright 1986, Carnegie Mellon
 University), and the Gaussian 82(TM) system (copyright 1983,
 Carnegie Mellon University). Gaussian is a federally registered
 trademark of Gaussian, Inc.
  
 This software contains proprietary and confidential information,
 including trade secrets, belonging to Gaussian, Inc.
  
 This software is provided under written license and may be
 used, copied, transmitted, or stored only in accord with that
 written license.
  
 The following legend is applicable only to US Government
 contracts under FAR:
  
                    RESTRICTED RIGHTS LEGEND
  
 Use, reproduction and disclosure by the US Government is
 subject to restrictions as set forth in subparagraphs (a)
 and (c) of the Commercial Computer Software - Restricted
 Rights clause in FAR 52.227-19.
  
 Gaussian, Inc.
 340 Quinnipiac St., Bldg. 40, Wallingford CT 06492
  
  
 ---------------------------------------------------------------
 Warning -- This program may not be used in any manner that
 competes with the business of Gaussian, Inc. or will provide
 assistance to any competitor of Gaussian, Inc.  The licensee
 of this program is prohibited from giving any competitor of
 Gaussian, Inc. access to this program.  By using this program,
 the user acknowledges that Gaussian, Inc. is engaged in the
 business of creating and licensing software in the field of
 computational chemistry and represents and warrants to the
 licensee that it is not a competitor of Gaussian, Inc. and that
 it will not use this program in any manner prohibited above.
 ---------------------------------------------------------------
  

 Cite this work as:
 Gaussian 09, Revision C.01,
 M. J. Frisch, G. W. Trucks, H. B. Schlegel, G. E. Scuseria, 
 M. A. Robb, J. R. Cheeseman, G. Scalmani, V. Barone, B. Mennucci, 
 G. A. Petersson, H. Nakatsuji, M. Caricato, X. Li, H. P. Hratchian, 
 A. F. Izmaylov, J. Bloino, G. Zheng, J. L. Sonnenberg, M. Hada, 
 M. Ehara, K. Toyota, R. Fukuda, J. Hasegawa, M. Ishida, T. Nakajima, 
 Y. Honda, O. Kitao, H. Nakai, T. Vreven, J. A. Montgomery, Jr., 
 J. E. Peralta, F. Ogliaro, M. Bearpark, J. J. Heyd, E. Brothers, 
 K. N. Kudin, V. N. Staroverov, T. Keith, R. Kobayashi, J. Normand, 
 K. Raghavachari, A. Rendell, J. C. Burant, S. S. Iyengar, J. Tomasi, 
 M. Cossi, N. Rega, J. M. Millam, M. Klene, J. E. Knox, J. B. Cross, 
 V. Bakken, C. Adamo, J. Jaramillo, R. Gomperts, R. E. Stratmann, 
 O. Yazyev, A. J. Austin, R. Cammi, C. Pomelli, J. W. Ochterski, 
 R. L. Martin, K. Morokuma, V. G. Zakrzewski, G. A. Voth, 
 P. Salvador, J. J. Dannenberg, S. Dapprich, A. D. Daniels, 
 O. Farkas, J. B. Foresman, J. V. Ortiz, J. Cioslowski, 
 and D. J. Fox, Gaussian, Inc., Wallingford CT, 2010.
 
 ******************************************
 Gaussian 09:  EM64L-G09RevC.01 23-Sep-2011
                19-Dec-2020 
 ******************************************
 %subst l530 ../../phf
 %nproc=1
 Will use up to    1 processors via shared memory.
 %mem=4GB
 %chk=test_simple.chk
 ----------------------------------------------------------------------
 #p uhf/3-21g nosymm guess=mix scf=conver=4 # extralink=l530 iop(5/206=
 6, 5/207=4, 5/216=0) pop=none
 ----------------------------------------------------------------------
 1/38=1/1;
 2/12=2,15=1,17=6,18=5,40=1/2;
 3/5=5,11=2,16=1,25=1,30=1,116=2/1,2,3;
 4/13=-1/1;
 5/5=2,6=4,38=5,206=6,207=4/2,30;
 99/5=1,9=1/99;
 Leave Link    1 at Sat Dec 19 17:16:40 2020, MaxMem=  536870912 cpu:       0.0
 (Enter /share/home/srwang/g09/l101.exe)
 -----
 title
 -----
 Charge =  0 Multiplicity = 1
 Symbolic Z-Matrix:
 H                     0.        0.        0. 
 H                     0.        0.        2. 
 
 NAtoms=      2 NQM=        0 NQMF=       0 NMMI=      2 NMMIF=      0
                NMic=       0 NMicF=      0.
                    Isotopes and Nuclear Properties:
 (Nuclear quadrupole moments (NQMom) in fm**2, nuclear magnetic moments (NMagM)
  in nuclear magnetons)

  Atom         1           2
 IAtWgt=           1           1
 AtmWgt=   1.0078250   1.0078250
 NucSpn=           1           1
 AtZEff=   0.0000000   0.0000000
 NQMom=    0.0000000   0.0000000
 NMagM=    2.7928460   2.7928460
 Leave Link  101 at Sat Dec 19 17:16:40 2020, MaxMem=  536870912 cpu:       0.0
 (Enter /share/home/srwang/g09/l202.exe)
                          Input orientation:                          
 ---------------------------------------------------------------------
 Center     Atomic      Atomic             Coordinates (Angstroms)
 Number     Number       Type             X           Y           Z
 ---------------------------------------------------------------------
      1          1           0        0.000000    0.000000    0.000000
      2          1           0        0.000000    0.000000    2.000000
 ---------------------------------------------------------------------
 Symmetry turned off by external request.
 Stoichiometry    H2
 Framework group  D*H[C*(H.H)]
 Deg. of freedom     1
 Full point group                 D*H     NOp   8
 Rotational constants (GHZ):      0.0000000    250.7275501    250.7275501
 Leave Link  202 at Sat Dec 19 17:16:40 2020, MaxMem=  536870912 cpu:       0.0
 (Enter /share/home/srwang/g09/l301.exe)
 Standard basis: 3-21G (6D, 7F)
 Ernie: Thresh=  0.10000D-02 Tol=  0.10000D-05 Strict=F.
 Integral buffers will be    131072 words long.
 Raffenetti 2 integral format.
 Two-electron integral symmetry is turned off.
     4 basis functions,     6 primitive gaussians,     4 cartesian basis functions
     1 alpha electrons        1 beta electrons
       nuclear repulsion energy         0.2645886043 Hartrees.
 IExCor=    0 DFT=F Ex=HF Corr=None ExCW=0 ScaHFX=  1.000000
 ScaDFX=  1.000000  1.000000  1.000000  1.000000 ScalE2=  1.000000  1.000000
 IRadAn=      0 IRanWt=     -1 IRanGd=            0 ICorTp=0
 NAtoms=    2 NActive=    2 NUniq=    2 SFac= 1.00D+00 NAtFMM=   60 NAOKFM=F Big=F
 Leave Link  301 at Sat Dec 19 17:16:40 2020, MaxMem=  536870912 cpu:       0.0
 (Enter /share/home/srwang/g09/l302.exe)
 NPDir=0 NMtPBC=     1 NCelOv=     1 NCel=       1 NClECP=     1 NCelD=      1
         NCelK=      1 NCelE2=     1 NClLst=     1 CellRange=     0.0.
 One-electron integrals computed using PRISM.
 SVDSVc:  NBasis=    4 NT=    4 NBlks=1 MaxCmp=1 NBF=    4
  
 jSVec:
                 1             2             3             4 
      1  -0.330600D+00  0.460127D+00 -0.856219D+00  0.834535D+00
      2  -0.397746D+00  0.364687D+00  0.711676D+00 -0.105294D+01
      3  -0.330600D+00 -0.460127D+00 -0.856219D+00 -0.834535D+00
      4  -0.397746D+00 -0.364687D+00  0.711676D+00  0.105294D+01
  
 jAA:
                 1             2             3             4 
      1  -0.330600D+00  0.460127D+00 -0.856219D+00  0.834535D+00
      2  -0.397746D+00  0.364687D+00  0.711676D+00 -0.105294D+01
      3  -0.330600D+00 -0.460127D+00 -0.856219D+00 -0.834535D+00
      4  -0.397746D+00 -0.364687D+00  0.711676D+00  0.105294D+01
 NBasis=     4 RedAO= T  NBF=     4
 NBsUse=     4 1.00D-06 NBFU=     4
 Leave Link  302 at Sat Dec 19 17:16:40 2020, MaxMem=  536870912 cpu:       0.0
 (Enter /share/home/srwang/g09/l303.exe)
 DipDrv:  MaxL=1.
 Leave Link  303 at Sat Dec 19 17:16:40 2020, MaxMem=  536870912 cpu:       0.0
 (Enter /share/home/srwang/g09/l401.exe)
 Harris functional with IExCor=  205 diagonalized for initial guess.
 ExpMin= 1.83D-01 ExpMax= 5.45D+00 ExpMxC= 5.45D+00 IAcc=1 IRadAn=         1 AccDes= 0.00D+00
 HarFok:  IExCor=  205 AccDes= 0.00D+00 IRadAn=         1 IDoV= 1
 ScaDFX=  1.000000  1.000000  1.000000  1.000000
 FoFCou: FMM=F IPFlag=           0 FMFlag=      100000 FMFlg1=           0
         NFxFlg=           0 DoJE=T BraDBF=F KetDBF=T FulRan=T
         Omega=  0.000000  0.000000  1.000000  0.000000  0.000000 ICntrl=     500 IOpCl=  0
         NMat0=    1 NMatS0=    1 NMatT0=    0 NMatD0=    1 NMtDS0=    0 NMtDT0=    0
         I1Cent=           4 NGrid=           0.
 Symmetry not used in FoFCou.
 Harris En=-0.998534334700695    
 Mixing orbitals, IMix= 1 IMixAn=  0 NRI=1 NE=    1 Coef=  7.07106781D-01  7.07106781D-01
 Mixing orbitals, IMix= 1 IMixAn=  0 NRI=1 NE=    1 Coef= -7.07106781D-01  7.07106781D-01
 Initial guess <Sx>= 0.0000 <Sy>= 0.0000 <Sz>= 0.0000 <S**2>= 1.0000 S= 0.6180
 Leave Link  401 at Sat Dec 19 17:16:40 2020, MaxMem=  536870912 cpu:       0.1
 (Enter /share/home/srwang/g09/l502.exe)
 UHF open shell SCF:
 Requested convergence on RMS density matrix=1.00D-04 within 128 cycles.
 Requested convergence on MAX density matrix=1.00D-02.
 Requested convergence on             energy=1.00D-02.
 No special actions if energy rises.
 Using DIIS extrapolation, IDIIS=  1040.
 Two-electron integral symmetry not used.
 Keep R1 and R2 ints in memory in canonical form, NReq=819856.
 IEnd=       19725 IEndB=       19725 NGot=   536870912 MDV=   536868152
 LenX=   536868152 LenY=   536867270
 Symmetry not used in FoFDir.
 MinBra= 0 MaxBra= 0 Meth= 1.
 IRaf=       0 NMat=   1 IRICut=       1 DoRegI=T DoRafI=F ISym2E= 0 JSym2E=0.

 Cycle   1  Pass 1  IDiag  1:
 E=-0.976252209587262    
 DIIS: error= 2.74D-02 at cycle   1 NSaved=   1.
 NSaved= 1 IEnMin= 1 EnMin=-0.976252209587262     IErMin= 1 ErrMin= 2.74D-02
 ErrMax= 2.74D-02 EMaxC= 1.00D-01 BMatC= 2.22D-02 BMatP= 2.22D-02
 IDIUse=3 WtCom= 7.26D-01 WtEn= 2.74D-01
 Coeff-Com:  0.100D+01
 Coeff-En:   0.100D+01
 Coeff:      0.100D+01
 Gap=     0.617 Goal=   None    Shift=    0.000
 Gap=     0.617 Goal=   None    Shift=    0.000
 GapD=    0.617 DampG=2.000 DampE=0.500 DampFc=1.0000 IDamp=-1.
 RMSDP=3.02D-02 MaxDP=6.52D-02              OVMax= 9.37D-02

 Cycle   2  Pass 1  IDiag  1:
 E=-0.994211662723095     Delta-E=       -0.017959453136 Rises=F Damp=F
 DIIS: error= 1.03D-02 at cycle   2 NSaved=   2.
 NSaved= 2 IEnMin= 2 EnMin=-0.994211662723095     IErMin= 2 ErrMin= 1.03D-02
 ErrMax= 1.03D-02 EMaxC= 1.00D-01 BMatC= 2.49D-03 BMatP= 2.22D-02
 IDIUse=3 WtCom= 8.97D-01 WtEn= 1.03D-01
 Coeff-Com: -0.469D+00 0.147D+01
 Coeff-En:   0.000D+00 0.100D+01
 Coeff:     -0.421D+00 0.142D+01
 Gap=     0.623 Goal=   None    Shift=    0.000
 Gap=     0.623 Goal=   None    Shift=    0.000
 RMSDP=1.49D-02 MaxDP=3.09D-02 DE=-1.80D-02 OVMax= 5.02D-02

 Cycle   3  Pass 1  IDiag  1:
 E=-0.996913990388707     Delta-E=       -0.002702327666 Rises=F Damp=F
 DIIS: error= 1.84D-03 at cycle   3 NSaved=   3.
 NSaved= 3 IEnMin= 3 EnMin=-0.996913990388707     IErMin= 3 ErrMin= 1.84D-03
 ErrMax= 1.84D-03 EMaxC= 1.00D-01 BMatC= 7.61D-05 BMatP= 2.49D-03
 IDIUse=3 WtCom= 9.82D-01 WtEn= 1.84D-02
 Coeff-Com:  0.321D+00-0.108D+01 0.176D+01
 Coeff-En:   0.000D+00 0.000D+00 0.100D+01
 Coeff:      0.315D+00-0.106D+01 0.175D+01
 Gap=     0.611 Goal=   None    Shift=    0.000
 Gap=     0.611 Goal=   None    Shift=    0.000
 RMSDP=2.91D-03 MaxDP=6.60D-03 DE=-2.70D-03 OVMax= 1.10D-02

 Cycle   4  Pass 1  IDiag  1:
 E=-0.997011007279650     Delta-E=       -0.000097016891 Rises=F Damp=F
 DIIS: error= 1.60D-04 at cycle   4 NSaved=   4.
 NSaved= 4 IEnMin= 4 EnMin=-0.997011007279650     IErMin= 4 ErrMin= 1.60D-04
 ErrMax= 1.60D-04 EMaxC= 1.00D-01 BMatC= 5.53D-07 BMatP= 7.61D-05
 IDIUse=3 WtCom= 9.98D-01 WtEn= 1.60D-03
 Coeff-Com: -0.360D-01 0.112D+00-0.185D+00 0.111D+01
 Coeff-En:   0.000D+00 0.000D+00 0.000D+00 0.100D+01
 Coeff:     -0.359D-01 0.112D+00-0.185D+00 0.111D+01
 Gap=     0.615 Goal=   None    Shift=    0.000
 Gap=     0.615 Goal=   None    Shift=    0.000
 RMSDP=1.48D-04 MaxDP=2.67D-04 DE=-9.70D-05 OVMax= 6.23D-04

 Cycle   5  Pass 1  IDiag  1:
 E=-0.997011480180126     Delta-E=       -0.000000472900 Rises=F Damp=F
 DIIS: error= 2.63D-05 at cycle   5 NSaved=   5.
 NSaved= 5 IEnMin= 5 EnMin=-0.997011480180126     IErMin= 5 ErrMin= 2.63D-05
 ErrMax= 2.63D-05 EMaxC= 1.00D-01 BMatC= 3.34D-08 BMatP= 5.53D-07
 IDIUse=1 WtCom= 1.00D+00 WtEn= 0.00D+00
 Coeff-Com: -0.522D-03 0.430D-02-0.242D-01-0.922D-01 0.111D+01
 Coeff:     -0.522D-03 0.430D-02-0.242D-01-0.922D-01 0.111D+01
 Gap=     0.615 Goal=   None    Shift=    0.000
 Gap=     0.615 Goal=   None    Shift=    0.000
 RMSDP=4.82D-05 MaxDP=8.44D-05 DE=-4.73D-07 OVMax= 1.67D-04

 SCF Done:  E(UHF) = -0.997011480180     A.U. after    5 cycles
             Convg  =    0.4824D-04             -V/T =  1.9954
 <Sx>= 0.0000 <Sy>= 0.0000 <Sz>= 0.0000 <S**2>= 0.9105 S= 0.5773
 <L.S>= 0.000000000000E+00
 KE= 1.001635978686D+00 PE=-2.536147924251D+00 EE= 2.729118610899D-01
 Annihilation of the first spin contaminant:
 S**2 before annihilation     0.9105,   after     0.0000
 Leave Link  502 at Sat Dec 19 17:16:41 2020, MaxMem=  536870912 cpu:       0.0
  
  +-------------------------------------------+
  |                                           |
  |  LINK 530 - Projected Hartree-Fock (PHF)  |
  |     Self-Consistent Field (SCF) Code      |
  |                                           |
  |                                           |
  |         the Scuseria group, v0.2, 07.2011 |
  +-------------------------------------------+
  
 (Enter ../../phf/l530.exe)

 PHF SCF was invoked with the following options:

   method selection:
 iprint =  6
 iphf   =  4, [ UHF + spin projection ]

   general options:
 maxcyc =    512, S      =      0
 ngrda  =      1, ngrdb  =      8, ngrdg  =      1

   accuracy requested:
 conv criterion (RMSDP, RMSDK) =     1.0000E-08
 requested integral accuracy   =     1.0000E-10

   use of symmetry:
 two-electron integral symmetry not used

   strategy options:
 level shifting is turned off
 istrat =      1, continue as usual if energy rises
 modified PHF effective Fock matrix used

   initial guess options:
 igues1 =  1, read GDV guess


 PHF SCF - preparing initial guess


 PHF SCF - starting SCF procedure

beta in GauLeg
grd=    0.0624    0.3194    0.7453    1.2827    1.8589    2.3963    2.8222    3.0792
wgt=    0.0099    0.1097    0.3342    0.5462    0.5462    0.3342    0.1097    0.0099
WigArr: s=    0, sz=    0, isint=    T, ncis=                       1, dind=    0.0000
dmt=    1.0000    1.0000    1.0000    1.0000    1.0000    1.0000    1.0000    1.0000
*********  Start Cycle  1  *************
  
 HF density matrix (alpha, real):
                1             2             3             4 
      1   0.642742204986335D+00
      2  -0.465821033616987D+00  0.337599170673118D+00
      3  -0.663840201850645D-01  0.481111597439211D-01  0.685630739936353D-02
      4   0.907115726889875D-01 -0.657423119614573D-01 -0.936891778023619D-02  0.128023169411824D-01
 HF density matrix (alpha, imaginary):
                1             2             3             4 
      1   0.000000000000000D+00
      2  -0.000000000000000D+00  0.000000000000000D+00
      3  -0.000000000000000D+00 -0.000000000000000D+00  0.000000000000000D+00
      4  -0.000000000000000D+00 -0.000000000000000D+00 -0.000000000000000D+00  0.000000000000000D+00
 HF density matrix (beta, real):
                1             2             3             4 
      1   0.642742204986336D+00
      2   0.465821033616987D+00  0.337599170673118D+00
      3  -0.663840201850663D-01 -0.481111597439224D-01  0.685630739936392D-02
      4  -0.907115726889872D-01 -0.657423119614570D-01  0.936891778023641D-02  0.128023169411823D-01
 HF density matrix (beta, imaginary):
                1             2             3             4 
      1   0.000000000000000D+00
      2  -0.000000000000000D+00  0.000000000000000D+00
      3  -0.000000000000000D+00 -0.000000000000000D+00  0.000000000000000D+00
      4  -0.000000000000000D+00 -0.000000000000000D+00 -0.000000000000000D+00  0.000000000000000D+00
 
Start hffock
  
 Core Hamiltonian (real):
                 1             2             3             4 
      1  -0.796723338707556D+00  0.000000000000000D+00  0.103743642994694D+00  0.000000000000000D+00
      2   0.000000000000000D+00 -0.658935382448063D+00  0.000000000000000D+00  0.196745567553556D+00
      3   0.103743642994694D+00  0.000000000000000D+00  0.306544663647526D+00  0.000000000000000D+00
      4   0.000000000000000D+00  0.196745567553556D+00  0.000000000000000D+00  0.376081196492739D+00
 Core Hamiltonian (imaginary):
                 1             2             3             4 
      1   0.000000000000000D+00  0.000000000000000D+00  0.000000000000000D+00  0.000000000000000D+00
      2   0.000000000000000D+00  0.000000000000000D+00  0.000000000000000D+00  0.000000000000000D+00
      3   0.000000000000000D+00  0.000000000000000D+00  0.000000000000000D+00  0.000000000000000D+00
      4   0.000000000000000D+00  0.000000000000000D+00  0.000000000000000D+00  0.000000000000000D+00

 Symmetry not used in FoFDir.
 MinBra= 0 MaxBra= 0 Meth= 1.
 IRaf=       1 NMat=   2 IRICut=       1 DoRegI=T DoRafI=F ISym2E= 0 JSym2E=0.
 PrsmSu:  NPrtUS=   1 ThrOK=F IAlg=1 NPAlg=1 LenDen=           0.
 Prism:   IPart=     0 DynPar=F LinDyn=F Incr=           1.
 PRISM was handed   536868987 working-precision words and    10 shell-pairs
 IPart=  0 NShTot=          55 NBatch=          10 AvBLen=         5.5
 PrSmSu:  NxtVal=              2.
  
 HF Fock matrix (alpha, real):
                1             2             3             4 
      1  -0.238888080461306D+00
      2   0.326412693788403D+00  0.110686186837108D-01
      3   0.216365340928224D+00  0.780608748051113D-01  0.112201599724607D+01
      4   0.245836079072992D-01  0.339629819366481D+00  0.506525392136086D-01  0.111261248350859D+01
 HF Fock matrix (alpha, imaginary):
                1             2             3             4 
      1   0.000000000000000D+00
      2  -0.000000000000000D+00  0.000000000000000D+00
      3  -0.000000000000000D+00 -0.000000000000000D+00  0.000000000000000D+00
      4  -0.000000000000000D+00 -0.000000000000000D+00 -0.000000000000000D+00  0.000000000000000D+00
 HF Fock matrix (beta, real):
                1             2             3             4 
      1  -0.238888080461306D+00
      2  -0.326412693788403D+00  0.110686186837112D-01
      3   0.216365340928225D+00 -0.780608748051098D-01  0.112201599724607D+01
      4  -0.245836079073000D-01  0.339629819366482D+00 -0.506525392136100D-01  0.111261248350859D+01
 HF Fock matrix (beta, imaginary):
                1             2             3             4 
      1   0.000000000000000D+00
      2  -0.000000000000000D+00  0.000000000000000D+00
      3  -0.000000000000000D+00 -0.000000000000000D+00  0.000000000000000D+00
      4  -0.000000000000000D+00 -0.000000000000000D+00 -0.000000000000000D+00  0.000000000000000D+00
 
Start hfdmdg: find NO basis
  
 density matrix (NO) (real):
                 1             2             3             4             5 
      1   0.100000000000000D+01  0.000000000000000D+00  0.000000000000000D+00  0.000000000000000D+00  0.000000000000000D+00
      2   0.000000000000000D+00  0.999999999999999D+00  0.000000000000000D+00  0.000000000000000D+00  0.000000000000000D+00
      3   0.000000000000000D+00  0.000000000000000D+00  0.000000000000000D+00  0.000000000000000D+00  0.000000000000000D+00
      4   0.000000000000000D+00  0.000000000000000D+00  0.000000000000000D+00  0.000000000000000D+00  0.000000000000000D+00
      5   0.000000000000000D+00  0.000000000000000D+00  0.000000000000000D+00  0.000000000000000D+00  0.000000000000000D+00
      6   0.000000000000000D+00  0.000000000000000D+00  0.000000000000000D+00  0.000000000000000D+00  0.000000000000000D+00
      7   0.000000000000000D+00  0.000000000000000D+00  0.000000000000000D+00  0.000000000000000D+00  0.000000000000000D+00
      8   0.000000000000000D+00  0.000000000000000D+00  0.000000000000000D+00  0.000000000000000D+00  0.000000000000000D+00
                 6             7             8 
      1   0.000000000000000D+00  0.000000000000000D+00  0.000000000000000D+00
      2   0.000000000000000D+00  0.000000000000000D+00  0.000000000000000D+00
      3   0.000000000000000D+00  0.000000000000000D+00  0.000000000000000D+00
      4   0.000000000000000D+00  0.000000000000000D+00  0.000000000000000D+00
      5   0.000000000000000D+00  0.000000000000000D+00  0.000000000000000D+00
      6   0.000000000000000D+00  0.000000000000000D+00  0.000000000000000D+00
      7   0.000000000000000D+00  0.000000000000000D+00  0.000000000000000D+00
      8   0.000000000000000D+00  0.000000000000000D+00  0.000000000000000D+00
 density matrix (NO) (imaginary):
                 1             2             3             4             5 
      1   0.000000000000000D+00  0.000000000000000D+00  0.000000000000000D+00  0.000000000000000D+00  0.000000000000000D+00
      2   0.000000000000000D+00  0.000000000000000D+00  0.000000000000000D+00  0.000000000000000D+00  0.000000000000000D+00
      3   0.000000000000000D+00  0.000000000000000D+00  0.000000000000000D+00  0.000000000000000D+00  0.000000000000000D+00
      4   0.000000000000000D+00  0.000000000000000D+00  0.000000000000000D+00  0.000000000000000D+00  0.000000000000000D+00
      5   0.000000000000000D+00  0.000000000000000D+00  0.000000000000000D+00  0.000000000000000D+00  0.000000000000000D+00
      6   0.000000000000000D+00  0.000000000000000D+00  0.000000000000000D+00  0.000000000000000D+00  0.000000000000000D+00
      7   0.000000000000000D+00  0.000000000000000D+00  0.000000000000000D+00  0.000000000000000D+00  0.000000000000000D+00
      8   0.000000000000000D+00  0.000000000000000D+00  0.000000000000000D+00  0.000000000000000D+00  0.000000000000000D+00
                 6             7             8 
      1   0.000000000000000D+00  0.000000000000000D+00  0.000000000000000D+00
      2   0.000000000000000D+00  0.000000000000000D+00  0.000000000000000D+00
      3   0.000000000000000D+00  0.000000000000000D+00  0.000000000000000D+00
      4   0.000000000000000D+00  0.000000000000000D+00  0.000000000000000D+00
      5   0.000000000000000D+00  0.000000000000000D+00  0.000000000000000D+00
      6   0.000000000000000D+00  0.000000000000000D+00  0.000000000000000D+00
      7   0.000000000000000D+00  0.000000000000000D+00  0.000000000000000D+00
      8   0.000000000000000D+00  0.000000000000000D+00  0.000000000000000D+00
 
Start formng/pg
 
Start formgg

 Symmetry not used in FoFDir.
 MinBra= 0 MaxBra= 0 Meth= 1.
 IRaf=       1 NMat=  64 IRICut=       1 DoRegI=T DoRafI=F ISym2E= 0 JSym2E=0.
 PrsmSu:  NPrtUS=   1 ThrOK=F IAlg=1 NPAlg=1 LenDen=           0.
 Prism:   IPart=     0 DynPar=F LinDyn=F Incr=           1.
 PRISM was handed   536866103 working-precision words and    10 shell-pairs
 IPart=  0 NShTot=          55 NBatch=          10 AvBLen=         5.5
 PrSmSu:  NxtVal=              2.
 
Start evalsmt/hmt
 Smt (real):
                 1 
      1   0.108951885963205D+01
 Smt (imaginary):
                 1 
      1   0.000000000000000D+00
 Hmt (real):
                 1 
      1  -0.138813338212796D+01
 Hmt (imaginary):
                 1 
      1   0.000000000000000D+00
 
Form Fock eff
ifsel =     2, useproj    T
  
 Effective Fock (alpha, real):
                1             2             3             4 
      1  -0.230260027321094D+00
      2   0.329736152058959D+00  0.171946272104329D-02
      3   0.224506955515111D+00  0.711712300118407D-01  0.112024218686005D+01
      4   0.340313830750162D-01  0.334134197515370D+00  0.509515593883374D-01  0.111510739671707D+01
 Effective Fock (alpha, imaginary):
                1             2             3             4 
      1   0.000000000000000D+00
      2  -0.000000000000000D+00  0.000000000000000D+00
      3  -0.000000000000000D+00 -0.000000000000000D+00  0.000000000000000D+00
      4  -0.000000000000000D+00 -0.000000000000000D+00 -0.000000000000000D+00  0.000000000000000D+00
 Effective Fock (beta, real):
                1             2             3             4 
      1  -0.230260027321094D+00
      2  -0.329736152058959D+00  0.171946272104345D-02
      3   0.224506955515113D+00 -0.711712300118386D-01  0.112024218686005D+01
      4  -0.340313830750172D-01  0.334134197515370D+00 -0.509515593883389D-01  0.111510739671707D+01
 Effective Fock (beta, imaginary):
                1             2             3             4 
      1   0.000000000000000D+00
      2  -0.000000000000000D+00  0.000000000000000D+00
      3  -0.000000000000000D+00 -0.000000000000000D+00  0.000000000000000D+00
      4  -0.000000000000000D+00 -0.000000000000000D+00 -0.000000000000000D+00  0.000000000000000D+00
 
Diag Fock

 Fock eigenvalues (alpha):
      orbital --                 1                2                3                4
       energy --    -4.9453689D-01    1.2020916D-01    1.0992020D+00    1.2819348D+00

 Fock eigenvalues (beta):
      orbital --                 1                2                3                4
       energy --    -4.9453689D-01    1.2020916D-01    1.0992020D+00    1.2819348D+00

 *** cycle =    1 ***

        E =      -1.009490655422
      Hsp =      -1.562377611269     Hph =       0.288298351552
   <S**2> =      -0.000000000000
    RMSDP =       4.3403D-03        MaxP =       9.4324D-03

   E (HF) =      -0.997011505962

 ********************

*********  Start Cycle  2  *************
  
 HF density matrix (alpha, real):
                1             2             3             4 
      1   0.633487574003102D+00
      2  -0.468871195067920D+00  0.347031586073926D+00
      3  -0.701284862855300D-01  0.519050862595762D-01  0.776337972601761D-02
      4   0.861560527975097D-01 -0.637677724003871D-01 -0.953766705926890D-02  0.117174601969555D-01
 HF density matrix (alpha, imaginary):
                1             2             3             4 
      1   0.000000000000000D+00
      2  -0.000000000000000D+00  0.000000000000000D+00
      3  -0.000000000000000D+00 -0.000000000000000D+00  0.000000000000000D+00
      4  -0.000000000000000D+00 -0.000000000000000D+00 -0.000000000000000D+00  0.000000000000000D+00
 HF density matrix (beta, real):
                1             2             3             4 
      1   0.633487574003102D+00
      2   0.468871195067920D+00  0.347031586073925D+00
      3  -0.701284862855316D-01 -0.519050862595774D-01  0.776337972601798D-02
      4  -0.861560527975093D-01 -0.637677724003868D-01  0.953766705926909D-02  0.117174601969555D-01
 HF density matrix (beta, imaginary):
                1             2             3             4 
      1   0.000000000000000D+00
      2  -0.000000000000000D+00  0.000000000000000D+00
      3  -0.000000000000000D+00 -0.000000000000000D+00  0.000000000000000D+00
      4  -0.000000000000000D+00 -0.000000000000000D+00 -0.000000000000000D+00  0.000000000000000D+00
 
Start hffock
  
 Core Hamiltonian (real):
                 1             2             3             4 
      1  -0.796723338707556D+00  0.000000000000000D+00  0.103743642994694D+00  0.000000000000000D+00
      2   0.000000000000000D+00 -0.658935382448063D+00  0.000000000000000D+00  0.196745567553556D+00
      3   0.103743642994694D+00  0.000000000000000D+00  0.306544663647526D+00  0.000000000000000D+00
      4   0.000000000000000D+00  0.196745567553556D+00  0.000000000000000D+00  0.376081196492739D+00
 Core Hamiltonian (imaginary):
                 1             2             3             4 
      1   0.000000000000000D+00  0.000000000000000D+00  0.000000000000000D+00  0.000000000000000D+00
      2   0.000000000000000D+00  0.000000000000000D+00  0.000000000000000D+00  0.000000000000000D+00
      3   0.000000000000000D+00  0.000000000000000D+00  0.000000000000000D+00  0.000000000000000D+00
      4   0.000000000000000D+00  0.000000000000000D+00  0.000000000000000D+00  0.000000000000000D+00

 Symmetry not used in FoFDir.
 MinBra= 0 MaxBra= 0 Meth= 1.
 IRaf=       1 NMat=   2 IRICut=       1 DoRegI=T DoRafI=F ISym2E= 0 JSym2E=0.
 PrsmSu:  NPrtUS=   1 ThrOK=F IAlg=1 NPAlg=1 LenDen=           0.
 Prism:   IPart=     0 DynPar=F LinDyn=F Incr=           1.
 PRISM was handed   536868987 working-precision words and    10 shell-pairs
 IPart=  0 NShTot=          55 NBatch=          10 AvBLen=         5.5
 PrSmSu:  NxtVal=              2.
  
 HF Fock matrix (alpha, real):
                1             2             3             4 
      1  -0.236308476010147D+00
      2   0.328456286681385D+00  0.872298299283181D-02
      3   0.217327258982047D+00  0.778262181548186D-01  0.112167962514999D+01
      4   0.261900165913257D-01  0.339010359992781D+00  0.509166666303202D-01  0.111270113695071D+01
 HF Fock matrix (alpha, imaginary):
                1             2             3             4 
      1   0.000000000000000D+00
      2  -0.000000000000000D+00  0.000000000000000D+00
      3  -0.000000000000000D+00 -0.000000000000000D+00  0.000000000000000D+00
      4  -0.000000000000000D+00 -0.000000000000000D+00 -0.000000000000000D+00  0.000000000000000D+00
 HF Fock matrix (beta, real):
                1             2             3             4 
      1  -0.236308476010147D+00
      2  -0.328456286681385D+00  0.872298299283247D-02
      3   0.217327258982048D+00 -0.778262181548174D-01  0.112167962515000D+01
      4  -0.261900165913265D-01  0.339010359992782D+00 -0.509166666303218D-01  0.111270113695071D+01
 HF Fock matrix (beta, imaginary):
                1             2             3             4 
      1   0.000000000000000D+00
      2  -0.000000000000000D+00  0.000000000000000D+00
      3  -0.000000000000000D+00 -0.000000000000000D+00  0.000000000000000D+00
      4  -0.000000000000000D+00 -0.000000000000000D+00 -0.000000000000000D+00  0.000000000000000D+00
 
Start hfdmdg: find NO basis
  
 density matrix (NO) (real):
                 1             2             3             4             5 
      1   0.100000000000000D+01  0.000000000000000D+00  0.000000000000000D+00  0.000000000000000D+00  0.000000000000000D+00
      2   0.000000000000000D+00  0.100000000000000D+01  0.000000000000000D+00  0.000000000000000D+00  0.000000000000000D+00
      3   0.000000000000000D+00  0.000000000000000D+00  0.000000000000000D+00  0.000000000000000D+00  0.000000000000000D+00
      4   0.000000000000000D+00  0.000000000000000D+00  0.000000000000000D+00  0.000000000000000D+00  0.000000000000000D+00
      5   0.000000000000000D+00  0.000000000000000D+00  0.000000000000000D+00  0.000000000000000D+00  0.000000000000000D+00
      6   0.000000000000000D+00  0.000000000000000D+00  0.000000000000000D+00  0.000000000000000D+00  0.000000000000000D+00
      7   0.000000000000000D+00  0.000000000000000D+00  0.000000000000000D+00  0.000000000000000D+00  0.000000000000000D+00
      8   0.000000000000000D+00  0.000000000000000D+00  0.000000000000000D+00  0.000000000000000D+00  0.000000000000000D+00
                 6             7             8 
      1   0.000000000000000D+00  0.000000000000000D+00  0.000000000000000D+00
      2   0.000000000000000D+00  0.000000000000000D+00  0.000000000000000D+00
      3   0.000000000000000D+00  0.000000000000000D+00  0.000000000000000D+00
      4   0.000000000000000D+00  0.000000000000000D+00  0.000000000000000D+00
      5   0.000000000000000D+00  0.000000000000000D+00  0.000000000000000D+00
      6   0.000000000000000D+00  0.000000000000000D+00  0.000000000000000D+00
      7   0.000000000000000D+00  0.000000000000000D+00  0.000000000000000D+00
      8   0.000000000000000D+00  0.000000000000000D+00  0.000000000000000D+00
 density matrix (NO) (imaginary):
                 1             2             3             4             5 
      1   0.000000000000000D+00  0.000000000000000D+00  0.000000000000000D+00  0.000000000000000D+00  0.000000000000000D+00
      2   0.000000000000000D+00  0.000000000000000D+00  0.000000000000000D+00  0.000000000000000D+00  0.000000000000000D+00
      3   0.000000000000000D+00  0.000000000000000D+00  0.000000000000000D+00  0.000000000000000D+00  0.000000000000000D+00
      4   0.000000000000000D+00  0.000000000000000D+00  0.000000000000000D+00  0.000000000000000D+00  0.000000000000000D+00
      5   0.000000000000000D+00  0.000000000000000D+00  0.000000000000000D+00  0.000000000000000D+00  0.000000000000000D+00
      6   0.000000000000000D+00  0.000000000000000D+00  0.000000000000000D+00  0.000000000000000D+00  0.000000000000000D+00
      7   0.000000000000000D+00  0.000000000000000D+00  0.000000000000000D+00  0.000000000000000D+00  0.000000000000000D+00
      8   0.000000000000000D+00  0.000000000000000D+00  0.000000000000000D+00  0.000000000000000D+00  0.000000000000000D+00
                 6             7             8 
      1   0.000000000000000D+00  0.000000000000000D+00  0.000000000000000D+00
      2   0.000000000000000D+00  0.000000000000000D+00  0.000000000000000D+00
      3   0.000000000000000D+00  0.000000000000000D+00  0.000000000000000D+00
      4   0.000000000000000D+00  0.000000000000000D+00  0.000000000000000D+00
      5   0.000000000000000D+00  0.000000000000000D+00  0.000000000000000D+00
      6   0.000000000000000D+00  0.000000000000000D+00  0.000000000000000D+00
      7   0.000000000000000D+00  0.000000000000000D+00  0.000000000000000D+00
      8   0.000000000000000D+00  0.000000000000000D+00  0.000000000000000D+00
 
Start formng/pg
 
Start formgg

 Symmetry not used in FoFDir.
 MinBra= 0 MaxBra= 0 Meth= 1.
 IRaf=       1 NMat=  64 IRICut=       1 DoRegI=T DoRafI=F ISym2E= 0 JSym2E=0.
 PrsmSu:  NPrtUS=   1 ThrOK=F IAlg=1 NPAlg=1 LenDen=           0.
 Prism:   IPart=     0 DynPar=F LinDyn=F Incr=           1.
 PRISM was handed   536866103 working-precision words and    10 shell-pairs
 IPart=  0 NShTot=          55 NBatch=          10 AvBLen=         5.5
 PrSmSu:  NxtVal=              2.
 
Start evalsmt/hmt
 Smt (real):
                 1 
      1   0.107980732771754D+01
 Smt (imaginary):
                 1 
      1   0.000000000000000D+00
 Hmt (real):
                 1 
      1  -0.137620615784870D+01
 Hmt (imaginary):
                 1 
      1   0.000000000000000D+00
 
Form Fock eff
ifsel =     2, useproj    T
  
 Effective Fock (alpha, real):
                1             2             3             4 
      1  -0.231767778046932D+00
      2   0.330767274575989D+00  0.281461622840329D-02
      3   0.223485592645731D+00  0.726402969123687D-01  0.112026049644858D+01
      4   0.367441621085570D-01  0.331970160286758D+00  0.506542133947388D-01  0.111548793445334D+01
 Effective Fock (alpha, imaginary):
                1             2             3             4 
      1   0.000000000000000D+00
      2  -0.000000000000000D+00  0.000000000000000D+00
      3  -0.000000000000000D+00 -0.000000000000000D+00  0.000000000000000D+00
      4  -0.000000000000000D+00 -0.000000000000000D+00 -0.000000000000000D+00  0.000000000000000D+00
 Effective Fock (beta, real):
                1             2             3             4 
      1  -0.231767778046931D+00
      2  -0.330767274575989D+00  0.281461622840440D-02
      3   0.223485592645732D+00 -0.726402969123675D-01  0.112026049644858D+01
      4  -0.367441621085578D-01  0.331970160286759D+00 -0.506542133947404D-01  0.111548793445334D+01
 Effective Fock (beta, imaginary):
                1             2             3             4 
      1   0.000000000000000D+00
      2  -0.000000000000000D+00  0.000000000000000D+00
      3  -0.000000000000000D+00 -0.000000000000000D+00  0.000000000000000D+00
      4  -0.000000000000000D+00 -0.000000000000000D+00 -0.000000000000000D+00  0.000000000000000D+00
 
Diag Fock

 Fock eigenvalues (alpha):
      orbital --                 1                2                3                4
       energy --    -4.9504253D-01    1.2109476D-01    1.0986640D+00    1.2820791D+00

 Fock eigenvalues (beta):
      orbital --                 1                2                3                4
       energy --    -4.9504253D-01    1.2109476D-01    1.0986640D+00    1.2820791D+00

 *** cycle =    2 ***

        E =      -1.009903726441      DE =      -0.000413071019
      Hsp =      -1.559202858608     Hph =       0.284710527872
   <S**2> =       0.000000000000
    RMSDP =       1.2387D-03        MaxP =       2.5054D-03

   E (HF) =      -0.996682841435

 ********************

*********  Start Cycle  3  *************
  
 HF density matrix (alpha, real):
                1             2             3             4 
      1   0.635992954040802D+00
      2  -0.468579256984425D+00  0.345234202173235D+00
      3  -0.695633119855547D-01  0.512520222692211D-01  0.760866035331763D-02
      4   0.842635271085967D-01 -0.620826703701187D-01 -0.921653296316629D-02  0.111641834326449D-01
 HF density matrix (alpha, imaginary):
                1             2             3             4 
      1   0.000000000000000D+00
      2  -0.000000000000000D+00  0.000000000000000D+00
      3  -0.000000000000000D+00 -0.000000000000000D+00  0.000000000000000D+00
      4  -0.000000000000000D+00 -0.000000000000000D+00 -0.000000000000000D+00  0.000000000000000D+00
 HF density matrix (beta, real):
                1             2             3             4 
      1   0.635992954040802D+00
      2   0.468579256984424D+00  0.345234202173235D+00
      3  -0.695633119855558D-01 -0.512520222692219D-01  0.760866035331787D-02
      4  -0.842635271085965D-01 -0.620826703701185D-01  0.921653296316641D-02  0.111641834326448D-01
 HF density matrix (beta, imaginary):
                1             2             3             4 
      1   0.000000000000000D+00
      2  -0.000000000000000D+00  0.000000000000000D+00
      3  -0.000000000000000D+00 -0.000000000000000D+00  0.000000000000000D+00
      4  -0.000000000000000D+00 -0.000000000000000D+00 -0.000000000000000D+00  0.000000000000000D+00
 
Start hffock
  
 Core Hamiltonian (real):
                 1             2             3             4 
      1  -0.796723338707556D+00  0.000000000000000D+00  0.103743642994694D+00  0.000000000000000D+00
      2   0.000000000000000D+00 -0.658935382448063D+00  0.000000000000000D+00  0.196745567553556D+00
      3   0.103743642994694D+00  0.000000000000000D+00  0.306544663647526D+00  0.000000000000000D+00
      4   0.000000000000000D+00  0.196745567553556D+00  0.000000000000000D+00  0.376081196492739D+00
 Core Hamiltonian (imaginary):
                 1             2             3             4 
      1   0.000000000000000D+00  0.000000000000000D+00  0.000000000000000D+00  0.000000000000000D+00
      2   0.000000000000000D+00  0.000000000000000D+00  0.000000000000000D+00  0.000000000000000D+00
      3   0.000000000000000D+00  0.000000000000000D+00  0.000000000000000D+00  0.000000000000000D+00
      4   0.000000000000000D+00  0.000000000000000D+00  0.000000000000000D+00  0.000000000000000D+00

 Symmetry not used in FoFDir.
 MinBra= 0 MaxBra= 0 Meth= 1.
 IRaf=       1 NMat=   2 IRICut=       1 DoRegI=T DoRafI=F ISym2E= 0 JSym2E=0.
 PrsmSu:  NPrtUS=   1 ThrOK=F IAlg=1 NPAlg=1 LenDen=           0.
 Prism:   IPart=     0 DynPar=F LinDyn=F Incr=           1.
 PRISM was handed   536868987 working-precision words and    10 shell-pairs
 IPart=  0 NShTot=          55 NBatch=          10 AvBLen=         5.5
 PrSmSu:  NxtVal=              2.
  
 HF Fock matrix (alpha, real):
                1             2             3             4 
      1  -0.236463311825159D+00
      2   0.328684020201904D+00  0.964762668244190D-02
      3   0.217244952379172D+00  0.785716227941994D-01  0.112226207916666D+01
      4   0.271362863622419D-01  0.338752839772503D+00  0.510834029748095D-01  0.111325497185271D+01
 HF Fock matrix (alpha, imaginary):
                1             2             3             4 
      1   0.000000000000000D+00
      2  -0.000000000000000D+00  0.000000000000000D+00
      3  -0.000000000000000D+00 -0.000000000000000D+00  0.000000000000000D+00
      4  -0.000000000000000D+00 -0.000000000000000D+00 -0.000000000000000D+00  0.000000000000000D+00
 HF Fock matrix (beta, real):
                1             2             3             4 
      1  -0.236463311825159D+00
      2  -0.328684020201904D+00  0.964762668244212D-02
      3   0.217244952379173D+00 -0.785716227941983D-01  0.112226207916666D+01
      4  -0.271362863622427D-01  0.338752839772503D+00 -0.510834029748116D-01  0.111325497185271D+01
 HF Fock matrix (beta, imaginary):
                1             2             3             4 
      1   0.000000000000000D+00
      2  -0.000000000000000D+00  0.000000000000000D+00
      3  -0.000000000000000D+00 -0.000000000000000D+00  0.000000000000000D+00
      4  -0.000000000000000D+00 -0.000000000000000D+00 -0.000000000000000D+00  0.000000000000000D+00
 
Start hfdmdg: find NO basis
  
 density matrix (NO) (real):
                 1             2             3             4             5 
      1   0.999999999999999D+00  0.000000000000000D+00  0.000000000000000D+00  0.000000000000000D+00  0.000000000000000D+00
      2   0.000000000000000D+00  0.100000000000000D+01  0.000000000000000D+00  0.000000000000000D+00  0.000000000000000D+00
      3   0.000000000000000D+00  0.000000000000000D+00  0.000000000000000D+00  0.000000000000000D+00  0.000000000000000D+00
      4   0.000000000000000D+00  0.000000000000000D+00  0.000000000000000D+00  0.000000000000000D+00  0.000000000000000D+00
      5   0.000000000000000D+00  0.000000000000000D+00  0.000000000000000D+00  0.000000000000000D+00  0.000000000000000D+00
      6   0.000000000000000D+00  0.000000000000000D+00  0.000000000000000D+00  0.000000000000000D+00  0.000000000000000D+00
      7   0.000000000000000D+00  0.000000000000000D+00  0.000000000000000D+00  0.000000000000000D+00  0.000000000000000D+00
      8   0.000000000000000D+00  0.000000000000000D+00  0.000000000000000D+00  0.000000000000000D+00  0.000000000000000D+00
                 6             7             8 
      1   0.000000000000000D+00  0.000000000000000D+00  0.000000000000000D+00
      2   0.000000000000000D+00  0.000000000000000D+00  0.000000000000000D+00
      3   0.000000000000000D+00  0.000000000000000D+00  0.000000000000000D+00
      4   0.000000000000000D+00  0.000000000000000D+00  0.000000000000000D+00
      5   0.000000000000000D+00  0.000000000000000D+00  0.000000000000000D+00
      6   0.000000000000000D+00  0.000000000000000D+00  0.000000000000000D+00
      7   0.000000000000000D+00  0.000000000000000D+00  0.000000000000000D+00
      8   0.000000000000000D+00  0.000000000000000D+00  0.000000000000000D+00
 density matrix (NO) (imaginary):
                 1             2             3             4             5 
      1   0.000000000000000D+00  0.000000000000000D+00  0.000000000000000D+00  0.000000000000000D+00  0.000000000000000D+00
      2   0.000000000000000D+00  0.000000000000000D+00  0.000000000000000D+00  0.000000000000000D+00  0.000000000000000D+00
      3   0.000000000000000D+00  0.000000000000000D+00  0.000000000000000D+00  0.000000000000000D+00  0.000000000000000D+00
      4   0.000000000000000D+00  0.000000000000000D+00  0.000000000000000D+00  0.000000000000000D+00  0.000000000000000D+00
      5   0.000000000000000D+00  0.000000000000000D+00  0.000000000000000D+00  0.000000000000000D+00  0.000000000000000D+00
      6   0.000000000000000D+00  0.000000000000000D+00  0.000000000000000D+00  0.000000000000000D+00  0.000000000000000D+00
      7   0.000000000000000D+00  0.000000000000000D+00  0.000000000000000D+00  0.000000000000000D+00  0.000000000000000D+00
      8   0.000000000000000D+00  0.000000000000000D+00  0.000000000000000D+00  0.000000000000000D+00  0.000000000000000D+00
                 6             7             8 
      1   0.000000000000000D+00  0.000000000000000D+00  0.000000000000000D+00
      2   0.000000000000000D+00  0.000000000000000D+00  0.000000000000000D+00
      3   0.000000000000000D+00  0.000000000000000D+00  0.000000000000000D+00
      4   0.000000000000000D+00  0.000000000000000D+00  0.000000000000000D+00
      5   0.000000000000000D+00  0.000000000000000D+00  0.000000000000000D+00
      6   0.000000000000000D+00  0.000000000000000D+00  0.000000000000000D+00
      7   0.000000000000000D+00  0.000000000000000D+00  0.000000000000000D+00
      8   0.000000000000000D+00  0.000000000000000D+00  0.000000000000000D+00
 
Start formng/pg
 
Start formgg

 Symmetry not used in FoFDir.
 MinBra= 0 MaxBra= 0 Meth= 1.
 IRaf=       1 NMat=  64 IRICut=       1 DoRegI=T DoRafI=F ISym2E= 0 JSym2E=0.
 PrsmSu:  NPrtUS=   1 ThrOK=F IAlg=1 NPAlg=1 LenDen=           0.
 Prism:   IPart=     0 DynPar=F LinDyn=F Incr=           1.
 PRISM was handed   536866103 working-precision words and    10 shell-pairs
 IPart=  0 NShTot=          55 NBatch=          10 AvBLen=         5.5
 PrSmSu:  NxtVal=              2.
 
Start evalsmt/hmt
 Smt (real):
                 1 
      1   0.108248569462639D+01
 Smt (imaginary):
                 1 
      1   0.000000000000000D+00
 Hmt (real):
                 1 
      1  -0.137965620147634D+01
 Hmt (imaginary):
                 1 
      1   0.000000000000000D+00
 
Form Fock eff
ifsel =     2, useproj    T
  
 Effective Fock (alpha, real):
                1             2             3             4 
      1  -0.231074307367618D+00
      2   0.331331584488978D+00  0.282104780332992D-02
      3   0.223666308824579D+00  0.731167114984857D-01  0.112079290448133D+01
      4   0.384628700630185D-01  0.331284604075759D+00  0.507733986039720D-01  0.111616172095961D+01
 Effective Fock (alpha, imaginary):
                1             2             3             4 
      1   0.000000000000000D+00
      2  -0.000000000000000D+00  0.000000000000000D+00
      3  -0.000000000000000D+00 -0.000000000000000D+00  0.000000000000000D+00
      4  -0.000000000000000D+00 -0.000000000000000D+00 -0.000000000000000D+00  0.000000000000000D+00
 Effective Fock (beta, real):
                1             2             3             4 
      1  -0.231074307367618D+00
      2  -0.331331584488978D+00  0.282104780333017D-02
      3   0.223666308824580D+00 -0.731167114984848D-01  0.112079290448133D+01
      4  -0.384628700630191D-01  0.331284604075759D+00 -0.507733986039741D-01  0.111616172095961D+01
 Effective Fock (beta, imaginary):
                1             2             3             4 
      1   0.000000000000000D+00
      2  -0.000000000000000D+00  0.000000000000000D+00
      3  -0.000000000000000D+00 -0.000000000000000D+00  0.000000000000000D+00
      4  -0.000000000000000D+00 -0.000000000000000D+00 -0.000000000000000D+00  0.000000000000000D+00
 
Diag Fock

 Fock eigenvalues (alpha):
      orbital --                 1                2                3                4
       energy --    -4.9472237D-01    1.2148397D-01    1.0988012D+00    1.2831385D+00

 Fock eigenvalues (beta):
      orbital --                 1                2                3                4
       energy --    -4.9472237D-01    1.2148397D-01    1.0988012D+00    1.2831385D+00

 *** cycle =    3 ***

        E =      -1.009937431777      DE =      -0.000033705335
      Hsp =      -1.560090880445     Hph =       0.285564844374
   <S**2> =      -0.000000000000
    RMSDP =       3.9376D-04        MaxP =       8.5006D-04

   E (HF) =      -0.996660584569

 ********************

*********  Start Cycle  4  *************
  
 HF density matrix (alpha, real):
                1             2             3             4 
      1   0.635871759269188D+00
      2  -0.468784671130758D+00  0.345602811704900D+00
      3  -0.694405570603119D-01  0.511937638841957D-01  0.758327586428492D-02
      4   0.834134652264018D-01 -0.614950314965662D-01 -0.910919129088135D-02  0.109421531616262D-01
 HF density matrix (alpha, imaginary):
                1             2             3             4 
      1   0.000000000000000D+00
      2  -0.000000000000000D+00  0.000000000000000D+00
      3  -0.000000000000000D+00 -0.000000000000000D+00  0.000000000000000D+00
      4  -0.000000000000000D+00 -0.000000000000000D+00 -0.000000000000000D+00  0.000000000000000D+00
 HF density matrix (beta, real):
                1             2             3             4 
      1   0.635871759269189D+00
      2   0.468784671130758D+00  0.345602811704900D+00
      3  -0.694405570603127D-01 -0.511937638841963D-01  0.758327586428510D-02
      4  -0.834134652264018D-01 -0.614950314965661D-01  0.910919129088145D-02  0.109421531616262D-01
 HF density matrix (beta, imaginary):
                1             2             3             4 
      1   0.000000000000000D+00
      2  -0.000000000000000D+00  0.000000000000000D+00
      3  -0.000000000000000D+00 -0.000000000000000D+00  0.000000000000000D+00
      4  -0.000000000000000D+00 -0.000000000000000D+00 -0.000000000000000D+00  0.000000000000000D+00
 
Start hffock
  
 Core Hamiltonian (real):
                 1             2             3             4 
      1  -0.796723338707556D+00  0.000000000000000D+00  0.103743642994694D+00  0.000000000000000D+00
      2   0.000000000000000D+00 -0.658935382448063D+00  0.000000000000000D+00  0.196745567553556D+00
      3   0.103743642994694D+00  0.000000000000000D+00  0.306544663647526D+00  0.000000000000000D+00
      4   0.000000000000000D+00  0.196745567553556D+00  0.000000000000000D+00  0.376081196492739D+00
 Core Hamiltonian (imaginary):
                 1             2             3             4 
      1   0.000000000000000D+00  0.000000000000000D+00  0.000000000000000D+00  0.000000000000000D+00
      2   0.000000000000000D+00  0.000000000000000D+00  0.000000000000000D+00  0.000000000000000D+00
      3   0.000000000000000D+00  0.000000000000000D+00  0.000000000000000D+00  0.000000000000000D+00
      4   0.000000000000000D+00  0.000000000000000D+00  0.000000000000000D+00  0.000000000000000D+00

 Symmetry not used in FoFDir.
 MinBra= 0 MaxBra= 0 Meth= 1.
 IRaf=       1 NMat=   2 IRICut=       1 DoRegI=T DoRafI=F ISym2E= 0 JSym2E=0.
 PrsmSu:  NPrtUS=   1 ThrOK=F IAlg=1 NPAlg=1 LenDen=           0.
 Prism:   IPart=     0 DynPar=F LinDyn=F Incr=           1.
 PRISM was handed   536868987 working-precision words and    10 shell-pairs
 IPart=  0 NShTot=          55 NBatch=          10 AvBLen=         5.5
 PrSmSu:  NxtVal=              2.
  
 HF Fock matrix (alpha, real):
                1             2             3             4 
      1  -0.236240421044756D+00
      2   0.328981812607896D+00  0.973391939602153D-02
      3   0.217241067241299D+00  0.788643519299096D-01  0.112246258320629D+01
      4   0.275599794265485D-01  0.338648652560908D+00  0.511749163341087D-01  0.111346788501076D+01
 HF Fock matrix (alpha, imaginary):
                1             2             3             4 
      1   0.000000000000000D+00
      2  -0.000000000000000D+00  0.000000000000000D+00
      3  -0.000000000000000D+00 -0.000000000000000D+00  0.000000000000000D+00
      4  -0.000000000000000D+00 -0.000000000000000D+00 -0.000000000000000D+00  0.000000000000000D+00
 HF Fock matrix (beta, real):
                1             2             3             4 
      1  -0.236240421044756D+00
      2  -0.328981812607895D+00  0.973391939602153D-02
      3   0.217241067241300D+00 -0.788643519299082D-01  0.112246258320629D+01
      4  -0.275599794265491D-01  0.338648652560909D+00 -0.511749163341101D-01  0.111346788501076D+01
 HF Fock matrix (beta, imaginary):
                1             2             3             4 
      1   0.000000000000000D+00
      2  -0.000000000000000D+00  0.000000000000000D+00
      3  -0.000000000000000D+00 -0.000000000000000D+00  0.000000000000000D+00
      4  -0.000000000000000D+00 -0.000000000000000D+00 -0.000000000000000D+00  0.000000000000000D+00
 
Start hfdmdg: find NO basis
  
 density matrix (NO) (real):
                 1             2             3             4             5 
      1   0.999999999999999D+00  0.000000000000000D+00  0.000000000000000D+00  0.000000000000000D+00  0.000000000000000D+00
      2   0.000000000000000D+00  0.100000000000000D+01  0.000000000000000D+00  0.000000000000000D+00  0.000000000000000D+00
      3   0.000000000000000D+00  0.000000000000000D+00  0.000000000000000D+00  0.000000000000000D+00  0.000000000000000D+00
      4   0.000000000000000D+00  0.000000000000000D+00  0.000000000000000D+00  0.000000000000000D+00  0.000000000000000D+00
      5   0.000000000000000D+00  0.000000000000000D+00  0.000000000000000D+00  0.000000000000000D+00  0.000000000000000D+00
      6   0.000000000000000D+00  0.000000000000000D+00  0.000000000000000D+00  0.000000000000000D+00  0.000000000000000D+00
      7   0.000000000000000D+00  0.000000000000000D+00  0.000000000000000D+00  0.000000000000000D+00  0.000000000000000D+00
      8   0.000000000000000D+00  0.000000000000000D+00  0.000000000000000D+00  0.000000000000000D+00  0.000000000000000D+00
                 6             7             8 
      1   0.000000000000000D+00  0.000000000000000D+00  0.000000000000000D+00
      2   0.000000000000000D+00  0.000000000000000D+00  0.000000000000000D+00
      3   0.000000000000000D+00  0.000000000000000D+00  0.000000000000000D+00
      4   0.000000000000000D+00  0.000000000000000D+00  0.000000000000000D+00
      5   0.000000000000000D+00  0.000000000000000D+00  0.000000000000000D+00
      6   0.000000000000000D+00  0.000000000000000D+00  0.000000000000000D+00
      7   0.000000000000000D+00  0.000000000000000D+00  0.000000000000000D+00
      8   0.000000000000000D+00  0.000000000000000D+00  0.000000000000000D+00
 density matrix (NO) (imaginary):
                 1             2             3             4             5 
      1   0.000000000000000D+00  0.000000000000000D+00  0.000000000000000D+00  0.000000000000000D+00  0.000000000000000D+00
      2   0.000000000000000D+00  0.000000000000000D+00  0.000000000000000D+00  0.000000000000000D+00  0.000000000000000D+00
      3   0.000000000000000D+00  0.000000000000000D+00  0.000000000000000D+00  0.000000000000000D+00  0.000000000000000D+00
      4   0.000000000000000D+00  0.000000000000000D+00  0.000000000000000D+00  0.000000000000000D+00  0.000000000000000D+00
      5   0.000000000000000D+00  0.000000000000000D+00  0.000000000000000D+00  0.000000000000000D+00  0.000000000000000D+00
      6   0.000000000000000D+00  0.000000000000000D+00  0.000000000000000D+00  0.000000000000000D+00  0.000000000000000D+00
      7   0.000000000000000D+00  0.000000000000000D+00  0.000000000000000D+00  0.000000000000000D+00  0.000000000000000D+00
      8   0.000000000000000D+00  0.000000000000000D+00  0.000000000000000D+00  0.000000000000000D+00  0.000000000000000D+00
                 6             7             8 
      1   0.000000000000000D+00  0.000000000000000D+00  0.000000000000000D+00
      2   0.000000000000000D+00  0.000000000000000D+00  0.000000000000000D+00
      3   0.000000000000000D+00  0.000000000000000D+00  0.000000000000000D+00
      4   0.000000000000000D+00  0.000000000000000D+00  0.000000000000000D+00
      5   0.000000000000000D+00  0.000000000000000D+00  0.000000000000000D+00
      6   0.000000000000000D+00  0.000000000000000D+00  0.000000000000000D+00
      7   0.000000000000000D+00  0.000000000000000D+00  0.000000000000000D+00
      8   0.000000000000000D+00  0.000000000000000D+00  0.000000000000000D+00
 
Start formng/pg
 
Start formgg

 Symmetry not used in FoFDir.
 MinBra= 0 MaxBra= 0 Meth= 1.
 IRaf=       1 NMat=  64 IRICut=       1 DoRegI=T DoRafI=F ISym2E= 0 JSym2E=0.
 PrsmSu:  NPrtUS=   1 ThrOK=F IAlg=1 NPAlg=1 LenDen=           0.
 Prism:   IPart=     0 DynPar=F LinDyn=F Incr=           1.
 PRISM was handed   536866103 working-precision words and    10 shell-pairs
 IPart=  0 NShTot=          55 NBatch=          10 AvBLen=         5.5
 PrSmSu:  NxtVal=              2.
 
Start evalsmt/hmt
 Smt (real):
                 1 
      1   0.108231738842058D+01
 Smt (imaginary):
                 1 
      1   0.000000000000000D+00
 Hmt (real):
                 1 
      1  -0.137944815706237D+01
 Hmt (imaginary):
                 1 
      1   0.000000000000000D+00
 
Form Fock eff
ifsel =     2, useproj    T
  
 Effective Fock (alpha, real):
                1             2             3             4 
      1  -0.230966352755222D+00
      2   0.331627836053945D+00  0.296594577685322D-02
      3   0.223648059942647D+00  0.734273425567870D-01  0.112100033081697D+01
      4   0.391734933069470D-01  0.330943963315957D+00  0.508226803522659D-01  0.111642404272972D+01
 Effective Fock (alpha, imaginary):
                1             2             3             4 
      1   0.000000000000000D+00
      2  -0.000000000000000D+00  0.000000000000000D+00
      3  -0.000000000000000D+00 -0.000000000000000D+00  0.000000000000000D+00
      4  -0.000000000000000D+00 -0.000000000000000D+00 -0.000000000000000D+00  0.000000000000000D+00
 Effective Fock (beta, real):
                1             2             3             4 
      1  -0.230966352755222D+00
      2  -0.331627836053945D+00  0.296594577685275D-02
      3   0.223648059942648D+00 -0.734273425567856D-01  0.112100033081697D+01
      4  -0.391734933069478D-01  0.330943963315957D+00 -0.508226803522672D-01  0.111642404272972D+01
 Effective Fock (beta, imaginary):
                1             2             3             4 
      1   0.000000000000000D+00
      2  -0.000000000000000D+00  0.000000000000000D+00
      3  -0.000000000000000D+00 -0.000000000000000D+00  0.000000000000000D+00
      4  -0.000000000000000D+00 -0.000000000000000D+00 -0.000000000000000D+00  0.000000000000000D+00
 
Diag Fock

 Fock eigenvalues (alpha):
      orbital --                 1                2                3                4
       energy --    -4.9468350D-01    1.2173214D-01    1.0988053D+00    1.2835700D+00

 Fock eigenvalues (beta):
      orbital --                 1                2                3                4
       energy --    -4.9468350D-01    1.2173214D-01    1.0988053D+00    1.2835700D+00

 *** cycle =    4 ***

        E =      -1.009943406205      DE =      -0.000005974428
      Hsp =      -1.560040331438     Hph =       0.285508320938
   <S**2> =      -0.000000000000
    RMSDP =       1.8578D-04        MaxP =       3.8803D-04

   E (HF) =      -0.996604295621

 ********************

*********  Start Cycle  5  *************
  
 HF density matrix (alpha, real):
                1             2             3             4 
      1   0.636027296270733D+00
      2  -0.468822421991066D+00  0.345573947298027D+00
      3  -0.693461550384591D-01  0.511157815891280D-01  0.756082206976703D-02
      4   0.830254303758030D-01 -0.611989195807502D-01 -0.905227558743717D-02  0.108379343614729D-01
 HF density matrix (alpha, imaginary):
                1             2             3             4 
      1   0.000000000000000D+00
      2  -0.000000000000000D+00  0.000000000000000D+00
      3  -0.000000000000000D+00 -0.000000000000000D+00  0.000000000000000D+00
      4  -0.000000000000000D+00 -0.000000000000000D+00 -0.000000000000000D+00  0.000000000000000D+00
 HF density matrix (beta, real):
                1             2             3             4 
      1   0.636027296270733D+00
      2   0.468822421991066D+00  0.345573947298027D+00
      3  -0.693461550384602D-01 -0.511157815891287D-01  0.756082206976726D-02
      4  -0.830254303758026D-01 -0.611989195807499D-01  0.905227558743727D-02  0.108379343614728D-01
 HF density matrix (beta, imaginary):
                1             2             3             4 
      1   0.000000000000000D+00
      2  -0.000000000000000D+00  0.000000000000000D+00
      3  -0.000000000000000D+00 -0.000000000000000D+00  0.000000000000000D+00
      4  -0.000000000000000D+00 -0.000000000000000D+00 -0.000000000000000D+00  0.000000000000000D+00
 
Start hffock
  
 Core Hamiltonian (real):
                 1             2             3             4 
      1  -0.796723338707556D+00  0.000000000000000D+00  0.103743642994694D+00  0.000000000000000D+00
      2   0.000000000000000D+00 -0.658935382448063D+00  0.000000000000000D+00  0.196745567553556D+00
      3   0.103743642994694D+00  0.000000000000000D+00  0.306544663647526D+00  0.000000000000000D+00
      4   0.000000000000000D+00  0.196745567553556D+00  0.000000000000000D+00  0.376081196492739D+00
 Core Hamiltonian (imaginary):
                 1             2             3             4 
      1   0.000000000000000D+00  0.000000000000000D+00  0.000000000000000D+00  0.000000000000000D+00
      2   0.000000000000000D+00  0.000000000000000D+00  0.000000000000000D+00  0.000000000000000D+00
      3   0.000000000000000D+00  0.000000000000000D+00  0.000000000000000D+00  0.000000000000000D+00
      4   0.000000000000000D+00  0.000000000000000D+00  0.000000000000000D+00  0.000000000000000D+00

 Symmetry not used in FoFDir.
 MinBra= 0 MaxBra= 0 Meth= 1.
 IRaf=       1 NMat=   2 IRICut=       1 DoRegI=T DoRafI=F ISym2E= 0 JSym2E=0.
 PrsmSu:  NPrtUS=   1 ThrOK=F IAlg=1 NPAlg=1 LenDen=           0.
 Prism:   IPart=     0 DynPar=F LinDyn=F Incr=           1.
 PRISM was handed   536868987 working-precision words and    10 shell-pairs
 IPart=  0 NShTot=          55 NBatch=          10 AvBLen=         5.5
 PrSmSu:  NxtVal=              2.
  
 HF Fock matrix (alpha, real):
                1             2             3             4 
      1  -0.236185450566675D+00
      2   0.329088353307709D+00  0.983155011342807D-02
      3   0.217230174218302D+00  0.790120828522085D-01  0.112256859113327D+01
      4   0.277566177826476D-01  0.338599898064623D+00  0.512156979412277D-01  0.111357422382855D+01
 HF Fock matrix (alpha, imaginary):
                1             2             3             4 
      1   0.000000000000000D+00
      2  -0.000000000000000D+00  0.000000000000000D+00
      3  -0.000000000000000D+00 -0.000000000000000D+00  0.000000000000000D+00
      4  -0.000000000000000D+00 -0.000000000000000D+00 -0.000000000000000D+00  0.000000000000000D+00
 HF Fock matrix (beta, real):
                1             2             3             4 
      1  -0.236185450566675D+00
      2  -0.329088353307709D+00  0.983155011342840D-02
      3   0.217230174218303D+00 -0.790120828522069D-01  0.112256859113327D+01
      4  -0.277566177826482D-01  0.338599898064623D+00 -0.512156979412287D-01  0.111357422382855D+01
 HF Fock matrix (beta, imaginary):
                1             2             3             4 
      1   0.000000000000000D+00
      2  -0.000000000000000D+00  0.000000000000000D+00
      3  -0.000000000000000D+00 -0.000000000000000D+00  0.000000000000000D+00
      4  -0.000000000000000D+00 -0.000000000000000D+00 -0.000000000000000D+00  0.000000000000000D+00
 
Start hfdmdg: find NO basis
  
 density matrix (NO) (real):
                 1             2             3             4             5 
      1   0.100000000000000D+01  0.000000000000000D+00  0.000000000000000D+00  0.000000000000000D+00  0.000000000000000D+00
      2   0.000000000000000D+00  0.100000000000000D+01  0.000000000000000D+00  0.000000000000000D+00  0.000000000000000D+00
      3   0.000000000000000D+00  0.000000000000000D+00  0.000000000000000D+00  0.000000000000000D+00  0.000000000000000D+00
      4   0.000000000000000D+00  0.000000000000000D+00  0.000000000000000D+00  0.000000000000000D+00  0.000000000000000D+00
      5   0.000000000000000D+00  0.000000000000000D+00  0.000000000000000D+00  0.000000000000000D+00  0.000000000000000D+00
      6   0.000000000000000D+00  0.000000000000000D+00  0.000000000000000D+00  0.000000000000000D+00  0.000000000000000D+00
      7   0.000000000000000D+00  0.000000000000000D+00  0.000000000000000D+00  0.000000000000000D+00  0.000000000000000D+00
      8   0.000000000000000D+00  0.000000000000000D+00  0.000000000000000D+00  0.000000000000000D+00  0.000000000000000D+00
                 6             7             8 
      1   0.000000000000000D+00  0.000000000000000D+00  0.000000000000000D+00
      2   0.000000000000000D+00  0.000000000000000D+00  0.000000000000000D+00
      3   0.000000000000000D+00  0.000000000000000D+00  0.000000000000000D+00
      4   0.000000000000000D+00  0.000000000000000D+00  0.000000000000000D+00
      5   0.000000000000000D+00  0.000000000000000D+00  0.000000000000000D+00
      6   0.000000000000000D+00  0.000000000000000D+00  0.000000000000000D+00
      7   0.000000000000000D+00  0.000000000000000D+00  0.000000000000000D+00
      8   0.000000000000000D+00  0.000000000000000D+00  0.000000000000000D+00
 density matrix (NO) (imaginary):
                 1             2             3             4             5 
      1   0.000000000000000D+00  0.000000000000000D+00  0.000000000000000D+00  0.000000000000000D+00  0.000000000000000D+00
      2   0.000000000000000D+00  0.000000000000000D+00  0.000000000000000D+00  0.000000000000000D+00  0.000000000000000D+00
      3   0.000000000000000D+00  0.000000000000000D+00  0.000000000000000D+00  0.000000000000000D+00  0.000000000000000D+00
      4   0.000000000000000D+00  0.000000000000000D+00  0.000000000000000D+00  0.000000000000000D+00  0.000000000000000D+00
      5   0.000000000000000D+00  0.000000000000000D+00  0.000000000000000D+00  0.000000000000000D+00  0.000000000000000D+00
      6   0.000000000000000D+00  0.000000000000000D+00  0.000000000000000D+00  0.000000000000000D+00  0.000000000000000D+00
      7   0.000000000000000D+00  0.000000000000000D+00  0.000000000000000D+00  0.000000000000000D+00  0.000000000000000D+00
      8   0.000000000000000D+00  0.000000000000000D+00  0.000000000000000D+00  0.000000000000000D+00  0.000000000000000D+00
                 6             7             8 
      1   0.000000000000000D+00  0.000000000000000D+00  0.000000000000000D+00
      2   0.000000000000000D+00  0.000000000000000D+00  0.000000000000000D+00
      3   0.000000000000000D+00  0.000000000000000D+00  0.000000000000000D+00
      4   0.000000000000000D+00  0.000000000000000D+00  0.000000000000000D+00
      5   0.000000000000000D+00  0.000000000000000D+00  0.000000000000000D+00
      6   0.000000000000000D+00  0.000000000000000D+00  0.000000000000000D+00
      7   0.000000000000000D+00  0.000000000000000D+00  0.000000000000000D+00
      8   0.000000000000000D+00  0.000000000000000D+00  0.000000000000000D+00
 
Start formng/pg
 
Start formgg

 Symmetry not used in FoFDir.
 MinBra= 0 MaxBra= 0 Meth= 1.
 IRaf=       1 NMat=  64 IRICut=       1 DoRegI=T DoRafI=F ISym2E= 0 JSym2E=0.
 PrsmSu:  NPrtUS=   1 ThrOK=F IAlg=1 NPAlg=1 LenDen=           0.
 Prism:   IPart=     0 DynPar=F LinDyn=F Incr=           1.
 PRISM was handed   536866103 working-precision words and    10 shell-pairs
 IPart=  0 NShTot=          55 NBatch=          10 AvBLen=         5.5
 PrSmSu:  NxtVal=              2.
 
Start evalsmt/hmt
 Smt (real):
                 1 
      1   0.108247019091426D+01
 Smt (imaginary):
                 1 
      1   0.000000000000000D+00
 Hmt (real):
                 1 
      1  -0.137964423294859D+01
 Hmt (imaginary):
                 1 
      1   0.000000000000000D+00
 
Form Fock eff
ifsel =     2, useproj    T
  
 Effective Fock (alpha, real):
                1             2             3             4 
      1  -0.230879907252063D+00
      2   0.331759040303891D+00  0.301169589791894D-02
      3   0.223657803334794D+00  0.735566322164000D-01  0.112110391028555D+01
      4   0.395133842868332D-01  0.330792988957907D+00  0.508484139579738D-01  0.111655321557716D+01
 Effective Fock (alpha, imaginary):
                1             2             3             4 
      1   0.000000000000000D+00
      2  -0.000000000000000D+00  0.000000000000000D+00
      3  -0.000000000000000D+00 -0.000000000000000D+00  0.000000000000000D+00
      4  -0.000000000000000D+00 -0.000000000000000D+00 -0.000000000000000D+00  0.000000000000000D+00
 Effective Fock (beta, real):
                1             2             3             4 
      1  -0.230879907252063D+00
      2  -0.331759040303891D+00  0.301169589791930D-02
      3   0.223657803334795D+00 -0.735566322163984D-01  0.112110391028555D+01
      4  -0.395133842868337D-01  0.330792988957907D+00 -0.508484139579749D-01  0.111655321557716D+01
 Effective Fock (beta, imaginary):
                1             2             3             4 
      1   0.000000000000000D+00
      2  -0.000000000000000D+00  0.000000000000000D+00
      3  -0.000000000000000D+00 -0.000000000000000D+00  0.000000000000000D+00
      4  -0.000000000000000D+00 -0.000000000000000D+00 -0.000000000000000D+00  0.000000000000000D+00
 
Diag Fock

 Fock eigenvalues (alpha):
      orbital --                 1                2                3                4
       energy --    -4.9464731D-01    1.2183683D-01    1.0988168D+00    1.2837826D+00

 Fock eigenvalues (beta):
      orbital --                 1                2                3                4
       energy --    -4.9464731D-01    1.2183683D-01    1.0988168D+00    1.2837826D+00

 *** cycle =    5 ***

        E =      -1.009944629533      DE =      -0.000001223329
      Hsp =      -1.560090938978     Hph =       0.285557705150
   <S**2> =       0.000000000000
    RMSDP =       8.2581D-05        MaxP =       1.7840D-04

   E (HF) =      -0.996583319368

 ********************

*********  Start Cycle  6  *************
  
 HF density matrix (alpha, real):
                1             2             3             4 
      1   0.636063537643082D+00
      2  -0.468848943630140D+00  0.345593354962042D+00
      3  -0.693091007043153D-01  0.510884474994188D-01  0.755231381166904D-02
      4   0.828470297627555D-01 -0.610673935674627D-01 -0.902748355951556D-02  0.107907935832070D-01
 HF density matrix (alpha, imaginary):
                1             2             3             4 
      1   0.000000000000000D+00
      2  -0.000000000000000D+00  0.000000000000000D+00
      3  -0.000000000000000D+00 -0.000000000000000D+00  0.000000000000000D+00
      4  -0.000000000000000D+00 -0.000000000000000D+00 -0.000000000000000D+00  0.000000000000000D+00
 HF density matrix (beta, real):
                1             2             3             4 
      1   0.636063537643083D+00
      2   0.468848943630139D+00  0.345593354962041D+00
      3  -0.693091007043163D-01 -0.510884474994195D-01  0.755231381166926D-02
      4  -0.828470297627553D-01 -0.610673935674623D-01  0.902748355951566D-02  0.107907935832069D-01
 HF density matrix (beta, imaginary):
                1             2             3             4 
      1   0.000000000000000D+00
      2  -0.000000000000000D+00  0.000000000000000D+00
      3  -0.000000000000000D+00 -0.000000000000000D+00  0.000000000000000D+00
      4  -0.000000000000000D+00 -0.000000000000000D+00 -0.000000000000000D+00  0.000000000000000D+00
 
Start hffock
  
 Core Hamiltonian (real):
                 1             2             3             4 
      1  -0.796723338707556D+00  0.000000000000000D+00  0.103743642994694D+00  0.000000000000000D+00
      2   0.000000000000000D+00 -0.658935382448063D+00  0.000000000000000D+00  0.196745567553556D+00
      3   0.103743642994694D+00  0.000000000000000D+00  0.306544663647526D+00  0.000000000000000D+00
      4   0.000000000000000D+00  0.196745567553556D+00  0.000000000000000D+00  0.376081196492739D+00
 Core Hamiltonian (imaginary):
                 1             2             3             4 
      1   0.000000000000000D+00  0.000000000000000D+00  0.000000000000000D+00  0.000000000000000D+00
      2   0.000000000000000D+00  0.000000000000000D+00  0.000000000000000D+00  0.000000000000000D+00
      3   0.000000000000000D+00  0.000000000000000D+00  0.000000000000000D+00  0.000000000000000D+00
      4   0.000000000000000D+00  0.000000000000000D+00  0.000000000000000D+00  0.000000000000000D+00

 Symmetry not used in FoFDir.
 MinBra= 0 MaxBra= 0 Meth= 1.
 IRaf=       1 NMat=   2 IRICut=       1 DoRegI=T DoRafI=F ISym2E= 0 JSym2E=0.
 PrsmSu:  NPrtUS=   1 ThrOK=F IAlg=1 NPAlg=1 LenDen=           0.
 Prism:   IPart=     0 DynPar=F LinDyn=F Incr=           1.
 PRISM was handed   536868987 working-precision words and    10 shell-pairs
 IPart=  0 NShTot=          55 NBatch=          10 AvBLen=         5.5
 PrSmSu:  NxtVal=              2.
  
 HF Fock matrix (alpha, real):
                1             2             3             4 
      1  -0.236152333187816D+00
      2   0.329142126559735D+00  0.986678991634204D-02
      3   0.217226677453429D+00  0.790776451937834D-01  0.112261486666164D+01
      4   0.278464754160278D-01  0.338577660964072D+00  0.512346296747502D-01  0.111362148286945D+01
 HF Fock matrix (alpha, imaginary):
                1             2             3             4 
      1   0.000000000000000D+00
      2  -0.000000000000000D+00  0.000000000000000D+00
      3  -0.000000000000000D+00 -0.000000000000000D+00  0.000000000000000D+00
      4  -0.000000000000000D+00 -0.000000000000000D+00 -0.000000000000000D+00  0.000000000000000D+00
 HF Fock matrix (beta, real):
                1             2             3             4 
      1  -0.236152333187816D+00
      2  -0.329142126559735D+00  0.986678991634227D-02
      3   0.217226677453430D+00 -0.790776451937820D-01  0.112261486666164D+01
      4  -0.278464754160283D-01  0.338577660964072D+00 -0.512346296747521D-01  0.111362148286945D+01
 HF Fock matrix (beta, imaginary):
                1             2             3             4 
      1   0.000000000000000D+00
      2  -0.000000000000000D+00  0.000000000000000D+00
      3  -0.000000000000000D+00 -0.000000000000000D+00  0.000000000000000D+00
      4  -0.000000000000000D+00 -0.000000000000000D+00 -0.000000000000000D+00  0.000000000000000D+00
 
Start hfdmdg: find NO basis
  
 density matrix (NO) (real):
                 1             2             3             4             5 
      1   0.100000000000000D+01  0.000000000000000D+00  0.000000000000000D+00  0.000000000000000D+00  0.000000000000000D+00
      2   0.000000000000000D+00  0.999999999999999D+00  0.000000000000000D+00  0.000000000000000D+00  0.000000000000000D+00
      3   0.000000000000000D+00  0.000000000000000D+00  0.000000000000000D+00  0.000000000000000D+00  0.000000000000000D+00
      4   0.000000000000000D+00  0.000000000000000D+00  0.000000000000000D+00  0.000000000000000D+00  0.000000000000000D+00
      5   0.000000000000000D+00  0.000000000000000D+00  0.000000000000000D+00  0.000000000000000D+00  0.000000000000000D+00
      6   0.000000000000000D+00  0.000000000000000D+00  0.000000000000000D+00  0.000000000000000D+00  0.000000000000000D+00
      7   0.000000000000000D+00  0.000000000000000D+00  0.000000000000000D+00  0.000000000000000D+00  0.000000000000000D+00
      8   0.000000000000000D+00  0.000000000000000D+00  0.000000000000000D+00  0.000000000000000D+00  0.000000000000000D+00
                 6             7             8 
      1   0.000000000000000D+00  0.000000000000000D+00  0.000000000000000D+00
      2   0.000000000000000D+00  0.000000000000000D+00  0.000000000000000D+00
      3   0.000000000000000D+00  0.000000000000000D+00  0.000000000000000D+00
      4   0.000000000000000D+00  0.000000000000000D+00  0.000000000000000D+00
      5   0.000000000000000D+00  0.000000000000000D+00  0.000000000000000D+00
      6   0.000000000000000D+00  0.000000000000000D+00  0.000000000000000D+00
      7   0.000000000000000D+00  0.000000000000000D+00  0.000000000000000D+00
      8   0.000000000000000D+00  0.000000000000000D+00  0.000000000000000D+00
 density matrix (NO) (imaginary):
                 1             2             3             4             5 
      1   0.000000000000000D+00  0.000000000000000D+00  0.000000000000000D+00  0.000000000000000D+00  0.000000000000000D+00
      2   0.000000000000000D+00  0.000000000000000D+00  0.000000000000000D+00  0.000000000000000D+00  0.000000000000000D+00
      3   0.000000000000000D+00  0.000000000000000D+00  0.000000000000000D+00  0.000000000000000D+00  0.000000000000000D+00
      4   0.000000000000000D+00  0.000000000000000D+00  0.000000000000000D+00  0.000000000000000D+00  0.000000000000000D+00
      5   0.000000000000000D+00  0.000000000000000D+00  0.000000000000000D+00  0.000000000000000D+00  0.000000000000000D+00
      6   0.000000000000000D+00  0.000000000000000D+00  0.000000000000000D+00  0.000000000000000D+00  0.000000000000000D+00
      7   0.000000000000000D+00  0.000000000000000D+00  0.000000000000000D+00  0.000000000000000D+00  0.000000000000000D+00
      8   0.000000000000000D+00  0.000000000000000D+00  0.000000000000000D+00  0.000000000000000D+00  0.000000000000000D+00
                 6             7             8 
      1   0.000000000000000D+00  0.000000000000000D+00  0.000000000000000D+00
      2   0.000000000000000D+00  0.000000000000000D+00  0.000000000000000D+00
      3   0.000000000000000D+00  0.000000000000000D+00  0.000000000000000D+00
      4   0.000000000000000D+00  0.000000000000000D+00  0.000000000000000D+00
      5   0.000000000000000D+00  0.000000000000000D+00  0.000000000000000D+00
      6   0.000000000000000D+00  0.000000000000000D+00  0.000000000000000D+00
      7   0.000000000000000D+00  0.000000000000000D+00  0.000000000000000D+00
      8   0.000000000000000D+00  0.000000000000000D+00  0.000000000000000D+00
 
Start formng/pg
 
Start formgg

 Symmetry not used in FoFDir.
 MinBra= 0 MaxBra= 0 Meth= 1.
 IRaf=       1 NMat=  64 IRICut=       1 DoRegI=T DoRafI=F ISym2E= 0 JSym2E=0.
 PrsmSu:  NPrtUS=   1 ThrOK=F IAlg=1 NPAlg=1 LenDen=           0.
 Prism:   IPart=     0 DynPar=F LinDyn=F Incr=           1.
 PRISM was handed   536866103 working-precision words and    10 shell-pairs
 IPart=  0 NShTot=          55 NBatch=          10 AvBLen=         5.5
 PrSmSu:  NxtVal=              2.
 
Start evalsmt/hmt
 Smt (real):
                 1 
      1   0.108250205115629D+01
 Smt (imaginary):
                 1 
      1   0.000000000000000D+00
 Hmt (real):
                 1 
      1  -0.137968511767555D+01
 Hmt (imaginary):
                 1 
      1   0.000000000000000D+00
 
Form Fock eff
ifsel =     2, useproj    T
  
 Effective Fock (alpha, real):
                1             2             3             4 
      1  -0.230846616320034D+00
      2   0.331819702650164D+00  0.303668933883144D-02
      3   0.223659299429676D+00  0.736181760663052D-01  0.112114999896788D+01
      4   0.396670966485918D-01  0.330722706299833D+00  0.508597367321916D-01  0.111661073427294D+01
 Effective Fock (alpha, imaginary):
                1             2             3             4 
      1   0.000000000000000D+00
      2  -0.000000000000000D+00  0.000000000000000D+00
      3  -0.000000000000000D+00 -0.000000000000000D+00  0.000000000000000D+00
      4  -0.000000000000000D+00 -0.000000000000000D+00 -0.000000000000000D+00  0.000000000000000D+00
 Effective Fock (beta, real):
                1             2             3             4 
      1  -0.230846616320034D+00
      2  -0.331819702650164D+00  0.303668933883119D-02
      3   0.223659299429677D+00 -0.736181760663034D-01  0.112114999896788D+01
      4  -0.396670966485926D-01  0.330722706299833D+00 -0.508597367321934D-01  0.111661073427294D+01
 Effective Fock (beta, imaginary):
                1             2             3             4 
      1   0.000000000000000D+00
      2  -0.000000000000000D+00  0.000000000000000D+00
      3  -0.000000000000000D+00 -0.000000000000000D+00  0.000000000000000D+00
      4  -0.000000000000000D+00 -0.000000000000000D+00 -0.000000000000000D+00  0.000000000000000D+00
 
Diag Fock

 Fock eigenvalues (alpha):
      orbital --                 1                2                3                4
       energy --    -4.9463350D-01    1.2188633D-01    1.0988204D+00    1.2838776D+00

 Fock eigenvalues (beta):
[...]
      3   0.217223387991879D+00  0.791337074544253D-01  0.112265467233425D+01
      4   0.279227754770374D-01  0.338558700213604D+00  0.512505830518281D-01  0.111366188001635D+01
 HF Fock matrix (alpha, imaginary):
                1             2             3             4 
      1   0.000000000000000D+00
      2  -0.000000000000000D+00  0.000000000000000D+00
      3  -0.000000000000000D+00 -0.000000000000000D+00  0.000000000000000D+00
      4  -0.000000000000000D+00 -0.000000000000000D+00 -0.000000000000000D+00  0.000000000000000D+00
 HF Fock matrix (beta, real):
                1             2             3             4 
      1  -0.236126669571506D+00
      2  -0.329186095124098D+00  0.989952392704796D-02
      3   0.217223387991879D+00 -0.791337074544240D-01  0.112265467233425D+01
      4  -0.279227754770380D-01  0.338558700213604D+00 -0.512505830518295D-01  0.111366188001635D+01
 HF Fock matrix (beta, imaginary):
                1             2             3             4 
      1   0.000000000000000D+00
      2  -0.000000000000000D+00  0.000000000000000D+00
      3  -0.000000000000000D+00 -0.000000000000000D+00  0.000000000000000D+00
      4  -0.000000000000000D+00 -0.000000000000000D+00 -0.000000000000000D+00  0.000000000000000D+00
 
Start hfdmdg: find NO basis
  
 density matrix (NO) (real):
                 1             2             3             4             5 
      1   0.100000000000000D+01  0.000000000000000D+00  0.000000000000000D+00  0.000000000000000D+00  0.000000000000000D+00
      2   0.000000000000000D+00  0.100000000000000D+01  0.000000000000000D+00  0.000000000000000D+00  0.000000000000000D+00
      3   0.000000000000000D+00  0.000000000000000D+00  0.000000000000000D+00  0.000000000000000D+00  0.000000000000000D+00
      4   0.000000000000000D+00  0.000000000000000D+00  0.000000000000000D+00  0.000000000000000D+00  0.000000000000000D+00
      5   0.000000000000000D+00  0.000000000000000D+00  0.000000000000000D+00  0.000000000000000D+00  0.000000000000000D+00
      6   0.000000000000000D+00  0.000000000000000D+00  0.000000000000000D+00  0.000000000000000D+00  0.000000000000000D+00
      7   0.000000000000000D+00  0.000000000000000D+00  0.000000000000000D+00  0.000000000000000D+00  0.000000000000000D+00
      8   0.000000000000000D+00  0.000000000000000D+00  0.000000000000000D+00  0.000000000000000D+00  0.000000000000000D+00
                 6             7             8 
      1   0.000000000000000D+00  0.000000000000000D+00  0.000000000000000D+00
      2   0.000000000000000D+00  0.000000000000000D+00  0.000000000000000D+00
      3   0.000000000000000D+00  0.000000000000000D+00  0.000000000000000D+00
      4   0.000000000000000D+00  0.000000000000000D+00  0.000000000000000D+00
      5   0.000000000000000D+00  0.000000000000000D+00  0.000000000000000D+00
      6   0.000000000000000D+00  0.000000000000000D+00  0.000000000000000D+00
      7   0.000000000000000D+00  0.000000000000000D+00  0.000000000000000D+00
      8   0.000000000000000D+00  0.000000000000000D+00  0.000000000000000D+00
 density matrix (NO) (imaginary):
                 1             2             3             4             5 
      1   0.000000000000000D+00  0.000000000000000D+00  0.000000000000000D+00  0.000000000000000D+00  0.000000000000000D+00
      2   0.000000000000000D+00  0.000000000000000D+00  0.000000000000000D+00  0.000000000000000D+00  0.000000000000000D+00
      3   0.000000000000000D+00  0.000000000000000D+00  0.000000000000000D+00  0.000000000000000D+00  0.000000000000000D+00
      4   0.000000000000000D+00  0.000000000000000D+00  0.000000000000000D+00  0.000000000000000D+00  0.000000000000000D+00
      5   0.000000000000000D+00  0.000000000000000D+00  0.000000000000000D+00  0.000000000000000D+00  0.000000000000000D+00
      6   0.000000000000000D+00  0.000000000000000D+00  0.000000000000000D+00  0.000000000000000D+00  0.000000000000000D+00
      7   0.000000000000000D+00  0.000000000000000D+00  0.000000000000000D+00  0.000000000000000D+00  0.000000000000000D+00
      8   0.000000000000000D+00  0.000000000000000D+00  0.000000000000000D+00  0.000000000000000D+00  0.000000000000000D+00
                 6             7             8 
      1   0.000000000000000D+00  0.000000000000000D+00  0.000000000000000D+00
      2   0.000000000000000D+00  0.000000000000000D+00  0.000000000000000D+00
      3   0.000000000000000D+00  0.000000000000000D+00  0.000000000000000D+00
      4   0.000000000000000D+00  0.000000000000000D+00  0.000000000000000D+00
      5   0.000000000000000D+00  0.000000000000000D+00  0.000000000000000D+00
      6   0.000000000000000D+00  0.000000000000000D+00  0.000000000000000D+00
      7   0.000000000000000D+00  0.000000000000000D+00  0.000000000000000D+00
      8   0.000000000000000D+00  0.000000000000000D+00  0.000000000000000D+00
 
Start formng/pg
 
Start formgg

 Symmetry not used in FoFDir.
 MinBra= 0 MaxBra= 0 Meth= 1.
 IRaf=       1 NMat=  64 IRICut=       1 DoRegI=T DoRafI=F ISym2E= 0 JSym2E=0.
 PrsmSu:  NPrtUS=   1 ThrOK=F IAlg=1 NPAlg=1 LenDen=           0.
 Prism:   IPart=     0 DynPar=F LinDyn=F Incr=           1.
 PRISM was handed   536866103 working-precision words and    10 shell-pairs
 IPart=  0 NShTot=          55 NBatch=          10 AvBLen=         5.5
 PrSmSu:  NxtVal=              2.
 
Start evalsmt/hmt
 Smt (real):
                 1 
      1   0.108254071184056D+01
 Smt (imaginary):
                 1 
      1   0.000000000000000D+00
 Hmt (real):
                 1 
      1  -0.137973446616051D+01
 Hmt (imaginary):
                 1 
      1   0.000000000000000D+00
 
Form Fock eff
ifsel =     2, useproj    T
  
 Effective Fock (alpha, real):
                1             2             3             4 
      1  -0.230816695052211D+00
      2   0.331870760989848D+00  0.305688280224908D-02
      3   0.223661447673252D+00  0.736696213913200D-01  0.112118939061675D+01
      4   0.397982250930955D-01  0.330663227126903D+00  0.508694097291703D-01  0.111665982833936D+01
 Effective Fock (alpha, imaginary):
                1             2             3             4 
      1   0.000000000000000D+00
      2  -0.000000000000000D+00  0.000000000000000D+00
      3  -0.000000000000000D+00 -0.000000000000000D+00  0.000000000000000D+00
      4  -0.000000000000000D+00 -0.000000000000000D+00 -0.000000000000000D+00  0.000000000000000D+00
 Effective Fock (beta, real):
                1             2             3             4 
      1  -0.230816695052211D+00
      2  -0.331870760989848D+00  0.305688280224903D-02
      3   0.223661447673253D+00 -0.736696213913185D-01  0.112118939061675D+01
      4  -0.397982250930965D-01  0.330663227126903D+00 -0.508694097291717D-01  0.111665982833936D+01
 Effective Fock (beta, imaginary):
                1             2             3             4 
      1   0.000000000000000D+00
      2  -0.000000000000000D+00  0.000000000000000D+00
      3  -0.000000000000000D+00 -0.000000000000000D+00  0.000000000000000D+00
      4  -0.000000000000000D+00 -0.000000000000000D+00 -0.000000000000000D+00  0.000000000000000D+00
 
Diag Fock

 Fock eigenvalues (alpha):
      orbital --                 1                2                3                4
       energy --    -4.9462081D-01    1.2192774D-01    1.0988238D+00    1.2839587D+00

 Fock eigenvalues (beta):
      orbital --                 1                2                3                4
       energy --    -4.9462081D-01    1.2192774D-01    1.0988238D+00    1.2839587D+00

 *** cycle =   16 ***

        E =      -1.009944954646      DE =      -0.000000000000
      Hsp =      -1.560113923753     Hph =       0.285580364813
   <S**2> =       0.000000000000
    RMSDP =       1.5944D-08        MaxP =       3.4211D-08

   E (HF) =      -0.996562754248

 ********************

*********  Start Cycle 17  *************
  
 HF density matrix (alpha, real):
                1             2             3             4 
      1   0.636104816031875D+00
      2  -0.468868539587222D+00  0.345599816058677D+00
      3  -0.692763490043288D-01  0.510631263385479D-01  0.754468825013437D-02
      4   0.826955809394022D-01 -0.609543510568729D-01 -0.900613826823578D-02  0.107506796593135D-01
 HF density matrix (alpha, imaginary):
                1             2             3             4 
      1   0.000000000000000D+00
      2  -0.000000000000000D+00  0.000000000000000D+00
      3  -0.000000000000000D+00 -0.000000000000000D+00  0.000000000000000D+00
      4  -0.000000000000000D+00 -0.000000000000000D+00 -0.000000000000000D+00  0.000000000000000D+00
 HF density matrix (beta, real):
                1             2             3             4 
      1   0.636104816031875D+00
      2   0.468868539587222D+00  0.345599816058677D+00
      3  -0.692763490043294D-01 -0.510631263385483D-01  0.754468825013450D-02
      4  -0.826955809394020D-01 -0.609543510568727D-01  0.900613826823583D-02  0.107506796593134D-01
 HF density matrix (beta, imaginary):
                1             2             3             4 
      1   0.000000000000000D+00
      2  -0.000000000000000D+00  0.000000000000000D+00
      3  -0.000000000000000D+00 -0.000000000000000D+00  0.000000000000000D+00
      4  -0.000000000000000D+00 -0.000000000000000D+00 -0.000000000000000D+00  0.000000000000000D+00
 
Start hffock
  
 Core Hamiltonian (real):
                 1             2             3             4 
      1  -0.796723338707556D+00  0.000000000000000D+00  0.103743642994694D+00  0.000000000000000D+00
      2   0.000000000000000D+00 -0.658935382448063D+00  0.000000000000000D+00  0.196745567553556D+00
      3   0.103743642994694D+00  0.000000000000000D+00  0.306544663647526D+00  0.000000000000000D+00
      4   0.000000000000000D+00  0.196745567553556D+00  0.000000000000000D+00  0.376081196492739D+00
 Core Hamiltonian (imaginary):
                 1             2             3             4 
      1   0.000000000000000D+00  0.000000000000000D+00  0.000000000000000D+00  0.000000000000000D+00
      2   0.000000000000000D+00  0.000000000000000D+00  0.000000000000000D+00  0.000000000000000D+00
      3   0.000000000000000D+00  0.000000000000000D+00  0.000000000000000D+00  0.000000000000000D+00
      4   0.000000000000000D+00  0.000000000000000D+00  0.000000000000000D+00  0.000000000000000D+00

 Symmetry not used in FoFDir.
 MinBra= 0 MaxBra= 0 Meth= 1.
 IRaf=       1 NMat=   2 IRICut=       1 DoRegI=T DoRafI=F ISym2E= 0 JSym2E=0.
 PrsmSu:  NPrtUS=   1 ThrOK=F IAlg=1 NPAlg=1 LenDen=           0.
 Prism:   IPart=     0 DynPar=F LinDyn=F Incr=           1.
 PRISM was handed   536868987 working-precision words and    10 shell-pairs
 IPart=  0 NShTot=          55 NBatch=          10 AvBLen=         5.5
 PrSmSu:  NxtVal=              2.
  
 HF Fock matrix (alpha, real):
                1             2             3             4 
      1  -0.236126663728708D+00
      2   0.329186105070226D+00  0.989953124822640D-02
      3   0.217223387272787D+00  0.791337200755984D-01  0.112265468129110D+01
      4   0.279227926996458D-01  0.338558695927526D+00  0.512505866509930D-01  0.111366188911436D+01
 HF Fock matrix (alpha, imaginary):
                1             2             3             4 
      1   0.000000000000000D+00
      2  -0.000000000000000D+00  0.000000000000000D+00
      3  -0.000000000000000D+00 -0.000000000000000D+00  0.000000000000000D+00
      4  -0.000000000000000D+00 -0.000000000000000D+00 -0.000000000000000D+00  0.000000000000000D+00
 HF Fock matrix (beta, real):
                1             2             3             4 
      1  -0.236126663728707D+00
      2  -0.329186105070226D+00  0.989953124822673D-02
      3   0.217223387272788D+00 -0.791337200755973D-01  0.112265468129110D+01
      4  -0.279227926996464D-01  0.338558695927526D+00 -0.512505866509950D-01  0.111366188911436D+01
 HF Fock matrix (beta, imaginary):
                1             2             3             4 
      1   0.000000000000000D+00
      2  -0.000000000000000D+00  0.000000000000000D+00
      3  -0.000000000000000D+00 -0.000000000000000D+00  0.000000000000000D+00
      4  -0.000000000000000D+00 -0.000000000000000D+00 -0.000000000000000D+00  0.000000000000000D+00
 
Start hfdmdg: find NO basis
  
 density matrix (NO) (real):
                 1             2             3             4             5 
      1   0.100000000000000D+01  0.000000000000000D+00  0.000000000000000D+00  0.000000000000000D+00  0.000000000000000D+00
      2   0.000000000000000D+00  0.100000000000000D+01  0.000000000000000D+00  0.000000000000000D+00  0.000000000000000D+00
      3   0.000000000000000D+00  0.000000000000000D+00  0.000000000000000D+00  0.000000000000000D+00  0.000000000000000D+00
      4   0.000000000000000D+00  0.000000000000000D+00  0.000000000000000D+00  0.000000000000000D+00  0.000000000000000D+00
      5   0.000000000000000D+00  0.000000000000000D+00  0.000000000000000D+00  0.000000000000000D+00  0.000000000000000D+00
      6   0.000000000000000D+00  0.000000000000000D+00  0.000000000000000D+00  0.000000000000000D+00  0.000000000000000D+00
      7   0.000000000000000D+00  0.000000000000000D+00  0.000000000000000D+00  0.000000000000000D+00  0.000000000000000D+00
      8   0.000000000000000D+00  0.000000000000000D+00  0.000000000000000D+00  0.000000000000000D+00  0.000000000000000D+00
                 6             7             8 
      1   0.000000000000000D+00  0.000000000000000D+00  0.000000000000000D+00
      2   0.000000000000000D+00  0.000000000000000D+00  0.000000000000000D+00
      3   0.000000000000000D+00  0.000000000000000D+00  0.000000000000000D+00
      4   0.000000000000000D+00  0.000000000000000D+00  0.000000000000000D+00
      5   0.000000000000000D+00  0.000000000000000D+00  0.000000000000000D+00
      6   0.000000000000000D+00  0.000000000000000D+00  0.000000000000000D+00
      7   0.000000000000000D+00  0.000000000000000D+00  0.000000000000000D+00
      8   0.000000000000000D+00  0.000000000000000D+00  0.000000000000000D+00
 density matrix (NO) (imaginary):
                 1             2             3             4             5 
      1   0.000000000000000D+00  0.000000000000000D+00  0.000000000000000D+00  0.000000000000000D+00  0.000000000000000D+00
      2   0.000000000000000D+00  0.000000000000000D+00  0.000000000000000D+00  0.000000000000000D+00  0.000000000000000D+00
      3   0.000000000000000D+00  0.000000000000000D+00  0.000000000000000D+00  0.000000000000000D+00  0.000000000000000D+00
      4   0.000000000000000D+00  0.000000000000000D+00  0.000000000000000D+00  0.000000000000000D+00  0.000000000000000D+00
      5   0.000000000000000D+00  0.000000000000000D+00  0.000000000000000D+00  0.000000000000000D+00  0.000000000000000D+00
      6   0.000000000000000D+00  0.000000000000000D+00  0.000000000000000D+00  0.000000000000000D+00  0.000000000000000D+00
      7   0.000000000000000D+00  0.000000000000000D+00  0.000000000000000D+00  0.000000000000000D+00  0.000000000000000D+00
      8   0.000000000000000D+00  0.000000000000000D+00  0.000000000000000D+00  0.000000000000000D+00  0.000000000000000D+00
                 6             7             8 
      1   0.000000000000000D+00  0.000000000000000D+00  0.000000000000000D+00
      2   0.000000000000000D+00  0.000000000000000D+00  0.000000000000000D+00
      3   0.000000000000000D+00  0.000000000000000D+00  0.000000000000000D+00
      4   0.000000000000000D+00  0.000000000000000D+00  0.000000000000000D+00
      5   0.000000000000000D+00  0.000000000000000D+00  0.000000000000000D+00
      6   0.000000000000000D+00  0.000000000000000D+00  0.000000000000000D+00
      7   0.000000000000000D+00  0.000000000000000D+00  0.000000000000000D+00
      8   0.000000000000000D+00  0.000000000000000D+00  0.000000000000000D+00
 
Start formng/pg
 
Start formgg

 Symmetry not used in FoFDir.
 MinBra= 0 MaxBra= 0 Meth= 1.
 IRaf=       1 NMat=  64 IRICut=       1 DoRegI=T DoRafI=F ISym2E= 0 JSym2E=0.
 PrsmSu:  NPrtUS=   1 ThrOK=F IAlg=1 NPAlg=1 LenDen=           0.
 Prism:   IPart=     0 DynPar=F LinDyn=F Incr=           1.
 PRISM was handed   536866103 working-precision words and    10 shell-pairs
 IPart=  0 NShTot=          55 NBatch=          10 AvBLen=         5.5
 PrSmSu:  NxtVal=              2.
 
Start evalsmt/hmt
 Smt (real):
                 1 
      1   0.108254072032187D+01
 Smt (imaginary):
                 1 
      1   0.000000000000000D+00
 Hmt (real):
                 1 
      1  -0.137973447697023D+01
 Hmt (imaginary):
                 1 
      1   0.000000000000000D+00
 
Form Fock eff
ifsel =     2, useproj    T
  
 Effective Fock (alpha, real):
                1             2             3             4 
      1  -0.230816688359139D+00
      2   0.331870772501456D+00  0.305688739957830D-02
      3   0.223661448135383D+00  0.736696330133776D-01  0.112118939948888D+01
      4   0.397982546895363D-01  0.330663213676945D+00  0.508694119015594D-01  0.111665983939566D+01
 Effective Fock (alpha, imaginary):
                1             2             3             4 
      1   0.000000000000000D+00
      2  -0.000000000000000D+00  0.000000000000000D+00
      3  -0.000000000000000D+00 -0.000000000000000D+00  0.000000000000000D+00
      4  -0.000000000000000D+00 -0.000000000000000D+00 -0.000000000000000D+00  0.000000000000000D+00
 Effective Fock (beta, real):
                1             2             3             4 
      1  -0.230816688359138D+00
      2  -0.331870772501456D+00  0.305688739957879D-02
      3   0.223661448135383D+00 -0.736696330133767D-01  0.112118939948888D+01
      4  -0.397982546895369D-01  0.330663213676945D+00 -0.508694119015613D-01  0.111665983939566D+01
 Effective Fock (beta, imaginary):
                1             2             3             4 
      1   0.000000000000000D+00
      2  -0.000000000000000D+00  0.000000000000000D+00
      3  -0.000000000000000D+00 -0.000000000000000D+00  0.000000000000000D+00
      4  -0.000000000000000D+00 -0.000000000000000D+00 -0.000000000000000D+00  0.000000000000000D+00
 
Diag Fock

 Fock eigenvalues (alpha):
      orbital --                 1                2                3                4
       energy --    -4.9462081D-01    1.2192775D-01    1.0988238D+00    1.2839587D+00

 Fock eigenvalues (beta):
      orbital --                 1                2                3                4
       energy --    -4.9462081D-01    1.2192775D-01    1.0988238D+00    1.2839587D+00

 *** cycle =   17 ***

        E =      -1.009944954646      DE =      -0.000000000000
      Hsp =      -1.560113926476     Hph =       0.285580367535
   <S**2> =       0.000000000000
    RMSDP =       7.3225D-09        MaxP =       1.5712D-08

   E (HF) =      -0.996562752096

 ********************


 *** SCF Done after   17 cycles ***

        E =      -1.009944954646    conv =           7.3225E-09
      Hsp =      -1.560113926476     Hph =       0.285580367535
   <S**2> =       0.000000000000

 **********************************


 PHF SCF - quitting the program

 Leave Link  530 at Sat Dec 19 17:16:41 2020, MaxMem=  536870912 cpu:       0.1
 (Enter /share/home/srwang/g09/l9999.exe)

 Test job not archived.
 1\1\GINC-XN01\SP\CUHF\3-21G\H2\SRWANG\19-Dec-2020\0\\#p uhf/3-21g nosy
 mm guess=mix scf=conver=4 # extralink=l530 iop(5/206=6, 5/207=4, 5/216
 =0) pop=none\\title\\0,1\H,0,0.,0.,0.\H,0,0.,0.,2.\\Version=EM64L-G09R
 evC.01\HF=-1.009945\S2=0.\S2-1=0.\S2A=0.\RMSD=7.323e-09\PG=D*H [C*(H1.
 H1)]\\@


 THE TRULY SUCCESSFUL PERFORMANCE OF RESEARCHES IN
 INORGANIC CHEMISTRY IS POSSIBLE ONLY TO ONE WHO IS NOT
 ONLY A THEORETICAL CHEMIST, BUT ALSO AN ACCOMPLISHED
 ANALYST AND, MOREOVER, NOT MERELY A PRACTICALLY TRAINED,
 MECHANICAL WORKER, BUT A THINKING CREATIVE ARTIST.
   --  CLEMENS WINKLER, BER. 33, 1697(1900)
 Job cpu time:  0 days  0 hours  0 minutes  0.6 seconds.
 File lengths (MBytes):  RWF=      9 Int=      0 D2E=      0 Chk=      2 Scr=      1
 Normal termination of Gaussian 09 at Sat Dec 19 17:16:41 2020.
