 Entering Gaussian System, Link 0=g09
 Input=test_n2_omp.gjf
 Output=test_n2_omp.log
 Initial command:
 /share/apps/gaussian/G09C01Z/srwang-mod-2020/g09/l1.exe /scratch/scr/srwang/gau/Gau-2168.inp -scrdir=/scratch/scr/srwang/gau/
 Entering Link 1 = /share/apps/gaussian/G09C01Z/srwang-mod-2020/g09/l1.exe PID=      2169.
  
 Copyright (c) 1988,1990,1992,1993,1995,1998,2003,2009,2011,
            Gaussian, Inc.  All Rights Reserved.
  
 This is part of the Gaussian(R) 09 program.  It is based on
 the Gaussian(R) 03 system (copyright 2003, Gaussian, Inc.),
 the Gaussian(R) 98 system (copyright 1998, Gaussian, Inc.),
 the Gaussian(R) 94 system (copyright 1995, Gaussian, Inc.),
 the Gaussian 92(TM) system (copyright 1992, Gaussian, Inc.),
 the Gaussian 90(TM) system (copyright 1990, Gaussian, Inc.),
 the Gaussian 88(TM) system (copyright 1988, Gaussian, Inc.),
 the Gaussian 86(TM) system (copyright 1986, Carnegie Mellon
 University), and the Gaussian 82(TM) system (copyright 1983,
 Carnegie Mellon University). Gaussian is a federally registered
 trademark of Gaussian, Inc.
  
 This software contains proprietary and confidential information,
 including trade secrets, belonging to Gaussian, Inc.
  
 This software is provided under written license and may be
 used, copied, transmitted, or stored only in accord with that
 written license.
  
 The following legend is applicable only to US Government
 contracts under FAR:
  
                    RESTRICTED RIGHTS LEGEND
  
 Use, reproduction and disclosure by the US Government is
 subject to restrictions as set forth in subparagraphs (a)
 and (c) of the Commercial Computer Software - Restricted
 Rights clause in FAR 52.227-19.
  
 Gaussian, Inc.
 340 Quinnipiac St., Bldg. 40, Wallingford CT 06492
  
  
 ---------------------------------------------------------------
 Warning -- This program may not be used in any manner that
 competes with the business of Gaussian, Inc. or will provide
 assistance to any competitor of Gaussian, Inc.  The licensee
 of this program is prohibited from giving any competitor of
 Gaussian, Inc. access to this program.  By using this program,
 the user acknowledges that Gaussian, Inc. is engaged in the
 business of creating and licensing software in the field of
 computational chemistry and represents and warrants to the
 licensee that it is not a competitor of Gaussian, Inc. and that
 it will not use this program in any manner prohibited above.
 ---------------------------------------------------------------
  

 Cite this work as:
 Gaussian 09, Revision C.01,
 M. J. Frisch, G. W. Trucks, H. B. Schlegel, G. E. Scuseria, 
 M. A. Robb, J. R. Cheeseman, G. Scalmani, V. Barone, B. Mennucci, 
 G. A. Petersson, H. Nakatsuji, M. Caricato, X. Li, H. P. Hratchian, 
 A. F. Izmaylov, J. Bloino, G. Zheng, J. L. Sonnenberg, M. Hada, 
 M. Ehara, K. Toyota, R. Fukuda, J. Hasegawa, M. Ishida, T. Nakajima, 
 Y. Honda, O. Kitao, H. Nakai, T. Vreven, J. A. Montgomery, Jr., 
 J. E. Peralta, F. Ogliaro, M. Bearpark, J. J. Heyd, E. Brothers, 
 K. N. Kudin, V. N. Staroverov, T. Keith, R. Kobayashi, J. Normand, 
 K. Raghavachari, A. Rendell, J. C. Burant, S. S. Iyengar, J. Tomasi, 
 M. Cossi, N. Rega, J. M. Millam, M. Klene, J. E. Knox, J. B. Cross, 
 V. Bakken, C. Adamo, J. Jaramillo, R. Gomperts, R. E. Stratmann, 
 O. Yazyev, A. J. Austin, R. Cammi, C. Pomelli, J. W. Ochterski, 
 R. L. Martin, K. Morokuma, V. G. Zakrzewski, G. A. Voth, 
 P. Salvador, J. J. Dannenberg, S. Dapprich, A. D. Daniels, 
 O. Farkas, J. B. Foresman, J. V. Ortiz, J. Cioslowski, 
 and D. J. Fox, Gaussian, Inc., Wallingford CT, 2010.
 
 ******************************************
 Gaussian 09:  EM64L-G09RevC.01 23-Sep-2011
                21-Dec-2020 
 ******************************************
 %subst l530 ../../phf
 %nproc=4
 Will use up to    4 processors via shared memory.
 %mem=4GB
 %oldchk=../scan_n2/uhf-1.30.chk
 %chk=test_n2.chk
 Copying data from "../scan_n2/uhf-1.30.chk" to current chk file "test_n2.chk".
 ----------------------------------------------------------------------
 #p uhf/cc-pvdz nosymm guess=read scf=conver=4 # extralink=l530 iop(5/2
 06=6, 5/207=4, 5/216=1, 5/218=100) pop=none
 ----------------------------------------------------------------------
 1/38=1/1;
 2/12=2,15=1,17=6,18=5,40=1/2;
 3/5=16,11=2,16=1,25=1,30=1,116=2/1,2,3;
 4/5=1/1;
 5/5=2,6=4,38=6,206=6,207=4,216=1,218=100/2,30;
 99/5=1,9=1/99;
 Leave Link    1 at Mon Dec 21 12:56:29 2020, MaxMem=  536870912 cpu:       0.3
 (Enter /share/apps/gaussian/G09C01Z/srwang-mod-2020/g09/l101.exe)
 -----
 title
 -----
 Charge =  0 Multiplicity = 1
 Symbolic Z-Matrix:
 N                     0.        0.        0. 
 N                     0.        0.        0.9 
 
 NAtoms=      2 NQM=        0 NQMF=       0 NMMI=      2 NMMIF=      0
                NMic=       0 NMicF=      0.
                    Isotopes and Nuclear Properties:
 (Nuclear quadrupole moments (NQMom) in fm**2, nuclear magnetic moments (NMagM)
  in nuclear magnetons)

  Atom         1           2
 IAtWgt=          14          14
 AtmWgt=  14.0030740  14.0030740
 NucSpn=           2           2
 AtZEff=   0.0000000   0.0000000
 NQMom=    2.0440000   2.0440000
 NMagM=    0.4037610   0.4037610
 Leave Link  101 at Mon Dec 21 12:56:29 2020, MaxMem=  536870912 cpu:       0.2
 (Enter /share/apps/gaussian/G09C01Z/srwang-mod-2020/g09/l202.exe)
                          Input orientation:                          
 ---------------------------------------------------------------------
 Center     Atomic      Atomic             Coordinates (Angstroms)
 Number     Number       Type             X           Y           Z
 ---------------------------------------------------------------------
      1          7           0        0.000000    0.000000    0.000000
      2          7           0        0.000000    0.000000    0.900000
 ---------------------------------------------------------------------
 Symmetry turned off by external request.
 Stoichiometry    N2
 Framework group  D*H[C*(N.N)]
 Deg. of freedom     1
 Full point group                 D*H     NOp   8
 Rotational constants (GHZ):      0.0000000     89.1125330     89.1125330
 Leave Link  202 at Mon Dec 21 12:56:30 2020, MaxMem=  536870912 cpu:       0.0
 (Enter /share/apps/gaussian/G09C01Z/srwang-mod-2020/g09/l301.exe)
 Standard basis: CC-pVDZ (5D, 7F)
 Ernie: Thresh=  0.10000D-02 Tol=  0.10000D-05 Strict=F.
 Ernie:  4 primitive shells out of 44 were deleted.
 Integral buffers will be    131072 words long.
 Raffenetti 2 integral format.
 Two-electron integral symmetry is turned off.
    28 basis functions,    66 primitive gaussians,    30 cartesian basis functions
     7 alpha electrons        7 beta electrons
       nuclear repulsion energy        28.8107591343 Hartrees.
 IExCor=    0 DFT=F Ex=HF Corr=None ExCW=0 ScaHFX=  1.000000
 ScaDFX=  1.000000  1.000000  1.000000  1.000000 ScalE2=  1.000000  1.000000
 IRadAn=      0 IRanWt=     -1 IRanGd=            0 ICorTp=0
 NAtoms=    2 NActive=    2 NUniq=    2 SFac= 1.00D+00 NAtFMM=   60 NAOKFM=F Big=F
 Leave Link  301 at Mon Dec 21 12:56:30 2020, MaxMem=  536870912 cpu:       0.2
 (Enter /share/apps/gaussian/G09C01Z/srwang-mod-2020/g09/l302.exe)
 NPDir=0 NMtPBC=     1 NCelOv=     1 NCel=       1 NClECP=     1 NCelD=      1
         NCelK=      1 NCelE2=     1 NClLst=     1 CellRange=     0.0.
 One-electron integrals computed using PRISM.
 Bad symmetry data in SVDSVc:  NBasis=   28 NT=   28 NBlks=1 MaxCmp=1 NBF=   28
 NBasis=    28 RedAO= T  NBF=    28
 NBsUse=    28 1.00D-06 NBFU=    28
 Leave Link  302 at Mon Dec 21 12:56:30 2020, MaxMem=  536870912 cpu:       0.3
 (Enter /share/apps/gaussian/G09C01Z/srwang-mod-2020/g09/l303.exe)
 DipDrv:  MaxL=1.
 Leave Link  303 at Mon Dec 21 12:56:30 2020, MaxMem=  536870912 cpu:       0.1
 (Enter /share/apps/gaussian/G09C01Z/srwang-mod-2020/g09/l401.exe)
 Initial guess read from the checkpoint file:  test_n2.chk
 B after Tr=     0.000000    0.000000    0.850377
         Rot=    0.000000   -0.000000    1.000000   -0.000000 Ang= 180.00 deg.
 Guess basis will be translated and rotated to current coordinates.
 Initial guess <Sx>= 0.0000 <Sy>= 0.0000 <Sz>= 0.0000 <S**2>= 0.7052 S= 0.4773
 Leave Link  401 at Mon Dec 21 12:56:30 2020, MaxMem=  536870912 cpu:       0.2
 (Enter /share/apps/gaussian/G09C01Z/srwang-mod-2020/g09/l502.exe)
 UHF open shell SCF:
 Requested convergence on RMS density matrix=1.00D-04 within 128 cycles.
 Requested convergence on MAX density matrix=1.00D-02.
 Requested convergence on             energy=1.00D-02.
 No special actions if energy rises.
 Using DIIS extrapolation, IDIIS=  1040.
 Two-electron integral symmetry not used.
 Keep R1 and R2 ints in memory in canonical form, NReq=1057921.
 IEnd=       21210 IEndB=       21210 NGot=   536870912 MDV=   536650555
 LenX=   536650555 LenY=   536649214
 Symmetry not used in FoFDir.
 MinBra= 0 MaxBra= 2 Meth= 1.
 IRaf=       0 NMat=   1 IRICut=       1 DoRegI=T DoRafI=F ISym2E= 0 JSym2E=0.

 Cycle   1  Pass 1  IDiag  1:
 E= -108.549614352126    
 DIIS: error= 5.27D-02 at cycle   1 NSaved=   1.
 NSaved= 1 IEnMin= 1 EnMin= -108.549614352126     IErMin= 1 ErrMin= 5.27D-02
 ErrMax= 5.27D-02 EMaxC= 1.00D-01 BMatC= 5.48D-01 BMatP= 5.48D-01
 IDIUse=3 WtCom= 4.73D-01 WtEn= 5.27D-01
 Coeff-Com:  0.100D+01
 Coeff-En:   0.100D+01
 Coeff:      0.100D+01
 Gap=     1.110 Goal=   None    Shift=    0.000
 Gap=     1.110 Goal=   None    Shift=    0.000
 GapD=    1.110 DampG=2.000 DampE=0.500 DampFc=1.0000 IDamp=-1.
 RMSDP=1.24D-02 MaxDP=7.20D-02              OVMax= 1.33D-01

 Cycle   2  Pass 1  IDiag  1:
 E= -108.719953462469     Delta-E=       -0.170339110343 Rises=F Damp=F
 DIIS: error= 2.85D-02 at cycle   2 NSaved=   2.
 NSaved= 2 IEnMin= 2 EnMin= -108.719953462469     IErMin= 2 ErrMin= 2.85D-02
 ErrMax= 2.85D-02 EMaxC= 1.00D-01 BMatC= 6.53D-02 BMatP= 5.48D-01
 IDIUse=3 WtCom= 7.15D-01 WtEn= 2.85D-01
 Coeff-Com:  0.177D-01 0.982D+00
 Coeff-En:   0.000D+00 0.100D+01
 Coeff:      0.126D-01 0.987D+00
 Gap=     0.920 Goal=   None    Shift=    0.000
 Gap=     0.920 Goal=   None    Shift=    0.000
 DSYEVD returned Info=          57 IAlg= 4 N=    28 NDim=    28 NE2=    19166042 trying DSYEV.
 RMSDP=4.70D-03 MaxDP=4.37D-02 DE=-1.70D-01 OVMax= 5.79D-02

 Cycle   3  Pass 1  IDiag  1:
 E= -108.751819429047     Delta-E=       -0.031865966578 Rises=F Damp=F
 DIIS: error= 2.04D-02 at cycle   3 NSaved=   3.
 NSaved= 3 IEnMin= 3 EnMin= -108.751819429047     IErMin= 3 ErrMin= 2.04D-02
 ErrMax= 2.04D-02 EMaxC= 1.00D-01 BMatC= 2.12D-02 BMatP= 6.53D-02
 IDIUse=3 WtCom= 7.96D-01 WtEn= 2.04D-01
 Coeff-Com: -0.105D+00-0.326D+00 0.143D+01
 Coeff-En:   0.000D+00 0.000D+00 0.100D+01
 Coeff:     -0.839D-01-0.259D+00 0.134D+01
 Gap=     0.925 Goal=   None    Shift=    0.000
 Gap=     0.925 Goal=   None    Shift=    0.000
 RMSDP=4.21D-03 MaxDP=3.46D-02 DE=-3.19D-02 OVMax= 6.05D-02

 Cycle   4  Pass 1  IDiag  1:
 E= -108.770629134073     Delta-E=       -0.018809705026 Rises=F Damp=F
 DIIS: error= 1.24D-02 at cycle   4 NSaved=   4.
 NSaved= 4 IEnMin= 4 EnMin= -108.770629134073     IErMin= 4 ErrMin= 1.24D-02
 ErrMax= 1.24D-02 EMaxC= 1.00D-01 BMatC= 7.71D-03 BMatP= 2.12D-02
 IDIUse=3 WtCom= 8.76D-01 WtEn= 1.24D-01
 Coeff-Com:  0.106D+00 0.514D-01-0.191D+01 0.275D+01
 Coeff-En:   0.000D+00 0.000D+00 0.000D+00 0.100D+01
 Coeff:      0.928D-01 0.451D-01-0.167D+01 0.253D+01
 Gap=     0.931 Goal=   None    Shift=    0.000
 Gap=     0.931 Goal=   None    Shift=    0.000
 RMSDP=5.56D-03 MaxDP=5.08D-02 DE=-1.88D-02 OVMax= 8.18D-02

 Cycle   5  Pass 1  IDiag  1:
 E= -108.782242759789     Delta-E=       -0.011613625716 Rises=F Damp=F
 DIIS: error= 2.50D-03 at cycle   5 NSaved=   5.
 NSaved= 5 IEnMin= 5 EnMin= -108.782242759789     IErMin= 5 ErrMin= 2.50D-03
 ErrMax= 2.50D-03 EMaxC= 1.00D-01 BMatC= 3.89D-04 BMatP= 7.71D-03
 IDIUse=3 WtCom= 9.75D-01 WtEn= 2.50D-02
 Coeff-Com: -0.262D-01 0.466D-02 0.434D+00-0.930D+00 0.152D+01
 Coeff-En:   0.000D+00 0.000D+00 0.000D+00 0.000D+00 0.100D+01
 Coeff:     -0.255D-01 0.454D-02 0.423D+00-0.906D+00 0.150D+01
 Gap=     0.932 Goal=   None    Shift=    0.000
 Gap=     0.932 Goal=   None    Shift=    0.000
 DSYEVD returned Info=          57 IAlg= 4 N=    28 NDim=    28 NE2=    19166042 trying DSYEV.
 RMSDP=1.70D-03 MaxDP=1.52D-02 DE=-1.16D-02 OVMax= 2.08D-02

 Cycle   6  Pass 1  IDiag  1:
 E= -108.782796004392     Delta-E=       -0.000553244603 Rises=F Damp=F
 DIIS: error= 2.65D-04 at cycle   6 NSaved=   6.
 NSaved= 6 IEnMin= 6 EnMin= -108.782796004392     IErMin= 6 ErrMin= 2.65D-04
 ErrMax= 2.65D-04 EMaxC= 1.00D-01 BMatC= 4.95D-06 BMatP= 3.89D-04
 IDIUse=3 WtCom= 9.97D-01 WtEn= 2.65D-03
 Coeff-Com:  0.557D-02-0.903D-03-0.995D-01 0.226D+00-0.448D+00 0.132D+01
 Coeff-En:   0.000D+00 0.000D+00 0.000D+00 0.000D+00 0.000D+00 0.100D+01
 Coeff:      0.556D-02-0.900D-03-0.992D-01 0.225D+00-0.447D+00 0.132D+01
 Gap=     0.932 Goal=   None    Shift=    0.000
 Gap=     0.932 Goal=   None    Shift=    0.000
 RMSDP=1.78D-04 MaxDP=2.07D-03 DE=-5.53D-04 OVMax= 7.61D-04

 Cycle   7  Pass 1  IDiag  1:
 E= -108.782798804651     Delta-E=       -0.000002800259 Rises=F Damp=F
 DIIS: error= 7.52D-05 at cycle   7 NSaved=   7.
 NSaved= 7 IEnMin= 7 EnMin= -108.782798804651     IErMin= 7 ErrMin= 7.52D-05
 ErrMax= 7.52D-05 EMaxC= 1.00D-01 BMatC= 2.46D-07 BMatP= 4.95D-06
 IDIUse=1 WtCom= 1.00D+00 WtEn= 0.00D+00
 Coeff-Com: -0.849D-03-0.683D-03 0.182D-01-0.350D-01 0.589D-01-0.312D+00
 Coeff-Com:  0.127D+01
 Coeff:     -0.849D-03-0.683D-03 0.182D-01-0.350D-01 0.589D-01-0.312D+00
 Coeff:      0.127D+01
 Gap=     0.932 Goal=   None    Shift=    0.000
 DSYEVD returned Info=          57 IAlg= 4 N=    28 NDim=    28 NE2=    19166042 trying DSYEV.
 Gap=     0.932 Goal=   None    Shift=    0.000
 DSYEVD returned Info=          57 IAlg= 4 N=    28 NDim=    28 NE2=    19166042 trying DSYEV.
 RMSDP=3.49D-05 MaxDP=2.60D-04 DE=-2.80D-06 OVMax= 1.67D-04

 SCF Done:  E(UHF) =  -108.782798805     A.U. after    7 cycles
             Convg  =    0.3489D-04             -V/T =  1.9826
 <Sx>= 0.0000 <Sy>= 0.0000 <Sz>= 0.0000 <S**2>= 0.0000 S= 0.0000
 <L.S>= 0.000000000000E+00
 KE= 1.107055123665D+02 PE=-3.146405379007D+02 EE= 6.634146759522D+01
 Annihilation of the first spin contaminant:
 S**2 before annihilation     0.0000,   after     0.0000
 Leave Link  502 at Mon Dec 21 12:56:30 2020, MaxMem=  536870912 cpu:       0.3
  
  +-------------------------------------------+
  |                                           |
  |  LINK 530 - Projected Hartree-Fock (PHF)  |
  |     Self-Consistent Field (SCF) Code      |
  |                                           |
  |                                           |
  |         the Scuseria group, v0.2, 07.2011 |
  +-------------------------------------------+
  
 (Enter ../../phf/l530.exe)

 PHF SCF was invoked with the following options:

   method selection:
 iprint =  6
 iphf   =  4, [ UHF + spin projection ]

   general options:
 maxcyc =    512, S      =      0
 ngrda  =      1, ngrdb  =      8, ngrdg  =      1

   accuracy requested:
 conv criterion (RMSDP, RMSDK) =     1.0000E-08
 requested integral accuracy   =     1.0000E-10

   use of symmetry:
 two-electron integral symmetry not used

   strategy options:
 level shifting is turned off
 use of DIIS extrapolation is turned on
 mxscfc =     20, idisgo =    100
 istrat =      1, continue as usual if energy rises
 modified PHF effective Fock matrix used

   initial guess options:
 igues1 =  1, read GDV guess


 PHF SCF - preparing initial guess


 PHF SCF - starting SCF procedure

beta in GauLeg
grd=    0.0624    0.3194    0.7453    1.2827    1.8589    2.3963    2.8222    3.0792
wgt=    0.0099    0.1097    0.3342    0.5462    0.5462    0.3342    0.1097    0.0099
WigArr: s=    0, sz=    0, isint=    T, ncis=                       1, dind=    0.0000
dmt=    1.0000    1.0000    1.0000    1.0000    1.0000    1.0000    1.0000    1.0000
*********  Start Cycle  1  *************
 
Start hffock

 Symmetry not used in FoFDir.
 MinBra= 0 MaxBra= 2 Meth= 1.
 IRaf=       1 NMat=   2 IRICut=       1 DoRegI=T DoRafI=F ISym2E= 0 JSym2E=0.
 PrsmSu:  NPrtUS=   4 ThrOK=T IAlg=1 NPAlg=2 LenDen=         930.
 Prism:   IPart=     0 DynPar=F LinDyn=F Incr=           7.
 PRISM was handed   134194479 working-precision words and    78 shell-pairs
 PRISM was handed   134194479 working-precision words and    78 shell-pairs
 PRISM was handed   134194479 working-precision words and    78 shell-pairs
 PRISM was handed   134194479 working-precision words and    78 shell-pairs
 IPart=  2 NShTot=         751 NBatch=         201 AvBLen=         3.7
 IPart=  1 NShTot=         779 NBatch=         200 AvBLen=         3.9
 IPart=  3 NShTot=         733 NBatch=         193 AvBLen=         3.8
 IPart=  0 NShTot=         818 NBatch=         210 AvBLen=         3.9
 PrSmSu:  NxtVal=             29.
 
Start hfdmdg: find NO basis
 
Start formng/pg
 
Start formgg

 Symmetry not used in FoFDir.
 MinBra= 0 MaxBra= 2 Meth= 1.
 IRaf=       1 NMat=  64 IRICut=       1 DoRegI=T DoRafI=F ISym2E= 0 JSym2E=0.
 PrsmSu:  NPrtUS=   4 ThrOK=T IAlg=1 NPAlg=2 LenDen=       29760.
 Prism:   IPart=     0 DynPar=T LinDyn=F Incr=           7.
 PRISM was handed   134074084 working-precision words and    78 shell-pairs
 PRISM was handed   134074084 working-precision words and    78 shell-pairs
 PRISM was handed   134074084 working-precision words and    78 shell-pairs
 PRISM was handed   134074084 working-precision words and    78 shell-pairs
 IPart=  0 NShTot=         598 NBatch=         106 AvBLen=         5.6
 IPart=  3 NShTot=         678 NBatch=         112 AvBLen=         6.1
 IPart=  1 NShTot=         579 NBatch=         103 AvBLen=         5.6
 IPart=  2 NShTot=        1226 NBatch=         127 AvBLen=         9.7
 PrSmSu:  NxtVal=           3263.
 
Start evalsmt/hmt
 Smt (real):
                 1 
      1   0.200000D+01
 Smt (imaginary):
                 1 
      1   0.000000D+00
 Hmt (real):
                 1 
      1  -0.275187D+03
 Hmt (imaginary):
                 1 
      1   0.000000D+00
 
Form Fock eff
ifsel =     2, useproj    T
 DIIS: error= 5.39D-06 at cycle   1 NSaved=   1.
 NSaved= 1 IEnMin= 1 EnMin= -108.782798945265     IErMin= 1 ErrMin= 5.39D-06
 ErrMax= 5.39D-06 EMaxC= 1.00D+00 BMatC= 3.48D-09 BMatP= 3.48D-09
 IDIUse=1 WtCom= 1.00D+00 WtEn= 0.00D+00
 Coeff-Com:  0.100D+01
 Coeff:      0.100D+01
 
Diag Fock

 Fock eigenvalues (alpha):
      orbital --                 1                2                3                4
       energy --    -1.5630749D+01   -1.5616336D+01   -1.6144946D+00   -7.1058452D-01
      orbital --                 5                6                7                8
       energy --    -7.1058452D-01   -7.0437234D-01   -6.3910402D-01    2.9276062D-01
      orbital --                 9               10               11               12
       energy --     2.9276062D-01    6.2687262D-01    7.5579738D-01    8.0168586D-01
      orbital --                13               14               15               16
       energy --     8.0168586D-01    1.0245111D+00    1.1141549D+00    1.1141549D+00
      orbital --                17               18               19               20
       energy --     1.4382541D+00    1.7044517D+00    1.7044517D+00    1.9479792D+00
      orbital --                21               22               23               24
       energy --     2.1311747D+00    2.1311747D+00    2.4534552D+00    2.4534552D+00
      orbital --                25               26               27               28
       energy --     2.9744478D+00    3.2403904D+00    3.2403904D+00    4.2031832D+00

 Fock eigenvalues (beta):
      orbital --                 1                2                3                4
       energy --    -1.5630749D+01   -1.5616336D+01   -1.6144946D+00   -7.1058452D-01
      orbital --                 5                6                7                8
       energy --    -7.1058452D-01   -7.0437234D-01   -6.3910402D-01    2.9276062D-01
      orbital --                 9               10               11               12
       energy --     2.9276062D-01    6.2687262D-01    7.5579738D-01    8.0168586D-01
      orbital --                13               14               15               16
       energy --     8.0168586D-01    1.0245111D+00    1.1141549D+00    1.1141549D+00
      orbital --                17               18               19               20
       energy --     1.4382541D+00    1.7044517D+00    1.7044517D+00    1.9479792D+00
      orbital --                21               22               23               24
       energy --     2.1311747D+00    2.1311747D+00    2.4534552D+00    2.4534552D+00
      orbital --                25               26               27               28
       energy --     2.9744478D+00    3.2403904D+00    3.2403904D+00    4.2031832D+00

 *** cycle =    1 ***

        E =    -108.782798945265
      Hsp =    -203.934667631062     Hph =      66.341109551453
   <S**2> =      -0.000000000000
    RMSDP =       8.2592D-07        MaxP =       5.3221D-06

   E (HF) =    -108.782798935805

 ********************

*********  Start Cycle  2  *************
 
Start hffock

 Symmetry not used in FoFDir.
 MinBra= 0 MaxBra= 2 Meth= 1.
 IRaf=       1 NMat=   2 IRICut=       1 DoRegI=T DoRafI=F ISym2E= 0 JSym2E=0.
 PrsmSu:  NPrtUS=   4 ThrOK=T IAlg=1 NPAlg=2 LenDen=         930.
 Prism:   IPart=     0 DynPar=F LinDyn=F Incr=           7.
 PRISM was handed   134194479 working-precision words and    78 shell-pairs
 PRISM was handed   134194479 working-precision words and    78 shell-pairs
 PRISM was handed   134194479 working-precision words and    78 shell-pairs
 PRISM was handed   134194479 working-precision words and    78 shell-pairs
 IPart=  2 NShTot=         751 NBatch=         201 AvBLen=         3.7
 IPart=  1 NShTot=         779 NBatch=         200 AvBLen=         3.9
 IPart=  3 NShTot=         733 NBatch=         193 AvBLen=         3.8
 IPart=  0 NShTot=         818 NBatch=         210 AvBLen=         3.9
 PrSmSu:  NxtVal=             29.
 
Start hfdmdg: find NO basis
 
Start formng/pg
 
Start formgg

 Symmetry not used in FoFDir.
 MinBra= 0 MaxBra= 2 Meth= 1.
 IRaf=       1 NMat=  64 IRICut=       1 DoRegI=T DoRafI=F ISym2E= 0 JSym2E=0.
 PrsmSu:  NPrtUS=   4 ThrOK=T IAlg=1 NPAlg=2 LenDen=       29760.
 Prism:   IPart=     0 DynPar=T LinDyn=F Incr=           7.
 PRISM was handed   134074084 working-precision words and    78 shell-pairs
 PRISM was handed   134074084 working-precision words and    78 shell-pairs
 PRISM was handed   134074084 working-precision words and    78 shell-pairs
 PRISM was handed   134074084 working-precision words and    78 shell-pairs
 IPart=  3 NShTot=         627 NBatch=         106 AvBLen=         5.9
 IPart=  1 NShTot=         592 NBatch=          99 AvBLen=         6.0
 IPart=  2 NShTot=        1176 NBatch=         147 AvBLen=         8.0
 IPart=  0 NShTot=         686 NBatch=          99 AvBLen=         6.9
 PrSmSu:  NxtVal=           3263.
 
Start evalsmt/hmt
 Smt (real):
                 1 
      1   0.200000D+01
 Smt (imaginary):
                 1 
      1   0.000000D+00
 Hmt (real):
                 1 
      1  -0.275187D+03
 Hmt (imaginary):
                 1 
      1   0.000000D+00
 
Form Fock eff
ifsel =     2, useproj    T
 DIIS: error= 2.86D-06 at cycle   2 NSaved=   2.
 NSaved= 2 IEnMin= 2 EnMin= -108.782798946526     IErMin= 2 ErrMin= 2.86D-06
 ErrMax= 2.86D-06 EMaxC= 1.00D+00 BMatC= 7.97D-10 BMatP= 3.48D-09
 IDIUse=1 WtCom= 1.00D+00 WtEn= 0.00D+00
 Coeff-Com:  0.000D+00 0.100D+01
 Coeff:      0.000D+00 0.100D+01
 
Diag Fock

 Fock eigenvalues (alpha):
      orbital --                 1                2                3                4
       energy --    -1.5630741D+01   -1.5616329D+01   -1.6144896D+00   -7.1058271D-01
      orbital --                 5                6                7                8
       energy --    -7.1058271D-01   -7.0436905D-01   -6.3910025D-01    2.9276350D-01
      orbital --                 9               10               11               12
       energy --     2.9276350D-01    6.2687454D-01    7.5579957D-01    8.0168676D-01
      orbital --                13               14               15               16
       energy --     8.0168676D-01    1.0245133D+00    1.1141572D+00    1.1141572D+00
      orbital --                17               18               19               20
       energy --     1.4382561D+00    1.7044541D+00    1.7044541D+00    1.9479827D+00
      orbital --                21               22               23               24
       energy --     2.1311778D+00    2.1311778D+00    2.4534577D+00    2.4534577D+00
      orbital --                25               26               27               28
       energy --     2.9744511D+00    3.2403936D+00    3.2403936D+00    4.2031888D+00

 Fock eigenvalues (beta):
      orbital --                 1                2                3                4
       energy --    -1.5630741D+01   -1.5616329D+01   -1.6144896D+00   -7.1058271D-01
      orbital --                 5                6                7                8
       energy --    -7.1058271D-01   -7.0436905D-01   -6.3910025D-01    2.9276350D-01
      orbital --                 9               10               11               12
       energy --     2.9276350D-01    6.2687454D-01    7.5579957D-01    8.0168676D-01
      orbital --                13               14               15               16
       energy --     8.0168676D-01    1.0245133D+00    1.1141572D+00    1.1141572D+00
      orbital --                17               18               19               20
       energy --     1.4382561D+00    1.7044541D+00    1.7044541D+00    1.9479827D+00
      orbital --                21               22               23               24
       energy --     2.1311778D+00    2.1311778D+00    2.4534577D+00    2.4534577D+00
      orbital --                25               26               27               28
       energy --     2.9744511D+00    3.2403936D+00    3.2403936D+00    4.2031888D+00

 *** cycle =    2 ***

        E =    -108.782798946526      DE =      -0.000000001261
      Hsp =    -203.934727472994     Hph =      66.341169392123
   <S**2> =       0.000000000000
    RMSDP =       4.3742D-07        MaxP =       3.4885D-06

   E (HF) =    -108.782798935374

 ********************

*********  Start Cycle  3  *************
 
Start hffock

 Symmetry not used in FoFDir.
 MinBra= 0 MaxBra= 2 Meth= 1.
 IRaf=       1 NMat=   2 IRICut=       1 DoRegI=T DoRafI=F ISym2E= 0 JSym2E=0.
 PrsmSu:  NPrtUS=   4 ThrOK=T IAlg=1 NPAlg=2 LenDen=         930.
 Prism:   IPart=     0 DynPar=F LinDyn=F Incr=           7.
 PRISM was handed   134194479 working-precision words and    78 shell-pairs
 PRISM was handed   134194479 working-precision words and    78 shell-pairs
 PRISM was handed   134194479 working-precision words and    78 shell-pairs
 PRISM was handed   134194479 working-precision words and    78 shell-pairs
 IPart=  2 NShTot=         751 NBatch=         201 AvBLen=         3.7
 IPart=  3 NShTot=         733 NBatch=         193 AvBLen=         3.8
 IPart=  1 NShTot=         779 NBatch=         200 AvBLen=         3.9
 IPart=  0 NShTot=         818 NBatch=         210 AvBLen=         3.9
 PrSmSu:  NxtVal=             29.
 
Start hfdmdg: find NO basis
 
Start formng/pg
 
Start formgg

 Symmetry not used in FoFDir.
 MinBra= 0 MaxBra= 2 Meth= 1.
 IRaf=       1 NMat=  64 IRICut=       1 DoRegI=T DoRafI=F ISym2E= 0 JSym2E=0.
 PrsmSu:  NPrtUS=   4 ThrOK=T IAlg=1 NPAlg=2 LenDen=       29760.
 Prism:   IPart=     0 DynPar=T LinDyn=F Incr=           7.
 PRISM was handed   134074084 working-precision words and    78 shell-pairs
 PRISM was handed   134074084 working-precision words and    78 shell-pairs
 PRISM was handed   134074084 working-precision words and    78 shell-pairs
 PRISM was handed   134074084 working-precision words and    78 shell-pairs
 IPart=  3 NShTot=         712 NBatch=         111 AvBLen=         6.4
 IPart=  2 NShTot=         852 NBatch=         125 AvBLen=         6.8
 IPart=  1 NShTot=         704 NBatch=         114 AvBLen=         6.2
 IPart=  0 NShTot=         813 NBatch=         121 AvBLen=         6.7
 PrSmSu:  NxtVal=           3263.
 
Start evalsmt/hmt
 Smt (real):
                 1 
      1   0.200000D+01
 Smt (imaginary):
                 1 
      1   0.000000D+00
 Hmt (real):
                 1 
      1  -0.275187D+03
 Hmt (imaginary):
                 1 
      1   0.000000D+00
 
Form Fock eff
ifsel =     2, useproj    T
 DIIS: error= 3.08D-06 at cycle   3 NSaved=   3.
 NSaved= 3 IEnMin= 3 EnMin= -108.782798946955     IErMin= 2 ErrMin= 2.86D-06
 ErrMax= 3.08D-06 EMaxC= 1.00D+00 BMatC= 7.02D-10 BMatP= 7.97D-10
 IDIUse=1 WtCom= 1.00D+00 WtEn= 0.00D+00
 Coeff-Com:  0.000D+00 0.000D+00 0.100D+01
 Coeff:      0.000D+00 0.000D+00 0.100D+01
 
Diag Fock

 Fock eigenvalues (alpha):
      orbital --                 1                2                3                4
       energy --    -1.5630743D+01   -1.5616330D+01   -1.6144905D+00   -7.1058381D-01
      orbital --                 5                6                7                8
       energy --    -7.1058381D-01   -7.0436930D-01   -6.3910050D-01    2.9276316D-01
      orbital --                 9               10               11               12
       energy --     2.9276316D-01    6.2687474D-01    7.5579953D-01    8.0168609D-01
      orbital --                13               14               15               16
       energy --     8.0168609D-01    1.0245130D+00    1.1141566D+00    1.1141566D+00
      orbital --                17               18               19               20
       energy --     1.4382555D+00    1.7044534D+00    1.7044534D+00    1.9479822D+00
      orbital --                21               22               23               24
       energy --     2.1311772D+00    2.1311772D+00    2.4534570D+00    2.4534570D+00
      orbital --                25               26               27               28
       energy --     2.9744507D+00    3.2403930D+00    3.2403930D+00    4.2031879D+00

 Fock eigenvalues (beta):
      orbital --                 1                2                3                4
       energy --    -1.5630743D+01   -1.5616330D+01   -1.6144905D+00   -7.1058381D-01
      orbital --                 5                6                7                8
       energy --    -7.1058381D-01   -7.0436930D-01   -6.3910050D-01    2.9276316D-01
      orbital --                 9               10               11               12
       energy --     2.9276316D-01    6.2687474D-01    7.5579953D-01    8.0168609D-01
      orbital --                13               14               15               16
       energy --     8.0168609D-01    1.0245130D+00    1.1141566D+00    1.1141566D+00
      orbital --                17               18               19               20
       energy --     1.4382555D+00    1.7044534D+00    1.7044534D+00    1.9479822D+00
      orbital --                21               22               23               24
       energy --     2.1311772D+00    2.1311772D+00    2.4534570D+00    2.4534570D+00
      orbital --                25               26               27               28
       energy --     2.9744507D+00    3.2403930D+00    3.2403930D+00    4.2031879D+00

 *** cycle =    3 ***

        E =    -108.782798946955      DE =      -0.000000000429
      Hsp =    -203.934713542391     Hph =      66.341155461092
   <S**2> =      -0.000000000000
    RMSDP =       4.2844D-07        MaxP =       3.8056D-06

   E (HF) =    -108.782798933777

 ********************

*********  Start Cycle  4  *************
 
Start hffock

 Symmetry not used in FoFDir.
 MinBra= 0 MaxBra= 2 Meth= 1.
 IRaf=       1 NMat=   2 IRICut=       1 DoRegI=T DoRafI=F ISym2E= 0 JSym2E=0.
 PrsmSu:  NPrtUS=   4 ThrOK=T IAlg=1 NPAlg=2 LenDen=         930.
 Prism:   IPart=     0 DynPar=F LinDyn=F Incr=           7.
 PRISM was handed   134194479 working-precision words and    78 shell-pairs
 PRISM was handed   134194479 working-precision words and    78 shell-pairs
 PRISM was handed   134194479 working-precision words and    78 shell-pairs
 PRISM was handed   134194479 working-precision words and    78 shell-pairs
 IPart=  1 NShTot=         779 NBatch=         200 AvBLen=         3.9
 IPart=  2 NShTot=         751 NBatch=         201 AvBLen=         3.7
 IPart=  3 NShTot=         733 NBatch=         193 AvBLen=         3.8
 IPart=  0 NShTot=         818 NBatch=         210 AvBLen=         3.9
 PrSmSu:  NxtVal=             29.
 
Start hfdmdg: find NO basis
 
Start formng/pg
 
Start formgg

 Symmetry not used in FoFDir.
 MinBra= 0 MaxBra= 2 Meth= 1.
 IRaf=       1 NMat=  64 IRICut=       1 DoRegI=T DoRafI=F ISym2E= 0 JSym2E=0.
 PrsmSu:  NPrtUS=   4 ThrOK=T IAlg=1 NPAlg=2 LenDen=       29760.
 Prism:   IPart=     0 DynPar=T LinDyn=F Incr=           7.
 PRISM was handed   134074084 working-precision words and    78 shell-pairs
 PRISM was handed   134074084 working-precision words and    78 shell-pairs
 PRISM was handed   134074084 working-precision words and    78 shell-pairs
 PRISM was handed   134074084 working-precision words and    78 shell-pairs
 IPart=  3 NShTot=         660 NBatch=         114 AvBLen=         5.8
 IPart=  1 NShTot=         770 NBatch=         111 AvBLen=         6.9
 IPart=  0 NShTot=         855 NBatch=         121 AvBLen=         7.1
 IPart=  2 NShTot=         796 NBatch=         112 AvBLen=         7.1
 PrSmSu:  NxtVal=           3263.
 
Start evalsmt/hmt
 Smt (real):
                 1 
      1   0.200000D+01
 Smt (imaginary):
                 1 
      1   0.000000D+00
 Hmt (real):
                 1 
      1  -0.275187D+03
 Hmt (imaginary):
                 1 
      1   0.000000D+00
 
Form Fock eff
ifsel =     2, useproj    T
 DIIS: error= 3.32D-06 at cycle   4 NSaved=   4.
 NSaved= 4 IEnMin= 4 EnMin= -108.782798947391     IErMin= 2 ErrMin= 2.86D-06
 ErrMax= 3.32D-06 EMaxC= 1.00D+00 BMatC= 8.40D-10 BMatP= 7.02D-10
 IDIUse=1 WtCom= 1.00D+00 WtEn= 0.00D+00
 Coeff-Com:  0.000D+00 0.000D+00 0.000D+00 0.100D+01
 Coeff:      0.000D+00 0.000D+00 0.000D+00 0.100D+01
 
Diag Fock

 Fock eigenvalues (alpha):
      orbital --                 1                2                3                4
       energy --    -1.5630743D+01   -1.5616330D+01   -1.6144903D+00   -7.1058380D-01
      orbital --                 5                6                7                8
       energy --    -7.1058380D-01   -7.0436914D-01   -6.3910028D-01    2.9276328D-01
      orbital --                 9               10               11               12
       energy --     2.9276328D-01    6.2687487D-01    7.5579966D-01    8.0168607D-01
      orbital --                13               14               15               16
       energy --     8.0168607D-01    1.0245131D+00    1.1141567D+00    1.1141567D+00
      orbital --                17               18               19               20
       energy --     1.4382556D+00    1.7044534D+00    1.7044534D+00    1.9479823D+00
      orbital --                21               22               23               24
       energy --     2.1311773D+00    2.1311773D+00    2.4534571D+00    2.4534571D+00
      orbital --                25               26               27               28
       energy --     2.9744508D+00    3.2403932D+00    3.2403932D+00    4.2031882D+00

 Fock eigenvalues (beta):
      orbital --                 1                2                3                4
       energy --    -1.5630743D+01   -1.5616330D+01   -1.6144903D+00   -7.1058380D-01
      orbital --                 5                6                7                8
       energy --    -7.1058380D-01   -7.0436914D-01   -6.3910028D-01    2.9276328D-01
      orbital --                 9               10               11               12
       energy --     2.9276328D-01    6.2687487D-01    7.5579966D-01    8.0168607D-01
      orbital --                13               14               15               16
       energy --     8.0168607D-01    1.0245131D+00    1.1141567D+00    1.1141567D+00
      orbital --                17               18               19               20
       energy --     1.4382556D+00    1.7044534D+00    1.7044534D+00    1.9479823D+00
      orbital --                21               22               23               24
       energy --     2.1311773D+00    2.1311773D+00    2.4534571D+00    2.4534571D+00
      orbital --                25               26               27               28
       energy --     2.9744508D+00    3.2403932D+00    3.2403932D+00    4.2031882D+00

 *** cycle =    4 ***

        E =    -108.782798947391      DE =      -0.000000000437
      Hsp =    -203.934715859902     Hph =      66.341157778167
   <S**2> =       0.000000000000
    RMSDP =       4.7427D-07        MaxP =       4.4091D-06

   E (HF) =    -108.782798931786

 ********************

*********  Start Cycle  5  *************
 
Start hffock

 Symmetry not used in FoFDir.
 MinBra= 0 MaxBra= 2 Meth= 1.
 IRaf=       1 NMat=   2 IRICut=       1 DoRegI=T DoRafI=F ISym2E= 0 JSym2E=0.
 PrsmSu:  NPrtUS=   4 ThrOK=T IAlg=1 NPAlg=2 LenDen=         930.
 Prism:   IPart=     0 DynPar=F LinDyn=F Incr=           7.
 PRISM was handed   134194479 working-precision words and    78 shell-pairs
 PRISM was handed   134194479 working-precision words and    78 shell-pairs
 PRISM was handed   134194479 working-precision words and    78 shell-pairs
 PRISM was handed   134194479 working-precision words and    78 shell-pairs
 IPart=  1 NShTot=         779 NBatch=         200 AvBLen=         3.9
 IPart=  2 NShTot=         751 NBatch=         201 AvBLen=         3.7
 IPart=  3 NShTot=         733 NBatch=         193 AvBLen=         3.8
 IPart=  0 NShTot=         818 NBatch=         210 AvBLen=         3.9
 PrSmSu:  NxtVal=             29.
 
Start hfdmdg: find NO basis
 
Start formng/pg
 
Start formgg

 Symmetry not used in FoFDir.
 MinBra= 0 MaxBra= 2 Meth= 1.
 IRaf=       1 NMat=  64 IRICut=       1 DoRegI=T DoRafI=F ISym2E= 0 JSym2E=0.
 PrsmSu:  NPrtUS=   4 ThrOK=T IAlg=1 NPAlg=2 LenDen=       29760.
 Prism:   IPart=     0 DynPar=T LinDyn=F Incr=           7.
 PRISM was handed   134074084 working-precision words and    78 shell-pairs
 PRISM was handed   134074084 working-precision words and    78 shell-pairs
 PRISM was handed   134074084 working-precision words and    78 shell-pairs
 PRISM was handed   134074084 working-precision words and    78 shell-pairs
 IPart=  2 NShTot=         812 NBatch=         129 AvBLen=         6.3
 IPart=  0 NShTot=         772 NBatch=         114 AvBLen=         6.8
 IPart=  1 NShTot=         824 NBatch=         120 AvBLen=         6.9
 IPart=  3 NShTot=         673 NBatch=         101 AvBLen=         6.7
 PrSmSu:  NxtVal=           3263.
 
Start evalsmt/hmt
 Smt (real):
                 1 
      1   0.200000D+01
 Smt (imaginary):
                 1 
      1   0.000000D+00
 Hmt (real):
                 1 
      1  -0.275187D+03
 Hmt (imaginary):
                 1 
      1   0.000000D+00
 
Form Fock eff
ifsel =     2, useproj    T
 DIIS: error= 3.57D-06 at cycle   5 NSaved=   5.
 NSaved= 5 IEnMin= 5 EnMin= -108.782798947924     IErMin= 2 ErrMin= 2.86D-06
 ErrMax= 3.57D-06 EMaxC= 1.00D+00 BMatC= 1.03D-09 BMatP= 7.02D-10
 IDIUse=1 WtCom= 1.00D+00 WtEn= 0.00D+00
 Coeff-Com:  0.000D+00 0.000D+00 0.000D+00 0.000D+00 0.100D+01
 Coeff:      0.000D+00 0.000D+00 0.000D+00 0.000D+00 0.100D+01
 
Diag Fock

 Fock eigenvalues (alpha):
      orbital --                 1                2                3                4
       energy --    -1.5630743D+01   -1.5616330D+01   -1.6144903D+00   -7.1058388D-01
      orbital --                 5                6                7                8
       energy --    -7.1058388D-01   -7.0436915D-01   -6.3910027D-01    2.9276326D-01
      orbital --                 9               10               11               12
       energy --     2.9276326D-01    6.2687489D-01    7.5579967D-01    8.0168602D-01
      orbital --                13               14               15               16
       energy --     8.0168602D-01    1.0245131D+00    1.1141566D+00    1.1141566D+00
      orbital --                17               18               19               20
       energy --     1.4382556D+00    1.7044534D+00    1.7044534D+00    1.9479823D+00
      orbital --                21               22               23               24
       energy --     2.1311772D+00    2.1311772D+00    2.4534571D+00    2.4534571D+00
      orbital --                25               26               27               28
       energy --     2.9744508D+00    3.2403931D+00    3.2403931D+00    4.2031881D+00

 Fock eigenvalues (beta):
      orbital --                 1                2                3                4
       energy --    -1.5630743D+01   -1.5616330D+01   -1.6144903D+00   -7.1058388D-01
      orbital --                 5                6                7                8
       energy --    -7.1058388D-01   -7.0436915D-01   -6.3910027D-01    2.9276326D-01
      orbital --                 9               10               11               12
       energy --     2.9276326D-01    6.2687489D-01    7.5579967D-01    8.0168602D-01
      orbital --                13               14               15               16
       energy --     8.0168602D-01    1.0245131D+00    1.1141566D+00    1.1141566D+00
      orbital --                17               18               19               20
       energy --     1.4382556D+00    1.7044534D+00    1.7044534D+00    1.9479823D+00
      orbital --                21               22               23               24
       energy --     2.1311772D+00    2.1311772D+00    2.4534571D+00    2.4534571D+00
      orbital --                25               26               27               28
       energy --     2.9744508D+00    3.2403931D+00    3.2403931D+00    4.2031881D+00

 *** cycle =    5 ***

        E =    -108.782798947924      DE =      -0.000000000533
      Hsp =    -203.934715050499     Hph =      66.341156968230
   <S**2> =      -0.000000000000
    RMSDP =       5.3217D-07        MaxP =       5.1136D-06

   E (HF) =    -108.782798929398

 ********************

*********  Start Cycle  6  *************
 
Start hffock

 Symmetry not used in FoFDir.
 MinBra= 0 MaxBra= 2 Meth= 1.
 IRaf=       1 NMat=   2 IRICut=       1 DoRegI=T DoRafI=F ISym2E= 0 JSym2E=0.
 PrsmSu:  NPrtUS=   4 ThrOK=T IAlg=1 NPAlg=2 LenDen=         930.
 Prism:   IPart=     0 DynPar=F LinDyn=F Incr=           7.
 PRISM was handed   134194479 working-precision words and    78 shell-pairs
 PRISM was handed   134194479 working-precision words and    78 shell-pairs
 PRISM was handed   134194479 working-precision words and    78 shell-pairs
 PRISM was handed   134194479 working-precision words and    78 shell-pairs
 IPart=  1 NShTot=         779 NBatch=         200 AvBLen=         3.9
 IPart=  2 NShTot=         751 NBatch=         201 AvBLen=         3.7
 IPart=  3 NShTot=         733 NBatch=         193 AvBLen=         3.8
 IPart=  0 NShTot=         818 NBatch=         210 AvBLen=         3.9
 PrSmSu:  NxtVal=             29.
 
Start hfdmdg: find NO basis
 
Start formng/pg
 
Start formgg

 Symmetry not used in FoFDir.
 MinBra= 0 MaxBra= 2 Meth= 1.
 IRaf=       1 NMat=  64 IRICut=       1 DoRegI=T DoRafI=F ISym2E= 0 JSym2E=0.
 PrsmSu:  NPrtUS=   4 ThrOK=T IAlg=1 NPAlg=2 LenDen=       29760.
 Prism:   IPart=     0 DynPar=T LinDyn=F Incr=           7.
 PRISM was handed   134074084 working-precision words and    78 shell-pairs
 PRISM was handed   134074084 working-precision words and    78 shell-pairs
 PRISM was handed   134074084 working-precision words and    78 shell-pairs
 PRISM was handed   134074084 working-precision words and    78 shell-pairs
 IPart=  1 NShTot=         831 NBatch=         126 AvBLen=         6.6
 IPart=  0 NShTot=         826 NBatch=         116 AvBLen=         7.1
 IPart=  3 NShTot=         691 NBatch=         116 AvBLen=         6.0
 IPart=  2 NShTot=         733 NBatch=         110 AvBLen=         6.7
 PrSmSu:  NxtVal=           3263.
 
Start evalsmt/hmt
 Smt (real):
                 1 
      1   0.200000D+01
 Smt (imaginary):
                 1 
      1   0.000000D+00
 Hmt (real):
                 1 
      1  -0.275187D+03
 Hmt (imaginary):
                 1 
      1   0.000000D+00
 
Form Fock eff
ifsel =     2, useproj    T
 DIIS: error= 3.83D-06 at cycle   6 NSaved=   6.
 NSaved= 6 IEnMin= 6 EnMin= -108.782798948587     IErMin= 2 ErrMin= 2.86D-06
 ErrMax= 3.83D-06 EMaxC= 1.00D+00 BMatC= 1.28D-09 BMatP= 7.02D-10
 IDIUse=1 WtCom= 1.00D+00 WtEn= 0.00D+00
 Coeff-Com:  0.000D+00 0.000D+00 0.000D+00 0.000D+00 0.000D+00 0.100D+01
 Coeff:      0.000D+00 0.000D+00 0.000D+00 0.000D+00 0.000D+00 0.100D+01
 
Diag Fock

 Fock eigenvalues (alpha):
      orbital --                 1                2                3                4
       energy --    -1.5630743D+01   -1.5616330D+01   -1.6144903D+00   -7.1058389D-01
      orbital --                 5                6                7                8
       energy --    -7.1058389D-01   -7.0436914D-01   -6.3910025D-01    2.9276326D-01
      orbital --                 9               10               11               12
       energy --     2.9276326D-01    6.2687490D-01    7.5579968D-01    8.0168601D-01
      orbital --                13               14               15               16
       energy --     8.0168601D-01    1.0245131D+00    1.1141566D+00    1.1141566D+00
      orbital --                17               18               19               20
       energy --     1.4382556D+00    1.7044534D+00    1.7044534D+00    1.9479823D+00
      orbital --                21               22               23               24
       energy --     2.1311772D+00    2.1311772D+00    2.4534571D+00    2.4534571D+00
      orbital --                25               26               27               28
       energy --     2.9744508D+00    3.2403931D+00    3.2403931D+00    4.2031882D+00

 Fock eigenvalues (beta):
      orbital --                 1                2                3                4
       energy --    -1.5630743D+01   -1.5616330D+01   -1.6144903D+00   -7.1058389D-01
      orbital --                 5                6                7                8
       energy --    -7.1058389D-01   -7.0436914D-01   -6.3910025D-01    2.9276326D-01
      orbital --                 9               10               11               12
       energy --     2.9276326D-01    6.2687490D-01    7.5579968D-01    8.0168601D-01
      orbital --                13               14               15               16
       energy --     8.0168601D-01    1.0245131D+00    1.1141566D+00    1.1141566D+00
      orbital --                17               18               19               20
       energy --     1.4382556D+00    1.7044534D+00    1.7044534D+00    1.9479823D+00
      orbital --                21               22               23               24
       energy --     2.1311772D+00    2.1311772D+00    2.4534571D+00    2.4534571D+00
      orbital --                25               26               27               28
       energy --     2.9744508D+00    3.2403931D+00    3.2403931D+00    4.2031882D+00

 *** cycle =    6 ***

        E =    -108.782798948587      DE =      -0.000000000663
      Hsp =    -203.934715128705     Hph =      66.341157045773
   <S**2> =      -0.000000000000
    RMSDP =       5.9949D-07        MaxP =       5.9367D-06

   E (HF) =    -108.782798926538

 ********************

*********  Start Cycle  7  *************
 
Start hffock

 Symmetry not used in FoFDir.
 MinBra= 0 MaxBra= 2 Meth= 1.
 IRaf=       1 NMat=   2 IRICut=       1 DoRegI=T DoRafI=F ISym2E= 0 JSym2E=0.
 PrsmSu:  NPrtUS=   4 ThrOK=T IAlg=1 NPAlg=2 LenDen=         930.
 Prism:   IPart=     0 DynPar=F LinDyn=F Incr=           7.
 PRISM was handed   134194479 working-precision words and    78 shell-pairs
 PRISM was handed   134194479 working-precision words and    78 shell-pairs
 PRISM was handed   134194479 working-precision words and    78 shell-pairs
 PRISM was handed   134194479 working-precision words and    78 shell-pairs
 IPart=  1 NShTot=         779 NBatch=         200 AvBLen=         3.9
 IPart=  2 NShTot=         751 NBatch=         201 AvBLen=         3.7
 IPart=  3 NShTot=         733 NBatch=         193 AvBLen=         3.8
 IPart=  0 NShTot=         818 NBatch=         210 AvBLen=         3.9
 PrSmSu:  NxtVal=             29.
 
Start hfdmdg: find NO basis
 
Start formng/pg
 
Start formgg

 Symmetry not used in FoFDir.
 MinBra= 0 MaxBra= 2 Meth= 1.
 IRaf=       1 NMat=  64 IRICut=       1 DoRegI=T DoRafI=F ISym2E= 0 JSym2E=0.
 PrsmSu:  NPrtUS=   4 ThrOK=T IAlg=1 NPAlg=2 LenDen=       29760.
 Prism:   IPart=     0 DynPar=T LinDyn=F Incr=           7.
 PRISM was handed   134074084 working-precision words and    78 shell-pairs
 PRISM was handed   134074084 working-precision words and    78 shell-pairs
 PRISM was handed   134074084 working-precision words and    78 shell-pairs
 PRISM was handed   134074084 working-precision words and    78 shell-pairs
 IPart=  3 NShTot=         718 NBatch=         113 AvBLen=         6.4
 IPart=  1 NShTot=         768 NBatch=         117 AvBLen=         6.6
 IPart=  0 NShTot=         747 NBatch=         119 AvBLen=         6.3
 IPart=  2 NShTot=         848 NBatch=         123 AvBLen=         6.9
 PrSmSu:  NxtVal=           3263.
 
Start evalsmt/hmt
 Smt (real):
                 1 
      1   0.200000D+01
 Smt (imaginary):
                 1 
      1   0.000000D+00
 Hmt (real):
                 1 
      1  -0.275187D+03
 Hmt (imaginary):
                 1 
      1   0.000000D+00
 
Form Fock eff
ifsel =     2, useproj    T
 DIIS: error= 4.11D-06 at cycle   7 NSaved=   7.
 NSaved= 7 IEnMin= 7 EnMin= -108.782798949419     IErMin= 2 ErrMin= 2.86D-06
 ErrMax= 4.11D-06 EMaxC= 1.00D+00 BMatC= 1.60D-09 BMatP= 7.02D-10
 IDIUse=1 WtCom= 1.00D+00 WtEn= 0.00D+00
 Coeff-Com:  0.000D+00 0.000D+00 0.000D+00 0.000D+00 0.000D+00 0.000D+00
 Coeff-Com:  0.100D+01
 Coeff:      0.000D+00 0.000D+00 0.000D+00 0.000D+00 0.000D+00 0.000D+00
 Coeff:      0.100D+01
 
Diag Fock

 Fock eigenvalues (alpha):
      orbital --                 1                2                3                4
       energy --    -1.5630743D+01   -1.5616330D+01   -1.6144903D+00   -7.1058390D-01
      orbital --                 5                6                7                8
       energy --    -7.1058390D-01   -7.0436914D-01   -6.3910025D-01    2.9276326D-01
      orbital --                 9               10               11               12
       energy --     2.9276326D-01    6.2687490D-01    7.5579968D-01    8.0168600D-01
      orbital --                13               14               15               16
       energy --     8.0168600D-01    1.0245131D+00    1.1141566D+00    1.1141566D+00
      orbital --                17               18               19               20
       energy --     1.4382556D+00    1.7044534D+00    1.7044534D+00    1.9479823D+00
      orbital --                21               22               23               24
       energy --     2.1311772D+00    2.1311772D+00    2.4534571D+00    2.4534571D+00
      orbital --                25               26               27               28
       energy --     2.9744508D+00    3.2403931D+00    3.2403931D+00    4.2031881D+00

 Fock eigenvalues (beta):
      orbital --                 1                2                3                4
       energy --    -1.5630743D+01   -1.5616330D+01   -1.6144903D+00   -7.1058390D-01
      orbital --                 5                6                7                8
       energy --    -7.1058390D-01   -7.0436914D-01   -6.3910025D-01    2.9276326D-01
      orbital --                 9               10               11               12
       energy --     2.9276326D-01    6.2687490D-01    7.5579968D-01    8.0168600D-01
      orbital --                13               14               15               16
       energy --     8.0168600D-01    1.0245131D+00    1.1141566D+00    1.1141566D+00
      orbital --                17               18               19               20
       energy --     1.4382556D+00    1.7044534D+00    1.7044534D+00    1.9479823D+00
      orbital --                21               22               23               24
       energy --     2.1311772D+00    2.1311772D+00    2.4534571D+00    2.4534571D+00
      orbital --                25               26               27               28
       energy --     2.9744508D+00    3.2403931D+00    3.2403931D+00    4.2031881D+00

 *** cycle =    7 ***

        E =    -108.782798949419      DE =      -0.000000000832
      Hsp =    -203.934715075904     Hph =      66.341156992140
   <S**2> =      -0.000000000000
    RMSDP =       6.7750D-07        MaxP =       6.8986D-06

   E (HF) =    -108.782798923101

 ********************

*********  Start Cycle  8  *************
 
Start hffock

 Symmetry not used in FoFDir.
 MinBra= 0 MaxBra= 2 Meth= 1.
 IRaf=       1 NMat=   2 IRICut=       1 DoRegI=T DoRafI=F ISym2E= 0 JSym2E=0.
 PrsmSu:  NPrtUS=   4 ThrOK=T IAlg=1 NPAlg=2 LenDen=         930.
 Prism:   IPart=     0 DynPar=F LinDyn=F Incr=           7.
 PRISM was handed   134194479 working-precision words and    78 shell-pairs
 PRISM was handed   134194479 working-precision words and    78 shell-pairs
 PRISM was handed   134194479 working-precision words and    78 shell-pairs
 PRISM was handed   134194479 working-precision words and    78 shell-pairs
 IPart=  1 NShTot=         779 NBatch=         200 AvBLen=         3.9
 IPart=  2 NShTot=         751 NBatch=         201 AvBLen=         3.7
 IPart=  3 NShTot=         733 NBatch=         193 AvBLen=         3.8
 IPart=  0 NShTot=         818 NBatch=         210 AvBLen=         3.9
 PrSmSu:  NxtVal=             29.
 
Start hfdmdg: find NO basis
 
Start formng/pg
 
Start formgg

 Symmetry not used in FoFDir.
 MinBra= 0 MaxBra= 2 Meth= 1.
 IRaf=       1 NMat=  64 IRICut=       1 DoRegI=T DoRafI=F ISym2E= 0 JSym2E=0.
 PrsmSu:  NPrtUS=   4 ThrOK=T IAlg=1 NPAlg=2 LenDen=       29760.
 Prism:   IPart=     0 DynPar=T LinDyn=F Incr=           7.
 PRISM was handed   134074084 working-precision words and    78 shell-pairs
 PRISM was handed   134074084 working-precision words and    78 shell-pairs
 PRISM was handed   134074084 working-precision words and    78 shell-pairs
 PRISM was handed   134074084 working-precision words and    78 shell-pairs
 IPart=  1 NShTot=         874 NBatch=         124 AvBLen=         7.0
 IPart=  2 NShTot=         755 NBatch=         120 AvBLen=         6.3
 IPart=  3 NShTot=         611 NBatch=         110 AvBLen=         5.6
 IPart=  0 NShTot=         841 NBatch=         116 AvBLen=         7.3
 PrSmSu:  NxtVal=           3263.
 
Start evalsmt/hmt
 Smt (real):
                 1 
      1   0.200000D+01
 Smt (imaginary):
                 1 
      1   0.000000D+00
 Hmt (real):
                 1 
      1  -0.275187D+03
 Hmt (imaginary):
                 1 
      1   0.000000D+00
 
Form Fock eff
ifsel =     2, useproj    T
 DIIS: error= 4.41D-06 at cycle   8 NSaved=   8.
 NSaved= 8 IEnMin= 8 EnMin= -108.782798950469     IErMin= 2 ErrMin= 2.86D-06
 ErrMax= 4.41D-06 EMaxC= 1.00D+00 BMatC= 2.01D-09 BMatP= 7.02D-10
 IDIUse=1 WtCom= 1.00D+00 WtEn= 0.00D+00
 Coeff-Com:  0.000D+00 0.000D+00 0.000D+00 0.000D+00 0.000D+00 0.000D+00
 Coeff-Com:  0.000D+00 0.100D+01
 Coeff:      0.000D+00 0.000D+00 0.000D+00 0.000D+00 0.000D+00 0.000D+00
 Coeff:      0.000D+00 0.100D+01
 
Diag Fock

 Fock eigenvalues (alpha):
      orbital --                 1                2                3                4
       energy --    -1.5630743D+01   -1.5616330D+01   -1.6144903D+00   -7.1058390D-01
      orbital --                 5                6                7                8
       energy --    -7.1058390D-01   -7.0436914D-01   -6.3910025D-01    2.9276326D-01
      orbital --                 9               10               11               12
       energy --     2.9276326D-01    6.2687490D-01    7.5579968D-01    8.0168600D-01
      orbital --                13               14               15               16
       energy --     8.0168600D-01    1.0245131D+00    1.1141566D+00    1.1141566D+00
      orbital --                17               18               19               20
       energy --     1.4382556D+00    1.7044534D+00    1.7044534D+00    1.9479823D+00
      orbital --                21               22               23               24
       energy --     2.1311772D+00    2.1311772D+00    2.4534571D+00    2.4534571D+00
      orbital --                25               26               27               28
       energy --     2.9744508D+00    3.2403931D+00    3.2403931D+00    4.2031882D+00

 Fock eigenvalues (beta):
      orbital --                 1                2                3                4
       energy --    -1.5630743D+01   -1.5616330D+01   -1.6144903D+00   -7.1058390D-01
      orbital --                 5                6                7                8
       energy --    -7.1058390D-01   -7.0436914D-01   -6.3910025D-01    2.9276326D-01
      orbital --                 9               10               11               12
       energy --     2.9276326D-01    6.2687490D-01    7.5579968D-01    8.0168600D-01
      orbital --                13               14               15               16
       energy --     8.0168600D-01    1.0245131D+00    1.1141566D+00    1.1141566D+00
      orbital --                17               18               19               20
       energy --     1.4382556D+00    1.7044534D+00    1.7044534D+00    1.9479823D+00
      orbital --                21               22               23               24
       energy --     2.1311772D+00    2.1311772D+00    2.4534571D+00    2.4534571D+00
      orbital --                25               26               27               28
       energy --     2.9744508D+00    3.2403931D+00    3.2403931D+00    4.2031882D+00

 *** cycle =    8 ***

        E =    -108.782798950469      DE =      -0.000000001050
      Hsp =    -203.934715075825     Hph =      66.341156991012
   <S**2> =      -0.000000000000
    RMSDP =       7.6807D-07        MaxP =       8.0233D-06

   E (HF) =    -108.782798918959

 ********************

*********  Start Cycle  9  *************
 
Start hffock

 Symmetry not used in FoFDir.
 MinBra= 0 MaxBra= 2 Meth= 1.
 IRaf=       1 NMat=   2 IRICut=       1 DoRegI=T DoRafI=F ISym2E= 0 JSym2E=0.
 PrsmSu:  NPrtUS=   4 ThrOK=T IAlg=1 NPAlg=2 LenDen=         930.
 Prism:   IPart=     0 DynPar=F LinDyn=F Incr=           7.
 PRISM was handed   134194479 working-precision words and    78 shell-pairs
 PRISM was handed   134194479 working-precision words and    78 shell-pairs
 PRISM was handed   134194479 working-precision words and    78 shell-pairs
 PRISM was handed   134194479 working-precision words and    78 shell-pairs
 IPart=  1 NShTot=         779 NBatch=         200 AvBLen=         3.9
 IPart=  2 NShTot=         751 NBatch=         201 AvBLen=         3.7
 IPart=  3 NShTot=         733 NBatch=         193 AvBLen=         3.8
 IPart=  0 NShTot=         818 NBatch=         210 AvBLen=         3.9
 PrSmSu:  NxtVal=             29.
 
Start hfdmdg: find NO basis
 
Start formng/pg
 
Start formgg

 Symmetry not used in FoFDir.
 MinBra= 0 MaxBra= 2 Meth= 1.
 IRaf=       1 NMat=  64 IRICut=       1 DoRegI=T DoRafI=F ISym2E= 0 JSym2E=0.
 PrsmSu:  NPrtUS=   4 ThrOK=T IAlg=1 NPAlg=2 LenDen=       29760.
 Prism:   IPart=     0 DynPar=T LinDyn=F Incr=           7.
 PRISM was handed   134074084 working-precision words and    78 shell-pairs
 PRISM was handed   134074084 working-precision words and    78 shell-pairs
 PRISM was handed   134074084 working-precision words and    78 shell-pairs
 PRISM was handed   134074084 working-precision words and    78 shell-pairs
 IPart=  3 NShTot=         642 NBatch=         108 AvBLen=         5.9
 IPart=  1 NShTot=         812 NBatch=         128 AvBLen=         6.3
 IPart=  2 NShTot=         843 NBatch=         120 AvBLen=         7.0
 IPart=  0 NShTot=         784 NBatch=         113 AvBLen=         6.9
 PrSmSu:  NxtVal=           3263.
 
Start evalsmt/hmt
 Smt (real):
                 1 
      1   0.200000D+01
 Smt (imaginary):
                 1 
      1   0.000000D+00
 Hmt (real):
                 1 
      1  -0.275187D+03
 Hmt (imaginary):
                 1 
      1   0.000000D+00
 
Form Fock eff
ifsel =     2, useproj    T
 DIIS: error= 4.85D-06 at cycle   9 NSaved=   9.
 NSaved= 9 IEnMin= 9 EnMin= -108.782798951803     IErMin= 2 ErrMin= 2.86D-06
 ErrMax= 4.85D-06 EMaxC= 1.00D+00 BMatC= 2.53D-09 BMatP= 7.02D-10
 IDIUse=1 WtCom= 1.00D+00 WtEn= 0.00D+00
 Coeff-Com:  0.000D+00 0.000D+00 0.000D+00 0.000D+00 0.000D+00 0.000D+00
 Coeff-Com:  0.000D+00 0.000D+00 0.100D+01
 Coeff:      0.000D+00 0.000D+00 0.000D+00 0.000D+00 0.000D+00 0.000D+00
 Coeff:      0.000D+00 0.000D+00 0.100D+01
 
Diag Fock

 Fock eigenvalues (alpha):
      orbital --                 1                2                3                4
       energy --    -1.5630743D+01   -1.5616330D+01   -1.6144903D+00   -7.1058390D-01
      orbital --                 5                6                7                8
       energy --    -7.1058390D-01   -7.0436914D-01   -6.3910025D-01    2.9276326D-01
      orbital --                 9               10               11               12
       energy --     2.9276326D-01    6.2687490D-01    7.5579968D-01    8.0168600D-01
      orbital --                13               14               15               16
       energy --     8.0168600D-01    1.0245131D+00    1.1141566D+00    1.1141566D+00
      orbital --                17               18               19               20
       energy --     1.4382556D+00    1.7044534D+00    1.7044534D+00    1.9479823D+00
      orbital --                21               22               23               24
       energy --     2.1311772D+00    2.1311772D+00    2.4534571D+00    2.4534571D+00
      orbital --                25               26               27               28
       energy --     2.9744508D+00    3.2403931D+00    3.2403931D+00    4.2031881D+00

 Fock eigenvalues (beta):
      orbital --                 1                2                3                4
       energy --    -1.5630743D+01   -1.5616330D+01   -1.6144903D+00   -7.1058390D-01
      orbital --                 5                6                7                8
       energy --    -7.1058390D-01   -7.0436914D-01   -6.3910025D-01    2.9276326D-01
      orbital --                 9               10               11               12
       energy --     2.9276326D-01    6.2687490D-01    7.5579968D-01    8.0168600D-01
      orbital --                13               14               15               16
       energy --     8.0168600D-01    1.0245131D+00    1.1141566D+00    1.1141566D+00
      orbital --                17               18               19               20
       energy --     1.4382556D+00    1.7044534D+00    1.7044534D+00    1.9479823D+00
      orbital --                21               22               23               24
       energy --     2.1311772D+00    2.1311772D+00    2.4534571D+00    2.4534571D+00
      orbital --                25               26               27               28
       energy --     2.9744508D+00    3.2403931D+00    3.2403931D+00    4.2031881D+00

 *** cycle =    9 ***

        E =    -108.782798951803      DE =      -0.000000001334
      Hsp =    -203.934715072002     Hph =      66.341156985855
   <S**2> =      -0.000000000000
    RMSDP =       8.7344D-07        MaxP =       9.3390D-06

   E (HF) =    -108.782798913951

 ********************

*********  Start Cycle 10  *************
 
Start hffock

 Symmetry not used in FoFDir.
 MinBra= 0 MaxBra= 2 Meth= 1.
 IRaf=       1 NMat=   2 IRICut=       1 DoRegI=T DoRafI=F ISym2E= 0 JSym2E=0.
 PrsmSu:  NPrtUS=   4 ThrOK=T IAlg=1 NPAlg=2 LenDen=         930.
 Prism:   IPart=     0 DynPar=F LinDyn=F Incr=           7.
 PRISM was handed   134194479 working-precision words and    78 shell-pairs
 PRISM was handed   134194479 working-precision words and    78 shell-pairs
 PRISM was handed   134194479 working-precision words and    78 shell-pairs
 PRISM was handed   134194479 working-precision words and    78 shell-pairs
 IPart=  1 NShTot=         779 NBatch=         200 AvBLen=         3.9
 IPart=  2 NShTot=         751 NBatch=         201 AvBLen=         3.7
 IPart=  3 NShTot=         733 NBatch=         193 AvBLen=         3.8
 IPart=  0 NShTot=         818 NBatch=         210 AvBLen=         3.9
 PrSmSu:  NxtVal=             29.
 
Start hfdmdg: find NO basis
 
Start formng/pg
 
Start formgg

 Symmetry not used in FoFDir.
 MinBra= 0 MaxBra= 2 Meth= 1.
 IRaf=       1 NMat=  64 IRICut=       1 DoRegI=T DoRafI=F ISym2E= 0 JSym2E=0.
 PrsmSu:  NPrtUS=   4 ThrOK=T IAlg=1 NPAlg=2 LenDen=       29760.
 Prism:   IPart=     0 DynPar=T LinDyn=F Incr=           7.
 PRISM was handed   134074084 working-precision words and    78 shell-pairs
 PRISM was handed   134074084 working-precision words and    78 shell-pairs
 PRISM was handed   134074084 working-precision words and    78 shell-pairs
 PRISM was handed   134074084 working-precision words and    78 shell-pairs
 IPart=  1 NShTot=         792 NBatch=         113 AvBLen=         7.0
 IPart=  0 NShTot=         845 NBatch=         127 AvBLen=         6.7
 IPart=  3 NShTot=         689 NBatch=         122 AvBLen=         5.6
 IPart=  2 NShTot=         755 NBatch=         111 AvBLen=         6.8
 PrSmSu:  NxtVal=           3263.
 
Start evalsmt/hmt
 Smt (real):
                 1 
      1   0.200000D+01
 Smt (imaginary):
                 1 
      1   0.000000D+00
 Hmt (real):
                 1 
      1  -0.275187D+03
 Hmt (imaginary):
                 1 
      1   0.000000D+00
 
Form Fock eff
ifsel =     2, useproj    T
 DIIS: error= 5.67D-06 at cycle  10 NSaved=  10.
 NSaved=10 IEnMin=10 EnMin= -108.782798953508     IErMin= 2 ErrMin= 2.86D-06
 ErrMax= 5.67D-06 EMaxC= 1.00D+00 BMatC= 3.22D-09 BMatP= 7.02D-10
 IDIUse=1 WtCom= 1.00D+00 WtEn= 0.00D+00
 Coeff-Com:  0.000D+00 0.000D+00 0.000D+00 0.000D+00 0.000D+00 0.000D+00
 Coeff-Com:  0.000D+00 0.000D+00 0.000D+00 0.100D+01
 Coeff:      0.000D+00 0.000D+00 0.000D+00 0.000D+00 0.000D+00 0.000D+00
 Coeff:      0.000D+00 0.000D+00 0.000D+00 0.100D+01
 
Diag Fock

 Fock eigenvalues (alpha):
      orbital --                 1                2                3                4
       energy --    -1.5630743D+01   -1.5616330D+01   -1.6144903D+00   -7.1058390D-01
      orbital --                 5                6                7                8
       energy --    -7.1058390D-01   -7.0436914D-01   -6.3910025D-01    2.9276326D-01
      orbital --                 9               10               11               12
       energy --     2.9276326D-01    6.2687490D-01    7.5579968D-01    8.0168600D-01
      orbital --                13               14               15               16
       energy --     8.0168600D-01    1.0245131D+00    1.1141566D+00    1.1141566D+00
      orbital --                17               18               19               20
       energy --     1.4382556D+00    1.7044534D+00    1.7044534D+00    1.9479823D+00
      orbital --                21               22               23               24
       energy --     2.1311772D+00    2.1311772D+00    2.4534571D+00    2.4534571D+00
      orbital --                25               26               27               28
       energy --     2.9744508D+00    3.2403931D+00    3.2403931D+00    4.2031881D+00

 Fock eigenvalues (beta):
      orbital --                 1                2                3                4
       energy --    -1.5630743D+01   -1.5616330D+01   -1.6144903D+00   -7.1058390D-01
      orbital --                 5                6                7                8
       energy --    -7.1058390D-01   -7.0436914D-01   -6.3910025D-01    2.9276326D-01
      orbital --                 9               10               11               12
       energy --     2.9276326D-01    6.2687490D-01    7.5579968D-01    8.0168600D-01
      orbital --                13               14               15               16
       energy --     8.0168600D-01    1.0245131D+00    1.1141566D+00    1.1141566D+00
      orbital --                17               18               19               20
       energy --     1.4382556D+00    1.7044534D+00    1.7044534D+00    1.9479823D+00
      orbital --                21               22               23               24
       energy --     2.1311772D+00    2.1311772D+00    2.4534571D+00    2.4534571D+00
      orbital --                25               26               27               28
       energy --     2.9744508D+00    3.2403931D+00    3.2403931D+00    4.2031881D+00

 *** cycle =   10 ***

        E =    -108.782798953508      DE =      -0.000000001705
      Hsp =    -203.934715071866     Hph =      66.341156984014
   <S**2> =      -0.000000000000
    RMSDP =       9.9624D-07        MaxP =       1.0879D-05

   E (HF) =    -108.782798907871

 ********************

*********  Start Cycle 11  *************
 
Start hffock

 Symmetry not used in FoFDir.
 MinBra= 0 MaxBra= 2 Meth= 1.
 IRaf=       1 NMat=   2 IRICut=       1 DoRegI=T DoRafI=F ISym2E= 0 JSym2E=0.
 PrsmSu:  NPrtUS=   4 ThrOK=T IAlg=1 NPAlg=2 LenDen=         930.
 Prism:   IPart=     0 DynPar=F LinDyn=F Incr=           7.
 PRISM was handed   134194479 working-precision words and    78 shell-pairs
 PRISM was handed   134194479 working-precision words and    78 shell-pairs
 PRISM was handed   134194479 working-precision words and    78 shell-pairs
 PRISM was handed   134194479 working-precision words and    78 shell-pairs
 IPart=  1 NShTot=         779 NBatch=         200 AvBLen=         3.9
 IPart=  2 NShTot=         751 NBatch=         201 AvBLen=         3.7
 IPart=  3 NShTot=         733 NBatch=         193 AvBLen=         3.8
 IPart=  0 NShTot=         818 NBatch=         210 AvBLen=         3.9
 PrSmSu:  NxtVal=             29.
 
Start hfdmdg: find NO basis
 
Start formng/pg
 
Start formgg

 Symmetry not used in FoFDir.
 MinBra= 0 MaxBra= 2 Meth= 1.
 IRaf=       1 NMat=  64 IRICut=       1 DoRegI=T DoRafI=F ISym2E= 0 JSym2E=0.
 PrsmSu:  NPrtUS=   4 ThrOK=T IAlg=1 NPAlg=2 LenDen=       29760.
 Prism:   IPart=     0 DynPar=T LinDyn=F Incr=           7.
 PRISM was handed   134074084 working-precision words and    78 shell-pairs
 PRISM was handed   134074084 working-precision words and    78 shell-pairs
 PRISM was handed   134074084 working-precision words and    78 shell-pairs
 PRISM was handed   134074084 working-precision words and    78 shell-pairs
 IPart=  1 NShTot=         760 NBatch=         130 AvBLen=         5.8
 IPart=  0 NShTot=         837 NBatch=         116 AvBLen=         7.2
 IPart=  2 NShTot=         792 NBatch=         121 AvBLen=         6.5
 IPart=  3 NShTot=         692 NBatch=         103 AvBLen=         6.7
 PrSmSu:  NxtVal=           3263.
 
Start evalsmt/hmt
 Smt (real):
                 1 
      1   0.200000D+01
 Smt (imaginary):
                 1 
      1   0.000000D+00
 Hmt (real):
                 1 
      1  -0.275187D+03
 Hmt (imaginary):
                 1 
      1   0.000000D+00
 
Form Fock eff
ifsel =     2, useproj    T
 DIIS: error= 6.63D-06 at cycle  11 NSaved=  11.
 NSaved=11 IEnMin=11 EnMin= -108.782798955702     IErMin= 2 ErrMin= 2.86D-06
 ErrMax= 6.63D-06 EMaxC= 1.00D+00 BMatC= 4.12D-09 BMatP= 7.02D-10
 IDIUse=1 WtCom= 1.00D+00 WtEn= 0.00D+00
 Coeff-Com:  0.000D+00 0.000D+00 0.000D+00 0.000D+00 0.000D+00 0.000D+00
 Coeff-Com:  0.000D+00 0.000D+00 0.000D+00 0.000D+00 0.100D+01
 Coeff:      0.000D+00 0.000D+00 0.000D+00 0.000D+00 0.000D+00 0.000D+00
 Coeff:      0.000D+00 0.000D+00 0.000D+00 0.000D+00 0.100D+01
 
Diag Fock

 Fock eigenvalues (alpha):
      orbital --                 1                2                3                4
       energy --    -1.5630743D+01   -1.5616330D+01   -1.6144903D+00   -7.1058390D-01
      orbital --                 5                6                7                8
       energy --    -7.1058390D-01   -7.0436914D-01   -6.3910024D-01    2.9276326D-01
      orbital --                 9               10               11               12
       energy --     2.9276326D-01    6.2687490D-01    7.5579968D-01    8.0168600D-01
      orbital --                13               14               15               16
       energy --     8.0168600D-01    1.0245131D+00    1.1141566D+00    1.1141566D+00
      orbital --                17               18               19               20
       energy --     1.4382556D+00    1.7044534D+00    1.7044534D+00    1.9479823D+00
      orbital --                21               22               23               24
       energy --     2.1311772D+00    2.1311772D+00    2.4534571D+00    2.4534571D+00
      orbital --                25               26               27               28
       energy --     2.9744508D+00    3.2403931D+00    3.2403931D+00    4.2031881D+00

 Fock eigenvalues (beta):
      orbital --                 1                2                3                4
       energy --    -1.5630743D+01   -1.5616330D+01   -1.6144903D+00   -7.1058390D-01
      orbital --                 5                6                7                8
       energy --    -7.1058390D-01   -7.0436914D-01   -6.3910024D-01    2.9276326D-01
      orbital --                 9               10               11               12
       energy --     2.9276326D-01    6.2687490D-01    7.5579968D-01    8.0168600D-01
      orbital --                13               14               15               16
       energy --     8.0168600D-01    1.0245131D+00    1.1141566D+00    1.1141566D+00
      orbital --                17               18               19               20
       energy --     1.4382556D+00    1.7044534D+00    1.7044534D+00    1.9479823D+00
      orbital --                21               22               23               24
       energy --     2.1311772D+00    2.1311772D+00    2.4534571D+00    2.4534571D+00
      orbital --                25               26               27               28
       energy --     2.9744508D+00    3.2403931D+00    3.2403931D+00    4.2031881D+00

 *** cycle =   11 ***

        E =    -108.782798955702      DE =      -0.000000002194
      Hsp =    -203.934715072075     Hph =      66.341156982029
   <S**2> =      -0.000000000000
    RMSDP =       1.1396D-06        MaxP =       1.2681D-05

   E (HF) =    -108.782798900457

 ********************

*********  Start Cycle 12  *************
 
Start hffock

 Symmetry not used in FoFDir.
 MinBra= 0 MaxBra= 2 Meth= 1.
 IRaf=       1 NMat=   2 IRICut=       1 DoRegI=T DoRafI=F ISym2E= 0 JSym2E=0.
 PrsmSu:  NPrtUS=   4 ThrOK=T IAlg=1 NPAlg=2 LenDen=         930.
 Prism:   IPart=     0 DynPar=F LinDyn=F Incr=           7.
 PRISM was handed   134194479 working-precision words and    78 shell-pairs
 PRISM was handed   134194479 working-precision words and    78 shell-pairs
 PRISM was handed   134194479 working-precision words and    78 shell-pairs
 PRISM was handed   134194479 working-precision words and    78 shell-pairs
 IPart=  1 NShTot=         779 NBatch=         200 AvBLen=         3.9
 IPart=  2 NShTot=         751 NBatch=         201 AvBLen=         3.7
 IPart=  3 NShTot=         733 NBatch=         193 AvBLen=         3.8
 IPart=  0 NShTot=         818 NBatch=         210 AvBLen=         3.9
 PrSmSu:  NxtVal=             29.
 
Start hfdmdg: find NO basis
 
Start formng/pg
 
Start formgg

 Symmetry not used in FoFDir.
 MinBra= 0 MaxBra= 2 Meth= 1.
 IRaf=       1 NMat=  64 IRICut=       1 DoRegI=T DoRafI=F ISym2E= 0 JSym2E=0.
 PrsmSu:  NPrtUS=   4 ThrOK=T IAlg=1 NPAlg=2 LenDen=       29760.
 Prism:   IPart=     0 DynPar=T LinDyn=F Incr=           7.
 PRISM was handed   134074084 working-precision words and    78 shell-pairs
 PRISM was handed   134074084 working-precision words and    78 shell-pairs
 PRISM was handed   134074084 working-precision words and    78 shell-pairs
 PRISM was handed   134074084 working-precision words and    78 shell-pairs
 IPart=  2 NShTot=         856 NBatch=         124 AvBLen=         6.9
 IPart=  0 NShTot=         693 NBatch=         115 AvBLen=         6.0
 IPart=  1 NShTot=         784 NBatch=         116 AvBLen=         6.8
 IPart=  3 NShTot=         748 NBatch=          97 AvBLen=         7.7
 PrSmSu:  NxtVal=           3263.
 
Start evalsmt/hmt
 Smt (real):
                 1 
      1   0.200000D+01
 Smt (imaginary):
                 1 
      1   0.000000D+00
 Hmt (real):
                 1 
      1  -0.275187D+03
 Hmt (imaginary):
                 1 
      1   0.000000D+00
 
Form Fock eff
ifsel =     2, useproj    T
 DIIS: error= 7.75D-06 at cycle  12 NSaved=  12.
 NSaved=12 IEnMin=12 EnMin= -108.782798958543     IErMin= 2 ErrMin= 2.86D-06
 ErrMax= 7.75D-06 EMaxC= 1.00D+00 BMatC= 5.31D-09 BMatP= 7.02D-10
 IDIUse=1 WtCom= 1.00D+00 WtEn= 0.00D+00
 Coeff-Com:  0.000D+00 0.000D+00 0.000D+00 0.000D+00 0.000D+00 0.000D+00
 Coeff-Com:  0.000D+00 0.000D+00 0.000D+00 0.000D+00 0.000D+00 0.100D+01
 Coeff:      0.000D+00 0.000D+00 0.000D+00 0.000D+00 0.000D+00 0.000D+00
 Coeff:      0.000D+00 0.000D+00 0.000D+00 0.000D+00 0.000D+00 0.100D+01
 
Diag Fock

 Fock eigenvalues (alpha):
      orbital --                 1                2                3                4
       energy --    -1.5630743D+01   -1.5616330D+01   -1.6144903D+00   -7.1058390D-01
      orbital --                 5                6                7                8
       energy --    -7.1058390D-01   -7.0436914D-01   -6.3910024D-01    2.9276326D-01
      orbital --                 9               10               11               12
       energy --     2.9276326D-01    6.2687490D-01    7.5579968D-01    8.0168600D-01
      orbital --                13               14               15               16
       energy --     8.0168600D-01    1.0245131D+00    1.1141566D+00    1.1141566D+00
      orbital --                17               18               19               20
       energy --     1.4382556D+00    1.7044534D+00    1.7044534D+00    1.9479823D+00
      orbital --                21               22               23               24
       energy --     2.1311772D+00    2.1311772D+00    2.4534571D+00    2.4534571D+00
      orbital --                25               26               27               28
       energy --     2.9744508D+00    3.2403931D+00    3.2403931D+00    4.2031881D+00

 Fock eigenvalues (beta):
      orbital --                 1                2                3                4
       energy --    -1.5630743D+01   -1.5616330D+01   -1.6144903D+00   -7.1058390D-01
      orbital --                 5                6                7                8
       energy --    -7.1058390D-01   -7.0436914D-01   -6.3910024D-01    2.9276326D-01
      orbital --                 9               10               11               12
       energy --     2.9276326D-01    6.2687490D-01    7.5579968D-01    8.0168600D-01
      orbital --                13               14               15               16
       energy --     8.0168600D-01    1.0245131D+00    1.1141566D+00    1.1141566D+00
      orbital --                17               18               19               20
       energy --     1.4382556D+00    1.7044534D+00    1.7044534D+00    1.9479823D+00
      orbital --                21               22               23               24
       energy --     2.1311772D+00    2.1311772D+00    2.4534571D+00    2.4534571D+00
      orbital --                25               26               27               28
[...]
      orbital --                13               14               15               16
       energy --     7.9914266D-01    1.0324677D+00    1.1276070D+00    1.1276070D+00
      orbital --                17               18               19               20
       energy --     1.4484817D+00    1.7039197D+00    1.7039197D+00    1.9485988D+00
      orbital --                21               22               23               24
       energy --     2.1368302D+00    2.1368302D+00    2.4598151D+00    2.4598151D+00
      orbital --                25               26               27               28
       energy --     2.9794583D+00    3.2487152D+00    3.2487152D+00    4.2158155D+00

 Fock eigenvalues (beta):
      orbital --                 1                2                3                4
       energy --    -1.5622105D+01   -1.5553489D+01   -1.6028763D+00   -7.1798093D-01
      orbital --                 5                6                7                8
       energy --    -7.1798093D-01   -7.1660834D-01   -5.8806175D-01    3.0500313D-01
      orbital --                 9               10               11               12
       energy --     3.0500313D-01    6.3097777D-01    7.5772927D-01    7.9914266D-01
      orbital --                13               14               15               16
       energy --     7.9914266D-01    1.0324677D+00    1.1276070D+00    1.1276070D+00
      orbital --                17               18               19               20
       energy --     1.4484817D+00    1.7039197D+00    1.7039197D+00    1.9485988D+00
      orbital --                21               22               23               24
       energy --     2.1368302D+00    2.1368302D+00    2.4598151D+00    2.4598151D+00
      orbital --                25               26               27               28
       energy --     2.9794583D+00    3.2487152D+00    3.2487152D+00    4.2158155D+00

 *** cycle =  110 ***

        E =    -108.829933525870      DE =      -0.000000000016
      Hsp =    -203.968503690337     Hph =      66.327811030123
   <S**2> =      -0.000000000551
    RMSDP =       1.9925D-08        MaxP =       1.9686D-07

   E (HF) =    -108.621230477965

 ********************

*********  Start Cycle111  *************
 
Start hffock

 Symmetry not used in FoFDir.
 MinBra= 0 MaxBra= 2 Meth= 1.
 IRaf=       1 NMat=   2 IRICut=       1 DoRegI=T DoRafI=F ISym2E= 0 JSym2E=0.
 PrsmSu:  NPrtUS=   4 ThrOK=T IAlg=1 NPAlg=2 LenDen=         930.
 Prism:   IPart=     0 DynPar=F LinDyn=F Incr=           7.
 PRISM was handed   134194479 working-precision words and    78 shell-pairs
 PRISM was handed   134194479 working-precision words and    78 shell-pairs
 PRISM was handed   134194479 working-precision words and    78 shell-pairs
 PRISM was handed   134194479 working-precision words and    78 shell-pairs
 IPart=  1 NShTot=         779 NBatch=         200 AvBLen=         3.9
 IPart=  3 NShTot=         733 NBatch=         193 AvBLen=         3.8
 IPart=  2 NShTot=         751 NBatch=         201 AvBLen=         3.7
 IPart=  0 NShTot=         818 NBatch=         210 AvBLen=         3.9
 PrSmSu:  NxtVal=             29.
 
Start hfdmdg: find NO basis
 
Start formng/pg
 
Start formgg

 Symmetry not used in FoFDir.
 MinBra= 0 MaxBra= 2 Meth= 1.
 IRaf=       1 NMat=  64 IRICut=       1 DoRegI=T DoRafI=F ISym2E= 0 JSym2E=0.
 PrsmSu:  NPrtUS=   4 ThrOK=T IAlg=1 NPAlg=2 LenDen=       29760.
 Prism:   IPart=     0 DynPar=T LinDyn=F Incr=           7.
 PRISM was handed   134074084 working-precision words and    78 shell-pairs
 PRISM was handed   134074084 working-precision words and    78 shell-pairs
 PRISM was handed   134074084 working-precision words and    78 shell-pairs
 PRISM was handed   134074084 working-precision words and    78 shell-pairs
 IPart=  3 NShTot=         727 NBatch=         110 AvBLen=         6.6
 IPart=  0 NShTot=         848 NBatch=         132 AvBLen=         6.4
 IPart=  2 NShTot=         783 NBatch=         109 AvBLen=         7.2
 IPart=  1 NShTot=         723 NBatch=         109 AvBLen=         6.6
 PrSmSu:  NxtVal=           3263.
 
Start evalsmt/hmt
 Smt (real):
                 1 
      1   0.139300D+01
 Smt (imaginary):
                 1 
      1   0.000000D+00
 Hmt (real):
                 1 
      1  -0.191733D+03
 Hmt (imaginary):
                 1 
      1   0.000000D+00
 
Form Fock eff
ifsel =     2, useproj    T
 DIIS: error= 9.24D-08 at cycle 111 NSaved=  12.
 NSaved=12 IEnMin=12 EnMin= -108.829933525870     IErMin=12 ErrMin= 9.24D-08
 ErrMax= 9.24D-08 EMaxC= 1.00D+00 BMatC= 4.25D-13 BMatP= 7.17D-13
 IDIUse=1 WtCom= 1.00D+00 WtEn= 0.00D+00
 Coeff-Com:  0.228D-02 0.149D+00-0.181D+00 0.443D-01 0.225D-01-0.205D+00
 Coeff-Com:  0.306D+00-0.447D+00 0.227D+00 0.640D+00-0.425D+01 0.469D+01
 Coeff:      0.228D-02 0.149D+00-0.181D+00 0.443D-01 0.225D-01-0.205D+00
 Coeff:      0.306D+00-0.447D+00 0.227D+00 0.640D+00-0.425D+01 0.469D+01
 
Diag Fock

 Fock eigenvalues (alpha):
      orbital --                 1                2                3                4
       energy --    -1.5622105D+01   -1.5553489D+01   -1.6028764D+00   -7.1798097D-01
      orbital --                 5                6                7                8
       energy --    -7.1798097D-01   -7.1660832D-01   -5.8806161D-01    3.0500311D-01
      orbital --                 9               10               11               12
       energy --     3.0500311D-01    6.3097771D-01    7.5772921D-01    7.9914265D-01
      orbital --                13               14               15               16
       energy --     7.9914265D-01    1.0324677D+00    1.1276070D+00    1.1276070D+00
      orbital --                17               18               19               20
       energy --     1.4484816D+00    1.7039197D+00    1.7039197D+00    1.9485989D+00
      orbital --                21               22               23               24
       energy --     2.1368302D+00    2.1368302D+00    2.4598151D+00    2.4598151D+00
      orbital --                25               26               27               28
       energy --     2.9794583D+00    3.2487152D+00    3.2487152D+00    4.2158155D+00

 Fock eigenvalues (beta):
      orbital --                 1                2                3                4
       energy --    -1.5622105D+01   -1.5553489D+01   -1.6028764D+00   -7.1798097D-01
      orbital --                 5                6                7                8
       energy --    -7.1798097D-01   -7.1660832D-01   -5.8806161D-01    3.0500311D-01
      orbital --                 9               10               11               12
       energy --     3.0500311D-01    6.3097771D-01    7.5772921D-01    7.9914265D-01
      orbital --                13               14               15               16
       energy --     7.9914265D-01    1.0324677D+00    1.1276070D+00    1.1276070D+00
      orbital --                17               18               19               20
       energy --     1.4484816D+00    1.7039197D+00    1.7039197D+00    1.9485989D+00
      orbital --                21               22               23               24
       energy --     2.1368302D+00    2.1368302D+00    2.4598151D+00    2.4598151D+00
      orbital --                25               26               27               28
       energy --     2.9794583D+00    3.2487152D+00    3.2487152D+00    4.2158155D+00

 *** cycle =  111 ***

        E =    -108.829933525870      DE =      -0.000000000000
      Hsp =    -203.968503659070     Hph =      66.327810998855
   <S**2> =      -0.000000000551
    RMSDP =       4.9624D-08        MaxP =       4.2838D-07

   E (HF) =    -108.621230659317

 ********************

*********  Start Cycle112  *************
 
Start hffock

 Symmetry not used in FoFDir.
 MinBra= 0 MaxBra= 2 Meth= 1.
 IRaf=       1 NMat=   2 IRICut=       1 DoRegI=T DoRafI=F ISym2E= 0 JSym2E=0.
 PrsmSu:  NPrtUS=   4 ThrOK=T IAlg=1 NPAlg=2 LenDen=         930.
 Prism:   IPart=     0 DynPar=F LinDyn=F Incr=           7.
 PRISM was handed   134194479 working-precision words and    78 shell-pairs
 PRISM was handed   134194479 working-precision words and    78 shell-pairs
 PRISM was handed   134194479 working-precision words and    78 shell-pairs
 PRISM was handed   134194479 working-precision words and    78 shell-pairs
 IPart=  1 NShTot=         779 NBatch=         200 AvBLen=         3.9
 IPart=  3 NShTot=         733 NBatch=         193 AvBLen=         3.8
 IPart=  2 NShTot=         751 NBatch=         201 AvBLen=         3.7
 IPart=  0 NShTot=         818 NBatch=         210 AvBLen=         3.9
 PrSmSu:  NxtVal=             29.
 
Start hfdmdg: find NO basis
 
Start formng/pg
 
Start formgg

 Symmetry not used in FoFDir.
 MinBra= 0 MaxBra= 2 Meth= 1.
 IRaf=       1 NMat=  64 IRICut=       1 DoRegI=T DoRafI=F ISym2E= 0 JSym2E=0.
 PrsmSu:  NPrtUS=   4 ThrOK=T IAlg=1 NPAlg=2 LenDen=       29760.
 Prism:   IPart=     0 DynPar=T LinDyn=F Incr=           7.
 PRISM was handed   134074084 working-precision words and    78 shell-pairs
 PRISM was handed   134074084 working-precision words and    78 shell-pairs
 PRISM was handed   134074084 working-precision words and    78 shell-pairs
 PRISM was handed   134074084 working-precision words and    78 shell-pairs
 IPart=  2 NShTot=         799 NBatch=         122 AvBLen=         6.5
 IPart=  0 NShTot=         802 NBatch=         118 AvBLen=         6.8
 IPart=  1 NShTot=         714 NBatch=         119 AvBLen=         6.0
 IPart=  3 NShTot=         766 NBatch=         122 AvBLen=         6.3
 PrSmSu:  NxtVal=           3263.
 
Start evalsmt/hmt
 Smt (real):
                 1 
      1   0.139300D+01
 Smt (imaginary):
                 1 
      1   0.000000D+00
 Hmt (real):
                 1 
      1  -0.191733D+03
 Hmt (imaginary):
                 1 
      1   0.000000D+00
 
Form Fock eff
ifsel =     2, useproj    T
 DIIS: error= 2.16D-08 at cycle 112 NSaved=  13.
 NSaved=13 IEnMin=13 EnMin= -108.829933525871     IErMin=13 ErrMin= 2.16D-08
 ErrMax= 2.16D-08 EMaxC= 1.00D+00 BMatC= 4.66D-14 BMatP= 4.25D-13
 IDIUse=1 WtCom= 1.00D+00 WtEn= 0.00D+00
 Coeff-Com: -0.622D-03-0.305D-01 0.388D-01-0.148D-01-0.512D-02 0.566D-01
 Coeff-Com: -0.808D-01 0.129D+00-0.975D-01-0.859D-01 0.106D+01-0.146D+01
 Coeff-Com:  0.150D+01
 Coeff:     -0.622D-03-0.305D-01 0.388D-01-0.148D-01-0.512D-02 0.566D-01
 Coeff:     -0.808D-01 0.129D+00-0.975D-01-0.859D-01 0.106D+01-0.146D+01
 Coeff:      0.150D+01
 
Diag Fock

 Fock eigenvalues (alpha):
      orbital --                 1                2                3                4
       energy --    -1.5622105D+01   -1.5553489D+01   -1.6028765D+00   -7.1798099D-01
      orbital --                 5                6                7                8
       energy --    -7.1798099D-01   -7.1660848D-01   -5.8806168D-01    3.0500311D-01
      orbital --                 9               10               11               12
       energy --     3.0500311D-01    6.3097770D-01    7.5772919D-01    7.9914264D-01
      orbital --                13               14               15               16
       energy --     7.9914264D-01    1.0324677D+00    1.1276070D+00    1.1276070D+00
      orbital --                17               18               19               20
       energy --     1.4484817D+00    1.7039197D+00    1.7039197D+00    1.9485989D+00
      orbital --                21               22               23               24
       energy --     2.1368302D+00    2.1368302D+00    2.4598151D+00    2.4598151D+00
      orbital --                25               26               27               28
       energy --     2.9794583D+00    3.2487152D+00    3.2487152D+00    4.2158155D+00

 Fock eigenvalues (beta):
      orbital --                 1                2                3                4
       energy --    -1.5622105D+01   -1.5553489D+01   -1.6028765D+00   -7.1798099D-01
      orbital --                 5                6                7                8
       energy --    -7.1798099D-01   -7.1660848D-01   -5.8806168D-01    3.0500311D-01
      orbital --                 9               10               11               12
       energy --     3.0500311D-01    6.3097770D-01    7.5772919D-01    7.9914264D-01
      orbital --                13               14               15               16
       energy --     7.9914264D-01    1.0324677D+00    1.1276070D+00    1.1276070D+00
      orbital --                17               18               19               20
       energy --     1.4484817D+00    1.7039197D+00    1.7039197D+00    1.9485989D+00
      orbital --                21               22               23               24
       energy --     2.1368302D+00    2.1368302D+00    2.4598151D+00    2.4598151D+00
      orbital --                25               26               27               28
       energy --     2.9794583D+00    3.2487152D+00    3.2487152D+00    4.2158155D+00

 *** cycle =  112 ***

        E =    -108.829933525871      DE =      -0.000000000000
      Hsp =    -203.968503424070     Hph =      66.327810763855
   <S**2> =      -0.000000000551
    RMSDP =       1.7041D-08        MaxP =       2.1608D-07

   E (HF) =    -108.621230656131

 ********************

*********  Start Cycle113  *************
 
Start hffock

 Symmetry not used in FoFDir.
 MinBra= 0 MaxBra= 2 Meth= 1.
 IRaf=       1 NMat=   2 IRICut=       1 DoRegI=T DoRafI=F ISym2E= 0 JSym2E=0.
 PrsmSu:  NPrtUS=   4 ThrOK=T IAlg=1 NPAlg=2 LenDen=         930.
 Prism:   IPart=     0 DynPar=F LinDyn=F Incr=           7.
 PRISM was handed   134194479 working-precision words and    78 shell-pairs
 PRISM was handed   134194479 working-precision words and    78 shell-pairs
 PRISM was handed   134194479 working-precision words and    78 shell-pairs
 PRISM was handed   134194479 working-precision words and    78 shell-pairs
 IPart=  1 NShTot=         779 NBatch=         200 AvBLen=         3.9
 IPart=  3 NShTot=         733 NBatch=         193 AvBLen=         3.8
 IPart=  2 NShTot=         751 NBatch=         201 AvBLen=         3.7
 IPart=  0 NShTot=         818 NBatch=         210 AvBLen=         3.9
 PrSmSu:  NxtVal=             29.
 
Start hfdmdg: find NO basis
 
Start formng/pg
 
Start formgg

 Symmetry not used in FoFDir.
 MinBra= 0 MaxBra= 2 Meth= 1.
 IRaf=       1 NMat=  64 IRICut=       1 DoRegI=T DoRafI=F ISym2E= 0 JSym2E=0.
 PrsmSu:  NPrtUS=   4 ThrOK=T IAlg=1 NPAlg=2 LenDen=       29760.
 Prism:   IPart=     0 DynPar=T LinDyn=F Incr=           7.
 PRISM was handed   134074084 working-precision words and    78 shell-pairs
 PRISM was handed   134074084 working-precision words and    78 shell-pairs
 PRISM was handed   134074084 working-precision words and    78 shell-pairs
 PRISM was handed   134074084 working-precision words and    78 shell-pairs
 IPart=  3 NShTot=         744 NBatch=         114 AvBLen=         6.5
 IPart=  2 NShTot=         826 NBatch=         109 AvBLen=         7.6
 IPart=  0 NShTot=         861 NBatch=         132 AvBLen=         6.5
 IPart=  1 NShTot=         650 NBatch=         115 AvBLen=         5.7
 PrSmSu:  NxtVal=           3263.
 
Start evalsmt/hmt
 Smt (real):
                 1 
      1   0.139300D+01
 Smt (imaginary):
                 1 
      1   0.000000D+00
 Hmt (real):
                 1 
      1  -0.191733D+03
 Hmt (imaginary):
                 1 
      1   0.000000D+00
 
Form Fock eff
ifsel =     2, useproj    T
 DIIS: error= 7.29D-09 at cycle 113 NSaved=  14.
 NSaved=14 IEnMin=13 EnMin= -108.829933525871     IErMin=14 ErrMin= 7.29D-09
 ErrMax= 7.29D-09 EMaxC= 1.00D+00 BMatC= 9.23D-15 BMatP= 4.66D-14
 IDIUse=1 WtCom= 1.00D+00 WtEn= 0.00D+00
 Coeff-Com:  0.138D-02 0.619D-01-0.801D-01 0.338D-01 0.114D-01-0.122D+00
 Coeff-Com:  0.167D+00-0.265D+00 0.213D+00 0.123D+00-0.189D+01 0.270D+01
 Coeff-Com: -0.303D+01 0.308D+01
 Coeff:      0.138D-02 0.619D-01-0.801D-01 0.338D-01 0.114D-01-0.122D+00
 Coeff:      0.167D+00-0.265D+00 0.213D+00 0.123D+00-0.189D+01 0.270D+01
 Coeff:     -0.303D+01 0.308D+01
 
Diag Fock

 Fock eigenvalues (alpha):
      orbital --                 1                2                3                4
       energy --    -1.5622105D+01   -1.5553489D+01   -1.6028765D+00   -7.1798099D-01
      orbital --                 5                6                7                8
       energy --    -7.1798099D-01   -7.1660838D-01   -5.8806163D-01    3.0500310D-01
      orbital --                 9               10               11               12
       energy --     3.0500310D-01    6.3097769D-01    7.5772919D-01    7.9914264D-01
      orbital --                13               14               15               16
       energy --     7.9914264D-01    1.0324677D+00    1.1276070D+00    1.1276070D+00
      orbital --                17               18               19               20
       energy --     1.4484816D+00    1.7039197D+00    1.7039197D+00    1.9485989D+00
      orbital --                21               22               23               24
       energy --     2.1368302D+00    2.1368302D+00    2.4598151D+00    2.4598151D+00
      orbital --                25               26               27               28
       energy --     2.9794583D+00    3.2487152D+00    3.2487152D+00    4.2158155D+00

 Fock eigenvalues (beta):
      orbital --                 1                2                3                4
       energy --    -1.5622105D+01   -1.5553489D+01   -1.6028765D+00   -7.1798099D-01
      orbital --                 5                6                7                8
       energy --    -7.1798099D-01   -7.1660838D-01   -5.8806163D-01    3.0500310D-01
      orbital --                 9               10               11               12
       energy --     3.0500310D-01    6.3097769D-01    7.5772919D-01    7.9914264D-01
      orbital --                13               14               15               16
       energy --     7.9914264D-01    1.0324677D+00    1.1276070D+00    1.1276070D+00
      orbital --                17               18               19               20
       energy --     1.4484816D+00    1.7039197D+00    1.7039197D+00    1.9485989D+00
      orbital --                21               22               23               24
       energy --     2.1368302D+00    2.1368302D+00    2.4598151D+00    2.4598151D+00
      orbital --                25               26               27               28
       energy --     2.9794583D+00    3.2487152D+00    3.2487152D+00    4.2158155D+00

 *** cycle =  113 ***

        E =    -108.829933525871      DE =       0.000000000000
      Hsp =    -203.968503378132     Hph =      66.327810717917
   <S**2> =      -0.000000000551
    RMSDP =       8.1145D-09        MaxP =       8.2667D-08

   E (HF) =    -108.621230490386

 ********************


 *** SCF Done after  113 cycles ***

        E =    -108.829933525871    conv =           8.1145E-09
      Hsp =    -203.968503378132     Hph =      66.327810717917
   <S**2> =      -0.000000000551

 **********************************


 PHF SCF - quitting the program

 Leave Link  530 at Mon Dec 21 12:56:39 2020, MaxMem=  536870912 cpu:      35.6
 (Enter /share/apps/gaussian/G09C01Z/srwang-mod-2020/g09/l9999.exe)

 Test job not archived.
 1\1\GINC-XN01\SP\CUHF\CC-pVDZ\N2\SRWANG\21-Dec-2020\0\\#p uhf/cc-pvdz 
 nosymm guess=read scf=conver=4 # extralink=l530 iop(5/206=6, 5/207=4, 
 5/216=1, 5/218=100) pop=none\\title\\0,1\N,0,0.,0.,0.\N,0,0.,0.,0.9\\V
 ersion=EM64L-G09RevC.01\HF=-108.8299335\S2=0.\S2-1=0.\S2A=0.\RMSD=8.11
 4e-09\PG=D*H [C*(N1.N1)]\\@


 THE DIFFICULTY IN SCIENCE IS OFTEN NOT SO MUCH HOW
 TO MAKE A DISCOVERY BUT RATHER TO KNOW ONE HAS MADE IT.

                                                   -- J. D. BERNAL
 Job cpu time:  0 days  0 hours  0 minutes 37.4 seconds.
 File lengths (MBytes):  RWF=      9 Int=      0 D2E=      0 Chk=      8 Scr=      1
 Normal termination of Gaussian 09 at Mon Dec 21 12:56:39 2020.
