 Entering Gaussian System, Link 0=g09
 Input=test.gjf
 Output=test.log
 Initial command:
 /share/home/srwang/g09/l1.exe /share/home/srwang/gauscr/Gau-20393.inp -scrdir=/share/home/srwang/gauscr/
 Entering Link 1 = /share/home/srwang/g09/l1.exe PID=     20394.
  
 Copyright (c) 1988,1990,1992,1993,1995,1998,2003,2009,2011,
            Gaussian, Inc.  All Rights Reserved.
  
 This is part of the Gaussian(R) 09 program.  It is based on
 the Gaussian(R) 03 system (copyright 2003, Gaussian, Inc.),
 the Gaussian(R) 98 system (copyright 1998, Gaussian, Inc.),
 the Gaussian(R) 94 system (copyright 1995, Gaussian, Inc.),
 the Gaussian 92(TM) system (copyright 1992, Gaussian, Inc.),
 the Gaussian 90(TM) system (copyright 1990, Gaussian, Inc.),
 the Gaussian 88(TM) system (copyright 1988, Gaussian, Inc.),
 the Gaussian 86(TM) system (copyright 1986, Carnegie Mellon
 University), and the Gaussian 82(TM) system (copyright 1983,
 Carnegie Mellon University). Gaussian is a federally registered
 trademark of Gaussian, Inc.
  
 This software contains proprietary and confidential information,
 including trade secrets, belonging to Gaussian, Inc.
  
 This software is provided under written license and may be
 used, copied, transmitted, or stored only in accord with that
 written license.
  
 The following legend is applicable only to US Government
 contracts under FAR:
  
                    RESTRICTED RIGHTS LEGEND
  
 Use, reproduction and disclosure by the US Government is
 subject to restrictions as set forth in subparagraphs (a)
 and (c) of the Commercial Computer Software - Restricted
 Rights clause in FAR 52.227-19.
  
 Gaussian, Inc.
 340 Quinnipiac St., Bldg. 40, Wallingford CT 06492
  
  
 ---------------------------------------------------------------
 Warning -- This program may not be used in any manner that
 competes with the business of Gaussian, Inc. or will provide
 assistance to any competitor of Gaussian, Inc.  The licensee
 of this program is prohibited from giving any competitor of
 Gaussian, Inc. access to this program.  By using this program,
 the user acknowledges that Gaussian, Inc. is engaged in the
 business of creating and licensing software in the field of
 computational chemistry and represents and warrants to the
 licensee that it is not a competitor of Gaussian, Inc. and that
 it will not use this program in any manner prohibited above.
 ---------------------------------------------------------------
  

 Cite this work as:
 Gaussian 09, Revision C.01,
 M. J. Frisch, G. W. Trucks, H. B. Schlegel, G. E. Scuseria, 
 M. A. Robb, J. R. Cheeseman, G. Scalmani, V. Barone, B. Mennucci, 
 G. A. Petersson, H. Nakatsuji, M. Caricato, X. Li, H. P. Hratchian, 
 A. F. Izmaylov, J. Bloino, G. Zheng, J. L. Sonnenberg, M. Hada, 
 M. Ehara, K. Toyota, R. Fukuda, J. Hasegawa, M. Ishida, T. Nakajima, 
 Y. Honda, O. Kitao, H. Nakai, T. Vreven, J. A. Montgomery, Jr., 
 J. E. Peralta, F. Ogliaro, M. Bearpark, J. J. Heyd, E. Brothers, 
 K. N. Kudin, V. N. Staroverov, T. Keith, R. Kobayashi, J. Normand, 
 K. Raghavachari, A. Rendell, J. C. Burant, S. S. Iyengar, J. Tomasi, 
 M. Cossi, N. Rega, J. M. Millam, M. Klene, J. E. Knox, J. B. Cross, 
 V. Bakken, C. Adamo, J. Jaramillo, R. Gomperts, R. E. Stratmann, 
 O. Yazyev, A. J. Austin, R. Cammi, C. Pomelli, J. W. Ochterski, 
 R. L. Martin, K. Morokuma, V. G. Zakrzewski, G. A. Voth, 
 P. Salvador, J. J. Dannenberg, S. Dapprich, A. D. Daniels, 
 O. Farkas, J. B. Foresman, J. V. Ortiz, J. Cioslowski, 
 and D. J. Fox, Gaussian, Inc., Wallingford CT, 2010.
 
 ******************************************
 Gaussian 09:  EM64L-G09RevC.01 23-Sep-2011
                 3-Oct-2020 
 ******************************************
 %subst l530 ../phf
 %nproc=1
 Will use up to    1 processors via shared memory.
 %mem=4GB
 %chk=test.chk
 ----------------------------------------------------------------------
 #p uhf/3-21g guess=mix scf=conver=4 extralink=l530 iop(5/206=9, 5/207=
 4, 5/216=1) pop=none
 ----------------------------------------------------------------------
 1/38=1/1;
 2/12=2,17=6,18=5,40=1/2;
 3/5=5,11=2,16=1,25=1,30=1,116=2/1,2,3;
 4/13=-1/1;
 5/5=2,6=4,38=5,206=9,207=4,216=1/2,30;
 99/5=1,9=1/99;
 Leave Link    1 at Sat Oct  3 20:01:35 2020, MaxMem=  536870912 cpu:       0.0
 (Enter /share/home/srwang/g09/l101.exe)
 -----
 title
 -----
 Charge =  0 Multiplicity = 1
 Symbolic Z-Matrix:
 H                     0.        0.        0. 
 H                     0.        0.        2. 
 
 NAtoms=      2 NQM=        0 NQMF=       0 NMMI=      2 NMMIF=      0
                NMic=       0 NMicF=      0.
                    Isotopes and Nuclear Properties:
 (Nuclear quadrupole moments (NQMom) in fm**2, nuclear magnetic moments (NMagM)
  in nuclear magnetons)

  Atom         1           2
 IAtWgt=           1           1
 AtmWgt=   1.0078250   1.0078250
 NucSpn=           1           1
 AtZEff=   0.0000000   0.0000000
 NQMom=    0.0000000   0.0000000
 NMagM=    2.7928460   2.7928460
 Leave Link  101 at Sat Oct  3 20:01:35 2020, MaxMem=  536870912 cpu:       0.0
 (Enter /share/home/srwang/g09/l202.exe)
                          Input orientation:                          
 ---------------------------------------------------------------------
 Center     Atomic      Atomic             Coordinates (Angstroms)
 Number     Number       Type             X           Y           Z
 ---------------------------------------------------------------------
      1          1           0        0.000000    0.000000    0.000000
      2          1           0        0.000000    0.000000    2.000000
 ---------------------------------------------------------------------
 Stoichiometry    H2
 Framework group  D*H[C*(H.H)]
 Deg. of freedom     1
 Full point group                 D*H     NOp   8
 Largest Abelian subgroup         D2H     NOp   8
 Largest concise Abelian subgroup C2      NOp   2
                         Standard orientation:                         
 ---------------------------------------------------------------------
 Center     Atomic      Atomic             Coordinates (Angstroms)
 Number     Number       Type             X           Y           Z
 ---------------------------------------------------------------------
      1          1           0        0.000000    0.000000    1.000000
      2          1           0        0.000000    0.000000   -1.000000
 ---------------------------------------------------------------------
 Rotational constants (GHZ):      0.0000000    250.7275501    250.7275501
 Leave Link  202 at Sat Oct  3 20:01:35 2020, MaxMem=  536870912 cpu:       0.0
 (Enter /share/home/srwang/g09/l301.exe)
 Standard basis: 3-21G (6D, 7F)
 Ernie: Thresh=  0.10000D-02 Tol=  0.10000D-05 Strict=F.
 There are     2 symmetry adapted basis functions of AG  symmetry.
 There are     0 symmetry adapted basis functions of B1G symmetry.
 There are     0 symmetry adapted basis functions of B2G symmetry.
 There are     0 symmetry adapted basis functions of B3G symmetry.
 There are     0 symmetry adapted basis functions of AU  symmetry.
 There are     2 symmetry adapted basis functions of B1U symmetry.
 There are     0 symmetry adapted basis functions of B2U symmetry.
 There are     0 symmetry adapted basis functions of B3U symmetry.
 Integral buffers will be    131072 words long.
 Raffenetti 2 integral format.
 Two-electron integral symmetry is turned on.
     4 basis functions,     6 primitive gaussians,     4 cartesian basis functions
     1 alpha electrons        1 beta electrons
       nuclear repulsion energy         0.2645886043 Hartrees.
 IExCor=    0 DFT=F Ex=HF Corr=None ExCW=0 ScaHFX=  1.000000
 ScaDFX=  1.000000  1.000000  1.000000  1.000000 ScalE2=  1.000000  1.000000
 IRadAn=      0 IRanWt=     -1 IRanGd=            0 ICorTp=0
 NAtoms=    2 NActive=    2 NUniq=    1 SFac= 4.00D+00 NAtFMM=   60 NAOKFM=F Big=F
 Leave Link  301 at Sat Oct  3 20:01:35 2020, MaxMem=  536870912 cpu:       0.0
 (Enter /share/home/srwang/g09/l302.exe)
 NPDir=0 NMtPBC=     1 NCelOv=     1 NCel=       1 NClECP=     1 NCelD=      1
         NCelK=      1 NCelE2=     1 NClLst=     1 CellRange=     0.0.
 One-electron integrals computed using PRISM.
 One-electron integral symmetry used in STVInt
 NBasis=     4 RedAO= T  NBF=     2     0     0     0     0     2     0     0
 NBsUse=     4 1.00D-06 NBFU=     2     0     0     0     0     2     0     0
 Leave Link  302 at Sat Oct  3 20:01:35 2020, MaxMem=  536870912 cpu:       0.0
 (Enter /share/home/srwang/g09/l303.exe)
 DipDrv:  MaxL=1.
 Leave Link  303 at Sat Oct  3 20:01:35 2020, MaxMem=  536870912 cpu:       0.0
 (Enter /share/home/srwang/g09/l401.exe)
 Harris functional with IExCor=  205 diagonalized for initial guess.
 ExpMin= 1.83D-01 ExpMax= 5.45D+00 ExpMxC= 5.45D+00 IAcc=1 IRadAn=         1 AccDes= 0.00D+00
 HarFok:  IExCor=  205 AccDes= 0.00D+00 IRadAn=         1 IDoV= 1
 ScaDFX=  1.000000  1.000000  1.000000  1.000000
 FoFCou: FMM=F IPFlag=           0 FMFlag=      100000 FMFlg1=           0
         NFxFlg=           0 DoJE=T BraDBF=F KetDBF=T FulRan=T
         Omega=  0.000000  0.000000  1.000000  0.000000  0.000000 ICntrl=     500 IOpCl=  0
         NMat0=    1 NMatS0=    1 NMatT0=    0 NMatD0=    1 NMtDS0=    0 NMtDT0=    0
         I1Cent=           4 NGrid=           0.
 Petite list used in FoFCou.
 Harris En=-0.998534334700695    
 Mixing orbitals, IMix= 1 IMixAn=  0 NRI=1 NE=    1 Coef=  7.07106781D-01  7.07106781D-01
 Mixing orbitals, IMix= 1 IMixAn=  0 NRI=1 NE=    1 Coef= -7.07106781D-01  7.07106781D-01
 Initial guess orbital symmetries:
 Alpha Orbitals:
       Occupied  (?A)
       Virtual   (?A) (SGG) (SGU)
 Beta  Orbitals:
       Occupied  (?A)
       Virtual   (?A) (SGG) (SGU)
 Initial guess <Sx>= 0.0000 <Sy>= 0.0000 <Sz>= 0.0000 <S**2>= 1.0000 S= 0.6180
 Leave Link  401 at Sat Oct  3 20:01:35 2020, MaxMem=  536870912 cpu:       0.1
 (Enter /share/home/srwang/g09/l502.exe)
 UHF open shell SCF:
 Requested convergence on RMS density matrix=1.00D-04 within 128 cycles.
 Requested convergence on MAX density matrix=1.00D-02.
 Requested convergence on             energy=1.00D-02.
 No special actions if energy rises.
 Using DIIS extrapolation, IDIIS=  1040.
 Integral symmetry usage will be decided dynamically.
 Keep R1 and R2 ints in memory in canonical form, NReq=819896.
 IEnd=       19765 IEndB=       19765 NGot=   536870912 MDV=   536868112
 LenX=   536868112 LenY=   536867230
 Symmetry not used in FoFDir.
 MinBra= 0 MaxBra= 0 Meth= 1.
 IRaf=       0 NMat=   1 IRICut=       1 DoRegI=T DoRafI=F ISym2E= 0 JSym2E=0.
 An orbital has undefined symmetry, so N**3 symmetry is turned off.

 Cycle   1  Pass 1  IDiag  1:
 Density matrix breaks symmetry, PCut= 1.00D-04
 Density matrix has no symmetry -- integrals replicated.
 E=-0.976252209587261    
 DIIS: error= 2.74D-02 at cycle   1 NSaved=   1.
 NSaved= 1 IEnMin= 1 EnMin=-0.976252209587261     IErMin= 1 ErrMin= 2.74D-02
 ErrMax= 2.74D-02 EMaxC= 1.00D-01 BMatC= 2.22D-02 BMatP= 2.22D-02
 IDIUse=3 WtCom= 7.26D-01 WtEn= 2.74D-01
 Coeff-Com:  0.100D+01
 Coeff-En:   0.100D+01
 Coeff:      0.100D+01
 Gap=     0.617 Goal=   None    Shift=    0.000
 Gap=     0.617 Goal=   None    Shift=    0.000
 GapD=    0.617 DampG=2.000 DampE=0.500 DampFc=1.0000 IDamp=-1.
 RMSDP=3.02D-02 MaxDP=6.52D-02              OVMax= 9.37D-02

 Cycle   2  Pass 1  IDiag  1:
 Density matrix breaks symmetry, PCut= 1.00D-07
 Density matrix has no symmetry -- integrals replicated.
 E=-0.994211662723095     Delta-E=       -0.017959453136 Rises=F Damp=F
 DIIS: error= 1.03D-02 at cycle   2 NSaved=   2.
 NSaved= 2 IEnMin= 2 EnMin=-0.994211662723095     IErMin= 2 ErrMin= 1.03D-02
 ErrMax= 1.03D-02 EMaxC= 1.00D-01 BMatC= 2.49D-03 BMatP= 2.22D-02
 IDIUse=3 WtCom= 8.97D-01 WtEn= 1.03D-01
 Coeff-Com: -0.469D+00 0.147D+01
 Coeff-En:   0.000D+00 0.100D+01
 Coeff:     -0.421D+00 0.142D+01
 Gap=     0.623 Goal=   None    Shift=    0.000
 Gap=     0.623 Goal=   None    Shift=    0.000
 RMSDP=1.49D-02 MaxDP=3.09D-02 DE=-1.80D-02 OVMax= 5.02D-02

 Cycle   3  Pass 1  IDiag  1:
 Density matrix breaks symmetry, PCut= 1.00D-07
 Density matrix has no symmetry -- integrals replicated.
 E=-0.996913990388707     Delta-E=       -0.002702327666 Rises=F Damp=F
 DIIS: error= 1.84D-03 at cycle   3 NSaved=   3.
 NSaved= 3 IEnMin= 3 EnMin=-0.996913990388707     IErMin= 3 ErrMin= 1.84D-03
 ErrMax= 1.84D-03 EMaxC= 1.00D-01 BMatC= 7.61D-05 BMatP= 2.49D-03
 IDIUse=3 WtCom= 9.82D-01 WtEn= 1.84D-02
 Coeff-Com:  0.321D+00-0.108D+01 0.176D+01
 Coeff-En:   0.000D+00 0.000D+00 0.100D+01
 Coeff:      0.315D+00-0.106D+01 0.175D+01
 Gap=     0.611 Goal=   None    Shift=    0.000
 Gap=     0.611 Goal=   None    Shift=    0.000
 RMSDP=2.91D-03 MaxDP=6.60D-03 DE=-2.70D-03 OVMax= 1.10D-02

 Cycle   4  Pass 1  IDiag  1:
 Density matrix breaks symmetry, PCut= 1.00D-07
 Density matrix has no symmetry -- integrals replicated.
 E=-0.997011007279649     Delta-E=       -0.000097016891 Rises=F Damp=F
 DIIS: error= 1.60D-04 at cycle   4 NSaved=   4.
 NSaved= 4 IEnMin= 4 EnMin=-0.997011007279649     IErMin= 4 ErrMin= 1.60D-04
 ErrMax= 1.60D-04 EMaxC= 1.00D-01 BMatC= 5.53D-07 BMatP= 7.61D-05
 IDIUse=3 WtCom= 9.98D-01 WtEn= 1.60D-03
 Coeff-Com: -0.360D-01 0.112D+00-0.185D+00 0.111D+01
 Coeff-En:   0.000D+00 0.000D+00 0.000D+00 0.100D+01
 Coeff:     -0.359D-01 0.112D+00-0.185D+00 0.111D+01
 Gap=     0.615 Goal=   None    Shift=    0.000
 Gap=     0.615 Goal=   None    Shift=    0.000
 RMSDP=1.48D-04 MaxDP=2.67D-04 DE=-9.70D-05 OVMax= 6.23D-04

 Cycle   5  Pass 1  IDiag  1:
 Density matrix breaks symmetry, PCut= 1.00D-07
 Density matrix has no symmetry -- integrals replicated.
 E=-0.997011480180126     Delta-E=       -0.000000472900 Rises=F Damp=F
 DIIS: error= 2.63D-05 at cycle   5 NSaved=   5.
 NSaved= 5 IEnMin= 5 EnMin=-0.997011480180126     IErMin= 5 ErrMin= 2.63D-05
 ErrMax= 2.63D-05 EMaxC= 1.00D-01 BMatC= 3.34D-08 BMatP= 5.53D-07
 IDIUse=1 WtCom= 1.00D+00 WtEn= 0.00D+00
 Coeff-Com: -0.522D-03 0.430D-02-0.242D-01-0.922D-01 0.111D+01
 Coeff:     -0.522D-03 0.430D-02-0.242D-01-0.922D-01 0.111D+01
 Gap=     0.615 Goal=   None    Shift=    0.000
 Gap=     0.615 Goal=   None    Shift=    0.000
 RMSDP=4.82D-05 MaxDP=8.44D-05 DE=-4.73D-07 OVMax= 1.67D-04

 Density matrix breaks symmetry, PCut= 1.00D-07
 Density matrix has no symmetry -- integrals replicated.
 SCF Done:  E(UHF) = -0.997011480180     A.U. after    5 cycles
             Convg  =    0.4824D-04             -V/T =  1.9954
 <Sx>= 0.0000 <Sy>= 0.0000 <Sz>= 0.0000 <S**2>= 0.9105 S= 0.5773
 <L.S>= 0.000000000000E+00
 KE= 1.001635978686D+00 PE=-2.536147924251D+00 EE= 2.729118610899D-01
 Annihilation of the first spin contaminant:
 S**2 before annihilation     0.9105,   after     0.0000
 Leave Link  502 at Sat Oct  3 20:01:36 2020, MaxMem=  536870912 cpu:       0.0
  
  +-------------------------------------------+
  |                                           |
  |  LINK 530 - Projected Hartree-Fock (PHF)  |
  |     Self-Consistent Field (SCF) Code      |
  |                                           |
  |                                           |
  |         the Scuseria group, v0.2, 07.2011 |
  +-------------------------------------------+
  
 (Enter ../phf/l530.exe)

 PHF SCF was invoked with the following options:

   method selection:
 iprint =  9
 iphf   =  4, [ UHF + spin projection ]

   general options:
 maxcyc =    512, S      =      0
 ngrda  =      1, ngrdb  =      8, ngrdg  =      1

   accuracy requested:
 conv criterion (RMSDP, RMSDK) =     1.0000E-08
 requested integral accuracy   =     1.0000E-10

   use of symmetry:
 two-electron integral symmetry not used

   strategy options:
 level shifting is turned off
 use of DIIS extrapolation is turned on
 mxscfc =     20, idisgo =      1
 istrat =      1, continue as usual if energy rises
 modified PHF effective Fock matrix used

   initial guess options:
 igues1 =  1, read GDV guess


 PHF SCF - preparing initial guess

  
 Transform Matrix:
                 1             2             3             4 
      1   0.330600D+00  0.856219D+00  0.460127D+00 -0.834535D+00
      2   0.397746D+00 -0.711676D+00  0.364687D+00  0.105294D+01
      3   0.330600D+00  0.856219D+00 -0.460127D+00  0.834535D+00
      4   0.397746D+00 -0.711676D+00 -0.364687D+00 -0.105294D+01
  
 MO coefficients (alpha):
                 1             2             3             4 
      1   0.367072D+00 -0.839840D-01  0.125181D+01 -0.204302D+00
      2   0.708838D+00 -0.209185D+00 -0.111655D+01  0.336850D+00
      3   0.212254D-01  0.171781D+00  0.165145D+00  0.130128D+01
      4   0.467742D-01  0.903026D+00  0.630638D-01 -0.104151D+01
 MO coefficients (beta):
                 1             2             3             4 
      1   0.212254D-01  0.171781D+00  0.165145D+00  0.130128D+01
      2   0.467742D-01  0.903026D+00  0.630638D-01 -0.104151D+01
      3   0.367072D+00 -0.839840D-01  0.125181D+01 -0.204302D+00
      4   0.708838D+00 -0.209185D+00 -0.111655D+01  0.336850D+00
 After transformation 
  
 MO coefficients (alpha, real):
                 1             2             3             4 
      1   0.801712D+00  0.570094D+00  0.923896D-01  0.153998D+00
      2  -0.828028D-01 -0.168852D+00  0.791779D+00  0.581136D+00
      3   0.581033D+00 -0.759026D+00  0.101268D+00 -0.275726D+00
      4   0.113147D+00 -0.265257D+00 -0.595227D+00  0.750027D+00
 MO coefficients (alpha, imaginary):
                 1             2             3             4 
      1   0.000000D+00  0.000000D+00  0.000000D+00  0.000000D+00
      2   0.000000D+00  0.000000D+00  0.000000D+00  0.000000D+00
      3   0.000000D+00  0.000000D+00  0.000000D+00  0.000000D+00
      4   0.000000D+00  0.000000D+00  0.000000D+00  0.000000D+00
 MO coefficients (beta, real):
                 1             2             3             4 
      1   0.801712D+00  0.570094D+00  0.923896D-01  0.153998D+00
      2  -0.828028D-01 -0.168852D+00  0.791779D+00  0.581136D+00
      3  -0.581033D+00  0.759026D+00 -0.101268D+00  0.275726D+00
      4  -0.113147D+00  0.265257D+00  0.595227D+00 -0.750027D+00
 MO coefficients (beta, imaginary):
                 1             2             3             4 
      1   0.000000D+00  0.000000D+00  0.000000D+00  0.000000D+00
      2   0.000000D+00  0.000000D+00  0.000000D+00  0.000000D+00
      3   0.000000D+00  0.000000D+00  0.000000D+00  0.000000D+00
      4   0.000000D+00  0.000000D+00  0.000000D+00  0.000000D+00
  
 Overlap Matrix:
                 1             2             3             4 
      1   0.100000D+01  0.645898D+00  0.227256D-02  0.746565D-01
      2   0.645898D+00  0.100000D+01  0.746565D-01  0.270258D+00
      3   0.227256D-02  0.746565D-01  0.100000D+01  0.645898D+00
      4   0.746565D-01  0.270258D+00  0.645898D+00  0.100000D+01
  
 Transform Matrix:
                 1             2             3             4 
      1   0.330600D+00  0.856219D+00  0.460127D+00 -0.834535D+00
      2   0.397746D+00 -0.711676D+00  0.364687D+00  0.105294D+01
      3   0.330600D+00  0.856219D+00 -0.460127D+00  0.834535D+00
      4   0.397746D+00 -0.711676D+00 -0.364687D+00 -0.105294D+01
  
 S^(1/2) Matrix:
                 1             2             3             4 
      1   0.617949D+00  0.743455D+00  0.617949D+00  0.743455D+00
      2   0.345363D+00 -0.287060D+00  0.345363D+00 -0.287060D+00
      3   0.667406D+00  0.528971D+00 -0.667406D+00 -0.528971D+00
      4  -0.231157D+00  0.291652D+00  0.231157D+00 -0.291652D+00
  
 density matrix (alpha, real):
                1             2             3             4 
      1  0.642742D+00
      2 -0.663840D-01  0.685631D-02
      3  0.465821D+00 -0.481112D-01  0.337599D+00
      4  0.907116D-01 -0.936892D-02  0.657423D-01  0.128023D-01
 density matrix (alpha, imaginary):
                1             2             3             4 
      1  0.000000D+00
      2 -0.000000D+00  0.000000D+00
      3 -0.000000D+00 -0.000000D+00  0.000000D+00
      4 -0.000000D+00 -0.000000D+00 -0.000000D+00  0.000000D+00
 density matrix (beta, real):
                1             2             3             4 
      1  0.642742D+00
      2 -0.663840D-01  0.685631D-02
      3 -0.465821D+00  0.481112D-01  0.337599D+00
      4 -0.907116D-01  0.936892D-02  0.657423D-01  0.128023D-01
 density matrix (beta, imaginary):
                1             2             3             4 
      1  0.000000D+00
      2 -0.000000D+00  0.000000D+00
      3 -0.000000D+00 -0.000000D+00  0.000000D+00
      4 -0.000000D+00 -0.000000D+00 -0.000000D+00  0.000000D+00

 PHF SCF - starting SCF procedure

  
 HF density matrix (alpha, real):
                1             2             3             4 
      1  0.642742D+00
      2 -0.663840D-01  0.685631D-02
      3  0.465821D+00 -0.481112D-01  0.337599D+00
      4  0.907116D-01 -0.936892D-02  0.657423D-01  0.128023D-01
 HF density matrix (alpha, imaginary):
                1             2             3             4 
      1  0.000000D+00
      2 -0.000000D+00  0.000000D+00
      3 -0.000000D+00 -0.000000D+00  0.000000D+00
      4 -0.000000D+00 -0.000000D+00 -0.000000D+00  0.000000D+00
 HF density matrix (beta, real):
                1             2             3             4 
      1  0.642742D+00
      2 -0.663840D-01  0.685631D-02
      3 -0.465821D+00  0.481112D-01  0.337599D+00
      4 -0.907116D-01  0.936892D-02  0.657423D-01  0.128023D-01
 HF density matrix (beta, imaginary):
                1             2             3             4 
      1  0.000000D+00
      2 -0.000000D+00  0.000000D+00
      3 -0.000000D+00 -0.000000D+00  0.000000D+00
      4 -0.000000D+00 -0.000000D+00 -0.000000D+00  0.000000D+00
  
 Core Hamiltonian (real):
                 1             2             3             4 
      1  -0.796723D+00  0.103744D+00  0.000000D+00  0.000000D+00
      2   0.103744D+00  0.306545D+00  0.000000D+00  0.000000D+00
      3   0.000000D+00  0.000000D+00 -0.658935D+00 -0.196746D+00
      4   0.000000D+00  0.000000D+00 -0.196746D+00  0.376081D+00
 Core Hamiltonian (imaginary):
                 1             2             3             4 
      1   0.000000D+00  0.000000D+00  0.000000D+00  0.000000D+00
      2   0.000000D+00  0.000000D+00  0.000000D+00  0.000000D+00
      3   0.000000D+00  0.000000D+00  0.000000D+00  0.000000D+00
      4   0.000000D+00  0.000000D+00  0.000000D+00  0.000000D+00

 Symmetry not used in FoFDir.
 MinBra= 0 MaxBra= 0 Meth= 1.
 IRaf=       1 NMat=   2 IRICut=       1 DoRegI=T DoRafI=F ISym2E= 0 JSym2E=0.
 PrsmSu:  NPrtUS=   1 ThrOK=F IAlg=1 NPAlg=1 LenDen=           0.
 Prism:   IPart=     0 DynPar=F LinDyn=F Incr=           1.
 PRISM was handed   536868884 working-precision words and    10 shell-pairs
 IPart=  0 NShTot=          55 NBatch=          10 AvBLen=         5.5
 PrSmSu:  NxtVal=              2.
  
 HF Fock matrix (alpha, real):
                1             2             3             4 
      1 -0.238888D+00
      2  0.216365D+00  0.112202D+01
      3 -0.326413D+00 -0.780609D-01  0.110686D-01
      4  0.245836D-01  0.506525D-01 -0.339630D+00  0.111261D+01
 HF Fock matrix (alpha, imaginary):
                1             2             3             4 
      1  0.000000D+00
      2 -0.000000D+00  0.000000D+00
      3 -0.000000D+00 -0.000000D+00  0.000000D+00
      4 -0.000000D+00 -0.000000D+00 -0.000000D+00  0.000000D+00
 HF Fock matrix (beta, real):
                1             2             3             4 
      1 -0.238888D+00
      2  0.216365D+00  0.112202D+01
      3  0.326413D+00  0.780609D-01  0.110686D-01
      4 -0.245836D-01 -0.506525D-01 -0.339630D+00  0.111261D+01
 HF Fock matrix (beta, imaginary):
                1             2             3             4 
      1  0.000000D+00
      2 -0.000000D+00  0.000000D+00
      3 -0.000000D+00 -0.000000D+00  0.000000D+00
      4 -0.000000D+00 -0.000000D+00 -0.000000D+00  0.000000D+00
 End hffock
 End hfdmdg: find NO basis
  
 density matrix (NO) (real):
                 1             2             3             4             5 
      1   0.100000D+01  0.000000D+00  0.000000D+00  0.000000D+00  0.000000D+00
      2   0.000000D+00  0.100000D+01  0.000000D+00  0.000000D+00  0.000000D+00
      3   0.000000D+00  0.000000D+00  0.000000D+00  0.000000D+00  0.000000D+00
      4   0.000000D+00  0.000000D+00  0.000000D+00  0.000000D+00  0.000000D+00
      5   0.000000D+00  0.000000D+00  0.000000D+00  0.000000D+00  0.000000D+00
      6   0.000000D+00  0.000000D+00  0.000000D+00  0.000000D+00  0.000000D+00
      7   0.000000D+00  0.000000D+00  0.000000D+00  0.000000D+00  0.000000D+00
      8   0.000000D+00  0.000000D+00  0.000000D+00  0.000000D+00  0.000000D+00
                 6             7             8 
      1   0.000000D+00  0.000000D+00  0.000000D+00
      2   0.000000D+00  0.000000D+00  0.000000D+00
      3   0.000000D+00  0.000000D+00  0.000000D+00
      4   0.000000D+00  0.000000D+00  0.000000D+00
      5   0.000000D+00  0.000000D+00  0.000000D+00
      6   0.000000D+00  0.000000D+00  0.000000D+00
      7   0.000000D+00  0.000000D+00  0.000000D+00
      8   0.000000D+00  0.000000D+00  0.000000D+00
 density matrix (NO) (imaginary):
                 1             2             3             4             5 
      1   0.000000D+00  0.000000D+00  0.000000D+00  0.000000D+00  0.000000D+00
      2   0.000000D+00  0.000000D+00  0.000000D+00  0.000000D+00  0.000000D+00
      3   0.000000D+00  0.000000D+00  0.000000D+00  0.000000D+00  0.000000D+00
      4   0.000000D+00  0.000000D+00  0.000000D+00  0.000000D+00  0.000000D+00
      5   0.000000D+00  0.000000D+00  0.000000D+00  0.000000D+00  0.000000D+00
      6   0.000000D+00  0.000000D+00  0.000000D+00  0.000000D+00  0.000000D+00
      7   0.000000D+00  0.000000D+00  0.000000D+00  0.000000D+00  0.000000D+00
      8   0.000000D+00  0.000000D+00  0.000000D+00  0.000000D+00  0.000000D+00
                 6             7             8 
      1   0.000000D+00  0.000000D+00  0.000000D+00
      2   0.000000D+00  0.000000D+00  0.000000D+00
      3   0.000000D+00  0.000000D+00  0.000000D+00
      4   0.000000D+00  0.000000D+00  0.000000D+00
      5   0.000000D+00  0.000000D+00  0.000000D+00
      6   0.000000D+00  0.000000D+00  0.000000D+00
      7   0.000000D+00  0.000000D+00  0.000000D+00
      8   0.000000D+00  0.000000D+00  0.000000D+00
 End hfdmdg
  
 N(g) (    1, 1, 1) (real):
                 1             2 
      1   0.100040D+01  0.933819D-02
      2  -0.933819D-02  0.100040D+01
 N(g) (    1, 1, 1) (imaginary):
                 1             2 
      1   0.000000D+00  0.000000D+00
      2   0.000000D+00  0.000000D+00
  
 N(g) (    2, 1, 1) (real):
                 1             2 
      1   0.101054D+01  0.486995D-01
      2  -0.486995D-01  0.101054D+01
 N(g) (    2, 1, 1) (imaginary):
                 1             2 
      1   0.000000D+00  0.000000D+00
      2   0.000000D+00  0.000000D+00
  
 N(g) (    3, 1, 1) (real):
                 1             2 
      1   0.105920D+01  0.123883D+00
      2  -0.123883D+00  0.105920D+01
 N(g) (    3, 1, 1) (imaginary):
                 1             2 
      1   0.000000D+00  0.000000D+00
      2   0.000000D+00  0.000000D+00
  
 N(g) (    4, 1, 1) (real):
                 1             2 
      1   0.118866D+01  0.265527D+00
      2  -0.265527D+00  0.118866D+01
 N(g) (    4, 1, 1) (imaginary):
                 1             2 
      1   0.000000D+00  0.000000D+00
      2   0.000000D+00  0.000000D+00
  
 N(g) (    5, 1, 1) (real):
                 1             2 
      1   0.144022D+01  0.577155D+00
      2  -0.577155D+00  0.144022D+01
 N(g) (    5, 1, 1) (imaginary):
                 1             2 
      1   0.000000D+00  0.000000D+00
      2   0.000000D+00  0.000000D+00
  
 N(g) (    6, 1, 1) (real):
                 1             2 
      1   0.173201D+01  0.132565D+01
      2  -0.132565D+01  0.173201D+01
 N(g) (    6, 1, 1) (imaginary):
                 1             2 
      1   0.000000D+00  0.000000D+00
      2   0.000000D+00  0.000000D+00
  
 N(g) (    7, 1, 1) (real):
                 1             2 
      1   0.141298D+01  0.262470D+01
      2  -0.262470D+01  0.141298D+01
 N(g) (    7, 1, 1) (imaginary):
                 1             2 
      1   0.000000D+00  0.000000D+00
      2   0.000000D+00  0.000000D+00
  
 N(g) (    8, 1, 1) (real):
                 1             2 
      1   0.344931D+00  0.330794D+01
      2  -0.330794D+01  0.344931D+00
 N(g) (    8, 1, 1) (imaginary):
                 1             2 
      1   0.000000D+00  0.000000D+00
      2   0.000000D+00  0.000000D+00
  
 P(g) (    1, 1, 1) (real):
                 1             2             3             4             5 
      1   0.100000D+01  0.000000D+00  0.000000D+00  0.000000D+00  0.000000D+00
      2   0.000000D+00  0.100000D+01  0.000000D+00  0.000000D+00  0.000000D+00
      3   0.166726D-03 -0.178614D-01  0.000000D+00  0.000000D+00  0.000000D+00
      4   0.250372D-04 -0.268224D-02  0.000000D+00  0.000000D+00  0.000000D+00
      5   0.220860D-03 -0.236607D-01  0.000000D+00  0.000000D+00  0.000000D+00
      6   0.185474D-01  0.173130D-03  0.000000D+00  0.000000D+00  0.000000D+00
      7   0.228199D-01  0.213011D-03  0.000000D+00  0.000000D+00  0.000000D+00
      8   0.461542D-02  0.430825D-04  0.000000D+00  0.000000D+00  0.000000D+00
                 6             7             8 
      1   0.000000D+00  0.000000D+00  0.000000D+00
      2   0.000000D+00  0.000000D+00  0.000000D+00
      3   0.000000D+00  0.000000D+00  0.000000D+00
      4   0.000000D+00  0.000000D+00  0.000000D+00
      5   0.000000D+00  0.000000D+00  0.000000D+00
      6   0.000000D+00  0.000000D+00  0.000000D+00
      7   0.000000D+00  0.000000D+00  0.000000D+00
      8   0.000000D+00  0.000000D+00  0.000000D+00
 P(g) (    1, 1, 1) (imaginary):
                 1             2             3             4             5 
      1   0.000000D+00  0.000000D+00  0.000000D+00  0.000000D+00  0.000000D+00
      2   0.000000D+00  0.000000D+00  0.000000D+00  0.000000D+00  0.000000D+00
      3   0.000000D+00  0.000000D+00  0.000000D+00  0.000000D+00  0.000000D+00
      4   0.000000D+00  0.000000D+00  0.000000D+00  0.000000D+00  0.000000D+00
      5   0.000000D+00  0.000000D+00  0.000000D+00  0.000000D+00  0.000000D+00
      6   0.000000D+00  0.000000D+00  0.000000D+00  0.000000D+00  0.000000D+00
      7   0.000000D+00  0.000000D+00  0.000000D+00  0.000000D+00  0.000000D+00
      8   0.000000D+00  0.000000D+00  0.000000D+00  0.000000D+00  0.000000D+00
                 6             7             8 
      1   0.000000D+00  0.000000D+00  0.000000D+00
      2   0.000000D+00  0.000000D+00  0.000000D+00
      3   0.000000D+00  0.000000D+00  0.000000D+00
      4   0.000000D+00  0.000000D+00  0.000000D+00
      5   0.000000D+00  0.000000D+00  0.000000D+00
      6   0.000000D+00  0.000000D+00  0.000000D+00
      7   0.000000D+00  0.000000D+00  0.000000D+00
      8   0.000000D+00  0.000000D+00  0.000000D+00
  
 P(g) (    2, 1, 1) (real):
                 1             2             3             4             5 
      1   0.100000D+01  0.000000D+00  0.000000D+00  0.000000D+00  0.000000D+00
      2   0.000000D+00  0.100000D+01  0.000000D+00  0.000000D+00  0.000000D+00
      3   0.443400D-02 -0.920080D-01  0.000000D+00  0.000000D+00  0.000000D+00
      4   0.665853D-03 -0.138168D-01  0.000000D+00  0.000000D+00  0.000000D+00
      5   0.587367D-02 -0.121882D+00  0.000000D+00  0.000000D+00  0.000000D+00
      6   0.955418D-01  0.460430D-02  0.000000D+00  0.000000D+00  0.000000D+00
      7   0.117550D+00  0.566493D-02  0.000000D+00  0.000000D+00  0.000000D+00
      8   0.237751D-01  0.114576D-02  0.000000D+00  0.000000D+00  0.000000D+00
                 6             7             8 
      1   0.000000D+00  0.000000D+00  0.000000D+00
      2   0.000000D+00  0.000000D+00  0.000000D+00
      3   0.000000D+00  0.000000D+00  0.000000D+00
      4   0.000000D+00  0.000000D+00  0.000000D+00
      5   0.000000D+00  0.000000D+00  0.000000D+00
      6   0.000000D+00  0.000000D+00  0.000000D+00
      7   0.000000D+00  0.000000D+00  0.000000D+00
      8   0.000000D+00  0.000000D+00  0.000000D+00
 P(g) (    2, 1, 1) (imaginary):
                 1             2             3             4             5 
      1   0.000000D+00  0.000000D+00  0.000000D+00  0.000000D+00  0.000000D+00
      2   0.000000D+00  0.000000D+00  0.000000D+00  0.000000D+00  0.000000D+00
      3   0.000000D+00  0.000000D+00  0.000000D+00  0.000000D+00  0.000000D+00
      4   0.000000D+00  0.000000D+00  0.000000D+00  0.000000D+00  0.000000D+00
      5   0.000000D+00  0.000000D+00  0.000000D+00  0.000000D+00  0.000000D+00
      6   0.000000D+00  0.000000D+00  0.000000D+00  0.000000D+00  0.000000D+00
      7   0.000000D+00  0.000000D+00  0.000000D+00  0.000000D+00  0.000000D+00
      8   0.000000D+00  0.000000D+00  0.000000D+00  0.000000D+00  0.000000D+00
                 6             7             8 
      1   0.000000D+00  0.000000D+00  0.000000D+00
      2   0.000000D+00  0.000000D+00  0.000000D+00
      3   0.000000D+00  0.000000D+00  0.000000D+00
      4   0.000000D+00  0.000000D+00  0.000000D+00
      5   0.000000D+00  0.000000D+00  0.000000D+00
      6   0.000000D+00  0.000000D+00  0.000000D+00
      7   0.000000D+00  0.000000D+00  0.000000D+00
      8   0.000000D+00  0.000000D+00  0.000000D+00
  
 P(g) (    3, 1, 1) (real):
                 1             2             3             4             5 
      1   0.100000D+01  0.000000D+00  0.000000D+00  0.000000D+00  0.000000D+00
      2   0.000000D+00  0.100000D+01  0.000000D+00  0.000000D+00  0.000000D+00
      3   0.258244D-01 -0.220799D+00  0.000000D+00  0.000000D+00  0.000000D+00
      4   0.387805D-02 -0.331573D-01  0.000000D+00  0.000000D+00  0.000000D+00
      5   0.342094D-01 -0.292490D+00  0.000000D+00  0.000000D+00  0.000000D+00
      6   0.229279D+00  0.268163D-01  0.000000D+00  0.000000D+00  0.000000D+00
      7   0.282095D+00  0.329936D-01  0.000000D+00  0.000000D+00  0.000000D+00
      8   0.570550D-01  0.667311D-02  0.000000D+00  0.000000D+00  0.000000D+00
                 6             7             8 
      1   0.000000D+00  0.000000D+00  0.000000D+00
      2   0.000000D+00  0.000000D+00  0.000000D+00
      3   0.000000D+00  0.000000D+00  0.000000D+00
      4   0.000000D+00  0.000000D+00  0.000000D+00
      5   0.000000D+00  0.000000D+00  0.000000D+00
      6   0.000000D+00  0.000000D+00  0.000000D+00
      7   0.000000D+00  0.000000D+00  0.000000D+00
      8   0.000000D+00  0.000000D+00  0.000000D+00
 P(g) (    3, 1, 1) (imaginary):
                 1             2             3             4             5 
      1   0.000000D+00  0.000000D+00  0.000000D+00  0.000000D+00  0.000000D+00
      2   0.000000D+00  0.000000D+00  0.000000D+00  0.000000D+00  0.000000D+00
      3   0.000000D+00  0.000000D+00  0.000000D+00  0.000000D+00  0.000000D+00
      4   0.000000D+00  0.000000D+00  0.000000D+00  0.000000D+00  0.000000D+00
      5   0.000000D+00  0.000000D+00  0.000000D+00  0.000000D+00  0.000000D+00
      6   0.000000D+00  0.000000D+00  0.000000D+00  0.000000D+00  0.000000D+00
      7   0.000000D+00  0.000000D+00  0.000000D+00  0.000000D+00  0.000000D+00
      8   0.000000D+00  0.000000D+00  0.000000D+00  0.000000D+00  0.000000D+00
                 6             7             8 
      1   0.000000D+00  0.000000D+00  0.000000D+00
      2   0.000000D+00  0.000000D+00  0.000000D+00
      3   0.000000D+00  0.000000D+00  0.000000D+00
      4   0.000000D+00  0.000000D+00  0.000000D+00
      5   0.000000D+00  0.000000D+00  0.000000D+00
      6   0.000000D+00  0.000000D+00  0.000000D+00
      7   0.000000D+00  0.000000D+00  0.000000D+00
      8   0.000000D+00  0.000000D+00  0.000000D+00
  
 P(g) (    4, 1, 1) (real):
                 1             2             3             4             5 
      1   0.100000D+01  0.000000D+00  0.000000D+00  0.000000D+00  0.000000D+00
      2   0.000000D+00  0.100000D+01  0.000000D+00  0.000000D+00  0.000000D+00
      3   0.909533D-01 -0.407161D+00  0.000000D+00  0.000000D+00  0.000000D+00
      4   0.136584D-01 -0.611434D-01  0.000000D+00  0.000000D+00  0.000000D+00
      5   0.120485D+00 -0.539362D+00  0.000000D+00  0.000000D+00  0.000000D+00
      6   0.422799D+00  0.944466D-01  0.000000D+00  0.000000D+00  0.000000D+00
      7   0.520194D+00  0.116203D+00  0.000000D+00  0.000000D+00  0.000000D+00
      8   0.105212D+00  0.235026D-01  0.000000D+00  0.000000D+00  0.000000D+00
                 6             7             8 
      1   0.000000D+00  0.000000D+00  0.000000D+00
      2   0.000000D+00  0.000000D+00  0.000000D+00
      3   0.000000D+00  0.000000D+00  0.000000D+00
      4   0.000000D+00  0.000000D+00  0.000000D+00
      5   0.000000D+00  0.000000D+00  0.000000D+00
      6   0.000000D+00  0.000000D+00  0.000000D+00
      7   0.000000D+00  0.000000D+00  0.000000D+00
      8   0.000000D+00  0.000000D+00  0.000000D+00
 P(g) (    4, 1, 1) (imaginary):
                 1             2             3             4             5 
      1   0.000000D+00  0.000000D+00  0.000000D+00  0.000000D+00  0.000000D+00
      2   0.000000D+00  0.000000D+00  0.000000D+00  0.000000D+00  0.000000D+00
      3   0.000000D+00  0.000000D+00  0.000000D+00  0.000000D+00  0.000000D+00
      4   0.000000D+00  0.000000D+00  0.000000D+00  0.000000D+00  0.000000D+00
      5   0.000000D+00  0.000000D+00  0.000000D+00  0.000000D+00  0.000000D+00
      6   0.000000D+00  0.000000D+00  0.000000D+00  0.000000D+00  0.000000D+00
      7   0.000000D+00  0.000000D+00  0.000000D+00  0.000000D+00  0.000000D+00
      8   0.000000D+00  0.000000D+00  0.000000D+00  0.000000D+00  0.000000D+00
                 6             7             8 
      1   0.000000D+00  0.000000D+00  0.000000D+00
      2   0.000000D+00  0.000000D+00  0.000000D+00
      3   0.000000D+00  0.000000D+00  0.000000D+00
      4   0.000000D+00  0.000000D+00  0.000000D+00
      5   0.000000D+00  0.000000D+00  0.000000D+00
      6   0.000000D+00  0.000000D+00  0.000000D+00
      7   0.000000D+00  0.000000D+00  0.000000D+00
      8   0.000000D+00  0.000000D+00  0.000000D+00
  
 P(g) (    5, 1, 1) (real):
                 1             2             3             4             5 
      1   0.100000D+01  0.000000D+00  0.000000D+00  0.000000D+00  0.000000D+00
      2   0.000000D+00  0.100000D+01  0.000000D+00  0.000000D+00  0.000000D+00
      3   0.264794D+00 -0.660763D+00  0.000000D+00  0.000000D+00  0.000000D+00
      4   0.397641D-01 -0.992266D-01  0.000000D+00  0.000000D+00  0.000000D+00
      5   0.350770D+00 -0.875305D+00  0.000000D+00  0.000000D+00  0.000000D+00
      6   0.686141D+00  0.274964D+00  0.000000D+00  0.000000D+00  0.000000D+00
      7   0.844198D+00  0.338304D+00  0.000000D+00  0.000000D+00  0.000000D+00
      8   0.170743D+00  0.684235D-01  0.000000D+00  0.000000D+00  0.000000D+00
                 6             7             8 
      1   0.000000D+00  0.000000D+00  0.000000D+00
      2   0.000000D+00  0.000000D+00  0.000000D+00
      3   0.000000D+00  0.000000D+00  0.000000D+00
      4   0.000000D+00  0.000000D+00  0.000000D+00
      5   0.000000D+00  0.000000D+00  0.000000D+00
      6   0.000000D+00  0.000000D+00  0.000000D+00
      7   0.000000D+00  0.000000D+00  0.000000D+00
      8   0.000000D+00  0.000000D+00  0.000000D+00
 P(g) (    5, 1, 1) (imaginary):
                 1             2             3             4             5 
      1   0.000000D+00  0.000000D+00  0.000000D+00  0.000000D+00  0.000000D+00
      2   0.000000D+00  0.000000D+00  0.000000D+00  0.000000D+00  0.000000D+00
      3   0.000000D+00  0.000000D+00  0.000000D+00  0.000000D+00  0.000000D+00
      4   0.000000D+00  0.000000D+00  0.000000D+00  0.000000D+00  0.000000D+00
      5   0.000000D+00  0.000000D+00  0.000000D+00  0.000000D+00  0.000000D+00
      6   0.000000D+00  0.000000D+00  0.000000D+00  0.000000D+00  0.000000D+00
      7   0.000000D+00  0.000000D+00  0.000000D+00  0.000000D+00  0.000000D+00
      8   0.000000D+00  0.000000D+00  0.000000D+00  0.000000D+00  0.000000D+00
                 6             7             8 
      1   0.000000D+00  0.000000D+00  0.000000D+00
      2   0.000000D+00  0.000000D+00  0.000000D+00
      3   0.000000D+00  0.000000D+00  0.000000D+00
      4   0.000000D+00  0.000000D+00  0.000000D+00
      5   0.000000D+00  0.000000D+00  0.000000D+00
      6   0.000000D+00  0.000000D+00  0.000000D+00
      7   0.000000D+00  0.000000D+00  0.000000D+00
      8   0.000000D+00  0.000000D+00  0.000000D+00
  
 P(g) (    6, 1, 1) (real):
                 1             2             3             4             5 
      1   0.100000D+01  0.000000D+00  0.000000D+00  0.000000D+00  0.000000D+00
      2   0.000000D+00  0.100000D+01  0.000000D+00  0.000000D+00  0.000000D+00
      3   0.706920D+00 -0.923614D+00  0.000000D+00  0.000000D+00  0.000000D+00
      4   0.106158D+00 -0.138699D+00  0.000000D+00  0.000000D+00  0.000000D+00
      5   0.936450D+00 -0.122350D+01  0.000000D+00  0.000000D+00  0.000000D+00
      6   0.959087D+00  0.734071D+00  0.000000D+00  0.000000D+00  0.000000D+00
      7   0.118002D+01  0.903170D+00  0.000000D+00  0.000000D+00  0.000000D+00
      8   0.238664D+00  0.182670D+00  0.000000D+00  0.000000D+00  0.000000D+00
                 6             7             8 
      1   0.000000D+00  0.000000D+00  0.000000D+00
      2   0.000000D+00  0.000000D+00  0.000000D+00
      3   0.000000D+00  0.000000D+00  0.000000D+00
      4   0.000000D+00  0.000000D+00  0.000000D+00
      5   0.000000D+00  0.000000D+00  0.000000D+00
      6   0.000000D+00  0.000000D+00  0.000000D+00
      7   0.000000D+00  0.000000D+00  0.000000D+00
      8   0.000000D+00  0.000000D+00  0.000000D+00
 P(g) (    6, 1, 1) (imaginary):
                 1             2             3             4             5 
      1   0.000000D+00  0.000000D+00  0.000000D+00  0.000000D+00  0.000000D+00
      2   0.000000D+00  0.000000D+00  0.000000D+00  0.000000D+00  0.000000D+00
      3   0.000000D+00  0.000000D+00  0.000000D+00  0.000000D+00  0.000000D+00
      4   0.000000D+00  0.000000D+00  0.000000D+00  0.000000D+00  0.000000D+00
      5   0.000000D+00  0.000000D+00  0.000000D+00  0.000000D+00  0.000000D+00
      6   0.000000D+00  0.000000D+00  0.000000D+00  0.000000D+00  0.000000D+00
      7   0.000000D+00  0.000000D+00  0.000000D+00  0.000000D+00  0.000000D+00
      8   0.000000D+00  0.000000D+00  0.000000D+00  0.000000D+00  0.000000D+00
                 6             7             8 
      1   0.000000D+00  0.000000D+00  0.000000D+00
      2   0.000000D+00  0.000000D+00  0.000000D+00
      3   0.000000D+00  0.000000D+00  0.000000D+00
      4   0.000000D+00  0.000000D+00  0.000000D+00
      5   0.000000D+00  0.000000D+00  0.000000D+00
      6   0.000000D+00  0.000000D+00  0.000000D+00
      7   0.000000D+00  0.000000D+00  0.000000D+00
      8   0.000000D+00  0.000000D+00  0.000000D+00
  
 P(g) (    7, 1, 1) (real):
                 1             2             3             4             5 
      1   0.100000D+01  0.000000D+00  0.000000D+00  0.000000D+00  0.000000D+00
      2   0.000000D+00  0.100000D+01  0.000000D+00  0.000000D+00  0.000000D+00
      3   0.148367D+01 -0.798717D+00  0.000000D+00  0.000000D+00  0.000000D+00
      4   0.222803D+00 -0.119943D+00  0.000000D+00  0.000000D+00  0.000000D+00
      5   0.196540D+01 -0.105805D+01  0.000000D+00  0.000000D+00  0.000000D+00
      6   0.829394D+00  0.154065D+01  0.000000D+00  0.000000D+00  0.000000D+00
      7   0.102045D+01  0.189555D+01  0.000000D+00  0.000000D+00  0.000000D+00
      8   0.206391D+00  0.383385D+00  0.000000D+00  0.000000D+00  0.000000D+00
                 6             7             8 
      1   0.000000D+00  0.000000D+00  0.000000D+00
      2   0.000000D+00  0.000000D+00  0.000000D+00
      3   0.000000D+00  0.000000D+00  0.000000D+00
      4   0.000000D+00  0.000000D+00  0.000000D+00
      5   0.000000D+00  0.000000D+00  0.000000D+00
      6   0.000000D+00  0.000000D+00  0.000000D+00
      7   0.000000D+00  0.000000D+00  0.000000D+00
      8   0.000000D+00  0.000000D+00  0.000000D+00
 P(g) (    7, 1, 1) (imaginary):
                 1             2             3             4             5 
      1   0.000000D+00  0.000000D+00  0.000000D+00  0.000000D+00  0.000000D+00
      2   0.000000D+00  0.000000D+00  0.000000D+00  0.000000D+00  0.000000D+00
      3   0.000000D+00  0.000000D+00  0.000000D+00  0.000000D+00  0.000000D+00
      4   0.000000D+00  0.000000D+00  0.000000D+00  0.000000D+00  0.000000D+00
      5   0.000000D+00  0.000000D+00  0.000000D+00  0.000000D+00  0.000000D+00
      6   0.000000D+00  0.000000D+00  0.000000D+00  0.000000D+00  0.000000D+00
      7   0.000000D+00  0.000000D+00  0.000000D+00  0.000000D+00  0.000000D+00
      8   0.000000D+00  0.000000D+00  0.000000D+00  0.000000D+00  0.000000D+00
                 6             7             8 
      1   0.000000D+00  0.000000D+00  0.000000D+00
      2   0.000000D+00  0.000000D+00  0.000000D+00
      3   0.000000D+00  0.000000D+00  0.000000D+00
      4   0.000000D+00  0.000000D+00  0.000000D+00
      5   0.000000D+00  0.000000D+00  0.000000D+00
      6   0.000000D+00  0.000000D+00  0.000000D+00
      7   0.000000D+00  0.000000D+00  0.000000D+00
      8   0.000000D+00  0.000000D+00  0.000000D+00
  
 P(g) (    8, 1, 1) (real):
                 1             2             3             4             5 
      1   0.100000D+01  0.000000D+00  0.000000D+00  0.000000D+00  0.000000D+00
      2   0.000000D+00  0.100000D+01  0.000000D+00  0.000000D+00  0.000000D+00
      3   0.189307D+01 -0.197397D+00  0.000000D+00  0.000000D+00  0.000000D+00
      4   0.284282D+00 -0.296431D-01  0.000000D+00  0.000000D+00  0.000000D+00
      5   0.250773D+01 -0.261490D+00  0.000000D+00  0.000000D+00  0.000000D+00
      6   0.204979D+00  0.196577D+01  0.000000D+00  0.000000D+00  0.000000D+00
      7   0.252197D+00  0.241860D+01  0.000000D+00  0.000000D+00  0.000000D+00
      8   0.510080D-01  0.489174D+00  0.000000D+00  0.000000D+00  0.000000D+00
                 6             7             8 
      1   0.000000D+00  0.000000D+00  0.000000D+00
      2   0.000000D+00  0.000000D+00  0.000000D+00
      3   0.000000D+00  0.000000D+00  0.000000D+00
      4   0.000000D+00  0.000000D+00  0.000000D+00
      5   0.000000D+00  0.000000D+00  0.000000D+00
      6   0.000000D+00  0.000000D+00  0.000000D+00
      7   0.000000D+00  0.000000D+00  0.000000D+00
      8   0.000000D+00  0.000000D+00  0.000000D+00
 P(g) (    8, 1, 1) (imaginary):
                 1             2             3             4             5 
      1   0.000000D+00  0.000000D+00  0.000000D+00  0.000000D+00  0.000000D+00
      2   0.000000D+00  0.000000D+00  0.000000D+00  0.000000D+00  0.000000D+00
      3   0.000000D+00  0.000000D+00  0.000000D+00  0.000000D+00  0.000000D+00
      4   0.000000D+00  0.000000D+00  0.000000D+00  0.000000D+00  0.000000D+00
      5   0.000000D+00  0.000000D+00  0.000000D+00  0.000000D+00  0.000000D+00
      6   0.000000D+00  0.000000D+00  0.000000D+00  0.000000D+00  0.000000D+00
      7   0.000000D+00  0.000000D+00  0.000000D+00  0.000000D+00  0.000000D+00
      8   0.000000D+00  0.000000D+00  0.000000D+00  0.000000D+00  0.000000D+00
                 6             7             8 
      1   0.000000D+00  0.000000D+00  0.000000D+00
      2   0.000000D+00  0.000000D+00  0.000000D+00
      3   0.000000D+00  0.000000D+00  0.000000D+00
      4   0.000000D+00  0.000000D+00  0.000000D+00
      5   0.000000D+00  0.000000D+00  0.000000D+00
      6   0.000000D+00  0.000000D+00  0.000000D+00
      7   0.000000D+00  0.000000D+00  0.000000D+00
      8   0.000000D+00  0.000000D+00  0.000000D+00

 Symmetry not used in FoFDir.
 MinBra= 0 MaxBra= 0 Meth= 1.
 IRaf=       1 NMat=  64 IRICut=       1 DoRegI=T DoRafI=F ISym2E= 0 JSym2E=0.
 PrsmSu:  NPrtUS=   1 ThrOK=F IAlg=1 NPAlg=1 LenDen=           0.
 Prism:   IPart=     0 DynPar=F LinDyn=F Incr=           1.
 PRISM was handed   536866000 working-precision words and    10 shell-pairs
 IPart=  0 NShTot=          55 NBatch=          10 AvBLen=         5.5
 PrSmSu:  NxtVal=              2.
  
 G(g) (    1,  1) (real):
                 1             2             3             4             5 
      1   0.272955D+00  0.158115D-02  0.255639D-01 -0.289223D-02  0.478505D-01
      2  -0.158115D-02  0.272955D+00  0.632075D-03  0.343182D-03  0.431729D-04
      3   0.255160D-01  0.137471D-01  0.937568D+00 -0.128574D+00  0.104273D+00
      4  -0.289918D-02 -0.287887D-02 -0.128572D+00  0.831730D+00 -0.874230D-01
      5   0.477984D-01  0.134982D-01  0.104277D+00 -0.874251D-01  0.737587D+00
      6  -0.151465D-01  0.393696D-01  0.476241D-02  0.409921D-02 -0.171085D-02
      7  -0.122336D-01  0.341285D-01  0.176926D-02  0.159526D-02 -0.470500D-03
      8   0.628168D-03  0.151476D-01 -0.147878D-02 -0.134770D-02  0.104359D-02
                 6             7             8 
      1  -0.224630D-04 -0.631572D-03  0.346078D-03
      2   0.394129D-01  0.341846D-01  0.151521D-01
      3   0.194762D-02 -0.401197D-02  0.327484D-02
      4  -0.119802D-02  0.248250D-02 -0.213786D-02
      5   0.816793D-03 -0.269373D-02  0.164134D-02
      6   0.100763D+01  0.721924D-01 -0.117556D+00
      7   0.721948D-01  0.753262D+00 -0.618422D-01
      8  -0.117553D+00 -0.618385D-01  0.745993D+00
 G(g) (    1,  1) (imaginary):
                 1             2             3             4             5 
      1   0.000000D+00  0.000000D+00  0.000000D+00  0.000000D+00  0.000000D+00
      2   0.000000D+00  0.000000D+00  0.000000D+00  0.000000D+00  0.000000D+00
      3   0.000000D+00  0.000000D+00  0.000000D+00  0.000000D+00  0.000000D+00
      4   0.000000D+00  0.000000D+00  0.000000D+00  0.000000D+00  0.000000D+00
      5   0.000000D+00  0.000000D+00  0.000000D+00  0.000000D+00  0.000000D+00
      6   0.000000D+00  0.000000D+00  0.000000D+00  0.000000D+00  0.000000D+00
      7   0.000000D+00  0.000000D+00  0.000000D+00  0.000000D+00  0.000000D+00
      8   0.000000D+00  0.000000D+00  0.000000D+00  0.000000D+00  0.000000D+00
                 6             7             8 
      1   0.000000D+00  0.000000D+00  0.000000D+00
      2   0.000000D+00  0.000000D+00  0.000000D+00
      3   0.000000D+00  0.000000D+00  0.000000D+00
      4   0.000000D+00  0.000000D+00  0.000000D+00
      5   0.000000D+00  0.000000D+00  0.000000D+00
      6   0.000000D+00  0.000000D+00  0.000000D+00
      7   0.000000D+00  0.000000D+00  0.000000D+00
      8   0.000000D+00  0.000000D+00  0.000000D+00
  
 G(g) (    2,  1) (real):
                 1             2             3             4             5 
      1   0.273333D+00  0.814487D-02  0.254128D-01 -0.297422D-02  0.478402D-01
      2  -0.814487D-02  0.273333D+00  0.325597D-02  0.176781D-02  0.222394D-03
      3   0.241414D-01  0.708147D-01  0.937392D+00 -0.128382D+00  0.103977D+00
      4  -0.315905D-02 -0.148297D-01 -0.128319D+00  0.831719D+00 -0.873642D-01
      5   0.464545D-01  0.695322D-01  0.104092D+00 -0.874210D-01  0.737335D+00
      6  -0.780233D-01  0.382538D-01  0.245323D-01  0.211160D-01 -0.881296D-02
      7  -0.630179D-01  0.325418D-01  0.911388D-02  0.821754D-02 -0.242366D-02
      8   0.323584D-02  0.151156D-01 -0.761753D-02 -0.694230D-02  0.537580D-02
                 6             7             8 
      1  -0.115712D-03 -0.325337D-02  0.178273D-02
      2   0.394076D-01  0.340337D-01  0.152347D-01
      3   0.100327D-01 -0.206666D-01  0.168695D-01
      4  -0.617129D-02  0.127880D-01 -0.110126D-01
      5   0.420749D-02 -0.138761D-01  0.845494D-02
      6   0.100726D+01  0.719028D-01 -0.117504D+00
      7   0.719650D-01  0.753219D+00 -0.619833D-01
      8  -0.117420D+00 -0.618866D-01  0.745970D+00
 G(g) (    2,  1) (imaginary):
                 1             2             3             4             5 
      1   0.000000D+00  0.000000D+00  0.000000D+00  0.000000D+00  0.000000D+00
      2   0.000000D+00  0.000000D+00  0.000000D+00  0.000000D+00  0.000000D+00
      3   0.000000D+00  0.000000D+00  0.000000D+00  0.000000D+00  0.000000D+00
      4   0.000000D+00  0.000000D+00  0.000000D+00  0.000000D+00  0.000000D+00
      5   0.000000D+00  0.000000D+00  0.000000D+00  0.000000D+00  0.000000D+00
      6   0.000000D+00  0.000000D+00  0.000000D+00  0.000000D+00  0.000000D+00
      7   0.000000D+00  0.000000D+00  0.000000D+00  0.000000D+00  0.000000D+00
      8   0.000000D+00  0.000000D+00  0.000000D+00  0.000000D+00  0.000000D+00
                 6             7             8 
      1   0.000000D+00  0.000000D+00  0.000000D+00
      2   0.000000D+00  0.000000D+00  0.000000D+00
      3   0.000000D+00  0.000000D+00  0.000000D+00
      4   0.000000D+00  0.000000D+00  0.000000D+00
      5   0.000000D+00  0.000000D+00  0.000000D+00
      6   0.000000D+00  0.000000D+00  0.000000D+00
      7   0.000000D+00  0.000000D+00  0.000000D+00
      8   0.000000D+00  0.000000D+00  0.000000D+00
  
 G(g) (    3,  1) (real):
                 1             2             3             4             5 
      1   0.275226D+00  0.195459D-01  0.246559D-01 -0.338521D-02  0.477885D-01
      2  -0.195459D-01  0.275226D+00  0.781360D-02  0.424235D-02  0.533696D-03
      3   0.172507D-01  0.169940D+00  0.936511D+00 -0.127418D+00  0.102493D+00
      4  -0.446173D-02 -0.355880D-01 -0.127054D+00  0.831664D+00 -0.870696D-01
      5   0.397178D-01  0.166862D+00  0.103162D+00 -0.874003D-01  0.736073D+00
      6  -0.187239D+00  0.326609D-01  0.588720D-01  0.506736D-01 -0.211492D-01
      7  -0.151229D+00  0.245885D-01  0.218713D-01  0.197203D-01 -0.581623D-02
      8   0.776530D-02  0.149556D-01 -0.182804D-01 -0.166600D-01  0.129007D-01
                 6             7             8 
      1  -0.277684D-03 -0.780737D-02  0.427815D-02
      2   0.393807D-01  0.332773D-01  0.156492D-01
      3   0.240761D-01 -0.495953D-01  0.404830D-01
      4  -0.148097D-01  0.306882D-01 -0.264278D-01
      5   0.100970D-01 -0.332994D-01  0.202900D-01
      6   0.100539D+01  0.704512D-01 -0.117243D+00
      7   0.708132D-01  0.752999D+00 -0.626906D-01
      8  -0.116751D+00 -0.621274D-01  0.745859D+00
 G(g) (    3,  1) (imaginary):
                 1             2             3             4             5 
      1   0.000000D+00  0.000000D+00  0.000000D+00  0.000000D+00  0.000000D+00
      2   0.000000D+00  0.000000D+00  0.000000D+00  0.000000D+00  0.000000D+00
      3   0.000000D+00  0.000000D+00  0.000000D+00  0.000000D+00  0.000000D+00
      4   0.000000D+00  0.000000D+00  0.000000D+00  0.000000D+00  0.000000D+00
      5   0.000000D+00  0.000000D+00  0.000000D+00  0.000000D+00  0.000000D+00
      6   0.000000D+00  0.000000D+00  0.000000D+00  0.000000D+00  0.000000D+00
      7   0.000000D+00  0.000000D+00  0.000000D+00  0.000000D+00  0.000000D+00
      8   0.000000D+00  0.000000D+00  0.000000D+00  0.000000D+00  0.000000D+00
                 6             7             8 
      1   0.000000D+00  0.000000D+00  0.000000D+00
      2   0.000000D+00  0.000000D+00  0.000000D+00
      3   0.000000D+00  0.000000D+00  0.000000D+00
      4   0.000000D+00  0.000000D+00  0.000000D+00
      5   0.000000D+00  0.000000D+00  0.000000D+00
      6   0.000000D+00  0.000000D+00  0.000000D+00
      7   0.000000D+00  0.000000D+00  0.000000D+00
      8   0.000000D+00  0.000000D+00  0.000000D+00
  
 G(g) (    4,  1) (real):
                 1             2             3             4             5 
      1   0.280992D+00  0.360434D-01  0.223511D-01 -0.463657D-02  0.476311D-01
      2  -0.360434D-01  0.280992D+00  0.144086D-01  0.782307D-02  0.984155D-03
      3  -0.372995D-02  0.313375D+00  0.933826D+00 -0.124483D+00  0.979736D-01
      4  -0.842808D-02 -0.656257D-01 -0.123203D+00  0.831496D+00 -0.861726D-01
      5   0.192061D-01  0.307699D+00  0.100333D+00 -0.873372D-01  0.732231D+00
      6  -0.345275D+00  0.156318D-01  0.108562D+00  0.934441D-01 -0.389999D-01
      7  -0.278872D+00  0.372368D-03  0.403315D-01  0.363649D-01 -0.107254D-01
      8   0.143195D-01  0.144682D-01 -0.337097D-01 -0.307216D-01  0.237894D-01
                 6             7             8 
      1  -0.512060D-03 -0.143971D-01  0.788907D-02
      2   0.392988D-01  0.309744D-01  0.169111D-01
      3   0.443973D-01 -0.914556D-01  0.746522D-01
      4  -0.273097D-01  0.565903D-01 -0.487339D-01
      5   0.186193D-01 -0.614055D-01  0.374155D-01
      6   0.999703D+00  0.660314D-01 -0.116448D+00
      7   0.673061D-01  0.752331D+00 -0.648441D-01
      8  -0.114716D+00 -0.628605D-01  0.745519D+00
 G(g) (    4,  1) (imaginary):
                 1             2             3             4             5 
      1   0.000000D+00  0.000000D+00  0.000000D+00  0.000000D+00  0.000000D+00
      2   0.000000D+00  0.000000D+00  0.000000D+00  0.000000D+00  0.000000D+00
      3   0.000000D+00  0.000000D+00  0.000000D+00  0.000000D+00  0.000000D+00
      4   0.000000D+00  0.000000D+00  0.000000D+00  0.000000D+00  0.000000D+00
      5   0.000000D+00  0.000000D+00  0.000000D+00  0.000000D+00  0.000000D+00
      6   0.000000D+00  0.000000D+00  0.000000D+00  0.000000D+00  0.000000D+00
      7   0.000000D+00  0.000000D+00  0.000000D+00  0.000000D+00  0.000000D+00
      8   0.000000D+00  0.000000D+00  0.000000D+00  0.000000D+00  0.000000D+00
                 6             7             8 
      1   0.000000D+00  0.000000D+00  0.000000D+00
      2   0.000000D+00  0.000000D+00  0.000000D+00
      3   0.000000D+00  0.000000D+00  0.000000D+00
      4   0.000000D+00  0.000000D+00  0.000000D+00
      5   0.000000D+00  0.000000D+00  0.000000D+00
      6   0.000000D+00  0.000000D+00  0.000000D+00
      7   0.000000D+00  0.000000D+00  0.000000D+00
      8   0.000000D+00  0.000000D+00  0.000000D+00
  
 G(g) (    5,  1) (real):
                 1             2             3             4             5 
      1   0.296381D+00  0.584931D-01  0.161993D-01 -0.797669D-02  0.472109D-01
      2  -0.584931D-01  0.296381D+00  0.233830D-01  0.126957D-01  0.159714D-02
      3  -0.597310D-01  0.508562D+00  0.926660D+00 -0.116649D+00  0.859116D-01
      4  -0.190150D-01 -0.106501D+00 -0.112923D+00  0.831049D+00 -0.837783D-01
      5  -0.355433D-01  0.499351D+00  0.927797D-01 -0.871689D-01  0.721975D+00
      6  -0.560330D+00 -0.298220D-01  0.176180D+00  0.151646D+00 -0.632910D-01
      7  -0.452568D+00 -0.642648D-01  0.654521D-01  0.590149D-01 -0.174057D-01
      8   0.232384D-01  0.131672D-01 -0.547059D-01 -0.498567D-01  0.386067D-01
                 6             7             8 
      1  -0.830997D-03 -0.233644D-01  0.128028D-01
      2   0.390801D-01  0.248274D-01  0.202794D-01
      3   0.720503D-01 -0.148419D+00  0.121150D+00
      4  -0.443196D-01  0.918377D-01 -0.790880D-01
      5   0.302164D-01 -0.996520D-01  0.607198D-01
      6   0.984525D+00  0.542342D-01 -0.114325D+00
      7   0.579453D-01  0.750546D+00 -0.705923D-01
      8  -0.109283D+00 -0.648174D-01  0.744613D+00
 G(g) (    5,  1) (imaginary):
                 1             2             3             4             5 
      1   0.000000D+00  0.000000D+00  0.000000D+00  0.000000D+00  0.000000D+00
      2   0.000000D+00  0.000000D+00  0.000000D+00  0.000000D+00  0.000000D+00
      3   0.000000D+00  0.000000D+00  0.000000D+00  0.000000D+00  0.000000D+00
      4   0.000000D+00  0.000000D+00  0.000000D+00  0.000000D+00  0.000000D+00
      5   0.000000D+00  0.000000D+00  0.000000D+00  0.000000D+00  0.000000D+00
      6   0.000000D+00  0.000000D+00  0.000000D+00  0.000000D+00  0.000000D+00
      7   0.000000D+00  0.000000D+00  0.000000D+00  0.000000D+00  0.000000D+00
      8   0.000000D+00  0.000000D+00  0.000000D+00  0.000000D+00  0.000000D+00
                 6             7             8 
      1   0.000000D+00  0.000000D+00  0.000000D+00
      2   0.000000D+00  0.000000D+00  0.000000D+00
      3   0.000000D+00  0.000000D+00  0.000000D+00
      4   0.000000D+00  0.000000D+00  0.000000D+00
      5   0.000000D+00  0.000000D+00  0.000000D+00
      6   0.000000D+00  0.000000D+00  0.000000D+00
      7   0.000000D+00  0.000000D+00  0.000000D+00
      8   0.000000D+00  0.000000D+00  0.000000D+00
  
 G(g) (    6,  1) (real):
                 1             2             3             4             5 
      1   0.335519D+00  0.817616D-01  0.553334D-03 -0.164716D-01  0.461422D-01
      2  -0.817616D-01  0.335519D+00  0.326847D-01  0.177460D-01  0.223248D-02
      3  -0.202158D+00  0.710867D+00  0.908435D+00 -0.967240D-01  0.552344D-01
      4  -0.459405D-01 -0.148867D+00 -0.867775D-01  0.829911D+00 -0.776890D-01
      5  -0.174787D+00  0.697992D+00  0.735703D-01 -0.867408D-01  0.695893D+00
      6  -0.783230D+00 -0.145424D+00  0.246265D+00  0.211971D+00 -0.884681D-01
      7  -0.632600D+00 -0.228656D+00  0.914888D-01  0.824910D-01 -0.243296D-01
      8   0.324827D-01  0.985853D-02 -0.764679D-01 -0.696896D-01  0.539645D-01
                 6             7             8 
      1  -0.116157D-02 -0.326587D-01  0.178957D-01
      2   0.385241D-01  0.919399D-02  0.288460D-01
      3   0.100712D+00 -0.207460D+00  0.169343D+00
      4  -0.619499D-01  0.128371D+00 -0.110549D+00
      5   0.422365D-01 -0.139294D+00  0.848741D-01
      6   0.945922D+00  0.242304D-01 -0.108927D+00
      7   0.341380D-01  0.746008D+00 -0.852117D-01
      8  -0.954648D-01 -0.697944D-01  0.742309D+00
 G(g) (    6,  1) (imaginary):
                 1             2             3             4             5 
      1   0.000000D+00  0.000000D+00  0.000000D+00  0.000000D+00  0.000000D+00
      2   0.000000D+00  0.000000D+00  0.000000D+00  0.000000D+00  0.000000D+00
      3   0.000000D+00  0.000000D+00  0.000000D+00  0.000000D+00  0.000000D+00
      4   0.000000D+00  0.000000D+00  0.000000D+00  0.000000D+00  0.000000D+00
      5   0.000000D+00  0.000000D+00  0.000000D+00  0.000000D+00  0.000000D+00
      6   0.000000D+00  0.000000D+00  0.000000D+00  0.000000D+00  0.000000D+00
      7   0.000000D+00  0.000000D+00  0.000000D+00  0.000000D+00  0.000000D+00
      8   0.000000D+00  0.000000D+00  0.000000D+00  0.000000D+00  0.000000D+00
                 6             7             8 
      1   0.000000D+00  0.000000D+00  0.000000D+00
      2   0.000000D+00  0.000000D+00  0.000000D+00
      3   0.000000D+00  0.000000D+00  0.000000D+00
      4   0.000000D+00  0.000000D+00  0.000000D+00
      5   0.000000D+00  0.000000D+00  0.000000D+00
      6   0.000000D+00  0.000000D+00  0.000000D+00
      7   0.000000D+00  0.000000D+00  0.000000D+00
      8   0.000000D+00  0.000000D+00  0.000000D+00
  
 G(g) (    7,  1) (real):
                 1             2             3             4             5 
      1   0.404280D+00  0.707053D-01 -0.269342D-01 -0.313958D-01  0.442647D-01
      2  -0.707053D-01  0.404280D+00  0.282649D-01  0.153463D-01  0.193059D-02
      3  -0.452380D+00  0.614739D+00  0.876417D+00 -0.617194D-01  0.133928D-02
      4  -0.932446D-01 -0.128736D+00 -0.408440D-01  0.827912D+00 -0.669909D-01
      5  -0.419417D+00  0.603606D+00  0.398223D-01 -0.859886D-01  0.650070D+00
      6  -0.677317D+00 -0.348519D+00  0.212964D+00  0.183307D+00 -0.765050D-01
      7  -0.547056D+00 -0.517465D+00  0.791172D-01  0.713361D-01 -0.210397D-01
      8   0.280902D-01  0.404567D-02 -0.661275D-01 -0.602658D-01  0.466671D-01
                 6             7             8 
      1  -0.100449D-02 -0.282424D-01  0.154758D-01
      2   0.375472D-01 -0.182716D-01  0.438961D-01
      3   0.870931D-01 -0.179406D+00  0.146443D+00
      4  -0.535727D-01  0.111012D+00 -0.956000D-01
      5   0.365250D-01 -0.120457D+00  0.733969D-01
      6   0.878103D+00 -0.284818D-01 -0.994422D-01
      7  -0.768791D-02  0.738036D+00 -0.110896D+00
      8  -0.711889D-01 -0.785382D-01  0.738260D+00
 G(g) (    7,  1) (imaginary):
                 1             2             3             4             5 
      1   0.000000D+00  0.000000D+00  0.000000D+00  0.000000D+00  0.000000D+00
      2   0.000000D+00  0.000000D+00  0.000000D+00  0.000000D+00  0.000000D+00
      3   0.000000D+00  0.000000D+00  0.000000D+00  0.000000D+00  0.000000D+00
      4   0.000000D+00  0.000000D+00  0.000000D+00  0.000000D+00  0.000000D+00
      5   0.000000D+00  0.000000D+00  0.000000D+00  0.000000D+00  0.000000D+00
      6   0.000000D+00  0.000000D+00  0.000000D+00  0.000000D+00  0.000000D+00
      7   0.000000D+00  0.000000D+00  0.000000D+00  0.000000D+00  0.000000D+00
      8   0.000000D+00  0.000000D+00  0.000000D+00  0.000000D+00  0.000000D+00
                 6             7             8 
      1   0.000000D+00  0.000000D+00  0.000000D+00
      2   0.000000D+00  0.000000D+00  0.000000D+00
      3   0.000000D+00  0.000000D+00  0.000000D+00
      4   0.000000D+00  0.000000D+00  0.000000D+00
      5   0.000000D+00  0.000000D+00  0.000000D+00
      6   0.000000D+00  0.000000D+00  0.000000D+00
      7   0.000000D+00  0.000000D+00  0.000000D+00
      8   0.000000D+00  0.000000D+00  0.000000D+00
  
 G(g) (    8,  1) (real):
                 1             2             3             4             5 
      1   0.440521D+00  0.174743D-01 -0.414219D-01 -0.392618D-01  0.432752D-01
      2  -0.174743D-01  0.440521D+00  0.698547D-02  0.379273D-02  0.477132D-03
      3  -0.584263D+00  0.151928D+00  0.859542D+00 -0.432698D-01 -0.270669D-01
      4  -0.118177D+00 -0.318162D-01 -0.166341D-01  0.826858D+00 -0.613524D-01
      5  -0.548352D+00  0.149177D+00  0.220349D-01 -0.855922D-01  0.625919D+00
      6  -0.167394D+00 -0.455563D+00  0.526324D-01  0.453029D-01 -0.189076D-01
      7  -0.135201D+00 -0.669687D+00  0.195532D-01  0.176302D-01 -0.519980D-02
      8   0.694229D-02  0.981910D-03 -0.163429D-01 -0.148943D-01  0.115334D-01
                 6             7             8 
      1  -0.248253D-03 -0.697990D-02  0.382472D-02
      2   0.370324D-01 -0.327478D-01  0.518285D-01
      3   0.215244D-01 -0.443389D-01  0.361924D-01
      4  -0.132401D-01  0.274357D-01 -0.236269D-01
      5   0.902690D-02 -0.297702D-01  0.181395D-01
      6   0.842358D+00 -0.562645D-01 -0.944433D-01
      7  -0.297328D-01  0.733834D+00 -0.124433D+00
      8  -0.583940D-01 -0.831467D-01  0.736126D+00
 G(g) (    8,  1) (imaginary):
                 1             2             3             4             5 
      1   0.000000D+00  0.000000D+00  0.000000D+00  0.000000D+00  0.000000D+00
      2   0.000000D+00  0.000000D+00  0.000000D+00  0.000000D+00  0.000000D+00
      3   0.000000D+00  0.000000D+00  0.000000D+00  0.000000D+00  0.000000D+00
      4   0.000000D+00  0.000000D+00  0.000000D+00  0.000000D+00  0.000000D+00
      5   0.000000D+00  0.000000D+00  0.000000D+00  0.000000D+00  0.000000D+00
      6   0.000000D+00  0.000000D+00  0.000000D+00  0.000000D+00  0.000000D+00
      7   0.000000D+00  0.000000D+00  0.000000D+00  0.000000D+00  0.000000D+00
      8   0.000000D+00  0.000000D+00  0.000000D+00  0.000000D+00  0.000000D+00
                 6             7             8 
      1   0.000000D+00  0.000000D+00  0.000000D+00
      2   0.000000D+00  0.000000D+00  0.000000D+00
      3   0.000000D+00  0.000000D+00  0.000000D+00
      4   0.000000D+00  0.000000D+00  0.000000D+00
      5   0.000000D+00  0.000000D+00  0.000000D+00
      6   0.000000D+00  0.000000D+00  0.000000D+00
      7   0.000000D+00  0.000000D+00  0.000000D+00
      8   0.000000D+00  0.000000D+00  0.000000D+00
 End formgg
 End transform in smt
 End extract C in smt
 End Smt
 End build CI
 Smt (real):
                 1 
      1   0.108952D+01
 Smt (imaginary):
                 1 
      1   0.000000D+00
 Hmt (real):
                 1 
      1  -0.138813D+01
 Hmt (imaginary):
                 1 
      1   0.000000D+00
  
 X(g) (    1, 1, 1) (real):
                 1             2             3             4             5 
      1   0.200000D+01  0.000000D+00  0.166726D-03  0.250372D-04  0.220860D-03
      2   0.000000D+00  0.200000D+01  0.178614D-01  0.268224D-02  0.236607D-01
      3   0.166726D-03 -0.178614D-01  0.000000D+00  0.000000D+00  0.000000D+00
      4   0.250372D-04 -0.268224D-02  0.000000D+00  0.000000D+00  0.000000D+00
      5   0.220860D-03 -0.236607D-01  0.000000D+00  0.000000D+00  0.000000D+00
      6   0.185474D-01  0.173130D-03  0.000000D+00  0.000000D+00  0.000000D+00
      7   0.228199D-01  0.213011D-03  0.000000D+00  0.000000D+00  0.000000D+00
      8   0.461542D-02  0.430825D-04  0.000000D+00  0.000000D+00  0.000000D+00
                 6             7             8 
      1  -0.185474D-01 -0.228199D-01 -0.461542D-02
      2   0.173130D-03  0.213011D-03  0.430825D-04
      3   0.000000D+00  0.000000D+00  0.000000D+00
      4   0.000000D+00  0.000000D+00  0.000000D+00
      5   0.000000D+00  0.000000D+00  0.000000D+00
      6   0.000000D+00  0.000000D+00  0.000000D+00
      7   0.000000D+00  0.000000D+00  0.000000D+00
      8   0.000000D+00  0.000000D+00  0.000000D+00
 X(g) (    1, 1, 1) (imaginary):
                 1             2             3             4             5 
      1   0.000000D+00  0.000000D+00  0.000000D+00  0.000000D+00  0.000000D+00
      2   0.000000D+00  0.000000D+00  0.000000D+00  0.000000D+00  0.000000D+00
      3   0.000000D+00  0.000000D+00  0.000000D+00  0.000000D+00  0.000000D+00
      4   0.000000D+00  0.000000D+00  0.000000D+00  0.000000D+00  0.000000D+00
      5   0.000000D+00  0.000000D+00  0.000000D+00  0.000000D+00  0.000000D+00
      6   0.000000D+00  0.000000D+00  0.000000D+00  0.000000D+00  0.000000D+00
      7   0.000000D+00  0.000000D+00  0.000000D+00  0.000000D+00  0.000000D+00
      8   0.000000D+00  0.000000D+00  0.000000D+00  0.000000D+00  0.000000D+00
                 6             7             8 
      1   0.000000D+00  0.000000D+00  0.000000D+00
      2   0.000000D+00  0.000000D+00  0.000000D+00
      3   0.000000D+00  0.000000D+00  0.000000D+00
      4   0.000000D+00  0.000000D+00  0.000000D+00
      5   0.000000D+00  0.000000D+00  0.000000D+00
      6   0.000000D+00  0.000000D+00  0.000000D+00
      7   0.000000D+00  0.000000D+00  0.000000D+00
      8   0.000000D+00  0.000000D+00  0.000000D+00
  
 X(g) (    2, 1, 1) (real):
                 1             2             3             4             5 
      1   0.200000D+01  0.000000D+00  0.443400D-02  0.665853D-03  0.587367D-02
      2   0.000000D+00  0.200000D+01  0.920080D-01  0.138168D-01  0.121882D+00
      3   0.443400D-02 -0.920080D-01  0.000000D+00  0.000000D+00  0.000000D+00
      4   0.665853D-03 -0.138168D-01  0.000000D+00  0.000000D+00  0.000000D+00
      5   0.587367D-02 -0.121882D+00  0.000000D+00  0.000000D+00  0.000000D+00
      6   0.955418D-01  0.460430D-02  0.000000D+00  0.000000D+00  0.000000D+00
      7   0.117550D+00  0.566493D-02  0.000000D+00  0.000000D+00  0.000000D+00
      8   0.237751D-01  0.114576D-02  0.000000D+00  0.000000D+00  0.000000D+00
                 6             7             8 
      1  -0.955418D-01 -0.117550D+00 -0.237751D-01
      2   0.460430D-02  0.566493D-02  0.114576D-02
      3   0.000000D+00  0.000000D+00  0.000000D+00
      4   0.000000D+00  0.000000D+00  0.000000D+00
      5   0.000000D+00  0.000000D+00  0.000000D+00
      6   0.000000D+00  0.000000D+00  0.000000D+00
      7   0.000000D+00  0.000000D+00  0.000000D+00
      8   0.000000D+00  0.000000D+00  0.000000D+00
 X(g) (    2, 1, 1) (imaginary):
                 1             2             3             4             5 
      1   0.000000D+00  0.000000D+00  0.000000D+00  0.000000D+00  0.000000D+00
      2   0.000000D+00  0.000000D+00  0.000000D+00  0.000000D+00  0.000000D+00
      3   0.000000D+00  0.000000D+00  0.000000D+00  0.000000D+00  0.000000D+00
      4   0.000000D+00  0.000000D+00  0.000000D+00  0.000000D+00  0.000000D+00
      5   0.000000D+00  0.000000D+00  0.000000D+00  0.000000D+00  0.000000D+00
      6   0.000000D+00  0.000000D+00  0.000000D+00  0.000000D+00  0.000000D+00
      7   0.000000D+00  0.000000D+00  0.000000D+00  0.000000D+00  0.000000D+00
      8   0.000000D+00  0.000000D+00  0.000000D+00  0.000000D+00  0.000000D+00
                 6             7             8 
      1   0.000000D+00  0.000000D+00  0.000000D+00
      2   0.000000D+00  0.000000D+00  0.000000D+00
      3   0.000000D+00  0.000000D+00  0.000000D+00
      4   0.000000D+00  0.000000D+00  0.000000D+00
      5   0.000000D+00  0.000000D+00  0.000000D+00
      6   0.000000D+00  0.000000D+00  0.000000D+00
      7   0.000000D+00  0.000000D+00  0.000000D+00
      8   0.000000D+00  0.000000D+00  0.000000D+00
  
 X(g) (    3, 1, 1) (real):
                 1             2             3             4             5 
      1   0.200000D+01  0.000000D+00  0.258244D-01  0.387805D-02  0.342094D-01
      2   0.000000D+00  0.200000D+01  0.220799D+00  0.331573D-01  0.292490D+00
      3   0.258244D-01 -0.220799D+00  0.000000D+00  0.000000D+00  0.000000D+00
      4   0.387805D-02 -0.331573D-01  0.000000D+00  0.000000D+00  0.000000D+00
      5   0.342094D-01 -0.292490D+00  0.000000D+00  0.000000D+00  0.000000D+00
      6   0.229279D+00  0.268163D-01  0.000000D+00  0.000000D+00  0.000000D+00
      7   0.282095D+00  0.329936D-01  0.000000D+00  0.000000D+00  0.000000D+00
      8   0.570550D-01  0.667311D-02  0.000000D+00  0.000000D+00  0.000000D+00
                 6             7             8 
      1  -0.229279D+00 -0.282095D+00 -0.570550D-01
      2   0.268163D-01  0.329936D-01  0.667311D-02
      3   0.000000D+00  0.000000D+00  0.000000D+00
      4   0.000000D+00  0.000000D+00  0.000000D+00
      5   0.000000D+00  0.000000D+00  0.000000D+00
      6   0.000000D+00  0.000000D+00  0.000000D+00
      7   0.000000D+00  0.000000D+00  0.000000D+00
      8   0.000000D+00  0.000000D+00  0.000000D+00
 X(g) (    3, 1, 1) (imaginary):
                 1             2             3             4             5 
      1   0.000000D+00  0.000000D+00  0.000000D+00  0.000000D+00  0.000000D+00
      2   0.000000D+00  0.000000D+00  0.000000D+00  0.000000D+00  0.000000D+00
      3   0.000000D+00  0.000000D+00  0.000000D+00  0.000000D+00  0.000000D+00
      4   0.000000D+00  0.000000D+00  0.000000D+00  0.000000D+00  0.000000D+00
      5   0.000000D+00  0.000000D+00  0.000000D+00  0.000000D+00  0.000000D+00
      6   0.000000D+00  0.000000D+00  0.000000D+00  0.000000D+00  0.000000D+00
      7   0.000000D+00  0.000000D+00  0.000000D+00  0.000000D+00  0.000000D+00
      8   0.000000D+00  0.000000D+00  0.000000D+00  0.000000D+00  0.000000D+00
                 6             7             8 
      1   0.000000D+00  0.000000D+00  0.000000D+00
      2   0.000000D+00  0.000000D+00  0.000000D+00
      3   0.000000D+00  0.000000D+00  0.000000D+00
      4   0.000000D+00  0.000000D+00  0.000000D+00
      5   0.000000D+00  0.000000D+00  0.000000D+00
      6   0.000000D+00  0.000000D+00  0.000000D+00
      7   0.000000D+00  0.000000D+00  0.000000D+00
      8   0.000000D+00  0.000000D+00  0.000000D+00
  
 X(g) (    4, 1, 1) (real):
                 1             2             3             4             5 
      1   0.200000D+01  0.000000D+00  0.909533D-01  0.136584D-01  0.120485D+00
      2   0.000000D+00  0.200000D+01  0.407161D+00  0.611434D-01  0.539362D+00
      3   0.909533D-01 -0.407161D+00  0.000000D+00  0.000000D+00  0.000000D+00
      4   0.136584D-01 -0.611434D-01  0.000000D+00  0.000000D+00  0.000000D+00
      5   0.120485D+00 -0.539362D+00  0.000000D+00  0.000000D+00  0.000000D+00
      6   0.422799D+00  0.944466D-01  0.000000D+00  0.000000D+00  0.000000D+00
      7   0.520194D+00  0.116203D+00  0.000000D+00  0.000000D+00  0.000000D+00
      8   0.105212D+00  0.235026D-01  0.000000D+00  0.000000D+00  0.000000D+00
                 6             7             8 
      1  -0.422799D+00 -0.520194D+00 -0.105212D+00
      2   0.944466D-01  0.116203D+00  0.235026D-01
      3   0.000000D+00  0.000000D+00  0.000000D+00
      4   0.000000D+00  0.000000D+00  0.000000D+00
      5   0.000000D+00  0.000000D+00  0.000000D+00
      6   0.000000D+00  0.000000D+00  0.000000D+00
      7   0.000000D+00  0.000000D+00  0.000000D+00
      8   0.000000D+00  0.000000D+00  0.000000D+00
 X(g) (    4, 1, 1) (imaginary):
                 1             2             3             4             5 
      1   0.000000D+00  0.000000D+00  0.000000D+00  0.000000D+00  0.000000D+00
      2   0.000000D+00  0.000000D+00  0.000000D+00  0.000000D+00  0.000000D+00
      3   0.000000D+00  0.000000D+00  0.000000D+00  0.000000D+00  0.000000D+00
      4   0.000000D+00  0.000000D+00  0.000000D+00  0.000000D+00  0.000000D+00
      5   0.000000D+00  0.000000D+00  0.000000D+00  0.000000D+00  0.000000D+00
      6   0.000000D+00  0.000000D+00  0.000000D+00  0.000000D+00  0.000000D+00
      7   0.000000D+00  0.000000D+00  0.000000D+00  0.000000D+00  0.000000D+00
      8   0.000000D+00  0.000000D+00  0.000000D+00  0.000000D+00  0.000000D+00
                 6             7             8 
      1   0.000000D+00  0.000000D+00  0.000000D+00
      2   0.000000D+00  0.000000D+00  0.000000D+00
      3   0.000000D+00  0.000000D+00  0.000000D+00
      4   0.000000D+00  0.000000D+00  0.000000D+00
      5   0.000000D+00  0.000000D+00  0.000000D+00
      6   0.000000D+00  0.000000D+00  0.000000D+00
      7   0.000000D+00  0.000000D+00  0.000000D+00
      8   0.000000D+00  0.000000D+00  0.000000D+00
  
 X(g) (    5, 1, 1) (real):
                 1             2             3             4             5 
      1   0.200000D+01  0.000000D+00  0.264794D+00  0.397641D-01  0.350770D+00
      2   0.000000D+00  0.200000D+01  0.660763D+00  0.992266D-01  0.875305D+00
      3   0.264794D+00 -0.660763D+00  0.000000D+00  0.000000D+00  0.000000D+00
      4   0.397641D-01 -0.992266D-01  0.000000D+00  0.000000D+00  0.000000D+00
      5   0.350770D+00 -0.875305D+00  0.000000D+00  0.000000D+00  0.000000D+00
      6   0.686141D+00  0.274964D+00  0.000000D+00  0.000000D+00  0.000000D+00
      7   0.844198D+00  0.338304D+00  0.000000D+00  0.000000D+00  0.000000D+00
      8   0.170743D+00  0.684235D-01  0.000000D+00  0.000000D+00  0.000000D+00
                 6             7             8 
      1  -0.686141D+00 -0.844198D+00 -0.170743D+00
      2   0.274964D+00  0.338304D+00  0.684235D-01
      3   0.000000D+00  0.000000D+00  0.000000D+00
      4   0.000000D+00  0.000000D+00  0.000000D+00
      5   0.000000D+00  0.000000D+00  0.000000D+00
      6   0.000000D+00  0.000000D+00  0.000000D+00
      7   0.000000D+00  0.000000D+00  0.000000D+00
      8   0.000000D+00  0.000000D+00  0.000000D+00
 X(g) (    5, 1, 1) (imaginary):
                 1             2             3             4             5 
      1   0.000000D+00  0.000000D+00  0.000000D+00  0.000000D+00  0.000000D+00
      2   0.000000D+00  0.000000D+00  0.000000D+00  0.000000D+00  0.000000D+00
      3   0.000000D+00  0.000000D+00  0.000000D+00  0.000000D+00  0.000000D+00
      4   0.000000D+00  0.000000D+00  0.000000D+00  0.000000D+00  0.000000D+00
      5   0.000000D+00  0.000000D+00  0.000000D+00  0.000000D+00  0.000000D+00
      6   0.000000D+00  0.000000D+00  0.000000D+00  0.000000D+00  0.000000D+00
      7   0.000000D+00  0.000000D+00  0.000000D+00  0.000000D+00  0.000000D+00
      8   0.000000D+00  0.000000D+00  0.000000D+00  0.000000D+00  0.000000D+00
                 6             7             8 
      1   0.000000D+00  0.000000D+00  0.000000D+00
      2   0.000000D+00  0.000000D+00  0.000000D+00
      3   0.000000D+00  0.000000D+00  0.000000D+00
      4   0.000000D+00  0.000000D+00  0.000000D+00
      5   0.000000D+00  0.000000D+00  0.000000D+00
      6   0.000000D+00  0.000000D+00  0.000000D+00
      7   0.000000D+00  0.000000D+00  0.000000D+00
      8   0.000000D+00  0.000000D+00  0.000000D+00
  
 X(g) (    6, 1, 1) (real):
                 1             2             3             4             5 
      1   0.200000D+01  0.000000D+00  0.706920D+00  0.106158D+00  0.936450D+00
      2   0.000000D+00  0.200000D+01  0.923614D+00  0.138699D+00  0.122350D+01
      3   0.706920D+00 -0.923614D+00  0.000000D+00  0.000000D+00  0.000000D+00
      4   0.106158D+00 -0.138699D+00  0.000000D+00  0.000000D+00  0.000000D+00
[...]
      6  -0.545012D+00 -0.116905D+00  0.000000D+00  0.000000D+00  0.000000D+00
      7   0.391656D+00  0.840106D-01  0.000000D+00  0.000000D+00  0.000000D+00
      8  -0.130321D+00 -0.279540D-01  0.000000D+00  0.000000D+00  0.000000D+00
                 6             7             8 
      1   0.545012D+00 -0.391656D+00  0.130321D+00
      2  -0.116905D+00  0.840106D-01 -0.279540D-01
      3   0.000000D+00  0.000000D+00  0.000000D+00
      4   0.000000D+00  0.000000D+00  0.000000D+00
      5   0.000000D+00  0.000000D+00  0.000000D+00
      6   0.000000D+00  0.000000D+00  0.000000D+00
      7   0.000000D+00  0.000000D+00  0.000000D+00
      8   0.000000D+00  0.000000D+00  0.000000D+00
 X(g) (    4, 1, 1) (imaginary):
                 1             2             3             4             5 
      1   0.000000D+00  0.000000D+00  0.000000D+00  0.000000D+00  0.000000D+00
      2   0.000000D+00  0.000000D+00  0.000000D+00  0.000000D+00  0.000000D+00
      3   0.000000D+00  0.000000D+00  0.000000D+00  0.000000D+00  0.000000D+00
      4   0.000000D+00  0.000000D+00  0.000000D+00  0.000000D+00  0.000000D+00
      5   0.000000D+00  0.000000D+00  0.000000D+00  0.000000D+00  0.000000D+00
      6   0.000000D+00  0.000000D+00  0.000000D+00  0.000000D+00  0.000000D+00
      7   0.000000D+00  0.000000D+00  0.000000D+00  0.000000D+00  0.000000D+00
      8   0.000000D+00  0.000000D+00  0.000000D+00  0.000000D+00  0.000000D+00
                 6             7             8 
      1   0.000000D+00  0.000000D+00  0.000000D+00
      2   0.000000D+00  0.000000D+00  0.000000D+00
      3   0.000000D+00  0.000000D+00  0.000000D+00
      4   0.000000D+00  0.000000D+00  0.000000D+00
      5   0.000000D+00  0.000000D+00  0.000000D+00
      6   0.000000D+00  0.000000D+00  0.000000D+00
      7   0.000000D+00  0.000000D+00  0.000000D+00
      8   0.000000D+00  0.000000D+00  0.000000D+00
  
 X(g) (    5, 1, 1) (real):
                 1             2             3             4             5 
      1   0.200000D+01  0.000000D+00 -0.305777D+00  0.602448D-01 -0.296261D+00
      2   0.000000D+00  0.200000D+01 -0.794632D+00  0.156560D+00 -0.769901D+00
      3  -0.305777D+00  0.794632D+00  0.000000D+00  0.000000D+00  0.000000D+00
      4   0.602448D-01 -0.156560D+00  0.000000D+00  0.000000D+00  0.000000D+00
      5  -0.296261D+00  0.769901D+00  0.000000D+00  0.000000D+00  0.000000D+00
      6  -0.890805D+00 -0.342785D+00  0.000000D+00  0.000000D+00  0.000000D+00
      7   0.640150D+00  0.246332D+00  0.000000D+00  0.000000D+00  0.000000D+00
      8  -0.213006D+00 -0.819657D-01  0.000000D+00  0.000000D+00  0.000000D+00
                 6             7             8 
      1   0.890805D+00 -0.640150D+00  0.213006D+00
      2  -0.342785D+00  0.246332D+00 -0.819657D-01
      3   0.000000D+00  0.000000D+00  0.000000D+00
      4   0.000000D+00  0.000000D+00  0.000000D+00
      5   0.000000D+00  0.000000D+00  0.000000D+00
      6   0.000000D+00  0.000000D+00  0.000000D+00
      7   0.000000D+00  0.000000D+00  0.000000D+00
      8   0.000000D+00  0.000000D+00  0.000000D+00
 X(g) (    5, 1, 1) (imaginary):
                 1             2             3             4             5 
      1   0.000000D+00  0.000000D+00  0.000000D+00  0.000000D+00  0.000000D+00
      2   0.000000D+00  0.000000D+00  0.000000D+00  0.000000D+00  0.000000D+00
      3   0.000000D+00  0.000000D+00  0.000000D+00  0.000000D+00  0.000000D+00
      4   0.000000D+00  0.000000D+00  0.000000D+00  0.000000D+00  0.000000D+00
      5   0.000000D+00  0.000000D+00  0.000000D+00  0.000000D+00  0.000000D+00
      6   0.000000D+00  0.000000D+00  0.000000D+00  0.000000D+00  0.000000D+00
      7   0.000000D+00  0.000000D+00  0.000000D+00  0.000000D+00  0.000000D+00
      8   0.000000D+00  0.000000D+00  0.000000D+00  0.000000D+00  0.000000D+00
                 6             7             8 
      1   0.000000D+00  0.000000D+00  0.000000D+00
      2   0.000000D+00  0.000000D+00  0.000000D+00
      3   0.000000D+00  0.000000D+00  0.000000D+00
      4   0.000000D+00  0.000000D+00  0.000000D+00
      5   0.000000D+00  0.000000D+00  0.000000D+00
      6   0.000000D+00  0.000000D+00  0.000000D+00
      7   0.000000D+00  0.000000D+00  0.000000D+00
      8   0.000000D+00  0.000000D+00  0.000000D+00
  
 X(g) (    6, 1, 1) (real):
                 1             2             3             4             5 
      1   0.200000D+01  0.000000D+00 -0.831472D+00  0.163818D+00 -0.805595D+00
      2   0.000000D+00  0.200000D+01 -0.113133D+01  0.222897D+00 -0.109612D+01
      3  -0.831472D+00  0.113133D+01  0.000000D+00  0.000000D+00  0.000000D+00
      4   0.163818D+00 -0.222897D+00  0.000000D+00  0.000000D+00  0.000000D+00
      5  -0.805595D+00  0.109612D+01  0.000000D+00  0.000000D+00  0.000000D+00
      6  -0.126826D+01 -0.932104D+00  0.000000D+00  0.000000D+00  0.000000D+00
      7   0.911395D+00  0.669828D+00  0.000000D+00  0.000000D+00  0.000000D+00
      8  -0.303261D+00 -0.222882D+00  0.000000D+00  0.000000D+00  0.000000D+00
                 6             7             8 
      1   0.126826D+01 -0.911395D+00  0.303261D+00
      2  -0.932104D+00  0.669828D+00 -0.222882D+00
      3   0.000000D+00  0.000000D+00  0.000000D+00
      4   0.000000D+00  0.000000D+00  0.000000D+00
      5   0.000000D+00  0.000000D+00  0.000000D+00
      6   0.000000D+00  0.000000D+00  0.000000D+00
      7   0.000000D+00  0.000000D+00  0.000000D+00
      8   0.000000D+00  0.000000D+00  0.000000D+00
 X(g) (    6, 1, 1) (imaginary):
                 1             2             3             4             5 
      1   0.000000D+00  0.000000D+00  0.000000D+00  0.000000D+00  0.000000D+00
      2   0.000000D+00  0.000000D+00  0.000000D+00  0.000000D+00  0.000000D+00
      3   0.000000D+00  0.000000D+00  0.000000D+00  0.000000D+00  0.000000D+00
      4   0.000000D+00  0.000000D+00  0.000000D+00  0.000000D+00  0.000000D+00
      5   0.000000D+00  0.000000D+00  0.000000D+00  0.000000D+00  0.000000D+00
      6   0.000000D+00  0.000000D+00  0.000000D+00  0.000000D+00  0.000000D+00
      7   0.000000D+00  0.000000D+00  0.000000D+00  0.000000D+00  0.000000D+00
      8   0.000000D+00  0.000000D+00  0.000000D+00  0.000000D+00  0.000000D+00
                 6             7             8 
      1   0.000000D+00  0.000000D+00  0.000000D+00
      2   0.000000D+00  0.000000D+00  0.000000D+00
      3   0.000000D+00  0.000000D+00  0.000000D+00
      4   0.000000D+00  0.000000D+00  0.000000D+00
      5   0.000000D+00  0.000000D+00  0.000000D+00
      6   0.000000D+00  0.000000D+00  0.000000D+00
      7   0.000000D+00  0.000000D+00  0.000000D+00
      8   0.000000D+00  0.000000D+00  0.000000D+00
  
 X(g) (    7, 1, 1) (real):
                 1             2             3             4             5 
      1   0.200000D+01  0.000000D+00 -0.180384D+01  0.355396D+00 -0.174770D+01
      2   0.000000D+00  0.200000D+01 -0.101129D+01  0.199247D+00 -0.979821D+00
      3  -0.180384D+01  0.101129D+01  0.000000D+00  0.000000D+00  0.000000D+00
      4   0.355396D+00 -0.199247D+00  0.000000D+00  0.000000D+00  0.000000D+00
      5  -0.174770D+01  0.979821D+00  0.000000D+00  0.000000D+00  0.000000D+00
      6  -0.113369D+01 -0.202216D+01  0.000000D+00  0.000000D+00  0.000000D+00
      7   0.814692D+00  0.145316D+01  0.000000D+00  0.000000D+00  0.000000D+00
      8  -0.271084D+00 -0.483532D+00  0.000000D+00  0.000000D+00  0.000000D+00
                 6             7             8 
      1   0.113369D+01 -0.814692D+00  0.271084D+00
      2  -0.202216D+01  0.145316D+01 -0.483532D+00
      3   0.000000D+00  0.000000D+00  0.000000D+00
      4   0.000000D+00  0.000000D+00  0.000000D+00
      5   0.000000D+00  0.000000D+00  0.000000D+00
      6   0.000000D+00  0.000000D+00  0.000000D+00
      7   0.000000D+00  0.000000D+00  0.000000D+00
      8   0.000000D+00  0.000000D+00  0.000000D+00
 X(g) (    7, 1, 1) (imaginary):
                 1             2             3             4             5 
      1   0.000000D+00  0.000000D+00  0.000000D+00  0.000000D+00  0.000000D+00
      2   0.000000D+00  0.000000D+00  0.000000D+00  0.000000D+00  0.000000D+00
      3   0.000000D+00  0.000000D+00  0.000000D+00  0.000000D+00  0.000000D+00
      4   0.000000D+00  0.000000D+00  0.000000D+00  0.000000D+00  0.000000D+00
      5   0.000000D+00  0.000000D+00  0.000000D+00  0.000000D+00  0.000000D+00
      6   0.000000D+00  0.000000D+00  0.000000D+00  0.000000D+00  0.000000D+00
      7   0.000000D+00  0.000000D+00  0.000000D+00  0.000000D+00  0.000000D+00
      8   0.000000D+00  0.000000D+00  0.000000D+00  0.000000D+00  0.000000D+00
                 6             7             8 
      1   0.000000D+00  0.000000D+00  0.000000D+00
      2   0.000000D+00  0.000000D+00  0.000000D+00
      3   0.000000D+00  0.000000D+00  0.000000D+00
      4   0.000000D+00  0.000000D+00  0.000000D+00
      5   0.000000D+00  0.000000D+00  0.000000D+00
      6   0.000000D+00  0.000000D+00  0.000000D+00
      7   0.000000D+00  0.000000D+00  0.000000D+00
      8   0.000000D+00  0.000000D+00  0.000000D+00
  
 X(g) (    8, 1, 1) (real):
                 1             2             3             4             5 
      1   0.200000D+01  0.000000D+00 -0.234318D+01  0.461656D+00 -0.227025D+01
      2   0.000000D+00  0.200000D+01 -0.254450D+00  0.501322D-01 -0.246531D+00
      3  -0.234318D+01  0.254450D+00  0.000000D+00  0.000000D+00  0.000000D+00
      4   0.461656D+00 -0.501322D-01  0.000000D+00  0.000000D+00  0.000000D+00
      5  -0.227025D+01  0.246531D+00  0.000000D+00  0.000000D+00  0.000000D+00
      6  -0.285246D+00 -0.262677D+01  0.000000D+00  0.000000D+00  0.000000D+00
      7   0.204984D+00  0.188765D+01  0.000000D+00  0.000000D+00  0.000000D+00
      8  -0.682071D-01 -0.628104D+00  0.000000D+00  0.000000D+00  0.000000D+00
                 6             7             8 
      1   0.285246D+00 -0.204984D+00  0.682071D-01
      2  -0.262677D+01  0.188765D+01 -0.628104D+00
      3   0.000000D+00  0.000000D+00  0.000000D+00
      4   0.000000D+00  0.000000D+00  0.000000D+00
      5   0.000000D+00  0.000000D+00  0.000000D+00
      6   0.000000D+00  0.000000D+00  0.000000D+00
      7   0.000000D+00  0.000000D+00  0.000000D+00
      8   0.000000D+00  0.000000D+00  0.000000D+00
 X(g) (    8, 1, 1) (imaginary):
                 1             2             3             4             5 
      1   0.000000D+00  0.000000D+00  0.000000D+00  0.000000D+00  0.000000D+00
      2   0.000000D+00  0.000000D+00  0.000000D+00  0.000000D+00  0.000000D+00
      3   0.000000D+00  0.000000D+00  0.000000D+00  0.000000D+00  0.000000D+00
      4   0.000000D+00  0.000000D+00  0.000000D+00  0.000000D+00  0.000000D+00
      5   0.000000D+00  0.000000D+00  0.000000D+00  0.000000D+00  0.000000D+00
      6   0.000000D+00  0.000000D+00  0.000000D+00  0.000000D+00  0.000000D+00
      7   0.000000D+00  0.000000D+00  0.000000D+00  0.000000D+00  0.000000D+00
      8   0.000000D+00  0.000000D+00  0.000000D+00  0.000000D+00  0.000000D+00
                 6             7             8 
      1   0.000000D+00  0.000000D+00  0.000000D+00
      2   0.000000D+00  0.000000D+00  0.000000D+00
      3   0.000000D+00  0.000000D+00  0.000000D+00
      4   0.000000D+00  0.000000D+00  0.000000D+00
      5   0.000000D+00  0.000000D+00  0.000000D+00
      6   0.000000D+00  0.000000D+00  0.000000D+00
      7   0.000000D+00  0.000000D+00  0.000000D+00
      8   0.000000D+00  0.000000D+00  0.000000D+00
  
 Effective Fock (alpha, real):
                1             2             3             4 
      1  0.000000D+00
      2  0.000000D+00  0.000000D+00
      3  0.000000D+00  0.000000D+00  0.000000D+00
      4  0.000000D+00  0.000000D+00  0.000000D+00  0.000000D+00
 Effective Fock (alpha, imaginary):
                1             2             3             4 
      1  0.000000D+00
      2 -0.000000D+00  0.000000D+00
      3 -0.000000D+00 -0.000000D+00  0.000000D+00
      4 -0.000000D+00 -0.000000D+00 -0.000000D+00  0.000000D+00
 Effective Fock (beta, real):
                1             2             3             4 
      1  0.000000D+00
      2  0.000000D+00  0.000000D+00
      3  0.000000D+00  0.000000D+00  0.000000D+00
      4  0.000000D+00  0.000000D+00  0.000000D+00  0.000000D+00
 Effective Fock (beta, imaginary):
                1             2             3             4 
      1  0.000000D+00
      2 -0.000000D+00  0.000000D+00
      3 -0.000000D+00 -0.000000D+00  0.000000D+00
      4 -0.000000D+00 -0.000000D+00 -0.000000D+00  0.000000D+00
  
 Effective Fock (alpha, real):
                1             2             3             4 
      1 -0.230817D+00
      2  0.223661D+00  0.112119D+01
      3 -0.331871D+00 -0.736696D-01  0.305689D-02
      4  0.397983D-01  0.508694D-01 -0.330663D+00  0.111666D+01
 Effective Fock (alpha, imaginary):
                1             2             3             4 
      1  0.000000D+00
      2 -0.000000D+00  0.000000D+00
      3 -0.000000D+00 -0.000000D+00  0.000000D+00
      4 -0.000000D+00 -0.000000D+00 -0.000000D+00  0.000000D+00
 Effective Fock (beta, real):
                1             2             3             4 
      1 -0.230817D+00
      2  0.223661D+00  0.112119D+01
      3  0.331871D+00  0.736696D-01  0.305689D-02
      4 -0.397983D-01 -0.508694D-01 -0.330663D+00  0.111666D+01
 Effective Fock (beta, imaginary):
                1             2             3             4 
      1  0.000000D+00
      2 -0.000000D+00  0.000000D+00
      3 -0.000000D+00 -0.000000D+00  0.000000D+00
      4 -0.000000D+00 -0.000000D+00 -0.000000D+00  0.000000D+00
 Alpha error matrix at iteration for IMat=    7 (real):
                1             2             3             4 
      1  0.000000D+00
      2  0.000000D+00  0.000000D+00
      3  0.000000D+00  0.000000D+00  0.000000D+00
      4  0.000000D+00  0.000000D+00  0.000000D+00  0.000000D+00
 Alpha error matrix at iteration for IMat=    7 (imaginary):
                1             2             3             4 
      1  0.000000D+00
      2 -0.000000D+00  0.000000D+00
      3 -0.000000D+00 -0.000000D+00  0.000000D+00
      4 -0.000000D+00 -0.000000D+00 -0.000000D+00  0.000000D+00
 Beta error matrix at iteration for IMat=    7 (real):
                1             2             3             4 
      1  0.000000D+00
      2  0.000000D+00  0.000000D+00
      3  0.000000D+00  0.000000D+00  0.000000D+00
      4  0.000000D+00  0.000000D+00  0.000000D+00  0.000000D+00
 Beta error matrix at iteration for IMat=    7 (imaginary):
                1             2             3             4 
      1  0.000000D+00
      2 -0.000000D+00  0.000000D+00
      3 -0.000000D+00 -0.000000D+00  0.000000D+00
      4 -0.000000D+00 -0.000000D+00 -0.000000D+00  0.000000D+00
 DIIS: error= 1.84D-10 at cycle   7 NSaved=   7.
 B matrix at iteration          7
                 1             2             3             4             5 
      1   0.000000D+00 -0.100000D+01 -0.100000D+01 -0.100000D+01 -0.100000D+01
      2  -0.100000D+01 -0.131987D-02 -0.439399D-04 -0.920106D-04  0.626202D-05
      3  -0.100000D+01 -0.439399D-04 -0.680443D-04 -0.258464D-04 -0.934447D-06
      4  -0.100000D+01 -0.920106D-04 -0.258464D-04 -0.146092D-04  0.363451D-07
      5  -0.100000D+01  0.626202D-05 -0.934447D-06  0.363451D-07 -0.495373D-07
      6  -0.100000D+01 -0.166368D-06 -0.256140D-07 -0.205621D-07  0.396894D-09
      7  -0.100000D+01  0.741781D-09  0.652139D-09  0.215022D-09  0.607765D-11
      8  -0.100000D+01 -0.736682D-11  0.339643D-11  0.335222D-12  0.883909D-13
                 6             7             8 
      1  -0.100000D+01 -0.100000D+01 -0.100000D+01
      2  -0.166368D-06  0.741781D-09 -0.736682D-11
      3  -0.256140D-07  0.652139D-09  0.339643D-11
      4  -0.205621D-07  0.215022D-09  0.335222D-12
      5   0.396894D-09  0.607765D-11  0.883909D-13
      6  -0.380239D-10  0.127960D-13 -0.191729D-14
      7   0.127960D-13 -0.129516D-13 -0.813763D-16
      8  -0.191729D-14 -0.813763D-16 -0.636154D-18
 NSaved= 7 IEnMin= 7 EnMin= -1.00994495464586     IErMin= 7 ErrMin= 1.84D-10
 ErrMax= 1.84D-10 EMaxC= 1.00D+00 BMatC= 6.36D-19 BMatP= 1.30D-14
 IDIUse=1 WtCom= 1.00D+00 WtEn= 0.00D+00
 Inv2:  IOpt= 1 Iter= 1 AM= 1.36D+11 Conv= 1.00D-12.
 Inv2:  IOpt= 1 Iter= 2 AM= 7.30D+02 Conv= 1.00D-12.
 Inv2:  IOpt= 1 Iter= 3 AM= 1.15D-06 Conv= 1.00D-12.
 Inv2:  IOpt= 1 Iter= 4 AM= 5.13D-15 Conv= 1.00D-12.
 Coeff-Com: -0.286D-10-0.555D-09 0.393D-08 0.690D-06-0.472D-04-0.601D-02
 Coeff-Com:  0.101D+01
 Coeff-En:   0.000D+00 0.000D+00 0.000D+00 0.000D+00 0.000D+00 0.000D+00
 Coeff-En:   0.000D+00
 Coeff:     -0.286D-10-0.555D-09 0.393D-08 0.690D-06-0.472D-04-0.601D-02
 Coeff:      0.101D+01
 NewF-IndFok=    0        1        2        3        4        5        6
 NewF-Coef=  -2.86D-11-5.55D-10 3.93D-09 6.90D-07-4.72D-05-6.01D-03 1.01D+00
 Extrapolated FA at iteration for IMat=    7 (real):
                1             2             3             4 
      1 -0.230817D+00
      2  0.223661D+00  0.112119D+01
      3 -0.331871D+00 -0.736696D-01  0.305689D-02
      4  0.397983D-01  0.508694D-01 -0.330663D+00  0.111666D+01
 Extrapolated FA at iteration for IMat=    7 (imaginary):
                1             2             3             4 
      1  0.000000D+00
      2 -0.000000D+00  0.000000D+00
      3 -0.000000D+00 -0.000000D+00  0.000000D+00
      4 -0.000000D+00 -0.000000D+00 -0.000000D+00  0.000000D+00
 NewF-IndFok=    0        1        2        3        4        5        6
 NewF-Coef=  -2.86D-11-5.55D-10 3.93D-09 6.90D-07-4.72D-05-6.01D-03 1.01D+00
 Extrapolated FB at iteration for IMat=    7 (real):
                1             2             3             4 
      1 -0.230817D+00
      2  0.223661D+00  0.112119D+01
      3  0.331871D+00  0.736696D-01  0.305689D-02
      4 -0.397983D-01 -0.508694D-01 -0.330663D+00  0.111666D+01
 Extrapolated FB at iteration for IMat=    7 (imaginary):
                1             2             3             4 
      1  0.000000D+00
      2 -0.000000D+00  0.000000D+00
      3 -0.000000D+00 -0.000000D+00  0.000000D+00
      4 -0.000000D+00 -0.000000D+00 -0.000000D+00  0.000000D+00

 Fock eigenvalues (alpha):
      orbital --                 1                2                3                4
       energy --    -4.9462081D-01    1.2192775D-01    1.0988238D+00    1.2839587D+00

 Fock eigenvalues (beta):
      orbital --                 1                2                3                4
       energy --    -4.9462081D-01    1.2192775D-01    1.0988238D+00    1.2839587D+00

 *** cycle =    7 ***

        E =      -1.009944954646      DE =      -0.000000000000
      Hsp =      -1.560113928985     Hph =       0.285580370044
   <S**2> =       0.000000000000
    RMSDP =       2.2778D-10        MaxP =       5.6753D-10

   E (HF) =      -0.996562750265

 ********************


 *** SCF Done after    7 cycles ***

        E =      -1.009944954646    conv =           2.2778E-10
      Hsp =      -1.560113928985     Hph =       0.285580370044
   <S**2> =       0.000000000000

 **********************************


 PHF SCF - quitting the program

 Leave Link  530 at Sat Oct  3 20:01:36 2020, MaxMem=  536870912 cpu:       0.1
 (Enter /share/home/srwang/g09/l9999.exe)

 Test job not archived.
 1\1\GINC-XHPC\SP\CUHF\3-21G\H2\SRWANG\03-Oct-2020\0\\#p uhf/3-21g gues
 s=mix scf=conver=4 extralink=l530 iop(5/206=9, 5/207=4, 5/216=1) pop=n
 one\\title\\0,1\H,0,0.,0.,0.\H,0,0.,0.,2.\\Version=EM64L-G09RevC.01\HF
 =-1.009945\S2=0.\S2-1=0.\S2A=0.\RMSD=2.278e-10\PG=D*H [C*(H1.H1)]\\@


 THOSE WHO TRY TO PASS CHEMISTRY OFF AS A NEW SCIENCE
 SHOW HOW LITTLE KNOWLEDGE THEY HAVE OF THE CHARACTER
 AND LITERATURE OF THE ANCIENTS.
   -- NICOLAS LEFEVRE
 "COURS DE CHYMIE" J.-N.LELOUP, PARIS, 1751
 Job cpu time:  0 days  0 hours  0 minutes  0.5 seconds.
 File lengths (MBytes):  RWF=     87 Int=      0 D2E=      0 Chk=      2 Scr=      2
 Normal termination of Gaussian 09 at Sat Oct  3 20:01:36 2020.
