 Entering Gaussian System, Link 0=g09
 Input=test_n2_mix.gjf
 Output=test_n2_mix.log
 Initial command:
 /share/apps/gaussian/G09C01Z/srwang-mod-2020/g09/l1.exe /scratch/scr/srwang/gau/Gau-31850.inp -scrdir=/scratch/scr/srwang/gau/
 Entering Link 1 = /share/apps/gaussian/G09C01Z/srwang-mod-2020/g09/l1.exe PID=     31851.
  
 Copyright (c) 1988,1990,1992,1993,1995,1998,2003,2009,2011,
            Gaussian, Inc.  All Rights Reserved.
  
 This is part of the Gaussian(R) 09 program.  It is based on
 the Gaussian(R) 03 system (copyright 2003, Gaussian, Inc.),
 the Gaussian(R) 98 system (copyright 1998, Gaussian, Inc.),
 the Gaussian(R) 94 system (copyright 1995, Gaussian, Inc.),
 the Gaussian 92(TM) system (copyright 1992, Gaussian, Inc.),
 the Gaussian 90(TM) system (copyright 1990, Gaussian, Inc.),
 the Gaussian 88(TM) system (copyright 1988, Gaussian, Inc.),
 the Gaussian 86(TM) system (copyright 1986, Carnegie Mellon
 University), and the Gaussian 82(TM) system (copyright 1983,
 Carnegie Mellon University). Gaussian is a federally registered
 trademark of Gaussian, Inc.
  
 This software contains proprietary and confidential information,
 including trade secrets, belonging to Gaussian, Inc.
  
 This software is provided under written license and may be
 used, copied, transmitted, or stored only in accord with that
 written license.
  
 The following legend is applicable only to US Government
 contracts under FAR:
  
                    RESTRICTED RIGHTS LEGEND
  
 Use, reproduction and disclosure by the US Government is
 subject to restrictions as set forth in subparagraphs (a)
 and (c) of the Commercial Computer Software - Restricted
 Rights clause in FAR 52.227-19.
  
 Gaussian, Inc.
 340 Quinnipiac St., Bldg. 40, Wallingford CT 06492
  
  
 ---------------------------------------------------------------
 Warning -- This program may not be used in any manner that
 competes with the business of Gaussian, Inc. or will provide
 assistance to any competitor of Gaussian, Inc.  The licensee
 of this program is prohibited from giving any competitor of
 Gaussian, Inc. access to this program.  By using this program,
 the user acknowledges that Gaussian, Inc. is engaged in the
 business of creating and licensing software in the field of
 computational chemistry and represents and warrants to the
 licensee that it is not a competitor of Gaussian, Inc. and that
 it will not use this program in any manner prohibited above.
 ---------------------------------------------------------------
  

 Cite this work as:
 Gaussian 09, Revision C.01,
 M. J. Frisch, G. W. Trucks, H. B. Schlegel, G. E. Scuseria, 
 M. A. Robb, J. R. Cheeseman, G. Scalmani, V. Barone, B. Mennucci, 
 G. A. Petersson, H. Nakatsuji, M. Caricato, X. Li, H. P. Hratchian, 
 A. F. Izmaylov, J. Bloino, G. Zheng, J. L. Sonnenberg, M. Hada, 
 M. Ehara, K. Toyota, R. Fukuda, J. Hasegawa, M. Ishida, T. Nakajima, 
 Y. Honda, O. Kitao, H. Nakai, T. Vreven, J. A. Montgomery, Jr., 
 J. E. Peralta, F. Ogliaro, M. Bearpark, J. J. Heyd, E. Brothers, 
 K. N. Kudin, V. N. Staroverov, T. Keith, R. Kobayashi, J. Normand, 
 K. Raghavachari, A. Rendell, J. C. Burant, S. S. Iyengar, J. Tomasi, 
 M. Cossi, N. Rega, J. M. Millam, M. Klene, J. E. Knox, J. B. Cross, 
 V. Bakken, C. Adamo, J. Jaramillo, R. Gomperts, R. E. Stratmann, 
 O. Yazyev, A. J. Austin, R. Cammi, C. Pomelli, J. W. Ochterski, 
 R. L. Martin, K. Morokuma, V. G. Zakrzewski, G. A. Voth, 
 P. Salvador, J. J. Dannenberg, S. Dapprich, A. D. Daniels, 
 O. Farkas, J. B. Foresman, J. V. Ortiz, J. Cioslowski, 
 and D. J. Fox, Gaussian, Inc., Wallingford CT, 2010.
 
 ******************************************
 Gaussian 09:  EM64L-G09RevC.01 23-Sep-2011
                25-Jan-2021 
 ******************************************
 %subst l530 ../../phf
 %nproc=1
 Will use up to    1 processors via shared memory.
 %mem=4GB
 %chk=test_n2_mix.chk
 ----------------------------------------------------------------------
 #p uhf/cc-pvdz nosymm guess=mix scf=conver=2 # extralink=l530 iop(5/20
 6=6, 5/207=4, 5/216=1, 5/218=40) pop=none
 ----------------------------------------------------------------------
 1/38=1/1;
 2/12=2,15=1,17=6,18=5,40=1/2;
 3/5=16,11=2,16=1,25=1,30=1,116=2/1,2,3;
 4/13=-1/1;
 5/5=2,6=2,38=5,206=6,207=4,216=1,218=40/2,30;
 99/5=1,9=1/99;
 Leave Link    1 at Mon Jan 25 21:13:37 2021, MaxMem=  536870912 cpu:       0.0
 (Enter /share/apps/gaussian/G09C01Z/srwang-mod-2020/g09/l101.exe)
 -----
 title
 -----
 Charge =  0 Multiplicity = 1
 Symbolic Z-Matrix:
 N                     0.        0.        0. 
 N                     0.        0.        0.9 
 
 NAtoms=      2 NQM=        0 NQMF=       0 NMMI=      2 NMMIF=      0
                NMic=       0 NMicF=      0.
                    Isotopes and Nuclear Properties:
 (Nuclear quadrupole moments (NQMom) in fm**2, nuclear magnetic moments (NMagM)
  in nuclear magnetons)

  Atom         1           2
 IAtWgt=          14          14
 AtmWgt=  14.0030740  14.0030740
 NucSpn=           2           2
 AtZEff=   0.0000000   0.0000000
 NQMom=    2.0440000   2.0440000
 NMagM=    0.4037610   0.4037610
 Leave Link  101 at Mon Jan 25 21:13:38 2021, MaxMem=  536870912 cpu:       0.1
 (Enter /share/apps/gaussian/G09C01Z/srwang-mod-2020/g09/l202.exe)
                          Input orientation:                          
 ---------------------------------------------------------------------
 Center     Atomic      Atomic             Coordinates (Angstroms)
 Number     Number       Type             X           Y           Z
 ---------------------------------------------------------------------
      1          7           0        0.000000    0.000000    0.000000
      2          7           0        0.000000    0.000000    0.900000
 ---------------------------------------------------------------------
 Symmetry turned off by external request.
 Stoichiometry    N2
 Framework group  D*H[C*(N.N)]
 Deg. of freedom     1
 Full point group                 D*H     NOp   8
 Rotational constants (GHZ):      0.0000000     89.1125330     89.1125330
 Leave Link  202 at Mon Jan 25 21:13:38 2021, MaxMem=  536870912 cpu:       0.0
 (Enter /share/apps/gaussian/G09C01Z/srwang-mod-2020/g09/l301.exe)
 Standard basis: CC-pVDZ (5D, 7F)
 Ernie: Thresh=  0.10000D-02 Tol=  0.10000D-05 Strict=F.
 Ernie:  4 primitive shells out of 44 were deleted.
 Integral buffers will be    131072 words long.
 Raffenetti 2 integral format.
 Two-electron integral symmetry is turned off.
    28 basis functions,    66 primitive gaussians,    30 cartesian basis functions
     7 alpha electrons        7 beta electrons
       nuclear repulsion energy        28.8107591343 Hartrees.
 IExCor=    0 DFT=F Ex=HF Corr=None ExCW=0 ScaHFX=  1.000000
 ScaDFX=  1.000000  1.000000  1.000000  1.000000 ScalE2=  1.000000  1.000000
 IRadAn=      0 IRanWt=     -1 IRanGd=            0 ICorTp=0
 NAtoms=    2 NActive=    2 NUniq=    2 SFac= 1.00D+00 NAtFMM=   60 NAOKFM=F Big=F
 Leave Link  301 at Mon Jan 25 21:13:38 2021, MaxMem=  536870912 cpu:       0.1
 (Enter /share/apps/gaussian/G09C01Z/srwang-mod-2020/g09/l302.exe)
 NPDir=0 NMtPBC=     1 NCelOv=     1 NCel=       1 NClECP=     1 NCelD=      1
         NCelK=      1 NCelE2=     1 NClLst=     1 CellRange=     0.0.
 One-electron integrals computed using PRISM.
 Bad symmetry data in SVDSVc:  NBasis=   28 NT=   28 NBlks=1 MaxCmp=1 NBF=   28
 NBasis=    28 RedAO= T  NBF=    28
 NBsUse=    28 1.00D-06 NBFU=    28
 Leave Link  302 at Mon Jan 25 21:13:38 2021, MaxMem=  536870912 cpu:       0.1
 (Enter /share/apps/gaussian/G09C01Z/srwang-mod-2020/g09/l303.exe)
 DipDrv:  MaxL=1.
 Leave Link  303 at Mon Jan 25 21:13:38 2021, MaxMem=  536870912 cpu:       0.0
 (Enter /share/apps/gaussian/G09C01Z/srwang-mod-2020/g09/l401.exe)
 Harris functional with IExCor=  205 diagonalized for initial guess.
 ExpMin= 2.19D-01 ExpMax= 9.05D+03 ExpMxC= 3.09D+02 IAcc=1 IRadAn=         1 AccDes= 0.00D+00
 HarFok:  IExCor=  205 AccDes= 0.00D+00 IRadAn=         1 IDoV= 1
 ScaDFX=  1.000000  1.000000  1.000000  1.000000
 FoFCou: FMM=F IPFlag=           0 FMFlag=      100000 FMFlg1=           0
         NFxFlg=           0 DoJE=T BraDBF=F KetDBF=T FulRan=T
         Omega=  0.000000  0.000000  1.000000  0.000000  0.000000 ICntrl=     500 IOpCl=  0
         NMat0=    1 NMatS0=    1 NMatT0=    0 NMatD0=    1 NMtDS0=    0 NMtDT0=    0
         I1Cent=           4 NGrid=           0.
 Symmetry not used in FoFCou.
 Harris En= -108.752174402440    
 Mixing orbitals, IMix= 1 IMixAn=  0 NRI=1 NE=    7 Coef=  7.07106781D-01  7.07106781D-01
 Mixing orbitals, IMix= 1 IMixAn=  0 NRI=1 NE=    7 Coef= -7.07106781D-01  7.07106781D-01
 Initial guess <Sx>= 0.0000 <Sy>= 0.0000 <Sz>= 0.0000 <S**2>= 1.0000 S= 0.6180
 Leave Link  401 at Mon Jan 25 21:13:38 2021, MaxMem=  536870912 cpu:       0.1
 (Enter /share/apps/gaussian/G09C01Z/srwang-mod-2020/g09/l502.exe)
 UHF open shell SCF:
 Requested convergence on RMS density matrix=1.00D-02 within 128 cycles.
 Requested convergence on MAX density matrix=1.00D+00.
 Requested convergence on             energy=1.00D+00.
 No special actions if energy rises.
 Using DIIS extrapolation, IDIIS=  1040.
 Two-electron integral symmetry not used.
 Keep R1 and R2 ints in memory in canonical form, NReq=1057921.
 IEnd=       21210 IEndB=       21210 NGot=   536870912 MDV=   536650555
 LenX=   536650555 LenY=   536649214
 Symmetry not used in FoFDir.
 MinBra= 0 MaxBra= 2 Meth= 1.
 IRaf=       0 NMat=   1 IRICut=       1 DoRegI=T DoRafI=F ISym2E= 0 JSym2E=0.

 Cycle   1  Pass 1  IDiag  1:
 E= -108.273688959624    
 DIIS: error= 1.02D-01 at cycle   1 NSaved=   1.
 NSaved= 1 IEnMin= 1 EnMin= -108.273688959624     IErMin= 1 ErrMin= 1.02D-01
 ErrMax= 1.02D-01 EMaxC= 1.00D-01 BMatC= 6.48D-01 BMatP= 6.48D-01
 IDIUse=3 WtCom= 0.00D+00 WtEn= 1.00D+00
 Coeff-Com:  0.100D+01
 Coeff-En:   0.100D+01
 Coeff:      0.100D+01
 Gap=     0.570 Goal=   None    Shift=    0.000
 Gap=     0.570 Goal=   None    Shift=    0.000
 GapD=    0.570 DampG=2.000 DampE=0.250 DampFc=0.5000 IDamp=-1.
 Damping current iteration by 5.00D-01
 RMSDP=2.39D-02 MaxDP=1.40D-01              OVMax= 3.65D-01

 Cycle   2  Pass 1  IDiag  1:
 E= -108.435372335363     Delta-E=       -0.161683375739 Rises=F Damp=T
 DIIS: error= 8.43D-02 at cycle   2 NSaved=   2.
 NSaved= 2 IEnMin= 2 EnMin= -108.435372335363     IErMin= 2 ErrMin= 8.43D-02
 ErrMax= 8.43D-02 EMaxC= 1.00D-01 BMatC= 2.52D-01 BMatP= 6.48D-01
 IDIUse=3 WtCom= 1.57D-01 WtEn= 8.43D-01
 Coeff-Com: -0.106D+01 0.206D+01
 Coeff-En:   0.000D+00 0.100D+01
 Coeff:     -0.166D+00 0.117D+01
 Gap=     0.796 Goal=   None    Shift=    0.000
 Gap=     0.796 Goal=   None    Shift=    0.000
 RMSDP=1.69D-02 MaxDP=9.61D-02 DE=-1.62D-01 OVMax= 1.07D-01

 Cycle   3  Pass 1  IDiag  1:
 E= -108.710554456005     Delta-E=       -0.275182120642 Rises=F Damp=F
 DIIS: error= 5.08D-02 at cycle   3 NSaved=   3.
 NSaved= 3 IEnMin= 3 EnMin= -108.710554456005     IErMin= 3 ErrMin= 5.08D-02
 ErrMax= 5.08D-02 EMaxC= 1.00D-01 BMatC= 5.93D-02 BMatP= 2.52D-01
 IDIUse=3 WtCom= 4.92D-01 WtEn= 5.08D-01
 Coeff-Com:  0.127D+01-0.269D+01 0.243D+01
 Coeff-En:   0.000D+00 0.000D+00 0.100D+01
 Coeff:      0.622D+00-0.132D+01 0.170D+01
 Gap=     0.892 Goal=   None    Shift=    0.000
 Gap=     0.892 Goal=   None    Shift=    0.000
 RMSDP=8.80D-03 MaxDP=3.91D-02 DE=-2.75D-01 OVMax= 1.63D-01

 SCF Done:  E(UHF) =  -108.710554456     A.U. after    3 cycles
             Convg  =    0.8803D-02             -V/T =  1.9818
 <Sx>= 0.0000 <Sy>= 0.0000 <Sz>= 0.0000 <S**2>= 0.0820 S= 0.0762
 <L.S>= 0.000000000000E+00
 KE= 1.107263235269D+02 PE=-3.144575169443D+02 EE= 6.620987982709D+01
 Annihilation of the first spin contaminant:
 S**2 before annihilation     0.0820,   after     0.0010
 Leave Link  502 at Mon Jan 25 21:13:38 2021, MaxMem=  536870912 cpu:       0.1
  
  +-------------------------------------------+
  |                                           |
  |  LINK 530 - Projected Hartree-Fock (PHF)  |
  |     Self-Consistent Field (SCF) Code      |
  |                                           |
  |                                           |
  |         the Scuseria group, v0.2, 07.2011 |
  +-------------------------------------------+
  
 (Enter ../../phf/l530.exe)

 PHF SCF was invoked with the following options:

   method selection:
 iprint =  6
 iphf   =  4, [ UHF + spin projection ]

   general options:
 maxcyc =    512, S      =      0
 ngrda  =      1, ngrdb  =      8, ngrdg  =      1

   accuracy requested:
 conv criterion (RMSDP, RMSDK) =     1.0000E-08
 requested integral accuracy   =     1.0000E-10

   use of symmetry:
 two-electron integral symmetry not used

   strategy options:
 level shifting is turned off
 use of DIIS extrapolation is turned on
 mxscfc =     20, idisgo =     40
 istrat =      1, continue as usual if energy rises
 modified PHF effective Fock matrix used

   initial guess options:
 igues1 =  1, read GDV guess


 PHF SCF - preparing initial guess


 PHF SCF - starting SCF procedure

beta in GauLeg
grd=    0.0624    0.3194    0.7453    1.2827    1.8589    2.3963    2.8222    3.0792
wgt=    0.0099    0.1097    0.3342    0.5462    0.5462    0.3342    0.1097    0.0099
WigArr: s=    0, sz=    0, isint=    T, ncis=                       1, dind=    0.0000
dmt=    1.0000    1.0000    1.0000    1.0000    1.0000    1.0000    1.0000    1.0000
*********  Start Cycle  1  *************
 
Start hffock

 Symmetry not used in FoFDir.
 MinBra= 0 MaxBra= 2 Meth= 1.
 IRaf=       1 NMat=   2 IRICut=       1 DoRegI=T DoRafI=F ISym2E= 0 JSym2E=0.
 PrsmSu:  NPrtUS=   1 ThrOK=F IAlg=1 NPAlg=1 LenDen=           0.
 Prism:   IPart=     0 DynPar=F LinDyn=F Incr=          30.
 PRISM was handed   536809828 working-precision words and    78 shell-pairs
 IPart=  0 NShTot=        3081 NBatch=         210 AvBLen=        14.7
 PrSmSu:  NxtVal=             31.
 
Start hfdmdg: find NO basis
 
Start formng/pg
 
Start formgg

 Symmetry not used in FoFDir.
 MinBra= 0 MaxBra= 2 Meth= 1.
 IRaf=       1 NMat=  64 IRICut=       1 DoRegI=T DoRafI=F ISym2E= 0 JSym2E=0.
 PrsmSu:  NPrtUS=   1 ThrOK=F IAlg=1 NPAlg=1 LenDen=           0.
 Prism:   IPart=     0 DynPar=F LinDyn=F Incr=          30.
 PRISM was handed   536674208 working-precision words and    78 shell-pairs
 IPart=  0 NShTot=        3081 NBatch=         210 AvBLen=        14.7
 PrSmSu:  NxtVal=             31.
 
Start evalsmt/hmt
 Smt (real):
                 1 
      1   0.191815D+01
 Smt (imaginary):
                 1 
      1   0.000000D+00
 Hmt (real):
                 1 
      1  -0.263930D+03
 Hmt (imaginary):
                 1 
      1   0.000000D+00
 
Form Fock eff
ifsel =     2, useproj    T
 DIIS: error= 3.77D-03 at cycle   1 NSaved=   1.
 NSaved= 1 IEnMin= 1 EnMin= -108.785675919334     IErMin= 1 ErrMin= 3.77D-03
 ErrMax= 3.77D-03 EMaxC= 1.00D+00 BMatC= 1.71D-03 BMatP= 1.71D-03
 IDIUse=1 WtCom= 1.00D+00 WtEn= 0.00D+00
 Coeff-Com:  0.100D+01
 Coeff:      0.100D+01
 
Diag Fock

 Fock eigenvalues (alpha):
      orbital --                 1                2                3                4
       energy --    -1.5630568D+01   -1.5616208D+01   -1.6134981D+00   -7.3566003D-01
      orbital --                 5                6                7                8
       energy --    -7.1053018D-01   -6.7887372D-01   -6.3437276D-01    2.8878577D-01
      orbital --                 9               10               11               12
       energy --     2.9261747D-01    6.2642046D-01    7.5624586D-01    8.0162394D-01
      orbital --                13               14               15               16
       energy --     8.0172371D-01    1.0233875D+00    1.1138447D+00    1.1146825D+00
      orbital --                17               18               19               20
       energy --     1.4388885D+00    1.7051241D+00    1.7051254D+00    1.9478381D+00
      orbital --                21               22               23               24
       energy --     2.1307597D+00    2.1308788D+00    2.4537299D+00    2.4537313D+00
      orbital --                25               26               27               28
       energy --     2.9741391D+00    3.2396500D+00    3.2402457D+00    4.2031084D+00

 Fock eigenvalues (beta):
      orbital --                 1                2                3                4
       energy --    -1.5630568D+01   -1.5616208D+01   -1.6134981D+00   -7.3566003D-01
      orbital --                 5                6                7                8
       energy --    -7.1053018D-01   -6.7887372D-01   -6.3437276D-01    2.8878577D-01
      orbital --                 9               10               11               12
       energy --     2.9261747D-01    6.2642046D-01    7.5624586D-01    8.0162394D-01
      orbital --                13               14               15               16
       energy --     8.0172371D-01    1.0233875D+00    1.1138447D+00    1.1146825D+00
      orbital --                17               18               19               20
       energy --     1.4388885D+00    1.7051241D+00    1.7051254D+00    1.9478381D+00
      orbital --                21               22               23               24
       energy --     2.1307597D+00    2.1308788D+00    2.4537299D+00    2.4537313D+00
      orbital --                25               26               27               28
       energy --     2.9741391D+00    3.2396500D+00    3.2402457D+00    4.2031084D+00

 *** cycle =    1 ***

        E =    -108.785675919334
      Hsp =    -203.935442673911     Hph =      66.339007620233
   <S**2> =       0.000000000007
    RMSDP =       4.9916D-04        MaxP =       5.1999D-03

   E (HF) =    -108.766613568462

 ********************

*********  Start Cycle  2  *************
 
Start hffock

 Symmetry not used in FoFDir.
 MinBra= 0 MaxBra= 2 Meth= 1.
 IRaf=       1 NMat=   2 IRICut=       1 DoRegI=T DoRafI=F ISym2E= 0 JSym2E=0.
 PrsmSu:  NPrtUS=   1 ThrOK=F IAlg=1 NPAlg=1 LenDen=           0.
 Prism:   IPart=     0 DynPar=F LinDyn=F Incr=          30.
 PRISM was handed   536809828 working-precision words and    78 shell-pairs
 IPart=  0 NShTot=        3081 NBatch=         210 AvBLen=        14.7
 PrSmSu:  NxtVal=             31.
 
Start hfdmdg: find NO basis
 
Start formng/pg
 
Start formgg

 Symmetry not used in FoFDir.
 MinBra= 0 MaxBra= 2 Meth= 1.
 IRaf=       1 NMat=  64 IRICut=       1 DoRegI=T DoRafI=F ISym2E= 0 JSym2E=0.
 PrsmSu:  NPrtUS=   1 ThrOK=F IAlg=1 NPAlg=1 LenDen=           0.
 Prism:   IPart=     0 DynPar=F LinDyn=F Incr=          30.
 PRISM was handed   536674208 working-precision words and    78 shell-pairs
 IPart=  0 NShTot=        3081 NBatch=         210 AvBLen=        14.7
 PrSmSu:  NxtVal=             31.
 
Start evalsmt/hmt
 Smt (real):
                 1 
      1   0.191018D+01
 Smt (imaginary):
                 1 
      1   0.000000D+00
 Hmt (real):
                 1 
      1  -0.262836D+03
 Hmt (imaginary):
                 1 
      1   0.000000D+00
 
Form Fock eff
ifsel =     2, useproj    T
 DIIS: error= 3.89D-03 at cycle   2 NSaved=   2.
 NSaved= 2 IEnMin= 2 EnMin= -108.786366520918     IErMin= 1 ErrMin= 3.77D-03
 ErrMax= 3.89D-03 EMaxC= 1.00D+00 BMatC= 1.54D-03 BMatP= 1.71D-03
 IDIUse=1 WtCom= 1.00D+00 WtEn= 0.00D+00
 Coeff-Com:  0.000D+00 0.100D+01
 Coeff:      0.000D+00 0.100D+01
 
Diag Fock

 Fock eigenvalues (alpha):
      orbital --                 1                2                3                4
       energy --    -1.5630433D+01   -1.5616083D+01   -1.6131924D+00   -7.3694713D-01
      orbital --                 5                6                7                8
       energy --    -7.1017489D-01   -6.7689955D-01   -6.3477911D-01    2.8905716D-01
      orbital --                 9               10               11               12
       energy --     2.9276767D-01    6.2627374D-01    7.5614409D-01    8.0186362D-01
      orbital --                13               14               15               16
       energy --     8.0213367D-01    1.0230773D+00    1.1139698D+00    1.1152415D+00
      orbital --                17               18               19               20
       energy --     1.4386991D+00    1.7053100D+00    1.7053105D+00    1.9480583D+00
      orbital --                21               22               23               24
       energy --     2.1308324D+00    2.1308381D+00    2.4539030D+00    2.4539036D+00
      orbital --                25               26               27               28
       energy --     2.9741945D+00    3.2396846D+00    3.2402954D+00    4.2030739D+00

 Fock eigenvalues (beta):
      orbital --                 1                2                3                4
       energy --    -1.5630433D+01   -1.5616083D+01   -1.6131924D+00   -7.3694713D-01
      orbital --                 5                6                7                8
       energy --    -7.1017489D-01   -6.7689955D-01   -6.3477911D-01    2.8905716D-01
      orbital --                 9               10               11               12
       energy --     2.9276767D-01    6.2627374D-01    7.5614409D-01    8.0186362D-01
      orbital --                13               14               15               16
       energy --     8.0213367D-01    1.0230773D+00    1.1139698D+00    1.1152415D+00
      orbital --                17               18               19               20
       energy --     1.4386991D+00    1.7053100D+00    1.7053105D+00    1.9480583D+00
      orbital --                21               22               23               24
       energy --     2.1308324D+00    2.1308381D+00    2.4539030D+00    2.4539036D+00
      orbital --                25               26               27               28
       energy --     2.9741945D+00    3.2396846D+00    3.2402954D+00    4.2030739D+00

 *** cycle =    2 ***

        E =    -108.786366520918      DE =      -0.000690601583
      Hsp =    -203.936531145369     Hph =      66.339405490107
   <S**2> =       0.000000000012
    RMSDP =       4.8294D-04        MaxP =       5.6656D-03

   E (HF) =    -108.764674347224

 ********************

*********  Start Cycle  3  *************
 
Start hffock

 Symmetry not used in FoFDir.
 MinBra= 0 MaxBra= 2 Meth= 1.
 IRaf=       1 NMat=   2 IRICut=       1 DoRegI=T DoRafI=F ISym2E= 0 JSym2E=0.
 PrsmSu:  NPrtUS=   1 ThrOK=F IAlg=1 NPAlg=1 LenDen=           0.
 Prism:   IPart=     0 DynPar=F LinDyn=F Incr=          30.
 PRISM was handed   536809828 working-precision words and    78 shell-pairs
 IPart=  0 NShTot=        3081 NBatch=         210 AvBLen=        14.7
 PrSmSu:  NxtVal=             31.
 
Start hfdmdg: find NO basis
 
Start formng/pg
 
Start formgg

 Symmetry not used in FoFDir.
 MinBra= 0 MaxBra= 2 Meth= 1.
 IRaf=       1 NMat=  64 IRICut=       1 DoRegI=T DoRafI=F ISym2E= 0 JSym2E=0.
 PrsmSu:  NPrtUS=   1 ThrOK=F IAlg=1 NPAlg=1 LenDen=           0.
 Prism:   IPart=     0 DynPar=F LinDyn=F Incr=          30.
 PRISM was handed   536674208 working-precision words and    78 shell-pairs
 IPart=  0 NShTot=        3081 NBatch=         210 AvBLen=        14.7
 PrSmSu:  NxtVal=             31.
 
Start evalsmt/hmt
 Smt (real):
                 1 
      1   0.190100D+01
 Smt (imaginary):
                 1 
      1   0.000000D+00
 Hmt (real):
                 1 
      1  -0.261574D+03
 Hmt (imaginary):
                 1 
      1   0.000000D+00
 
Form Fock eff
ifsel =     2, useproj    T
 DIIS: error= 4.05D-03 at cycle   3 NSaved=   3.
 NSaved= 3 IEnMin= 3 EnMin= -108.787035193366     IErMin= 1 ErrMin= 3.77D-03
 ErrMax= 4.05D-03 EMaxC= 1.00D+00 BMatC= 1.64D-03 BMatP= 1.54D-03
 IDIUse=1 WtCom= 1.00D+00 WtEn= 0.00D+00
 Coeff-Com:  0.000D+00 0.000D+00 0.100D+01
 Coeff:      0.000D+00 0.000D+00 0.100D+01
 
Diag Fock

 Fock eigenvalues (alpha):
      orbital --                 1                2                3                4
       energy --    -1.5630306D+01   -1.5615962D+01   -1.6130302D+00   -7.3837729D-01
      orbital --                 5                6                7                8
       energy --    -7.1000732D-01   -6.7483889D-01   -6.3476547D-01    2.8906234D-01
      orbital --                 9               10               11               12
       energy --     2.9284274D-01    6.2619840D-01    7.5614074D-01    8.0196851D-01
      orbital --                13               14               15               16
       energy --     8.0229523D-01    1.0228398D+00    1.1140279D+00    1.1156281D+00
      orbital --                17               18               19               20
       energy --     1.4386176D+00    1.7054288D+00    1.7054290D+00    1.9481228D+00
      orbital --                21               22               23               24
       energy --     2.1307028D+00    2.1308647D+00    2.4540106D+00    2.4540122D+00
      orbital --                25               26               27               28
       energy --     2.9742284D+00    3.2396992D+00    3.2403340D+00    4.2030608D+00

 Fock eigenvalues (beta):
      orbital --                 1                2                3                4
       energy --    -1.5630306D+01   -1.5615962D+01   -1.6130302D+00   -7.3837729D-01
      orbital --                 5                6                7                8
       energy --    -7.1000732D-01   -6.7483889D-01   -6.3476547D-01    2.8906234D-01
      orbital --                 9               10               11               12
       energy --     2.9284274D-01    6.2619840D-01    7.5614074D-01    8.0196851D-01
      orbital --                13               14               15               16
       energy --     8.0229523D-01    1.0228398D+00    1.1140279D+00    1.1156281D+00
      orbital --                17               18               19               20
       energy --     1.4386176D+00    1.7054288D+00    1.7054290D+00    1.9481228D+00
      orbital --                21               22               23               24
       energy --     2.1307028D+00    2.1308647D+00    2.4540106D+00    2.4540122D+00
      orbital --                25               26               27               28
       energy --     2.9742284D+00    3.2396992D+00    3.2403340D+00    4.2030608D+00

 *** cycle =    3 ***

        E =    -108.787035193366      DE =      -0.000668672448
      Hsp =    -203.936978323396     Hph =      66.339183995686
   <S**2> =       0.000000000018
    RMSDP =       5.0376D-04        MaxP =       6.0808D-03

   E (HF) =    -108.762179156171

 ********************

*********  Start Cycle  4  *************
 
Start hffock

 Symmetry not used in FoFDir.
 MinBra= 0 MaxBra= 2 Meth= 1.
 IRaf=       1 NMat=   2 IRICut=       1 DoRegI=T DoRafI=F ISym2E= 0 JSym2E=0.
 PrsmSu:  NPrtUS=   1 ThrOK=F IAlg=1 NPAlg=1 LenDen=           0.
 Prism:   IPart=     0 DynPar=F LinDyn=F Incr=          30.
 PRISM was handed   536809828 working-precision words and    78 shell-pairs
 IPart=  0 NShTot=        3081 NBatch=         210 AvBLen=        14.7
 PrSmSu:  NxtVal=             31.
 
Start hfdmdg: find NO basis
 
Start formng/pg
 
Start formgg

 Symmetry not used in FoFDir.
 MinBra= 0 MaxBra= 2 Meth= 1.
 IRaf=       1 NMat=  64 IRICut=       1 DoRegI=T DoRafI=F ISym2E= 0 JSym2E=0.
 PrsmSu:  NPrtUS=   1 ThrOK=F IAlg=1 NPAlg=1 LenDen=           0.
 Prism:   IPart=     0 DynPar=F LinDyn=F Incr=          30.
 PRISM was handed   536674208 working-precision words and    78 shell-pairs
 IPart=  0 NShTot=        3081 NBatch=         210 AvBLen=        14.7
 PrSmSu:  NxtVal=             31.
 
Start evalsmt/hmt
 Smt (real):
                 1 
      1   0.189058D+01
 Smt (imaginary):
                 1 
      1   0.000000D+00
 Hmt (real):
                 1 
      1  -0.260141D+03
 Hmt (imaginary):
                 1 
      1   0.000000D+00
 
Form Fock eff
ifsel =     2, useproj    T
 DIIS: error= 4.20D-03 at cycle   4 NSaved=   4.
 NSaved= 4 IEnMin= 4 EnMin= -108.787756039797     IErMin= 1 ErrMin= 3.77D-03
 ErrMax= 4.20D-03 EMaxC= 1.00D+00 BMatC= 1.76D-03 BMatP= 1.54D-03
 IDIUse=1 WtCom= 1.00D+00 WtEn= 0.00D+00
 Coeff-Com:  0.000D+00 0.000D+00 0.000D+00 0.100D+01
 Coeff:      0.000D+00 0.000D+00 0.000D+00 0.100D+01
 
Diag Fock

 Fock eigenvalues (alpha):
      orbital --                 1                2                3                4
       energy --    -1.5630134D+01   -1.5615796D+01   -1.6128176D+00   -7.3983834D-01
      orbital --                 5                6                7                8
       energy --    -7.0985684D-01   -6.7262572D-01   -6.3460285D-01    2.8900907D-01
      orbital --                 9               10               11               12
       energy --     2.9290993D-01    6.2613099D-01    7.5617524D-01    8.0204916D-01
      orbital --                13               14               15               16
       energy --     8.0240128D-01    1.0226145D+00    1.1140780D+00    1.1160027D+00
      orbital --                17               18               19               20
       energy --     1.4385327D+00    1.7055677D+00    1.7055678D+00    1.9481679D+00
      orbital --                21               22               23               24
       energy --     2.1305280D+00    2.1308896D+00    2.4541207D+00    2.4541230D+00
      orbital --                25               26               27               28
       energy --     2.9742631D+00    3.2397071D+00    3.2403629D+00    4.2030857D+00

 Fock eigenvalues (beta):
      orbital --                 1                2                3                4
       energy --    -1.5630134D+01   -1.5615796D+01   -1.6128176D+00   -7.3983834D-01
      orbital --                 5                6                7                8
       energy --    -7.0985684D-01   -6.7262572D-01   -6.3460285D-01    2.8900907D-01
      orbital --                 9               10               11               12
       energy --     2.9290993D-01    6.2613099D-01    7.5617524D-01    8.0204916D-01
      orbital --                13               14               15               16
       energy --     8.0240128D-01    1.0226145D+00    1.1140780D+00    1.1160027D+00
      orbital --                17               18               19               20
       energy --     1.4385327D+00    1.7055677D+00    1.7055678D+00    1.9481679D+00
      orbital --                21               22               23               24
       energy --     2.1305280D+00    2.1308896D+00    2.4541207D+00    2.4541230D+00
      orbital --                25               26               27               28
       energy --     2.9742631D+00    3.2397071D+00    3.2403629D+00    4.2030857D+00

 *** cycle =    4 ***

        E =    -108.787756039797      DE =      -0.000720846431
      Hsp =    -203.937628294035     Hph =      66.339113119894
   <S**2> =       0.000000000027
    RMSDP =       5.2453D-04        MaxP =       6.4272D-03

   E (HF) =    -108.759156601460

 ********************

*********  Start Cycle  5  *************
 
Start hffock

 Symmetry not used in FoFDir.
 MinBra= 0 MaxBra= 2 Meth= 1.
 IRaf=       1 NMat=   2 IRICut=       1 DoRegI=T DoRafI=F ISym2E= 0 JSym2E=0.
 PrsmSu:  NPrtUS=   1 ThrOK=F IAlg=1 NPAlg=1 LenDen=           0.
 Prism:   IPart=     0 DynPar=F LinDyn=F Incr=          30.
 PRISM was handed   536809828 working-precision words and    78 shell-pairs
 IPart=  0 NShTot=        3081 NBatch=         210 AvBLen=        14.7
 PrSmSu:  NxtVal=             31.
 
Start hfdmdg: find NO basis
 
Start formng/pg
 
Start formgg

 Symmetry not used in FoFDir.
 MinBra= 0 MaxBra= 2 Meth= 1.
 IRaf=       1 NMat=  64 IRICut=       1 DoRegI=T DoRafI=F ISym2E= 0 JSym2E=0.
 PrsmSu:  NPrtUS=   1 ThrOK=F IAlg=1 NPAlg=1 LenDen=           0.
 Prism:   IPart=     0 DynPar=F LinDyn=F Incr=          30.
 PRISM was handed   536674208 working-precision words and    78 shell-pairs
 IPart=  0 NShTot=        3081 NBatch=         210 AvBLen=        14.7
 PrSmSu:  NxtVal=             31.
 
Start evalsmt/hmt
 Smt (real):
                 1 
      1   0.187893D+01
 Smt (imaginary):
                 1 
      1   0.000000D+00
 Hmt (real):
                 1 
      1  -0.258540D+03
 Hmt (imaginary):
                 1 
      1   0.000000D+00
 
Form Fock eff
ifsel =     2, useproj    T
 DIIS: error= 4.34D-03 at cycle   5 NSaved=   5.
 NSaved= 5 IEnMin= 5 EnMin= -108.788530475819     IErMin= 1 ErrMin= 3.77D-03
 ErrMax= 4.34D-03 EMaxC= 1.00D+00 BMatC= 1.88D-03 BMatP= 1.54D-03
 IDIUse=1 WtCom= 1.00D+00 WtEn= 0.00D+00
 Coeff-Com:  0.000D+00 0.000D+00 0.000D+00 0.000D+00 0.100D+01
 Coeff:      0.000D+00 0.000D+00 0.000D+00 0.000D+00 0.100D+01
 
Diag Fock

 Fock eigenvalues (alpha):
      orbital --                 1                2                3                4
       energy --    -1.5629956D+01   -1.5615623D+01   -1.6125862D+00   -7.4129970D-01
      orbital --                 5                6                7                8
       energy --    -7.0971451D-01   -6.7027289D-01   -6.3438278D-01    2.8893358D-01
      orbital --                 9               10               11               12
       energy --     2.9297341D-01    6.2606150D-01    7.5622083D-01    8.0211897D-01
      orbital --                13               14               15               16
       energy --     8.0248662D-01    1.0223724D+00    1.1141213D+00    1.1163903D+00
      orbital --                17               18               19               20
       energy --     1.4384058D+00    1.7057103D+00    1.7057104D+00    1.9481955D+00
      orbital --                21               22               23               24
       energy --     2.1302941D+00    2.1309075D+00    2.4542299D+00    2.4542331D+00
      orbital --                25               26               27               28
       energy --     2.9742945D+00    3.2397074D+00    3.2403768D+00    4.2031045D+00

 Fock eigenvalues (beta):
      orbital --                 1                2                3                4
       energy --    -1.5629956D+01   -1.5615623D+01   -1.6125862D+00   -7.4129970D-01
      orbital --                 5                6                7                8
       energy --    -7.0971451D-01   -6.7027289D-01   -6.3438278D-01    2.8893358D-01
      orbital --                 9               10               11               12
       energy --     2.9297341D-01    6.2606150D-01    7.5622083D-01    8.0211897D-01
      orbital --                13               14               15               16
       energy --     8.0248662D-01    1.0223724D+00    1.1141213D+00    1.1163903D+00
      orbital --                17               18               19               20
       energy --     1.4384058D+00    1.7057103D+00    1.7057104D+00    1.9481955D+00
      orbital --                21               22               23               24
       energy --     2.1302941D+00    2.1309075D+00    2.4542299D+00    2.4542331D+00
      orbital --                25               26               27               28
       energy --     2.9742945D+00    3.2397074D+00    3.2403768D+00    4.2031045D+00

 *** cycle =    5 ***

        E =    -108.788530475819      DE =      -0.000774436022
      Hsp =    -203.938125097766     Hph =      66.338835487603
   <S**2> =       0.000000000038
    RMSDP =       5.4141D-04        MaxP =       6.6851D-03

   E (HF) =    -108.755587641348

 ********************

*********  Start Cycle  6  *************
 
Start hffock

 Symmetry not used in FoFDir.
 MinBra= 0 MaxBra= 2 Meth= 1.
 IRaf=       1 NMat=   2 IRICut=       1 DoRegI=T DoRafI=F ISym2E= 0 JSym2E=0.
 PrsmSu:  NPrtUS=   1 ThrOK=F IAlg=1 NPAlg=1 LenDen=           0.
 Prism:   IPart=     0 DynPar=F LinDyn=F Incr=          30.
 PRISM was handed   536809828 working-precision words and    78 shell-pairs
 IPart=  0 NShTot=        3081 NBatch=         210 AvBLen=        14.7
 PrSmSu:  NxtVal=             31.
 
Start hfdmdg: find NO basis
 
Start formng/pg
 
Start formgg

 Symmetry not used in FoFDir.
 MinBra= 0 MaxBra= 2 Meth= 1.
 IRaf=       1 NMat=  64 IRICut=       1 DoRegI=T DoRafI=F ISym2E= 0 JSym2E=0.
 PrsmSu:  NPrtUS=   1 ThrOK=F IAlg=1 NPAlg=1 LenDen=           0.
 Prism:   IPart=     0 DynPar=F LinDyn=F Incr=          30.
 PRISM was handed   536674208 working-precision words and    78 shell-pairs
 IPart=  0 NShTot=        3081 NBatch=         210 AvBLen=        14.7
 PrSmSu:  NxtVal=             31.
 
Start evalsmt/hmt
 Smt (real):
                 1 
      1   0.186615D+01
 Smt (imaginary):
                 1 
      1   0.000000D+00
 Hmt (real):
                 1 
      1  -0.256782D+03
 Hmt (imaginary):
                 1 
      1   0.000000D+00
 
Form Fock eff
ifsel =     2, useproj    T
 DIIS: error= 4.46D-03 at cycle   6 NSaved=   6.
 NSaved= 6 IEnMin= 6 EnMin= -108.789351473874     IErMin= 1 ErrMin= 3.77D-03
 ErrMax= 4.46D-03 EMaxC= 1.00D+00 BMatC= 1.97D-03 BMatP= 1.54D-03
 IDIUse=1 WtCom= 1.00D+00 WtEn= 0.00D+00
 Coeff-Com:  0.000D+00 0.000D+00 0.000D+00 0.000D+00 0.000D+00 0.100D+01
 Coeff:      0.000D+00 0.000D+00 0.000D+00 0.000D+00 0.000D+00 0.100D+01
 
Diag Fock

 Fock eigenvalues (alpha):
      orbital --                 1                2                3                4
       energy --    -1.5629748D+01   -1.5615422D+01   -1.6123240D+00   -7.4271911D-01
      orbital --                 5                6                7                8
       energy --    -7.0956153D-01   -6.6778590D-01   -6.3412269D-01    2.8885890D-01
      orbital --                 9               10               11               12
       energy --     2.9304483D-01    6.2598854D-01    7.5627525D-01    8.0219215D-01
      orbital --                13               14               15               16
       energy --     8.0257132D-01    1.0221146D+00    1.1141704D+00    1.1168081D+00
      orbital --                17               18               19               20
       energy --     1.4382358D+00    1.7058665D+00    1.7058665D+00    1.9482179D+00
      orbital --                21               22               23               24
       energy --     2.1300072D+00    2.1309310D+00    2.4543502D+00    2.4543545D+00
      orbital --                25               26               27               28
       energy --     2.9743328D+00    3.2397127D+00    3.2403858D+00    4.2031257D+00

 Fock eigenvalues (beta):
      orbital --                 1                2                3                4
       energy --    -1.5629748D+01   -1.5615422D+01   -1.6123240D+00   -7.4271911D-01
      orbital --                 5                6                7                8
       energy --    -7.0956153D-01   -6.6778590D-01   -6.3412269D-01    2.8885890D-01
      orbital --                 9               10               11               12
       energy --     2.9304483D-01    6.2598854D-01    7.5627525D-01    8.0219215D-01
      orbital --                13               14               15               16
       energy --     8.0257132D-01    1.0221146D+00    1.1141704D+00    1.1168081D+00
      orbital --                17               18               19               20
       energy --     1.4382358D+00    1.7058665D+00    1.7058665D+00    1.9482179D+00
      orbital --                21               22               23               24
       energy --     2.1300072D+00    2.1309310D+00    2.4543502D+00    2.4543545D+00
      orbital --                25               26               27               28
       energy --     2.9743328D+00    3.2397127D+00    3.2403858D+00    4.2031257D+00

 *** cycle =    6 ***

        E =    -108.789351473874      DE =      -0.000820998055
      Hsp =    -203.938635111082     Hph =      66.338524502864
   <S**2> =       0.000000000054
    RMSDP =       5.5300D-04        MaxP =       6.8382D-03

   E (HF) =    -108.751462495775

 ********************

*********  Start Cycle  7  *************
 
Start hffock

 Symmetry not used in FoFDir.
 MinBra= 0 MaxBra= 2 Meth= 1.
 IRaf=       1 NMat=   2 IRICut=       1 DoRegI=T DoRafI=F ISym2E= 0 JSym2E=0.
 PrsmSu:  NPrtUS=   1 ThrOK=F IAlg=1 NPAlg=1 LenDen=           0.
 Prism:   IPart=     0 DynPar=F LinDyn=F Incr=          30.
 PRISM was handed   536809828 working-precision words and    78 shell-pairs
 IPart=  0 NShTot=        3081 NBatch=         210 AvBLen=        14.7
 PrSmSu:  NxtVal=             31.
 
Start hfdmdg: find NO basis
 
Start formng/pg
 
Start formgg

 Symmetry not used in FoFDir.
 MinBra= 0 MaxBra= 2 Meth= 1.
 IRaf=       1 NMat=  64 IRICut=       1 DoRegI=T DoRafI=F ISym2E= 0 JSym2E=0.
 PrsmSu:  NPrtUS=   1 ThrOK=F IAlg=1 NPAlg=1 LenDen=           0.
 Prism:   IPart=     0 DynPar=F LinDyn=F Incr=          30.
 PRISM was handed   536674208 working-precision words and    78 shell-pairs
 IPart=  0 NShTot=        3081 NBatch=         210 AvBLen=        14.7
 PrSmSu:  NxtVal=             31.
 
Start evalsmt/hmt
 Smt (real):
                 1 
      1   0.185235D+01
 Smt (imaginary):
                 1 
      1   0.000000D+00
 Hmt (real):
                 1 
      1  -0.254885D+03
 Hmt (imaginary):
                 1 
      1   0.000000D+00
 
Form Fock eff
ifsel =     2, useproj    T
 DIIS: error= 4.55D-03 at cycle   7 NSaved=   7.
 NSaved= 7 IEnMin= 7 EnMin= -108.790207629768     IErMin= 1 ErrMin= 3.77D-03
 ErrMax= 4.55D-03 EMaxC= 1.00D+00 BMatC= 2.04D-03 BMatP= 1.54D-03
 IDIUse=1 WtCom= 1.00D+00 WtEn= 0.00D+00
 Coeff-Com:  0.000D+00 0.000D+00 0.000D+00 0.000D+00 0.000D+00 0.000D+00
 Coeff-Com:  0.100D+01
 Coeff:      0.000D+00 0.000D+00 0.000D+00 0.000D+00 0.000D+00 0.000D+00
 Coeff:      0.100D+01
 
Diag Fock

 Fock eigenvalues (alpha):
      orbital --                 1                2                3                4
       energy --    -1.5629511D+01   -1.5615192D+01   -1.6120331D+00   -7.4406478D-01
      orbital --                 5                6                7                8
       energy --    -7.0939500D-01   -6.6518651D-01   -6.3383360D-01    2.8879532D-01
      orbital --                 9               10               11               12
       energy --     2.9312613D-01    6.2591191D-01    7.5633655D-01    8.0227176D-01
      orbital --                13               14               15               16
       energy --     8.0265988D-01    1.0218426D+00    1.1142280D+00    1.1172568D+00
      orbital --                17               18               19               20
       energy --     1.4380199D+00    1.7060363D+00    1.7060363D+00    1.9482358D+00
      orbital --                21               22               23               24
       energy --     2.1296638D+00    2.1309622D+00    2.4544831D+00    2.4544888D+00
      orbital --                25               26               27               28
       energy --     2.9743793D+00    3.2397258D+00    3.2403907D+00    4.2031480D+00

 Fock eigenvalues (beta):
      orbital --                 1                2                3                4
       energy --    -1.5629511D+01   -1.5615192D+01   -1.6120331D+00   -7.4406478D-01
      orbital --                 5                6                7                8
       energy --    -7.0939500D-01   -6.6518651D-01   -6.3383360D-01    2.8879532D-01
      orbital --                 9               10               11               12
       energy --     2.9312613D-01    6.2591191D-01    7.5633655D-01    8.0227176D-01
      orbital --                13               14               15               16
       energy --     8.0265988D-01    1.0218426D+00    1.1142280D+00    1.1172568D+00
      orbital --                17               18               19               20
       energy --     1.4380199D+00    1.7060363D+00    1.7060363D+00    1.9482358D+00
      orbital --                21               22               23               24
       energy --     2.1296638D+00    2.1309622D+00    2.4544831D+00    2.4544888D+00
      orbital --                25               26               27               28
       energy --     2.9743793D+00    3.2397258D+00    3.2403907D+00    4.2031480D+00

 *** cycle =    7 ***

        E =    -108.790207629768      DE =      -0.000856155894
      Hsp =    -203.939142102383     Hph =      66.338175338271
   <S**2> =       0.000000000075
    RMSDP =       5.5827D-04        MaxP =       6.8740D-03

   E (HF) =    -108.746786780897

 ********************

*********  Start Cycle  8  *************
 
Start hffock

 Symmetry not used in FoFDir.
 MinBra= 0 MaxBra= 2 Meth= 1.
 IRaf=       1 NMat=   2 IRICut=       1 DoRegI=T DoRafI=F ISym2E= 0 JSym2E=0.
 PrsmSu:  NPrtUS=   1 ThrOK=F IAlg=1 NPAlg=1 LenDen=           0.
 Prism:   IPart=     0 DynPar=F LinDyn=F Incr=          30.
 PRISM was handed   536809828 working-precision words and    78 shell-pairs
 IPart=  0 NShTot=        3081 NBatch=         210 AvBLen=        14.7
 PrSmSu:  NxtVal=             31.
 
Start hfdmdg: find NO basis
 
Start formng/pg
 
Start formgg

 Symmetry not used in FoFDir.
 MinBra= 0 MaxBra= 2 Meth= 1.
 IRaf=       1 NMat=  64 IRICut=       1 DoRegI=T DoRafI=F ISym2E= 0 JSym2E=0.
 PrsmSu:  NPrtUS=   1 ThrOK=F IAlg=1 NPAlg=1 LenDen=           0.
 Prism:   IPart=     0 DynPar=F LinDyn=F Incr=          30.
 PRISM was handed   536674208 working-precision words and    78 shell-pairs
 IPart=  0 NShTot=        3081 NBatch=         210 AvBLen=        14.7
 PrSmSu:  NxtVal=             31.
 
Start evalsmt/hmt
 Smt (real):
                 1 
      1   0.183773D+01
 Smt (imaginary):
                 1 
      1   0.000000D+00
 Hmt (real):
                 1 
      1  -0.252875D+03
 Hmt (imaginary):
                 1 
      1   0.000000D+00
 
Form Fock eff
ifsel =     2, useproj    T
 DIIS: error= 4.61D-03 at cycle   8 NSaved=   8.
 NSaved= 8 IEnMin= 8 EnMin= -108.791083827223     IErMin= 1 ErrMin= 3.77D-03
 ErrMax= 4.61D-03 EMaxC= 1.00D+00 BMatC= 2.08D-03 BMatP= 1.54D-03
 IDIUse=1 WtCom= 1.00D+00 WtEn= 0.00D+00
 Coeff-Com:  0.000D+00 0.000D+00 0.000D+00 0.000D+00 0.000D+00 0.000D+00
 Coeff-Com:  0.000D+00 0.100D+01
 Coeff:      0.000D+00 0.000D+00 0.000D+00 0.000D+00 0.000D+00 0.000D+00
 Coeff:      0.000D+00 0.100D+01
 
Diag Fock

 Fock eigenvalues (alpha):
      orbital --                 1                2                3                4
       energy --    -1.5629242D+01   -1.5614929D+01   -1.6117142D+00   -7.4530443D-01
      orbital --                 5                6                7                8
       energy --    -7.0921354D-01   -6.6250213D-01   -6.3352277D-01    2.8875305D-01
      orbital --                 9               10               11               12
       energy --     2.9321883D-01    6.2583309D-01    7.5640431D-01    8.0235927D-01
      orbital --                13               14               15               16
       energy --     8.0275386D-01    1.0215607D+00    1.1142962D+00    1.1177339D+00
      orbital --                17               18               19               20
       energy --     1.4377587D+00    1.7062198D+00    1.7062198D+00    1.9482500D+00
      orbital --                21               22               23               24
       energy --     2.1292618D+00    2.1310038D+00    2.4546299D+00    2.4546372D+00
      orbital --                25               26               27               28
       energy --     2.9744360D+00    3.2397496D+00    3.2403926D+00    4.2031730D+00

 Fock eigenvalues (beta):
      orbital --                 1                2                3                4
       energy --    -1.5629242D+01   -1.5614929D+01   -1.6117142D+00   -7.4530443D-01
      orbital --                 5                6                7                8
       energy --    -7.0921354D-01   -6.6250213D-01   -6.3352277D-01    2.8875305D-01
      orbital --                 9               10               11               12
       energy --     2.9321883D-01    6.2583309D-01    7.5640431D-01    8.0235927D-01
      orbital --                13               14               15               16
       energy --     8.0275386D-01    1.0215607D+00    1.1142962D+00    1.1177339D+00
      orbital --                17               18               19               20
       energy --     1.4377587D+00    1.7062198D+00    1.7062198D+00    1.9482500D+00
      orbital --                21               22               23               24
       energy --     2.1292618D+00    2.1310038D+00    2.4546299D+00    2.4546372D+00
      orbital --                25               26               27               28
       energy --     2.9744360D+00    3.2397496D+00    3.2403926D+00    4.2031730D+00

 *** cycle =    8 ***

        E =    -108.791083827223      DE =      -0.000876197455
      Hsp =    -203.939648308264     Hph =      66.337805346697
   <S**2> =       0.000000000101
    RMSDP =       5.5646D-04        MaxP =       6.7848D-03

   E (HF) =    -108.741585126632

 ********************

*********  Start Cycle  9  *************
 
Start hffock

 Symmetry not used in FoFDir.
 MinBra= 0 MaxBra= 2 Meth= 1.
 IRaf=       1 NMat=   2 IRICut=       1 DoRegI=T DoRafI=F ISym2E= 0 JSym2E=0.
 PrsmSu:  NPrtUS=   1 ThrOK=F IAlg=1 NPAlg=1 LenDen=           0.
 Prism:   IPart=     0 DynPar=F LinDyn=F Incr=          30.
 PRISM was handed   536809828 working-precision words and    78 shell-pairs
 IPart=  0 NShTot=        3081 NBatch=         210 AvBLen=        14.7
 PrSmSu:  NxtVal=             31.
 
Start hfdmdg: find NO basis
 
Start formng/pg
 
Start formgg

 Symmetry not used in FoFDir.
 MinBra= 0 MaxBra= 2 Meth= 1.
 IRaf=       1 NMat=  64 IRICut=       1 DoRegI=T DoRafI=F ISym2E= 0 JSym2E=0.
 PrsmSu:  NPrtUS=   1 ThrOK=F IAlg=1 NPAlg=1 LenDen=           0.
 Prism:   IPart=     0 DynPar=F LinDyn=F Incr=          30.
 PRISM was handed   536674208 working-precision words and    78 shell-pairs
 IPart=  0 NShTot=        3081 NBatch=         210 AvBLen=        14.7
 PrSmSu:  NxtVal=             31.
 
Start evalsmt/hmt
 Smt (real):
                 1 
      1   0.182254D+01
 Smt (imaginary):
                 1 
      1   0.000000D+00
 Hmt (real):
                 1 
      1  -0.250786D+03
 Hmt (imaginary):
                 1 
      1   0.000000D+00
 
Form Fock eff
ifsel =     2, useproj    T
 DIIS: error= 4.63D-03 at cycle   9 NSaved=   9.
 NSaved= 9 IEnMin= 9 EnMin= -108.791962181803     IErMin= 1 ErrMin= 3.77D-03
 ErrMax= 4.63D-03 EMaxC= 1.00D+00 BMatC= 2.08D-03 BMatP= 1.54D-03
 IDIUse=1 WtCom= 1.00D+00 WtEn= 0.00D+00
 Coeff-Com:  0.000D+00 0.000D+00 0.000D+00 0.000D+00 0.000D+00 0.000D+00
 Coeff-Com:  0.000D+00 0.000D+00 0.100D+01
 Coeff:      0.000D+00 0.000D+00 0.000D+00 0.000D+00 0.000D+00 0.000D+00
 Coeff:      0.000D+00 0.000D+00 0.100D+01
 
Diag Fock

 Fock eigenvalues (alpha):
      orbital --                 1                2                3                4
       energy --    -1.5628939D+01   -1.5614633D+01   -1.6113699D+00   -7.4640758D-01
      orbital --                 5                6                7                8
       energy --    -7.0901772D-01   -6.5976627D-01   -6.3319839D-01    2.8874202D-01
      orbital --                 9               10               11               12
       energy --     2.9332335D-01    6.2575423D-01    7.5647802D-01    8.0245482D-01
      orbital --                13               14               15               16
       energy --     8.0285306D-01    1.0212747D+00    1.1143759D+00    1.1182338D+00
      orbital --                17               18               19               20
       energy --     1.4374538D+00    1.7064156D+00    1.7064156D+00    1.9482605D+00
      orbital --                21               22               23               24
       energy --     2.1288000D+00    2.1310572D+00    2.4547902D+00    2.4547996D+00
      orbital --                25               26               27               28
       energy --     2.9745040D+00    3.2397865D+00    3.2403921D+00    4.2032015D+00

 Fock eigenvalues (beta):
      orbital --                 1                2                3                4
       energy --    -1.5628939D+01   -1.5614633D+01   -1.6113699D+00   -7.4640758D-01
      orbital --                 5                6                7                8
       energy --    -7.0901772D-01   -6.5976627D-01   -6.3319839D-01    2.8874202D-01
      orbital --                 9               10               11               12
       energy --     2.9332335D-01    6.2575423D-01    7.5647802D-01    8.0245482D-01
      orbital --                13               14               15               16
       energy --     8.0285306D-01    1.0212747D+00    1.1143759D+00    1.1182338D+00
      orbital --                17               18               19               20
       energy --     1.4374538D+00    1.7064156D+00    1.7064156D+00    1.9482605D+00
      orbital --                21               22               23               24
       energy --     2.1288000D+00    2.1310572D+00    2.4547902D+00    2.4547996D+00
      orbital --                25               26               27               28
       energy --     2.9745040D+00    3.2397865D+00    3.2403921D+00    4.2032015D+00

 *** cycle =    9 ***

        E =    -108.791962181803      DE =      -0.000878354580
      Hsp =    -203.940142739834     Hph =      66.337421423687
   <S**2> =       0.000000000134
    RMSDP =       5.4723D-04        MaxP =       6.5698D-03

   E (HF) =    -108.735903771466

 ********************

*********  Start Cycle 10  *************
 
Start hffock

 Symmetry not used in FoFDir.
 MinBra= 0 MaxBra= 2 Meth= 1.
 IRaf=       1 NMat=   2 IRICut=       1 DoRegI=T DoRafI=F ISym2E= 0 JSym2E=0.
 PrsmSu:  NPrtUS=   1 ThrOK=F IAlg=1 NPAlg=1 LenDen=           0.
 Prism:   IPart=     0 DynPar=F LinDyn=F Incr=          30.
 PRISM was handed   536809828 working-precision words and    78 shell-pairs
 IPart=  0 NShTot=        3081 NBatch=         210 AvBLen=        14.7
 PrSmSu:  NxtVal=             31.
 
Start hfdmdg: find NO basis
 
Start formng/pg
 
Start formgg

 Symmetry not used in FoFDir.
 MinBra= 0 MaxBra= 2 Meth= 1.
 IRaf=       1 NMat=  64 IRICut=       1 DoRegI=T DoRafI=F ISym2E= 0 JSym2E=0.
 PrsmSu:  NPrtUS=   1 ThrOK=F IAlg=1 NPAlg=1 LenDen=           0.
 Prism:   IPart=     0 DynPar=F LinDyn=F Incr=          30.
 PRISM was handed   536674208 working-precision words and    78 shell-pairs
 IPart=  0 NShTot=        3081 NBatch=         210 AvBLen=        14.7
 PrSmSu:  NxtVal=             31.
 
Start evalsmt/hmt
 Smt (real):
                 1 
      1   0.180708D+01
 Smt (imaginary):
                 1 
      1   0.000000D+00
 Hmt (real):
                 1 
      1  -0.248660D+03
 Hmt (imaginary):
                 1 
      1   0.000000D+00
 
Form Fock eff
ifsel =     2, useproj    T
 DIIS: error= 4.60D-03 at cycle  10 NSaved=  10.
 NSaved=10 IEnMin=10 EnMin= -108.792823513145     IErMin= 1 ErrMin= 3.77D-03
 ErrMax= 4.60D-03 EMaxC= 1.00D+00 BMatC= 2.04D-03 BMatP= 1.54D-03
 IDIUse=1 WtCom= 1.00D+00 WtEn= 0.00D+00
 Coeff-Com:  0.000D+00 0.000D+00 0.000D+00 0.000D+00 0.000D+00 0.000D+00
 Coeff-Com:  0.000D+00 0.000D+00 0.000D+00 0.100D+01
 Coeff:      0.000D+00 0.000D+00 0.000D+00 0.000D+00 0.000D+00 0.000D+00
 Coeff:      0.000D+00 0.000D+00 0.000D+00 0.100D+01
 
Diag Fock

 Fock eigenvalues (alpha):
      orbital --                 1                2                3                4
       energy --    -1.5628604D+01   -1.5614305D+01   -1.6110038D+00   -7.4734682D-01
      orbital --                 5                6                7                8
       energy --    -7.0880908D-01   -6.5701681D-01   -6.3286980D-01    2.8877197D-01
      orbital --                 9               10               11               12
       energy --     2.9343957D-01    6.2567795D-01    7.5655698D-01    8.0255799D-01
      orbital --                13               14               15               16
       energy --     8.0295655D-01    1.0209911D+00    1.1144678D+00    1.1187490D+00
      orbital --                17               18               19               20
       energy --     1.4371089D+00    1.7066216D+00    1.7066217D+00    1.9482672D+00
      orbital --                21               22               23               24
       energy --     2.1282791D+00    2.1311237D+00    2.4549630D+00    2.4549750D+00
      orbital --                25               26               27               28
       energy --     2.9745841D+00    3.2398382D+00    3.2403897D+00    4.2032344D+00

 Fock eigenvalues (beta):
      orbital --                 1                2                3                4
       energy --    -1.5628604D+01   -1.5614305D+01   -1.6110038D+00   -7.4734682D-01
      orbital --                 5                6                7                8
       energy --    -7.0880908D-01   -6.5701681D-01   -6.3286980D-01    2.8877197D-01
      orbital --                 9               10               11               12
       energy --     2.9343957D-01    6.2567795D-01    7.5655698D-01    8.0255799D-01
      orbital --                13               14               15               16
       energy --     8.0295655D-01    1.0209911D+00    1.1144678D+00    1.1187490D+00
      orbital --                17               18               19               20
       energy --     1.4371089D+00    1.7066216D+00    1.7066217D+00    1.9482672D+00
      orbital --                21               22               23               24
       energy --     2.1282791D+00    2.1311237D+00    2.4549630D+00    2.4549750D+00
      orbital --                25               26               27               28
       energy --     2.9745841D+00    3.2398382D+00    3.2403897D+00    4.2032344D+00

 *** cycle =   10 ***

        E =    -108.792823513145      DE =      -0.000861331342
      Hsp =    -203.940615165713     Hph =      66.337032518223
   <S**2> =       0.000000000172
    RMSDP =       5.3074D-04        MaxP =       6.2360D-03

   E (HF) =    -108.729811248118

 ********************

*********  Start Cycle 11  *************
 
Start hffock

 Symmetry not used in FoFDir.
 MinBra= 0 MaxBra= 2 Meth= 1.
 IRaf=       1 NMat=   2 IRICut=       1 DoRegI=T DoRafI=F ISym2E= 0 JSym2E=0.
 PrsmSu:  NPrtUS=   1 ThrOK=F IAlg=1 NPAlg=1 LenDen=           0.
 Prism:   IPart=     0 DynPar=F LinDyn=F Incr=          30.
 PRISM was handed   536809828 working-precision words and    78 shell-pairs
 IPart=  0 NShTot=        3081 NBatch=         210 AvBLen=        14.7
 PrSmSu:  NxtVal=             31.
 
Start hfdmdg: find NO basis
 
Start formng/pg
 
Start formgg

 Symmetry not used in FoFDir.
 MinBra= 0 MaxBra= 2 Meth= 1.
 IRaf=       1 NMat=  64 IRICut=       1 DoRegI=T DoRafI=F ISym2E= 0 JSym2E=0.
 PrsmSu:  NPrtUS=   1 ThrOK=F IAlg=1 NPAlg=1 LenDen=           0.
 Prism:   IPart=     0 DynPar=F LinDyn=F Incr=          30.
 PRISM was handed   536674208 working-precision words and    78 shell-pairs
 IPart=  0 NShTot=        3081 NBatch=         210 AvBLen=        14.7
 PrSmSu:  NxtVal=             31.
 
Start evalsmt/hmt
 Smt (real):
                 1 
      1   0.179165D+01
 Smt (imaginary):
                 1 
      1   0.000000D+00
 Hmt (real):
                 1 
      1  -0.246540D+03
 Hmt (imaginary):
                 1 
      1   0.000000D+00
 
Form Fock eff
ifsel =     2, useproj    T
 DIIS: error= 4.52D-03 at cycle  11 NSaved=  11.
 NSaved=11 IEnMin=11 EnMin= -108.793649182247     IErMin= 1 ErrMin= 3.77D-03
 ErrMax= 4.52D-03 EMaxC= 1.00D+00 BMatC= 1.96D-03 BMatP= 1.54D-03
 IDIUse=1 WtCom= 1.00D+00 WtEn= 0.00D+00
 Coeff-Com:  0.000D+00 0.000D+00 0.000D+00 0.000D+00 0.000D+00 0.000D+00
 Coeff-Com:  0.000D+00 0.000D+00 0.000D+00 0.000D+00 0.100D+01
 Coeff:      0.000D+00 0.000D+00 0.000D+00 0.000D+00 0.000D+00 0.000D+00
 Coeff:      0.000D+00 0.000D+00 0.000D+00 0.000D+00 0.100D+01
 
Diag Fock

 Fock eigenvalues (alpha):
      orbital --                 1                2                3                4
       energy --    -1.5628240D+01   -1.5613947D+01   -1.6106203D+00   -7.4810001D-01
      orbital --                 5                6                7                8
       energy --    -7.0859000D-01   -6.5429437D-01   -6.3254716D-01    2.8885151D-01
      orbital --                 9               10               11               12
       energy --     2.9356678D-01    6.2560705D-01    7.5664024D-01    8.0266785D-01
      orbital --                13               14               15               16
       energy --     8.0306292D-01    1.0207167D+00    1.1145719D+00    1.1192707D+00
      orbital --                17               18               19               20
       energy --     1.4367291D+00    1.7068351D+00    1.7068351D+00    1.9482700D+00
      orbital --                21               22               23               24
       energy --     2.1277018D+00    2.1312040D+00    2.4551468D+00    2.4551616D+00
      orbital --                25               26               27               28
       energy --     2.9746763D+00    3.2399061D+00    3.2403858D+00    4.2032722D+00

 Fock eigenvalues (beta):
      orbital --                 1                2                3                4
       energy --    -1.5628240D+01   -1.5613947D+01   -1.6106203D+00   -7.4810001D-01
      orbital --                 5                6                7                8
       energy --    -7.0859000D-01   -6.5429437D-01   -6.3254716D-01    2.8885151D-01
      orbital --                 9               10               11               12
       energy --     2.9356678D-01    6.2560705D-01    7.5664024D-01    8.0266785D-01
      orbital --                13               14               15               16
       energy --     8.0306292D-01    1.0207167D+00    1.1145719D+00    1.1192707D+00
      orbital --                17               18               19               20
       energy --     1.4367291D+00    1.7068351D+00    1.7068351D+00    1.9482700D+00
      orbital --                21               22               23               24
       energy --     2.1277018D+00    2.1312040D+00    2.4551468D+00    2.4551616D+00
      orbital --                25               26               27               28
       energy --     2.9746763D+00    3.2399061D+00    3.2403858D+00    4.2032722D+00

 *** cycle =   11 ***

        E =    -108.793649182247      DE =      -0.000825669102
      Hsp =    -203.941056221383     Hph =      66.336647904791
   <S**2> =       0.000000000217
    RMSDP =       5.0768D-04        MaxP =       5.7984D-03

   E (HF) =    -108.723396497767

 ********************

*********  Start Cycle 12  *************
 
Start hffock

 Symmetry not used in FoFDir.
 MinBra= 0 MaxBra= 2 Meth= 1.
 IRaf=       1 NMat=   2 IRICut=       1 DoRegI=T DoRafI=F ISym2E= 0 JSym2E=0.
 PrsmSu:  NPrtUS=   1 ThrOK=F IAlg=1 NPAlg=1 LenDen=           0.
 Prism:   IPart=     0 DynPar=F LinDyn=F Incr=          30.
 PRISM was handed   536809828 working-precision words and    78 shell-pairs
 IPart=  0 NShTot=        3081 NBatch=         210 AvBLen=        14.7
 PrSmSu:  NxtVal=             31.
 
Start hfdmdg: find NO basis
 
Start formng/pg
 
Start formgg

 Symmetry not used in FoFDir.
 MinBra= 0 MaxBra= 2 Meth= 1.
 IRaf=       1 NMat=  64 IRICut=       1 DoRegI=T DoRafI=F ISym2E= 0 JSym2E=0.
 PrsmSu:  NPrtUS=   1 ThrOK=F IAlg=1 NPAlg=1 LenDen=           0.
 Prism:   IPart=     0 DynPar=F LinDyn=F Incr=          30.
 PRISM was handed   536674208 working-precision words and    78 shell-pairs
 IPart=  0 NShTot=        3081 NBatch=         210 AvBLen=        14.7
 PrSmSu:  NxtVal=             31.
 
Start evalsmt/hmt
 Smt (real):
                 1 
      1   0.177660D+01
 Smt (imaginary):
                 1 
      1   0.000000D+00
 Hmt (real):
                 1 
      1  -0.244470D+03
 Hmt (imaginary):
                 1 
      1   0.000000D+00
 
Form Fock eff
ifsel =     2, useproj    T
 DIIS: error= 4.40D-03 at cycle  12 NSaved=  12.
 NSaved=12 IEnMin=12 EnMin= -108.794422964830     IErMin= 1 ErrMin= 3.77D-03
 ErrMax= 4.40D-03 EMaxC= 1.00D+00 BMatC= 1.84D-03 BMatP= 1.54D-03
 IDIUse=1 WtCom= 1.00D+00 WtEn= 0.00D+00
 Coeff-Com:  0.000D+00 0.000D+00 0.000D+00 0.000D+00 0.000D+00 0.000D+00
 Coeff-Com:  0.000D+00 0.000D+00 0.000D+00 0.000D+00 0.000D+00 0.100D+01
 Coeff:      0.000D+00 0.000D+00 0.000D+00 0.000D+00 0.000D+00 0.000D+00
 Coeff:      0.000D+00 0.000D+00 0.000D+00 0.000D+00 0.000D+00 0.100D+01
 
Diag Fock

 Fock eigenvalues (alpha):
      orbital --                 1                2                3                4
       energy --    -1.5627850D+01   -1.5613562D+01   -1.6102247D+00   -7.4865214D-01
      orbital --                 5                6                7                8
       energy --    -7.0836352D-01   -6.5163996D-01   -6.3224063D-01    2.8898717D-01
      orbital --                 9               10               11               12
       energy --     2.9370369D-01    6.2554422D-01    7.5672661D-01    8.0278310D-01
      orbital --                13               14               15               16
       energy --     8.0317044D-01    1.0204582D+00    1.1146875D+00    1.1197893D+00
      orbital --                17               18               19               20
       energy --     1.4363214D+00    1.7070525D+00    1.7070526D+00    1.9482687D+00
      orbital --                21               22               23               24
       energy --     2.1270732D+00    2.1312981D+00    2.4553393D+00    2.4553573D+00
      orbital --                25               26               27               28
       energy --     2.9747803D+00    3.2399906D+00    3.2403807D+00    4.2033149D+00

 Fock eigenvalues (beta):
      orbital --                 1                2                3                4
       energy --    -1.5627850D+01   -1.5613562D+01   -1.6102247D+00   -7.4865214D-01
      orbital --                 5                6                7                8
       energy --    -7.0836352D-01   -6.5163996D-01   -6.3224063D-01    2.8898717D-01
      orbital --                 9               10               11               12
       energy --     2.9370369D-01    6.2554422D-01    7.5672661D-01    8.0278310D-01
      orbital --                13               14               15               16
       energy --     8.0317044D-01    1.0204582D+00    1.1146875D+00    1.1197893D+00
      orbital --                17               18               19               20
       energy --     1.4363214D+00    1.7070525D+00    1.7070526D+00    1.9482687D+00
      orbital --                21               22               23               24
       energy --     2.1270732D+00    2.1312981D+00    2.4553393D+00    2.4553573D+00
      orbital --                25               26               27               28
       energy --     2.9747803D+00    3.2399906D+00    3.2403807D+00    4.2033149D+00

 *** cycle =   12 ***

        E =    -108.794422964830      DE =      -0.000773782583
      Hsp =    -203.941459428504     Hph =      66.336277329330
   <S**2> =       0.000000000268
    RMSDP =       4.7926D-04        MaxP =       5.2792D-03

   E (HF) =    -108.716764227268

 ********************

*********  Start Cycle 13  *************
 
Start hffock

 Symmetry not used in FoFDir.
 MinBra= 0 MaxBra= 2 Meth= 1.
 IRaf=       1 NMat=   2 IRICut=       1 DoRegI=T DoRafI=F ISym2E= 0 JSym2E=0.
 PrsmSu:  NPrtUS=   1 ThrOK=F IAlg=1 NPAlg=1 LenDen=           0.
 Prism:   IPart=     0 DynPar=F LinDyn=F Incr=          30.
 PRISM was handed   536809828 working-precision words and    78 shell-pairs
 IPart=  0 NShTot=        3081 NBatch=         210 AvBLen=        14.7
 PrSmSu:  NxtVal=             31.
 
Start hfdmdg: find NO basis
 
Start formng/pg
 
Start formgg

 Symmetry not used in FoFDir.
 MinBra= 0 MaxBra= 2 Meth= 1.
 IRaf=       1 NMat=  64 IRICut=       1 DoRegI=T DoRafI=F ISym2E= 0 JSym2E=0.
 PrsmSu:  NPrtUS=   1 ThrOK=F IAlg=1 NPAlg=1 LenDen=           0.
 Prism:   IPart=     0 DynPar=F LinDyn=F Incr=          30.
 PRISM was handed   536674208 working-precision words and    78 shell-pairs
 IPart=  0 NShTot=        3081 NBatch=         210 AvBLen=        14.7
 PrSmSu:  NxtVal=             31.
 
Start evalsmt/hmt
 Smt (real):
                 1 
      1   0.176221D+01
 Smt (imaginary):
                 1 
      1   0.000000D+00
 Hmt (real):
                 1 
      1  -0.242491D+03
 Hmt (imaginary):
                 1 
      1   0.000000D+00
 
Form Fock eff
ifsel =     2, useproj    T
 DIIS: error= 4.24D-03 at cycle  13 NSaved=  13.
 NSaved=13 IEnMin=13 EnMin= -108.795132572286     IErMin= 1 ErrMin= 3.77D-03
 ErrMax= 4.24D-03 EMaxC= 1.00D+00 BMatC= 1.70D-03 BMatP= 1.54D-03
 IDIUse=1 WtCom= 1.00D+00 WtEn= 0.00D+00
 Coeff-Com:  0.000D+00 0.000D+00 0.000D+00 0.000D+00 0.000D+00 0.000D+00
 Coeff-Com:  0.000D+00 0.000D+00 0.000D+00 0.000D+00 0.000D+00 0.000D+00
 Coeff-Com:  0.100D+01
 Coeff:      0.000D+00 0.000D+00 0.000D+00 0.000D+00 0.000D+00 0.000D+00
 Coeff:      0.000D+00 0.000D+00 0.000D+00 0.000D+00 0.000D+00 0.000D+00
 Coeff:      0.100D+01
 
Diag Fock

 Fock eigenvalues (alpha):
      orbital --                 1                2                3                4
       energy --    -1.5627440D+01   -1.5613157D+01   -1.6098222D+00   -7.4899659D-01
      orbital --                 5                6                7                8
       energy --    -7.0813320D-01   -6.4909258D-01   -6.3195931D-01    2.8918246D-01
      orbital --                 9               10               11               12
       energy --     2.9384847D-01    6.2549185D-01    7.5681473D-01    8.0290212D-01
      orbital --                13               14               15               16
       energy --     8.0327721D-01    1.0202216D+00    1.1148135D+00    1.1202951D+00
      orbital --                17               18               19               20
       energy --     1.4358941D+00    1.7072704D+00    1.7072705D+00    1.9482629D+00
      orbital --                21               22               23               24
       energy --     2.1264011D+00    2.1314052D+00    2.4555377D+00    2.4555593D+00
      orbital --                25               26               27               28
       energy --     2.9748950D+00    3.2400915D+00    3.2403745D+00    4.2033619D+00

 Fock eigenvalues (beta):
      orbital --                 1                2                3                4
       energy --    -1.5627440D+01   -1.5613157D+01   -1.6098222D+00   -7.4899659D-01
      orbital --                 5                6                7                8
       energy --    -7.0813320D-01   -6.4909258D-01   -6.3195931D-01    2.8918246D-01
      orbital --                 9               10               11               12
       energy --     2.9384847D-01    6.2549185D-01    7.5681473D-01    8.0290212D-01
      orbital --                13               14               15               16
       energy --     8.0327721D-01    1.0202216D+00    1.1148135D+00    1.1202951D+00
      orbital --                17               18               19               20
       energy --     1.4358941D+00    1.7072704D+00    1.7072705D+00    1.9482629D+00
      orbital --                21               22               23               24
       energy --     2.1264011D+00    2.1314052D+00    2.4555377D+00    2.4555593D+00
      orbital --                25               26               27               28
       energy --     2.9748950D+00    3.2400915D+00    3.2403745D+00    4.2033619D+00

 *** cycle =   13 ***

        E =    -108.795132572286      DE =      -0.000709607456
      Hsp =    -203.941821825317     Hph =      66.335930118687
   <S**2> =       0.000000000324
    RMSDP =       4.4704D-04        MaxP =       4.7056D-03

   E (HF) =    -108.710027950992

 ********************

*********  Start Cycle 14  *************
 
Start hffock

 Symmetry not used in FoFDir.
 MinBra= 0 MaxBra= 2 Meth= 1.
 IRaf=       1 NMat=   2 IRICut=       1 DoRegI=T DoRafI=F ISym2E= 0 JSym2E=0.
 PrsmSu:  NPrtUS=   1 ThrOK=F IAlg=1 NPAlg=1 LenDen=           0.
 Prism:   IPart=     0 DynPar=F LinDyn=F Incr=          30.
 PRISM was handed   536809828 working-precision words and    78 shell-pairs
 IPart=  0 NShTot=        3081 NBatch=         210 AvBLen=        14.7
 PrSmSu:  NxtVal=             31.
 
Start hfdmdg: find NO basis
 
Start formng/pg
 
Start formgg

 Symmetry not used in FoFDir.
 MinBra= 0 MaxBra= 2 Meth= 1.
 IRaf=       1 NMat=  64 IRICut=       1 DoRegI=T DoRafI=F ISym2E= 0 JSym2E=0.
 PrsmSu:  NPrtUS=   1 ThrOK=F IAlg=1 NPAlg=1 LenDen=           0.
 Prism:   IPart=     0 DynPar=F LinDyn=F Incr=          30.
 PRISM was handed   536674208 working-precision words and    78 shell-pairs
 IPart=  0 NShTot=        3081 NBatch=         210 AvBLen=        14.7
 PrSmSu:  NxtVal=             31.
 
Start evalsmt/hmt
 Smt (real):
                 1 
      1   0.174874D+01
 Smt (imaginary):
                 1 
      1   0.000000D+00
 Hmt (real):
                 1 
      1  -0.240638D+03
 Hmt (imaginary):
                 1 
      1   0.000000D+00
 
Form Fock eff
ifsel =     2, useproj    T
 DIIS: error= 4.04D-03 at cycle  14 NSaved=  14.
 NSaved=14 IEnMin=14 EnMin= -108.795770506082     IErMin= 1 ErrMin= 3.77D-03
 ErrMax= 4.04D-03 EMaxC= 1.00D+00 BMatC= 1.54D-03 BMatP= 1.54D-03
 IDIUse=1 WtCom= 1.00D+00 WtEn= 0.00D+00
 Coeff-Com:  0.000D+00 0.000D+00 0.000D+00 0.000D+00 0.000D+00 0.000D+00
 Coeff-Com:  0.000D+00 0.000D+00 0.000D+00 0.000D+00 0.000D+00 0.000D+00
 Coeff-Com:  0.000D+00 0.100D+01
 Coeff:      0.000D+00 0.000D+00 0.000D+00 0.000D+00 0.000D+00 0.000D+00
 Coeff:      0.000D+00 0.000D+00 0.000D+00 0.000D+00 0.000D+00 0.000D+00
 Coeff:      0.000D+00 0.100D+01
 
Diag Fock

 Fock eigenvalues (alpha):
      orbital --                 1                2                3                4
       energy --    -1.5627015D+01   -1.5612736D+01   -1.6094184D+00   -7.4913557D-01
      orbital --                 5                6                7                8
       energy --    -7.0790280D-01   -6.4668674D-01   -6.3171030D-01    2.8943718D-01
      orbital --                 9               10               11               12
       energy --     2.9399893D-01    6.2545180D-01    7.5690319D-01    8.0302309D-01
      orbital --                13               14               15               16
       energy --     8.0338136D-01    1.0200119D+00    1.1149480D+00    1.1207791D+00
      orbital --                17               18               19               20
       energy --     1.4354563D+00    1.7074852D+00    1.7074852D+00    1.9482525D+00
      orbital --                21               22               23               24
       energy --     2.1256947D+00    2.1315239D+00    2.4557392D+00    2.4557646D+00
      orbital --                25               26               27               28
       energy --     2.9750188D+00    3.2402073D+00    3.2403672D+00    4.2034122D+00

 Fock eigenvalues (beta):
      orbital --                 1                2                3                4
       energy --    -1.5627015D+01   -1.5612736D+01   -1.6094184D+00   -7.4913557D-01
      orbital --                 5                6                7                8
       energy --    -7.0790280D-01   -6.4668674D-01   -6.3171030D-01    2.8943718D-01
      orbital --                 9               10               11               12
       energy --     2.9399893D-01    6.2545180D-01    7.5690319D-01    8.0302309D-01
      orbital --                13               14               15               16
       energy --     8.0338136D-01    1.0200119D+00    1.1149480D+00    1.1207791D+00
      orbital --                17               18               19               20
       energy --     1.4354563D+00    1.7074852D+00    1.7074852D+00    1.9482525D+00
      orbital --                21               22               23               24
       energy --     2.1256947D+00    2.1315239D+00    2.4557392D+00    2.4557646D+00
      orbital --                25               26               27               28
       energy --     2.9750188D+00    3.2402073D+00    3.2403672D+00    4.2034122D+00

 *** cycle =   14 ***

        E =    -108.795770506082      DE =      -0.000637933796
      Hsp =    -203.942144004162     Hph =      66.335614363736
   <S**2> =       0.000000000384
    RMSDP =       4.1279D-04        MaxP =       4.1064D-03

   E (HF) =    -108.703301756702

 ********************

*********  Start Cycle 15  *************
 
Start hffock

 Symmetry not used in FoFDir.
 MinBra= 0 MaxBra= 2 Meth= 1.
 IRaf=       1 NMat=   2 IRICut=       1 DoRegI=T DoRafI=F ISym2E= 0 JSym2E=0.
 PrsmSu:  NPrtUS=   1 ThrOK=F IAlg=1 NPAlg=1 LenDen=           0.
 Prism:   IPart=     0 DynPar=F LinDyn=F Incr=          30.
 PRISM was handed   536809828 working-precision words and    78 shell-pairs
 IPart=  0 NShTot=        3081 NBatch=         210 AvBLen=        14.7
 PrSmSu:  NxtVal=             31.
 
Start hfdmdg: find NO basis
 
Start formng/pg
 
Start formgg

 Symmetry not used in FoFDir.
 MinBra= 0 MaxBra= 2 Meth= 1.
 IRaf=       1 NMat=  64 IRICut=       1 DoRegI=T DoRafI=F ISym2E= 0 JSym2E=0.
 PrsmSu:  NPrtUS=   1 ThrOK=F IAlg=1 NPAlg=1 LenDen=           0.
 Prism:   IPart=     0 DynPar=F LinDyn=F Incr=          30.
 PRISM was handed   536674208 working-precision words and    78 shell-pairs
 IPart=  0 NShTot=        3081 NBatch=         210 AvBLen=        14.7
 PrSmSu:  NxtVal=             31.
 
Start evalsmt/hmt
 Smt (real):
                 1 
      1   0.173637D+01
 Smt (imaginary):
                 1 
      1   0.000000D+00
 Hmt (real):
                 1 
      1  -0.238937D+03
 Hmt (imaginary):
                 1 
      1   0.000000D+00
 
Form Fock eff
ifsel =     2, useproj    T
 DIIS: error= 3.82D-03 at cycle  15 NSaved=  15.
 NSaved=15 IEnMin=15 EnMin= -108.796334120380     IErMin= 1 ErrMin= 3.77D-03
 ErrMax= 3.82D-03 EMaxC= 1.00D+00 BMatC= 1.38D-03 BMatP= 1.54D-03
 IDIUse=1 WtCom= 1.00D+00 WtEn= 0.00D+00
 Coeff-Com:  0.000D+00 0.000D+00 0.000D+00 0.000D+00 0.000D+00 0.000D+00
 Coeff-Com:  0.000D+00 0.000D+00 0.000D+00 0.000D+00 0.000D+00 0.000D+00
 Coeff-Com:  0.000D+00 0.000D+00 0.100D+01
 Coeff:      0.000D+00 0.000D+00 0.000D+00 0.000D+00 0.000D+00 0.000D+00
 Coeff:      0.000D+00 0.000D+00 0.000D+00 0.000D+00 0.000D+00 0.000D+00
 Coeff:      0.000D+00 0.000D+00 0.100D+01
 
Diag Fock

 Fock eigenvalues (alpha):
      orbital --                 1                2                3                4
       energy --    -1.5626584D+01   -1.5612307D+01   -1.6090182D+00   -7.4907954D-01
      orbital --                 5                6                7                8
       energy --    -7.0767605D-01   -6.4445058D-01   -6.3149800D-01    2.8974741D-01
      orbital --                 9               10               11               12
       energy --     2.9415260D-01    6.2542523D-01    7.5699059D-01    8.0314412D-01
      orbital --                13               14               15               16
       energy --     8.0348113D-01    1.0198322D+00    1.1150888D+00    1.1212333D+00
      orbital --                17               18               19               20
       energy --     1.4350172D+00    1.7076935D+00    1.7076935D+00    1.9482369D+00
      orbital --                21               22               23               24
       energy --     2.1249652D+00    2.1316522D+00    2.4559408D+00    2.4559701D+00
      orbital --                25               26               27               28
       energy --     2.9751496D+00    3.2403361D+00    3.2403583D+00    4.2034644D+00

 Fock eigenvalues (beta):
      orbital --                 1                2                3                4
       energy --    -1.5626584D+01   -1.5612307D+01   -1.6090182D+00   -7.4907954D-01
[...]
 PrSmSu:  NxtVal=             31.
 
Start hfdmdg: find NO basis
 
Start formng/pg
 
Start formgg

 Symmetry not used in FoFDir.
 MinBra= 0 MaxBra= 2 Meth= 1.
 IRaf=       1 NMat=  64 IRICut=       1 DoRegI=T DoRafI=F ISym2E= 0 JSym2E=0.
 PrsmSu:  NPrtUS=   1 ThrOK=F IAlg=1 NPAlg=1 LenDen=           0.
 Prism:   IPart=     0 DynPar=F LinDyn=F Incr=          30.
 PRISM was handed   536674208 working-precision words and    78 shell-pairs
 IPart=  0 NShTot=        3081 NBatch=         210 AvBLen=        14.7
 PrSmSu:  NxtVal=             31.
 
Start evalsmt/hmt
 Smt (real):
                 1 
      1   0.167163D+01
 Smt (imaginary):
                 1 
      1   0.000000D+00
 Hmt (real):
                 1 
      1  -0.230036D+03
 Hmt (imaginary):
                 1 
      1   0.000000D+00
 
Form Fock eff
ifsel =     2, useproj    T
 DIIS: error= 2.15D-07 at cycle  59 NSaved=  16.
 NSaved=16 IEnMin=16 EnMin= -108.800838465780     IErMin=16 ErrMin= 2.15D-07
 ErrMax= 2.15D-07 EMaxC= 1.00D+00 BMatC= 3.22D-12 BMatP= 2.56D-11
 IDIUse=1 WtCom= 1.00D+00 WtEn= 0.00D+00
 Coeff-Com: -0.166D-01 0.133D-01 0.615D-02-0.340D-02 0.101D-02-0.198D-01
 Coeff-Com:  0.239D-01-0.134D-01-0.199D-01 0.384D-01-0.226D-01 0.204D-01
 Coeff-Com: -0.104D+00 0.616D+00-0.815D+00 0.130D+01
 Coeff:     -0.166D-01 0.133D-01 0.615D-02-0.340D-02 0.101D-02-0.198D-01
 Coeff:      0.239D-01-0.134D-01-0.199D-01 0.384D-01-0.226D-01 0.204D-01
 Coeff:     -0.104D+00 0.616D+00-0.815D+00 0.130D+01
 
Diag Fock

 Fock eigenvalues (alpha):
      orbital --                 1                2                3                4
       energy --    -1.5622393D+01   -1.5607859D+01   -1.5965149D+00   -7.0729068D-01
      orbital --                 5                6                7                8
       energy --    -7.0416551D-01   -6.6031503D-01   -6.3156463D-01    2.9552170D-01
      orbital --                 9               10               11               12
       energy --     2.9752460D-01    6.2714809D-01    7.5767306D-01    8.0118869D-01
      orbital --                13               14               15               16
       energy --     8.0348991D-01    1.0256712D+00    1.1148999D+00    1.1165147D+00
      orbital --                17               18               19               20
       energy --     1.4330170D+00    1.7080300D+00    1.7080348D+00    1.9373959D+00
      orbital --                21               22               23               24
       energy --     2.1170530D+00    2.1335017D+00    2.4575349D+00    2.4575946D+00
      orbital --                25               26               27               28
       energy --     2.9766122D+00    3.2346384D+00    3.2425912D+00    4.1990425D+00

 Fock eigenvalues (beta):
      orbital --                 1                2                3                4
       energy --    -1.5622393D+01   -1.5607859D+01   -1.5965149D+00   -7.0729068D-01
      orbital --                 5                6                7                8
       energy --    -7.0416551D-01   -6.6031503D-01   -6.3156463D-01    2.9552170D-01
      orbital --                 9               10               11               12
       energy --     2.9752460D-01    6.2714809D-01    7.5767306D-01    8.0118869D-01
      orbital --                13               14               15               16
       energy --     8.0348991D-01    1.0256712D+00    1.1148999D+00    1.1165147D+00
      orbital --                17               18               19               20
       energy --     1.4330170D+00    1.7080300D+00    1.7080348D+00    1.9373959D+00
      orbital --                21               22               23               24
       energy --     2.1170530D+00    2.1335017D+00    2.4575349D+00    2.4575946D+00
      orbital --                25               26               27               28
       energy --     2.9766122D+00    3.2346384D+00    3.2425912D+00    4.1990425D+00

 *** cycle =   59 ***

        E =    -108.800838465780      DE =      -0.000000000021
      Hsp =    -203.942769600189     Hph =      66.331172000064
   <S**2> =       0.000000000988
    RMSDP =       2.4865D-07        MaxP =       2.2173D-06

   E (HF) =    -108.592525880003

 ********************

*********  Start Cycle 60  *************
 
Start hffock

 Symmetry not used in FoFDir.
 MinBra= 0 MaxBra= 2 Meth= 1.
 IRaf=       1 NMat=   2 IRICut=       1 DoRegI=T DoRafI=F ISym2E= 0 JSym2E=0.
 PrsmSu:  NPrtUS=   1 ThrOK=F IAlg=1 NPAlg=1 LenDen=           0.
 Prism:   IPart=     0 DynPar=F LinDyn=F Incr=          30.
 PRISM was handed   536809828 working-precision words and    78 shell-pairs
 IPart=  0 NShTot=        3081 NBatch=         210 AvBLen=        14.7
 PrSmSu:  NxtVal=             31.
 
Start hfdmdg: find NO basis
 
Start formng/pg
 
Start formgg

 Symmetry not used in FoFDir.
 MinBra= 0 MaxBra= 2 Meth= 1.
 IRaf=       1 NMat=  64 IRICut=       1 DoRegI=T DoRafI=F ISym2E= 0 JSym2E=0.
 PrsmSu:  NPrtUS=   1 ThrOK=F IAlg=1 NPAlg=1 LenDen=           0.
 Prism:   IPart=     0 DynPar=F LinDyn=F Incr=          30.
 PRISM was handed   536674208 working-precision words and    78 shell-pairs
 IPart=  0 NShTot=        3081 NBatch=         210 AvBLen=        14.7
 PrSmSu:  NxtVal=             31.
 
Start evalsmt/hmt
 Smt (real):
                 1 
      1   0.167163D+01
 Smt (imaginary):
                 1 
      1   0.000000D+00
 Hmt (real):
                 1 
      1  -0.230036D+03
 Hmt (imaginary):
                 1 
      1   0.000000D+00
 
Form Fock eff
ifsel =     2, useproj    T
 DIIS: error= 9.15D-08 at cycle  60 NSaved=  17.
 NSaved=17 IEnMin=17 EnMin= -108.800838465789     IErMin=17 ErrMin= 9.15D-08
 ErrMax= 9.15D-08 EMaxC= 1.00D+00 BMatC= 8.52D-13 BMatP= 3.22D-12
 IDIUse=1 WtCom= 1.00D+00 WtEn= 0.00D+00
 Coeff-Com: -0.190D-01 0.149D-01 0.310D-02-0.492D-02 0.515D-02-0.104D-01
 Coeff-Com:  0.104D-01 0.181D-01 0.362D-01-0.612D-01-0.495D-01 0.191D+00
 Coeff-Com:  0.179D+00-0.248D+01 0.336D+01-0.583D+01 0.563D+01
 Coeff:     -0.190D-01 0.149D-01 0.310D-02-0.492D-02 0.515D-02-0.104D-01
 Coeff:      0.104D-01 0.181D-01 0.362D-01-0.612D-01-0.495D-01 0.191D+00
 Coeff:      0.179D+00-0.248D+01 0.336D+01-0.583D+01 0.563D+01
 
Diag Fock

 Fock eigenvalues (alpha):
      orbital --                 1                2                3                4
       energy --    -1.5622393D+01   -1.5607859D+01   -1.5965149D+00   -7.0729069D-01
      orbital --                 5                6                7                8
       energy --    -7.0416626D-01   -6.6031445D-01   -6.3156473D-01    2.9552174D-01
      orbital --                 9               10               11               12
       energy --     2.9752468D-01    6.2714818D-01    7.5767309D-01    8.0118887D-01
      orbital --                13               14               15               16
       energy --     8.0348997D-01    1.0256712D+00    1.1149002D+00    1.1165147D+00
      orbital --                17               18               19               20
       energy --     1.4330170D+00    1.7080301D+00    1.7080349D+00    1.9373962D+00
      orbital --                21               22               23               24
       energy --     2.1170529D+00    2.1335017D+00    2.4575351D+00    2.4575946D+00
      orbital --                25               26               27               28
       energy --     2.9766123D+00    3.2346385D+00    3.2425912D+00    4.1990426D+00

 Fock eigenvalues (beta):
      orbital --                 1                2                3                4
       energy --    -1.5622393D+01   -1.5607859D+01   -1.5965149D+00   -7.0729069D-01
      orbital --                 5                6                7                8
       energy --    -7.0416626D-01   -6.6031445D-01   -6.3156473D-01    2.9552174D-01
      orbital --                 9               10               11               12
       energy --     2.9752468D-01    6.2714818D-01    7.5767309D-01    8.0118887D-01
      orbital --                13               14               15               16
       energy --     8.0348997D-01    1.0256712D+00    1.1149002D+00    1.1165147D+00
      orbital --                17               18               19               20
       energy --     1.4330170D+00    1.7080301D+00    1.7080349D+00    1.9373962D+00
      orbital --                21               22               23               24
       energy --     2.1170529D+00    2.1335017D+00    2.4575351D+00    2.4575946D+00
      orbital --                25               26               27               28
       energy --     2.9766123D+00    3.2346385D+00    3.2425912D+00    4.1990426D+00

 *** cycle =   60 ***

        E =    -108.800838465789      DE =      -0.000000000008
      Hsp =    -203.942770292640     Hph =      66.331172692507
   <S**2> =       0.000000000988
    RMSDP =       1.1723D-07        MaxP =       9.0761D-07

   E (HF) =    -108.592527705760

 ********************

*********  Start Cycle 61  *************
 
Start hffock

 Symmetry not used in FoFDir.
 MinBra= 0 MaxBra= 2 Meth= 1.
 IRaf=       1 NMat=   2 IRICut=       1 DoRegI=T DoRafI=F ISym2E= 0 JSym2E=0.
 PrsmSu:  NPrtUS=   1 ThrOK=F IAlg=1 NPAlg=1 LenDen=           0.
 Prism:   IPart=     0 DynPar=F LinDyn=F Incr=          30.
 PRISM was handed   536809828 working-precision words and    78 shell-pairs
 IPart=  0 NShTot=        3081 NBatch=         210 AvBLen=        14.7
 PrSmSu:  NxtVal=             31.
 
Start hfdmdg: find NO basis
 
Start formng/pg
 
Start formgg

 Symmetry not used in FoFDir.
 MinBra= 0 MaxBra= 2 Meth= 1.
 IRaf=       1 NMat=  64 IRICut=       1 DoRegI=T DoRafI=F ISym2E= 0 JSym2E=0.
 PrsmSu:  NPrtUS=   1 ThrOK=F IAlg=1 NPAlg=1 LenDen=           0.
 Prism:   IPart=     0 DynPar=F LinDyn=F Incr=          30.
 PRISM was handed   536674208 working-precision words and    78 shell-pairs
 IPart=  0 NShTot=        3081 NBatch=         210 AvBLen=        14.7
 PrSmSu:  NxtVal=             31.
 
Start evalsmt/hmt
 Smt (real):
                 1 
      1   0.167163D+01
 Smt (imaginary):
                 1 
      1   0.000000D+00
 Hmt (real):
                 1 
      1  -0.230036D+03
 Hmt (imaginary):
                 1 
      1   0.000000D+00
 
Form Fock eff
ifsel =     2, useproj    T
 DIIS: error= 5.72D-08 at cycle  61 NSaved=  18.
 NSaved=18 IEnMin=18 EnMin= -108.800838465790     IErMin=18 ErrMin= 5.72D-08
 ErrMax= 5.72D-08 EMaxC= 1.00D+00 BMatC= 3.38D-13 BMatP= 8.52D-13
 IDIUse=1 WtCom= 1.00D+00 WtEn= 0.00D+00
 Large coefficients: NSaved= 18 BigCof=    0.00 CofMax=   10.00 Det=-3.33D-15
 Inversion failed.  Reducing to 17 matrices.
 Large coefficients: NSaved= 17 BigCof=    0.00 CofMax=   10.00 Det=-3.93D-15
 Inversion failed.  Reducing to 16 matrices.
 Large coefficients: NSaved= 16 BigCof=    0.00 CofMax=   10.00 Det=-4.10D-15
 Inversion failed.  Reducing to 15 matrices.
 Coeff-Com:  0.670D-03-0.864D-03 0.131D-02-0.142D-02 0.461D-04 0.100D-01
 Coeff-Com: -0.123D-01-0.567D-02 0.222D-01-0.106D-01-0.489D-01 0.893D-01
 Coeff-Com: -0.173D+00-0.253D+00 0.138D+01
 Coeff:      0.670D-03-0.864D-03 0.131D-02-0.142D-02 0.461D-04 0.100D-01
 Coeff:     -0.123D-01-0.567D-02 0.222D-01-0.106D-01-0.489D-01 0.893D-01
 Coeff:     -0.173D+00-0.253D+00 0.138D+01
 
Diag Fock

 Fock eigenvalues (alpha):
      orbital --                 1                2                3                4
       energy --    -1.5622393D+01   -1.5607859D+01   -1.5965153D+00   -7.0729055D-01
      orbital --                 5                6                7                8
       energy --    -7.0416681D-01   -6.6031369D-01   -6.3156472D-01    2.9552176D-01
      orbital --                 9               10               11               12
       energy --     2.9752482D-01    6.2714815D-01    7.5767309D-01    8.0118871D-01
      orbital --                13               14               15               16
       energy --     8.0348999D-01    1.0256711D+00    1.1149002D+00    1.1165147D+00
      orbital --                17               18               19               20
       energy --     1.4330169D+00    1.7080301D+00    1.7080349D+00    1.9373963D+00
      orbital --                21               22               23               24
       energy --     2.1170529D+00    2.1335017D+00    2.4575350D+00    2.4575947D+00
      orbital --                25               26               27               28
       energy --     2.9766123D+00    3.2346388D+00    3.2425913D+00    4.1990427D+00

 Fock eigenvalues (beta):
      orbital --                 1                2                3                4
       energy --    -1.5622393D+01   -1.5607859D+01   -1.5965153D+00   -7.0729055D-01
      orbital --                 5                6                7                8
       energy --    -7.0416681D-01   -6.6031369D-01   -6.3156472D-01    2.9552176D-01
      orbital --                 9               10               11               12
       energy --     2.9752482D-01    6.2714815D-01    7.5767309D-01    8.0118871D-01
      orbital --                13               14               15               16
       energy --     8.0348999D-01    1.0256711D+00    1.1149002D+00    1.1165147D+00
      orbital --                17               18               19               20
       energy --     1.4330169D+00    1.7080301D+00    1.7080349D+00    1.9373963D+00
      orbital --                21               22               23               24
       energy --     2.1170529D+00    2.1335017D+00    2.4575350D+00    2.4575947D+00
      orbital --                25               26               27               28
       energy --     2.9766123D+00    3.2346388D+00    3.2425913D+00    4.1990427D+00

 *** cycle =   61 ***

        E =    -108.800838465790      DE =      -0.000000000002
      Hsp =    -203.942770373459     Hph =      66.331172773324
   <S**2> =       0.000000000988
    RMSDP =       1.1993D-07        MaxP =       9.8648D-07

   E (HF) =    -108.592528087475

 ********************

*********  Start Cycle 62  *************
 
Start hffock

 Symmetry not used in FoFDir.
 MinBra= 0 MaxBra= 2 Meth= 1.
 IRaf=       1 NMat=   2 IRICut=       1 DoRegI=T DoRafI=F ISym2E= 0 JSym2E=0.
 PrsmSu:  NPrtUS=   1 ThrOK=F IAlg=1 NPAlg=1 LenDen=           0.
 Prism:   IPart=     0 DynPar=F LinDyn=F Incr=          30.
 PRISM was handed   536809828 working-precision words and    78 shell-pairs
 IPart=  0 NShTot=        3081 NBatch=         210 AvBLen=        14.7
 PrSmSu:  NxtVal=             31.
 
Start hfdmdg: find NO basis
 
Start formng/pg
 
Start formgg

 Symmetry not used in FoFDir.
 MinBra= 0 MaxBra= 2 Meth= 1.
 IRaf=       1 NMat=  64 IRICut=       1 DoRegI=T DoRafI=F ISym2E= 0 JSym2E=0.
 PrsmSu:  NPrtUS=   1 ThrOK=F IAlg=1 NPAlg=1 LenDen=           0.
 Prism:   IPart=     0 DynPar=F LinDyn=F Incr=          30.
 PRISM was handed   536674208 working-precision words and    78 shell-pairs
 IPart=  0 NShTot=        3081 NBatch=         210 AvBLen=        14.7
 PrSmSu:  NxtVal=             31.
 
Start evalsmt/hmt
 Smt (real):
                 1 
      1   0.167163D+01
 Smt (imaginary):
                 1 
      1   0.000000D+00
 Hmt (real):
                 1 
      1  -0.230036D+03
 Hmt (imaginary):
                 1 
      1   0.000000D+00
 
Form Fock eff
ifsel =     2, useproj    T
 DIIS: error= 1.62D-08 at cycle  62 NSaved=  16.
 NSaved=16 IEnMin=16 EnMin= -108.800838465791     IErMin=16 ErrMin= 1.62D-08
 ErrMax= 1.62D-08 EMaxC= 1.00D+00 BMatC= 4.66D-14 BMatP= 3.38D-13
 IDIUse=1 WtCom= 1.00D+00 WtEn= 0.00D+00
 Large coefficients: NSaved= 16 BigCof=    0.00 CofMax=   10.00 Det=-4.03D-15
 Inversion failed.  Reducing to 15 matrices.
 Coeff-Com:  0.519D-05-0.802D-03 0.121D-02-0.278D-02 0.342D-02-0.263D-02
 Coeff-Com:  0.116D-01-0.271D-01 0.262D-02 0.156D+00-0.224D+00 0.449D+00
 Coeff-Com: -0.547D+00 0.318D+00 0.862D+00
 Coeff:      0.519D-05-0.802D-03 0.121D-02-0.278D-02 0.342D-02-0.263D-02
 Coeff:      0.116D-01-0.271D-01 0.262D-02 0.156D+00-0.224D+00 0.449D+00
 Coeff:     -0.547D+00 0.318D+00 0.862D+00
 
Diag Fock

 Fock eigenvalues (alpha):
      orbital --                 1                2                3                4
       energy --    -1.5622393D+01   -1.5607859D+01   -1.5965153D+00   -7.0729054D-01
      orbital --                 5                6                7                8
       energy --    -7.0416680D-01   -6.6031366D-01   -6.3156471D-01    2.9552176D-01
      orbital --                 9               10               11               12
       energy --     2.9752479D-01    6.2714813D-01    7.5767309D-01    8.0118869D-01
      orbital --                13               14               15               16
       energy --     8.0348999D-01    1.0256711D+00    1.1149002D+00    1.1165147D+00
      orbital --                17               18               19               20
       energy --     1.4330169D+00    1.7080301D+00    1.7080349D+00    1.9373963D+00
      orbital --                21               22               23               24
       energy --     2.1170529D+00    2.1335017D+00    2.4575350D+00    2.4575947D+00
      orbital --                25               26               27               28
       energy --     2.9766123D+00    3.2346388D+00    3.2425912D+00    4.1990427D+00

 Fock eigenvalues (beta):
      orbital --                 1                2                3                4
       energy --    -1.5622393D+01   -1.5607859D+01   -1.5965153D+00   -7.0729054D-01
      orbital --                 5                6                7                8
       energy --    -7.0416680D-01   -6.6031366D-01   -6.3156471D-01    2.9552176D-01
      orbital --                 9               10               11               12
       energy --     2.9752479D-01    6.2714813D-01    7.5767309D-01    8.0118869D-01
      orbital --                13               14               15               16
       energy --     8.0348999D-01    1.0256711D+00    1.1149002D+00    1.1165147D+00
      orbital --                17               18               19               20
       energy --     1.4330169D+00    1.7080301D+00    1.7080349D+00    1.9373963D+00
      orbital --                21               22               23               24
       energy --     2.1170529D+00    2.1335017D+00    2.4575350D+00    2.4575947D+00
      orbital --                25               26               27               28
       energy --     2.9766123D+00    3.2346388D+00    3.2425912D+00    4.1990427D+00

 *** cycle =   62 ***

        E =    -108.800838465791      DE =      -0.000000000001
      Hsp =    -203.942770737126     Hph =      66.331173136990
   <S**2> =       0.000000000988
    RMSDP =       4.7888D-09        MaxP =       4.3709D-08

   E (HF) =    -108.592528543262

 ********************


 *** SCF Done after   62 cycles ***

        E =    -108.800838465791    conv =           4.7888E-09
      Hsp =    -203.942770737126     Hph =      66.331173136990
   <S**2> =       0.000000000988

 **********************************


 PHF SCF - quitting the program

 Leave Link  530 at Mon Jan 25 21:13:45 2021, MaxMem=  536870912 cpu:       6.0
 (Enter /share/apps/gaussian/G09C01Z/srwang-mod-2020/g09/l9999.exe)

 Test job not archived.
 1\1\GINC-XN01\SP\CUHF\CC-pVDZ\N2\SRWANG\25-Jan-2021\0\\#p uhf/cc-pvdz 
 nosymm guess=mix scf=conver=2 # extralink=l530 iop(5/206=6, 5/207=4, 5
 /216=1, 5/218=40) pop=none\\title\\0,1\N,0,0.,0.,0.\N,0,0.,0.,0.9\\Ver
 sion=EM64L-G09RevC.01\HF=-108.8008385\S2=0.\S2-1=0.\S2A=0.\RMSD=4.789e
 -09\PG=D*H [C*(N1.N1)]\\@


 A SOLDIER'S LIFE IS A LIFE OF HONOR, BUT A DOG WOULD NOT LEAD IT.
 -- PRINCE RUPERT, FOUNDER OF THE HUDSON'S BAY COMPANY
 Job cpu time:  0 days  0 hours  0 minutes  6.7 seconds.
 File lengths (MBytes):  RWF=      9 Int=      0 D2E=      0 Chk=      8 Scr=      1
 Normal termination of Gaussian 09 at Mon Jan 25 21:13:45 2021.
