title                                                                   
SP        UHF                                                         3-21G               
Number of atoms                            I                2
Info1-9                                    I   N=           9
          13          12           0           0           0         110
           1           1           2
Charge                                     I                0
Multiplicity                               I                1
Number of electrons                        I                2
Number of alpha electrons                  I                1
Number of beta electrons                   I                1
Number of basis functions                  I                4
Number of independent functions            I                4
Number of point charges in /Mol/           I                0
Number of translation vectors              I                0
Atomic numbers                             I   N=           2
           1           1
Nuclear charges                            R   N=           2
  1.00000000E+00  1.00000000E+00
Current cartesian coordinates              R   N=           6
  0.00000000E+00  0.00000000E+00  0.00000000E+00  0.00000000E+00  0.00000000E+00
  3.77945227E+00
Force Field                                I                0
Int Atom Types                             I   N=           2
           0           0
MM charges                                 R   N=           2
  0.00000000E+00  0.00000000E+00
Integer atomic weights                     I   N=           2
           1           1
Real atomic weights                        R   N=           2
  1.00782504E+00  1.00782504E+00
Atom fragment info                         I   N=           2
           0           0
Atom residue num                           I   N=           2
           0           0
Nuclear spins                              I   N=           2
           1           1
Nuclear ZEff                               R   N=           2
 -1.00000000E+00 -1.00000000E+00
Nuclear QMom                               R   N=           2
  0.00000000E+00  0.00000000E+00
Nuclear GFac                               R   N=           2
  2.79284600E+00  2.79284600E+00
MicOpt                                     I   N=           2
          -1          -1
Number of contracted shells                I                4
Number of primitive shells                 I                6
Pure/Cartesian d shells                    I                1
Pure/Cartesian f shells                    I                0
Highest angular momentum                   I                0
Largest degree of contraction              I                2
Shell types                                I   N=           4
           0           0           0           0
Number of primitives per shell             I   N=           4
           2           1           2           1
Shell to atom map                          I   N=           4
           1           1           2           2
Primitive exponents                        R   N=           6
  5.44717800E+00  8.24547240E-01  1.83191580E-01  5.44717800E+00  8.24547240E-01
  1.83191580E-01
Contraction coefficients                   R   N=           6
  1.56284979E-01  9.04690877E-01  1.00000000E+00  1.56284979E-01  9.04690877E-01
  1.00000000E+00
Coordinates of each shell                  R   N=          12
  0.00000000E+00  0.00000000E+00  0.00000000E+00  0.00000000E+00  0.00000000E+00
  0.00000000E+00  0.00000000E+00  0.00000000E+00  3.77945227E+00  0.00000000E+00
  0.00000000E+00  3.77945227E+00
Constraint Structure                       R   N=           6
  0.00000000E+00  0.00000000E+00  0.00000000E+00  0.00000000E+00  0.00000000E+00
  3.77945227E+00
Num ILSW                                   I              100
ILSW                                       I   N=         100
           1           1           0           0           2           0
           0           0           0           0           0          -1
           0           0           0           0           0           0
           0           0           0           0           0           0
           1           1           0           0           0           0
           0           0      100000           0          -1           0
           0           0           0           0           0           0
           0           0           0           1           0           0
           0           0           1           0           0           0
           0           0           4          40           0           0
           0           0           0           0           0           0
           0           0           0           0           0           0
           0           0           0           0           0           0
           0           0           0           0           0           0
           0           0           0           0           0           0
           0           0           0           0           0           0
           0           0           0           0
Num RLSW                                   I               40
RLSW                                       R   N=          40
  1.00000000E+00  1.00000000E+00  1.00000000E+00  1.00000000E+00  1.00000000E+00
  0.00000000E+00  0.00000000E+00  1.00000000E+00  0.00000000E+00  0.00000000E+00
  0.00000000E+00  0.00000000E+00  1.00000000E+00  0.00000000E+00  0.00000000E+00
  0.00000000E+00  0.00000000E+00  1.00000000E+00  0.00000000E+00  0.00000000E+00
  0.00000000E+00  0.00000000E+00  1.00000000E+00  0.00000000E+00  0.00000000E+00
  0.00000000E+00  0.00000000E+00  1.00000000E+00  0.00000000E+00  0.00000000E+00
  0.00000000E+00  0.00000000E+00  1.00000000E+00  0.00000000E+00  0.00000000E+00
  0.00000000E+00  0.00000000E+00  0.00000000E+00  1.00000000E+00  1.00000000E+00
MxBond                                     I                1
NBond                                      I   N=           2
           0           0
IBond                                      I   N=           2
           0           0
RBond                                      R   N=           2
  0.00000000E+00  0.00000000E+00
Virial Ratio                               R      1.995383054718128E+00
SCF Energy                                 R     -9.970114801801261E-01
Total Energy                               R     -9.970114801801261E-01
S**2                                       R      9.104811403679427E-01
RMS Density                                R      4.824236498691690E-05
External E-field                           R   N=          35
  0.00000000E+00  0.00000000E+00  0.00000000E+00  0.00000000E+00  0.00000000E+00
  0.00000000E+00  0.00000000E+00  0.00000000E+00  0.00000000E+00  0.00000000E+00
  0.00000000E+00  0.00000000E+00  0.00000000E+00  0.00000000E+00  0.00000000E+00
  0.00000000E+00  0.00000000E+00  0.00000000E+00  0.00000000E+00  0.00000000E+00
  0.00000000E+00  0.00000000E+00  0.00000000E+00  0.00000000E+00  0.00000000E+00
  0.00000000E+00  0.00000000E+00  0.00000000E+00  0.00000000E+00  0.00000000E+00
  0.00000000E+00  0.00000000E+00  0.00000000E+00  0.00000000E+00  0.00000000E+00
IOpCl                                      I                1
IROHF                                      I                0
Alpha Orbital Energies                     R   N=           4
 -4.94329894E-01  1.20176580E-01  1.09920061E+00  1.28176137E+00
Beta Orbital Energies                      R   N=           4
 -4.94329894E-01  1.20176580E-01  1.09920061E+00  1.28176137E+00
Alpha MO coefficients                      R   N=          16
  3.67072447E-01  7.08838203E-01  2.12253700E-02  4.67741701E-02 -8.39839903E-02
 -2.09185214E-01  1.71781158E-01  9.03026018E-01  1.25181403E+00 -1.11654915E+00
  1.65145312E-01  6.30638490E-02 -2.04302216E-01  3.36850282E-01  1.30128436E+00
 -1.04150819E+00
Beta MO coefficients                       R   N=          16
  2.12253700E-02  4.67741701E-02  3.67072447E-01  7.08838203E-01  1.71781158E-01
  9.03026018E-01 -8.39839903E-02 -2.09185214E-01  1.65145312E-01  6.30638490E-02
  1.25181403E+00 -1.11654915E+00  1.30128436E+00 -1.04150819E+00 -2.04302216E-01
  3.36850282E-01
Total SCF Density                          R   N=          10
  1.35192698E-01  2.61187773E-01  5.04639421E-01  1.55824971E-02  3.22148623E-02
  1.35192698E-01  3.22148623E-02  6.63106374E-02  2.61187773E-01  5.04639421E-01
Spin SCF Density                           R   N=          10
  1.34291665E-01  2.59202175E-01  5.00263775E-01  1.79543880E-16 -2.12415594E-03
 -1.34291665E-01  2.12415594E-03 -4.09394740E-16 -2.59202175E-01 -5.00263775E-01
Anisotropic Hyperfine tensors              R   N=          12
  1.73471372E-02  0.00000000E+00  1.73471372E-02  0.00000000E+00  0.00000000E+00
 -3.46942744E-02 -1.73471372E-02  0.00000000E+00 -1.73471372E-02  0.00000000E+00
  0.00000000E+00  3.46942744E-02
Isotropic Hyperfine splittings             R   N=           2
  2.41180877E-01 -2.41180877E-01
QEq coupling tensors                       R   N=          12
 -9.75795105E-04  0.00000000E+00 -9.75795105E-04  0.00000000E+00  0.00000000E+00
  1.95159021E-03 -9.75795105E-04  0.00000000E+00 -9.75795105E-04  0.00000000E+00
  0.00000000E+00  1.95159021E-03
Mulliken Charges                           R   N=           2
  9.74914593E-16  9.99200722E-16
ONIOM Charges                              I   N=          16
           0           0           0           0           0           0
           0           0           0           0           0           0
           0           0           0           0
ONIOM Multiplicities                       I   N=          16
           1           0           0           0           0           0
           0           0           0           0           0           0
           0           0           0           0
Atom Layers                                I   N=           2
           1           1
Atom Modifiers                             I   N=           2
           0           0
Force Field                                I                0
Int Atom Modified Types                    I   N=           2
           0           0
Link Atoms                                 I   N=           2
           0           0
Atom Modified MM Charges                   R   N=           2
  0.00000000E+00  0.00000000E+00
Link Distances                             R   N=           8
  0.00000000E+00  0.00000000E+00  0.00000000E+00  0.00000000E+00  0.00000000E+00
  0.00000000E+00  0.00000000E+00  0.00000000E+00
Cartesian Gradient                         R   N=           6
  0.00000000E+00  0.00000000E+00  0.00000000E+00  0.00000000E+00  0.00000000E+00
  0.00000000E+00
Dipole Moment                              R   N=           3
  0.00000000E+00  0.00000000E+00  3.99680289E-15
Quadrupole Moment                          R   N=           6
 -4.93729507E-02 -4.93729507E-02  9.87459015E-02  0.00000000E+00  0.00000000E+00
  0.00000000E+00
