 Entering Gaussian System, Link 0=g09
 Input=test.gjf
 Output=test.log
 Initial command:
 /share/home/srwang/g09/l1.exe /share/home/srwang/gauscr/Gau-101259.inp -scrdir=/share/home/srwang/gauscr/ -exedir=/share/home/srwang/g09m/exe-dir:/share/home/srwang/g09/bsd:/share/home/srwang/g09/local:/share/home/srwang/g09/extras:/share/home/srwang/g09
 Entering Link 1 = /share/home/srwang/g09/l1.exe PID=    101260.
  
 Copyright (c) 1988,1990,1992,1993,1995,1998,2003,2009,2011,
            Gaussian, Inc.  All Rights Reserved.
  
 This is part of the Gaussian(R) 09 program.  It is based on
 the Gaussian(R) 03 system (copyright 2003, Gaussian, Inc.),
 the Gaussian(R) 98 system (copyright 1998, Gaussian, Inc.),
 the Gaussian(R) 94 system (copyright 1995, Gaussian, Inc.),
 the Gaussian 92(TM) system (copyright 1992, Gaussian, Inc.),
 the Gaussian 90(TM) system (copyright 1990, Gaussian, Inc.),
 the Gaussian 88(TM) system (copyright 1988, Gaussian, Inc.),
 the Gaussian 86(TM) system (copyright 1986, Carnegie Mellon
 University), and the Gaussian 82(TM) system (copyright 1983,
 Carnegie Mellon University). Gaussian is a federally registered
 trademark of Gaussian, Inc.
  
 This software contains proprietary and confidential information,
 including trade secrets, belonging to Gaussian, Inc.
  
 This software is provided under written license and may be
 used, copied, transmitted, or stored only in accord with that
 written license.
  
 The following legend is applicable only to US Government
 contracts under FAR:
  
                    RESTRICTED RIGHTS LEGEND
  
 Use, reproduction and disclosure by the US Government is
 subject to restrictions as set forth in subparagraphs (a)
 and (c) of the Commercial Computer Software - Restricted
 Rights clause in FAR 52.227-19.
  
 Gaussian, Inc.
 340 Quinnipiac St., Bldg. 40, Wallingford CT 06492
  
  
 ---------------------------------------------------------------
 Warning -- This program may not be used in any manner that
 competes with the business of Gaussian, Inc. or will provide
 assistance to any competitor of Gaussian, Inc.  The licensee
 of this program is prohibited from giving any competitor of
 Gaussian, Inc. access to this program.  By using this program,
 the user acknowledges that Gaussian, Inc. is engaged in the
 business of creating and licensing software in the field of
 computational chemistry and represents and warrants to the
 licensee that it is not a competitor of Gaussian, Inc. and that
 it will not use this program in any manner prohibited above.
 ---------------------------------------------------------------
  

 Cite this work as:
 Gaussian 09, Revision C.01,
 M. J. Frisch, G. W. Trucks, H. B. Schlegel, G. E. Scuseria, 
 M. A. Robb, J. R. Cheeseman, G. Scalmani, V. Barone, B. Mennucci, 
 G. A. Petersson, H. Nakatsuji, M. Caricato, X. Li, H. P. Hratchian, 
 A. F. Izmaylov, J. Bloino, G. Zheng, J. L. Sonnenberg, M. Hada, 
 M. Ehara, K. Toyota, R. Fukuda, J. Hasegawa, M. Ishida, T. Nakajima, 
 Y. Honda, O. Kitao, H. Nakai, T. Vreven, J. A. Montgomery, Jr., 
 J. E. Peralta, F. Ogliaro, M. Bearpark, J. J. Heyd, E. Brothers, 
 K. N. Kudin, V. N. Staroverov, T. Keith, R. Kobayashi, J. Normand, 
 K. Raghavachari, A. Rendell, J. C. Burant, S. S. Iyengar, J. Tomasi, 
 M. Cossi, N. Rega, J. M. Millam, M. Klene, J. E. Knox, J. B. Cross, 
 V. Bakken, C. Adamo, J. Jaramillo, R. Gomperts, R. E. Stratmann, 
 O. Yazyev, A. J. Austin, R. Cammi, C. Pomelli, J. W. Ochterski, 
 R. L. Martin, K. Morokuma, V. G. Zakrzewski, G. A. Voth, 
 P. Salvador, J. J. Dannenberg, S. Dapprich, A. D. Daniels, 
 O. Farkas, J. B. Foresman, J. V. Ortiz, J. Cioslowski, 
 and D. J. Fox, Gaussian, Inc., Wallingford CT, 2010.
 
 ******************************************
 Gaussian 09:  EM64L-G09RevC.01 23-Sep-2011
                28-Oct-2020 
 ******************************************
 %subst l530 ../phf
 %nproc=1
 Will use up to    1 processors via shared memory.
 %mem=4GB
 %chk=test.chk
 ----------------------------------------------------------------------
 #p uhf/3-21g nosymm guess=mix scf=conver=4 extralink=l530 iop(5/206=9,
  5/207=4, 5/216=0) pop=none
 ----------------------------------------------------------------------
 1/38=1/1;
 2/12=2,15=1,17=6,18=5,40=1/2;
 3/5=5,11=2,16=1,25=1,30=1,116=2/1,2,3;
 4/13=-1/1;
 5/5=2,6=4,38=5,206=9,207=4/2,30;
 99/5=1,9=1/99;
 Leave Link    1 at Wed Oct 28 21:09:25 2020, MaxMem=  536870912 cpu:       0.0
 (Enter /share/home/srwang/g09/l101.exe)
 -----
 title
 -----
 Charge =  0 Multiplicity = 1
 Symbolic Z-Matrix:
 H                     0.        0.        0. 
 H                     0.        0.        2. 
 
 NAtoms=      2 NQM=        0 NQMF=       0 NMMI=      2 NMMIF=      0
                NMic=       0 NMicF=      0.
                    Isotopes and Nuclear Properties:
 (Nuclear quadrupole moments (NQMom) in fm**2, nuclear magnetic moments (NMagM)
  in nuclear magnetons)

  Atom         1           2
 IAtWgt=           1           1
 AtmWgt=   1.0078250   1.0078250
 NucSpn=           1           1
 AtZEff=   0.0000000   0.0000000
 NQMom=    0.0000000   0.0000000
 NMagM=    2.7928460   2.7928460
 Leave Link  101 at Wed Oct 28 21:09:25 2020, MaxMem=  536870912 cpu:       0.0
 (Enter /share/home/srwang/g09/l202.exe)
                          Input orientation:                          
 ---------------------------------------------------------------------
 Center     Atomic      Atomic             Coordinates (Angstroms)
 Number     Number       Type             X           Y           Z
 ---------------------------------------------------------------------
      1          1           0        0.000000    0.000000    0.000000
      2          1           0        0.000000    0.000000    2.000000
 ---------------------------------------------------------------------
 Symmetry turned off by external request.
 Stoichiometry    H2
 Framework group  D*H[C*(H.H)]
 Deg. of freedom     1
 Full point group                 D*H     NOp   8
 Rotational constants (GHZ):      0.0000000    250.7275501    250.7275501
 Leave Link  202 at Wed Oct 28 21:09:25 2020, MaxMem=  536870912 cpu:       0.0
 (Enter /share/home/srwang/g09/l301.exe)
 Standard basis: 3-21G (6D, 7F)
 Ernie: Thresh=  0.10000D-02 Tol=  0.10000D-05 Strict=F.
 Integral buffers will be    131072 words long.
 Raffenetti 2 integral format.
 Two-electron integral symmetry is turned off.
     4 basis functions,     6 primitive gaussians,     4 cartesian basis functions
     1 alpha electrons        1 beta electrons
       nuclear repulsion energy         0.2645886043 Hartrees.
 IExCor=    0 DFT=F Ex=HF Corr=None ExCW=0 ScaHFX=  1.000000
 ScaDFX=  1.000000  1.000000  1.000000  1.000000 ScalE2=  1.000000  1.000000
 IRadAn=      0 IRanWt=     -1 IRanGd=            0 ICorTp=0
 NAtoms=    2 NActive=    2 NUniq=    2 SFac= 1.00D+00 NAtFMM=   60 NAOKFM=F Big=F
 Leave Link  301 at Wed Oct 28 21:09:25 2020, MaxMem=  536870912 cpu:       0.0
 (Enter /share/home/srwang/g09m/exe-dir/l302.exe)
 NPDir=0 NMtPBC=     1 NCelOv=     1 NCel=       1 NClECP=     1 NCelD=      1
         NCelK=      1 NCelE2=     1 NClLst=     1 CellRange=     0.0.
 One-electron integrals computed using PRISM.
 SVDSVc:  NBasis=    4 NT=    4 NBlks=1 MaxCmp=1 NBF=    4
  
 jSVec:
                 1             2             3             4 
      1  -0.330600D+00  0.460127D+00 -0.856219D+00  0.834535D+00
      2  -0.397746D+00  0.364687D+00  0.711676D+00 -0.105294D+01
      3  -0.330600D+00 -0.460127D+00 -0.856219D+00 -0.834535D+00
      4  -0.397746D+00 -0.364687D+00  0.711676D+00  0.105294D+01
  
 jAA:
                 1             2             3             4 
      1  -0.330600D+00  0.460127D+00 -0.856219D+00  0.834535D+00
      2  -0.397746D+00  0.364687D+00  0.711676D+00 -0.105294D+01
      3  -0.330600D+00 -0.460127D+00 -0.856219D+00 -0.834535D+00
      4  -0.397746D+00 -0.364687D+00  0.711676D+00  0.105294D+01
 NBasis=     4 RedAO= T  NBF=     4
 NBsUse=     4 1.00D-06 NBFU=     4
 Leave Link  302 at Wed Oct 28 21:09:26 2020, MaxMem=  536870912 cpu:       0.0
 (Enter /share/home/srwang/g09/l303.exe)
 DipDrv:  MaxL=1.
 Leave Link  303 at Wed Oct 28 21:09:26 2020, MaxMem=  536870912 cpu:       0.0
 (Enter /share/home/srwang/g09/l401.exe)
 Harris functional with IExCor=  205 diagonalized for initial guess.
 ExpMin= 1.83D-01 ExpMax= 5.45D+00 ExpMxC= 5.45D+00 IAcc=1 IRadAn=         1 AccDes= 0.00D+00
 HarFok:  IExCor=  205 AccDes= 0.00D+00 IRadAn=         1 IDoV= 1
 ScaDFX=  1.000000  1.000000  1.000000  1.000000
 FoFCou: FMM=F IPFlag=           0 FMFlag=      100000 FMFlg1=           0
         NFxFlg=           0 DoJE=T BraDBF=F KetDBF=T FulRan=T
         Omega=  0.000000  0.000000  1.000000  0.000000  0.000000 ICntrl=     500 IOpCl=  0
         NMat0=    1 NMatS0=    1 NMatT0=    0 NMatD0=    1 NMtDS0=    0 NMtDT0=    0
         I1Cent=           4 NGrid=           0.
 Symmetry not used in FoFCou.
 Harris En=-0.998534334700695    
 Mixing orbitals, IMix= 1 IMixAn=  0 NRI=1 NE=    1 Coef=  7.07106781D-01  7.07106781D-01
 Mixing orbitals, IMix= 1 IMixAn=  0 NRI=1 NE=    1 Coef= -7.07106781D-01  7.07106781D-01
 Initial guess <Sx>= 0.0000 <Sy>= 0.0000 <Sz>= 0.0000 <S**2>= 1.0000 S= 0.6180
 Leave Link  401 at Wed Oct 28 21:09:26 2020, MaxMem=  536870912 cpu:       0.1
 (Enter /share/home/srwang/g09/l502.exe)
 UHF open shell SCF:
 Requested convergence on RMS density matrix=1.00D-04 within 128 cycles.
 Requested convergence on MAX density matrix=1.00D-02.
 Requested convergence on             energy=1.00D-02.
 No special actions if energy rises.
 Using DIIS extrapolation, IDIIS=  1040.
 Two-electron integral symmetry not used.
 Keep R1 and R2 ints in memory in canonical form, NReq=819856.
 IEnd=       19725 IEndB=       19725 NGot=   536870912 MDV=   536868152
 LenX=   536868152 LenY=   536867270
 Symmetry not used in FoFDir.
 MinBra= 0 MaxBra= 0 Meth= 1.
 IRaf=       0 NMat=   1 IRICut=       1 DoRegI=T DoRafI=F ISym2E= 0 JSym2E=0.

 Cycle   1  Pass 1  IDiag  1:
 E=-0.976252209587262    
 DIIS: error= 2.74D-02 at cycle   1 NSaved=   1.
 NSaved= 1 IEnMin= 1 EnMin=-0.976252209587262     IErMin= 1 ErrMin= 2.74D-02
 ErrMax= 2.74D-02 EMaxC= 1.00D-01 BMatC= 2.22D-02 BMatP= 2.22D-02
 IDIUse=3 WtCom= 7.26D-01 WtEn= 2.74D-01
 Coeff-Com:  0.100D+01
 Coeff-En:   0.100D+01
 Coeff:      0.100D+01
 Gap=     0.617 Goal=   None    Shift=    0.000
 Gap=     0.617 Goal=   None    Shift=    0.000
 GapD=    0.617 DampG=2.000 DampE=0.500 DampFc=1.0000 IDamp=-1.
 RMSDP=3.02D-02 MaxDP=6.52D-02              OVMax= 9.37D-02

 Cycle   2  Pass 1  IDiag  1:
 E=-0.994211662723095     Delta-E=       -0.017959453136 Rises=F Damp=F
 DIIS: error= 1.03D-02 at cycle   2 NSaved=   2.
 NSaved= 2 IEnMin= 2 EnMin=-0.994211662723095     IErMin= 2 ErrMin= 1.03D-02
 ErrMax= 1.03D-02 EMaxC= 1.00D-01 BMatC= 2.49D-03 BMatP= 2.22D-02
 IDIUse=3 WtCom= 8.97D-01 WtEn= 1.03D-01
 Coeff-Com: -0.469D+00 0.147D+01
 Coeff-En:   0.000D+00 0.100D+01
 Coeff:     -0.421D+00 0.142D+01
 Gap=     0.623 Goal=   None    Shift=    0.000
 Gap=     0.623 Goal=   None    Shift=    0.000
 RMSDP=1.49D-02 MaxDP=3.09D-02 DE=-1.80D-02 OVMax= 5.02D-02

 Cycle   3  Pass 1  IDiag  1:
 E=-0.996913990388707     Delta-E=       -0.002702327666 Rises=F Damp=F
 DIIS: error= 1.84D-03 at cycle   3 NSaved=   3.
 NSaved= 3 IEnMin= 3 EnMin=-0.996913990388707     IErMin= 3 ErrMin= 1.84D-03
 ErrMax= 1.84D-03 EMaxC= 1.00D-01 BMatC= 7.61D-05 BMatP= 2.49D-03
 IDIUse=3 WtCom= 9.82D-01 WtEn= 1.84D-02
 Coeff-Com:  0.321D+00-0.108D+01 0.176D+01
 Coeff-En:   0.000D+00 0.000D+00 0.100D+01
 Coeff:      0.315D+00-0.106D+01 0.175D+01
 Gap=     0.611 Goal=   None    Shift=    0.000
 Gap=     0.611 Goal=   None    Shift=    0.000
 RMSDP=2.91D-03 MaxDP=6.60D-03 DE=-2.70D-03 OVMax= 1.10D-02

 Cycle   4  Pass 1  IDiag  1:
 E=-0.997011007279650     Delta-E=       -0.000097016891 Rises=F Damp=F
 DIIS: error= 1.60D-04 at cycle   4 NSaved=   4.
 NSaved= 4 IEnMin= 4 EnMin=-0.997011007279650     IErMin= 4 ErrMin= 1.60D-04
 ErrMax= 1.60D-04 EMaxC= 1.00D-01 BMatC= 5.53D-07 BMatP= 7.61D-05
 IDIUse=3 WtCom= 9.98D-01 WtEn= 1.60D-03
 Coeff-Com: -0.360D-01 0.112D+00-0.185D+00 0.111D+01
 Coeff-En:   0.000D+00 0.000D+00 0.000D+00 0.100D+01
 Coeff:     -0.359D-01 0.112D+00-0.185D+00 0.111D+01
 Gap=     0.615 Goal=   None    Shift=    0.000
 Gap=     0.615 Goal=   None    Shift=    0.000
 RMSDP=1.48D-04 MaxDP=2.67D-04 DE=-9.70D-05 OVMax= 6.23D-04

 Cycle   5  Pass 1  IDiag  1:
 E=-0.997011480180126     Delta-E=       -0.000000472900 Rises=F Damp=F
 DIIS: error= 2.63D-05 at cycle   5 NSaved=   5.
 NSaved= 5 IEnMin= 5 EnMin=-0.997011480180126     IErMin= 5 ErrMin= 2.63D-05
 ErrMax= 2.63D-05 EMaxC= 1.00D-01 BMatC= 3.34D-08 BMatP= 5.53D-07
 IDIUse=1 WtCom= 1.00D+00 WtEn= 0.00D+00
 Coeff-Com: -0.522D-03 0.430D-02-0.242D-01-0.922D-01 0.111D+01
 Coeff:     -0.522D-03 0.430D-02-0.242D-01-0.922D-01 0.111D+01
 Gap=     0.615 Goal=   None    Shift=    0.000
 Gap=     0.615 Goal=   None    Shift=    0.000
 RMSDP=4.82D-05 MaxDP=8.44D-05 DE=-4.73D-07 OVMax= 1.67D-04

 SCF Done:  E(UHF) = -0.997011480180     A.U. after    5 cycles
             Convg  =    0.4824D-04             -V/T =  1.9954
 <Sx>= 0.0000 <Sy>= 0.0000 <Sz>= 0.0000 <S**2>= 0.9105 S= 0.5773
 <L.S>= 0.000000000000E+00
 KE= 1.001635978686D+00 PE=-2.536147924251D+00 EE= 2.729118610899D-01
 Annihilation of the first spin contaminant:
 S**2 before annihilation     0.9105,   after     0.0000
 Leave Link  502 at Wed Oct 28 21:09:26 2020, MaxMem=  536870912 cpu:       0.0
  
  +-------------------------------------------+
  |                                           |
  |  LINK 530 - Projected Hartree-Fock (PHF)  |
  |     Self-Consistent Field (SCF) Code      |
  |                                           |
  |                                           |
  |         the Scuseria group, v0.2, 07.2011 |
  +-------------------------------------------+
  
 (Enter ../phf/l530.exe)

 PHF SCF was invoked with the following options:

   method selection:
 iprint =  9
 iphf   =  4, [ UHF + spin projection ]

   general options:
 maxcyc =    512, S      =      0
 ngrda  =      1, ngrdb  =      8, ngrdg  =      1

   accuracy requested:
 conv criterion (RMSDP, RMSDK) =     1.0000E-08
 requested integral accuracy   =     1.0000E-10

   use of symmetry:
 two-electron integral symmetry not used

   strategy options:
 level shifting is turned off
 istrat =      1, continue as usual if energy rises
 modified PHF effective Fock matrix used

   initial guess options:
 igues1 =  1, read GDV guess


 PHF SCF - preparing initial guess

  
 Transform Matrix:
                 1             2             3             4 
      1  -0.330600275286925D+00  0.460127160625296D+00 -0.856218573175729D+00  0.834535476547395D+00
      2  -0.397745517005731D+00  0.364686548034766D+00  0.711676395823702D+00 -0.105293831465433D+01
      3  -0.330600275286925D+00 -0.460127160625296D+00 -0.856218573175730D+00 -0.834535476547393D+00
      4  -0.397745517005731D+00 -0.364686548034765D+00  0.711676395823705D+00  0.105293831465433D+01
  
 MO coefficients (alpha):
                 1             2             3             4 
      1   0.367072447371750D+00 -0.839839903456212D-01  0.125181402972376D+01 -0.204302215761480D+00
      2   0.708838202914969D+00 -0.209185213775787D+00 -0.111654914702688D+01  0.336850281512115D+00
      3   0.212253700418454D-01  0.171781157968597D+00  0.165145312383923D+00  0.130128436395099D+01
      4   0.467741701144758D-01  0.903026018242807D+00  0.630638489508017D-01 -0.104150818518029D+01
 MO coefficients (beta):
                 1             2             3             4 
      1   0.212253700418450D-01  0.171781157968597D+00  0.165145312383915D+00  0.130128436395099D+01
      2   0.467741701144763D-01  0.903026018242808D+00  0.630638489508093D-01 -0.104150818518029D+01
      3   0.367072447371750D+00 -0.839839903456213D-01  0.125181402972376D+01 -0.204302215761472D+00
      4   0.708838202914969D+00 -0.209185213775787D+00 -0.111654914702688D+01  0.336850281512106D+00
 After transformation 
  
 MO coefficients (alpha, real):
                 1             2             3             4 
      1  -0.801712046177638D+00 -0.570093596192015D+00 -0.923896383330209D-01 -0.153997536743980D+00
      2   0.581032848187706D+00 -0.759026404402410D+00  0.101267928336856D+00 -0.275725503784457D+00
      3   0.828028224118209D-01  0.168852347470900D+00 -0.791778702805770D+00 -0.581136010876469D+00
      4  -0.113147324056658D+00  0.265256656380895D+00  0.595227223169664D+00 -0.750027427566604D+00
 MO coefficients (alpha, imaginary):
                 1             2             3             4 
      1   0.000000000000000D+00  0.000000000000000D+00  0.000000000000000D+00  0.000000000000000D+00
      2   0.000000000000000D+00  0.000000000000000D+00  0.000000000000000D+00  0.000000000000000D+00
      3   0.000000000000000D+00  0.000000000000000D+00  0.000000000000000D+00  0.000000000000000D+00
      4   0.000000000000000D+00  0.000000000000000D+00  0.000000000000000D+00  0.000000000000000D+00
 MO coefficients (beta, real):
                 1             2             3             4 
      1  -0.801712046177638D+00 -0.570093596192015D+00 -0.923896383330200D-01 -0.153997536743980D+00
      2  -0.581032848187706D+00  0.759026404402410D+00 -0.101267928336857D+00  0.275725503784457D+00
      3   0.828028224118231D-01  0.168852347470898D+00 -0.791778702805767D+00 -0.581136010876474D+00
      4   0.113147324056657D+00 -0.265256656380896D+00 -0.595227223169667D+00  0.750027427566601D+00
 MO coefficients (beta, imaginary):
                 1             2             3             4 
      1   0.000000000000000D+00  0.000000000000000D+00  0.000000000000000D+00  0.000000000000000D+00
      2   0.000000000000000D+00  0.000000000000000D+00  0.000000000000000D+00  0.000000000000000D+00
      3   0.000000000000000D+00  0.000000000000000D+00  0.000000000000000D+00  0.000000000000000D+00
      4   0.000000000000000D+00  0.000000000000000D+00  0.000000000000000D+00  0.000000000000000D+00
  
 Overlap Matrix:
                 1             2             3             4 
      1   0.100000000000000D+01  0.645898123394977D+00  0.227255767689429D-02  0.746565421283527D-01
      2   0.645898123394977D+00  0.100000000000000D+01  0.746565421283527D-01  0.270258052347429D+00
      3   0.227255767689429D-02  0.746565421283527D-01  0.100000000000000D+01  0.645898123394977D+00
      4   0.746565421283527D-01  0.270258052347429D+00  0.645898123394977D+00  0.100000000000000D+01
  
 Transform Matrix:
                 1             2             3             4 
      1  -0.330600275286925D+00  0.460127160625296D+00 -0.856218573175729D+00  0.834535476547395D+00
      2  -0.397745517005731D+00  0.364686548034766D+00  0.711676395823702D+00 -0.105293831465433D+01
      3  -0.330600275286925D+00 -0.460127160625296D+00 -0.856218573175730D+00 -0.834535476547393D+00
      4  -0.397745517005731D+00 -0.364686548034765D+00  0.711676395823705D+00  0.105293831465433D+01
  
 S^(1/2) Matrix:
                 1             2             3             4 
      1  -0.617948971449980D+00 -0.743455016542912D+00 -0.617948971449980D+00 -0.743455016542912D+00
      2   0.667405615480115D+00  0.528970838664899D+00 -0.667405615480115D+00 -0.528970838664898D+00
      3  -0.345362631913702D+00  0.287060384851154D+00 -0.345362631913701D+00  0.287060384851156D+00
      4   0.231156798704173D+00 -0.291651891247836D+00 -0.231156798704172D+00  0.291651891247835D+00
  
 density matrix (alpha, real):
                1             2             3             4 
      1   0.642742204986335D+00
      2  -0.465821033616987D+00  0.337599170673118D+00
      3  -0.663840201850645D-01  0.481111597439211D-01  0.685630739936355D-02
      4   0.907115726889875D-01 -0.657423119614573D-01 -0.936891778023619D-02  0.128023169411824D-01
 density matrix (alpha, imaginary):
                1             2             3             4 
      1   0.000000000000000D+00
      2  -0.000000000000000D+00  0.000000000000000D+00
      3  -0.000000000000000D+00 -0.000000000000000D+00  0.000000000000000D+00
      4  -0.000000000000000D+00 -0.000000000000000D+00 -0.000000000000000D+00  0.000000000000000D+00
 density matrix (beta, real):
                1             2             3             4 
      1   0.642742204986336D+00
      2   0.465821033616987D+00  0.337599170673117D+00
      3  -0.663840201850663D-01 -0.481111597439224D-01  0.685630739936392D-02
      4  -0.907115726889871D-01 -0.657423119614569D-01  0.936891778023640D-02  0.128023169411822D-01
 density matrix (beta, imaginary):
                1             2             3             4 
      1   0.000000000000000D+00
      2  -0.000000000000000D+00  0.000000000000000D+00
      3  -0.000000000000000D+00 -0.000000000000000D+00  0.000000000000000D+00
      4  -0.000000000000000D+00 -0.000000000000000D+00 -0.000000000000000D+00  0.000000000000000D+00

 PHF SCF - starting SCF procedure

beta in GauLeg
grd=    0.0624    0.3194    0.7453    1.2827    1.8589    2.3963    2.8222    3.0792
wgt=    0.0099    0.1097    0.3342    0.5462    0.5462    0.3342    0.1097    0.0099
WigArr: s=    0, sz=    0, isint=    T, ncis=                       1, dind=    0.0000
dmt=    1.0000    1.0000    1.0000    1.0000    1.0000    1.0000    1.0000    1.0000
  
 HF density matrix (alpha, real):
                1             2             3             4 
      1   0.642742204986335D+00
      2  -0.465821033616987D+00  0.337599170673118D+00
      3  -0.663840201850645D-01  0.481111597439211D-01  0.685630739936355D-02
      4   0.907115726889875D-01 -0.657423119614573D-01 -0.936891778023619D-02  0.128023169411824D-01
 HF density matrix (alpha, imaginary):
                1             2             3             4 
      1   0.000000000000000D+00
      2  -0.000000000000000D+00  0.000000000000000D+00
      3  -0.000000000000000D+00 -0.000000000000000D+00  0.000000000000000D+00
      4  -0.000000000000000D+00 -0.000000000000000D+00 -0.000000000000000D+00  0.000000000000000D+00
 HF density matrix (beta, real):
                1             2             3             4 
      1   0.642742204986336D+00
      2   0.465821033616987D+00  0.337599170673117D+00
      3  -0.663840201850663D-01 -0.481111597439224D-01  0.685630739936392D-02
      4  -0.907115726889871D-01 -0.657423119614569D-01  0.936891778023640D-02  0.128023169411822D-01
 HF density matrix (beta, imaginary):
                1             2             3             4 
      1   0.000000000000000D+00
      2  -0.000000000000000D+00  0.000000000000000D+00
      3  -0.000000000000000D+00 -0.000000000000000D+00  0.000000000000000D+00
      4  -0.000000000000000D+00 -0.000000000000000D+00 -0.000000000000000D+00  0.000000000000000D+00
 
Start hffock
  
 Core Hamiltonian (real):
                 1             2             3             4 
      1  -0.796723338707556D+00  0.000000000000000D+00  0.103743642994694D+00  0.000000000000000D+00
      2   0.000000000000000D+00 -0.658935382448062D+00  0.000000000000000D+00  0.196745567553556D+00
      3   0.103743642994694D+00  0.000000000000000D+00  0.306544663647526D+00  0.000000000000000D+00
      4   0.000000000000000D+00  0.196745567553556D+00  0.000000000000000D+00  0.376081196492739D+00
 Core Hamiltonian (imaginary):
                 1             2             3             4 
      1   0.000000000000000D+00  0.000000000000000D+00  0.000000000000000D+00  0.000000000000000D+00
      2   0.000000000000000D+00  0.000000000000000D+00  0.000000000000000D+00  0.000000000000000D+00
      3   0.000000000000000D+00  0.000000000000000D+00  0.000000000000000D+00  0.000000000000000D+00
      4   0.000000000000000D+00  0.000000000000000D+00  0.000000000000000D+00  0.000000000000000D+00

 Symmetry not used in FoFDir.
 MinBra= 0 MaxBra= 0 Meth= 1.
 IRaf=       1 NMat=   2 IRICut=       1 DoRegI=T DoRafI=F ISym2E= 0 JSym2E=0.
 PrsmSu:  NPrtUS=   1 ThrOK=F IAlg=1 NPAlg=1 LenDen=           0.
 Prism:   IPart=     0 DynPar=F LinDyn=F Incr=           1.
 PRISM was handed   536868987 working-precision words and    10 shell-pairs
 IPart=  0 NShTot=          55 NBatch=          10 AvBLen=         5.5
 PrSmSu:  NxtVal=              2.
  
 HF Fock matrix (alpha, real):
                1             2             3             4 
      1  -0.238888080461306D+00
      2   0.326412693788403D+00  0.110686186837107D-01
      3   0.216365340928224D+00  0.780608748051112D-01  0.112201599724607D+01
      4   0.245836079072992D-01  0.339629819366481D+00  0.506525392136086D-01  0.111261248350859D+01
 HF Fock matrix (alpha, imaginary):
                1             2             3             4 
      1   0.000000000000000D+00
      2  -0.000000000000000D+00  0.000000000000000D+00
      3  -0.000000000000000D+00 -0.000000000000000D+00  0.000000000000000D+00
      4  -0.000000000000000D+00 -0.000000000000000D+00 -0.000000000000000D+00  0.000000000000000D+00
 HF Fock matrix (beta, real):
                1             2             3             4 
      1  -0.238888080461306D+00
      2  -0.326412693788403D+00  0.110686186837111D-01
      3   0.216365340928225D+00 -0.780608748051099D-01  0.112201599724607D+01
      4  -0.245836079073000D-01  0.339629819366481D+00 -0.506525392136101D-01  0.111261248350859D+01
 HF Fock matrix (beta, imaginary):
                1             2             3             4 
      1   0.000000000000000D+00
      2  -0.000000000000000D+00  0.000000000000000D+00
      3  -0.000000000000000D+00 -0.000000000000000D+00  0.000000000000000D+00
      4  -0.000000000000000D+00 -0.000000000000000D+00 -0.000000000000000D+00  0.000000000000000D+00
 
Start hfdmdg: find NO basis
  
 dm to be diaged (alpha, real):
                1             2             3             4 
      1  -0.642742204986335D+00
      2   0.465821033616987D+00 -0.337599170673118D+00
      3   0.663840201850645D-01 -0.481111597439211D-01 -0.685630739936355D-02
      4  -0.907115726889875D-01  0.657423119614573D-01  0.936891778023619D-02 -0.128023169411824D-01
 dm to be diaged (alpha, imaginary):
                1             2             3             4 
      1   0.000000000000000D+00
      2  -0.000000000000000D+00  0.000000000000000D+00
      3  -0.000000000000000D+00 -0.000000000000000D+00  0.000000000000000D+00
      4  -0.000000000000000D+00 -0.000000000000000D+00 -0.000000000000000D+00  0.000000000000000D+00
 dm to be diaged (beta, real):
                1             2             3             4 
      1  -0.642742204986336D+00
      2  -0.465821033616987D+00 -0.337599170673117D+00
      3   0.663840201850663D-01  0.481111597439224D-01 -0.685630739936392D-02
      4   0.907115726889871D-01  0.657423119614569D-01 -0.936891778023640D-02 -0.128023169411822D-01
 dm to be diaged (beta, imaginary):
                1             2             3             4 
      1   0.000000000000000D+00
      2  -0.000000000000000D+00  0.000000000000000D+00
      3  -0.000000000000000D+00 -0.000000000000000D+00  0.000000000000000D+00
      4  -0.000000000000000D+00 -0.000000000000000D+00 -0.000000000000000D+00  0.000000000000000D+00
  
 eigenvectors (alpha, real):
                 1             2             3             4 
      1  -0.801712046177638D+00  0.199518301779370D+00  0.367503663871608D+00  0.427072943780901D+00
      2   0.581032848187706D+00  0.328182094833752D+00  0.294283903756753D+00  0.684174192692985D+00
      3   0.828028224118210D-01  0.594372279975925D+00  0.541812699322313D+00 -0.588476239324856D+00
      4  -0.113147324056658D+00  0.706548337116313D+00 -0.696259319423230D+00  0.566576604996328D-01
 eigenvectors (alpha, imaginary):
                 1             2             3             4 
      1   0.000000000000000D+00  0.000000000000000D+00  0.000000000000000D+00  0.000000000000000D+00
      2   0.000000000000000D+00  0.000000000000000D+00  0.000000000000000D+00  0.000000000000000D+00
      3   0.000000000000000D+00  0.000000000000000D+00  0.000000000000000D+00  0.000000000000000D+00
      4   0.000000000000000D+00  0.000000000000000D+00  0.000000000000000D+00  0.000000000000000D+00
 eigenvectors (beta, real):
                 1             2             3             4 
      1   0.801712046177639D+00  0.482062876535380D-01  0.707097444273808D-01  0.591552263867989D+00
      2   0.581032848187706D+00 -0.961668503229849D-01 -0.322420103918600D+00 -0.741078972050185D+00
      3  -0.828028224118233D-01 -0.868722183082266D+00 -0.428487018406482D+00  0.234231373386534D+00
      4  -0.113147324056657D+00  0.483476844688971D+00 -0.841097071502010D+00  0.214484358448716D+00
 eigenvectors (beta, imaginary):
                 1             2             3             4 
      1   0.000000000000000D+00  0.000000000000000D+00  0.000000000000000D+00  0.000000000000000D+00
      2   0.000000000000000D+00  0.000000000000000D+00  0.000000000000000D+00  0.000000000000000D+00
      3   0.000000000000000D+00  0.000000000000000D+00  0.000000000000000D+00  0.000000000000000D+00
      4   0.000000000000000D+00  0.000000000000000D+00  0.000000000000000D+00  0.000000000000000D+00
eigenvalues  -0.999999999999999E+00 -0.123744591857839E-15 -0.986587675686960E-16  0.358754501504006E-18
eigenvalues  -0.999999999999999E+00 -0.401326252541150E-16  0.113914250802766E-16  0.287412001738385E-16
  
 expanded eigenvectors (real):
                 1             2             3             4             5 
      1  -0.801712046177638D+00  0.000000000000000D+00  0.199518301779370D+00  0.367503663871608D+00  0.427072943780901D+00
      2   0.581032848187706D+00  0.000000000000000D+00  0.328182094833752D+00  0.294283903756753D+00  0.684174192692985D+00
      3   0.828028224118210D-01  0.000000000000000D+00  0.594372279975925D+00  0.541812699322313D+00 -0.588476239324856D+00
      4  -0.113147324056658D+00  0.000000000000000D+00  0.706548337116313D+00 -0.696259319423230D+00  0.566576604996328D-01
      5   0.000000000000000D+00  0.801712046177639D+00  0.000000000000000D+00  0.000000000000000D+00  0.000000000000000D+00
      6   0.000000000000000D+00  0.581032848187706D+00  0.000000000000000D+00  0.000000000000000D+00  0.000000000000000D+00
      7   0.000000000000000D+00 -0.828028224118233D-01  0.000000000000000D+00  0.000000000000000D+00  0.000000000000000D+00
      8   0.000000000000000D+00 -0.113147324056657D+00  0.000000000000000D+00  0.000000000000000D+00  0.000000000000000D+00
                 6             7             8 
      1   0.000000000000000D+00  0.000000000000000D+00  0.000000000000000D+00
      2   0.000000000000000D+00  0.000000000000000D+00  0.000000000000000D+00
      3   0.000000000000000D+00  0.000000000000000D+00  0.000000000000000D+00
      4   0.000000000000000D+00  0.000000000000000D+00  0.000000000000000D+00
      5   0.482062876535380D-01  0.707097444273808D-01  0.591552263867989D+00
      6  -0.961668503229849D-01 -0.322420103918600D+00 -0.741078972050185D+00
      7  -0.868722183082266D+00 -0.428487018406482D+00  0.234231373386534D+00
      8   0.483476844688971D+00 -0.841097071502010D+00  0.214484358448716D+00
 expanded eigenvectors (imaginary):
                 1             2             3             4             5 
      1   0.000000000000000D+00  0.000000000000000D+00  0.000000000000000D+00  0.000000000000000D+00  0.000000000000000D+00
      2   0.000000000000000D+00  0.000000000000000D+00  0.000000000000000D+00  0.000000000000000D+00  0.000000000000000D+00
      3   0.000000000000000D+00  0.000000000000000D+00  0.000000000000000D+00  0.000000000000000D+00  0.000000000000000D+00
      4   0.000000000000000D+00  0.000000000000000D+00  0.000000000000000D+00  0.000000000000000D+00  0.000000000000000D+00
      5   0.000000000000000D+00  0.000000000000000D+00  0.000000000000000D+00  0.000000000000000D+00  0.000000000000000D+00
      6   0.000000000000000D+00  0.000000000000000D+00  0.000000000000000D+00  0.000000000000000D+00  0.000000000000000D+00
      7   0.000000000000000D+00  0.000000000000000D+00  0.000000000000000D+00  0.000000000000000D+00  0.000000000000000D+00
      8   0.000000000000000D+00  0.000000000000000D+00  0.000000000000000D+00  0.000000000000000D+00  0.000000000000000D+00
                 6             7             8 
      1   0.000000000000000D+00  0.000000000000000D+00  0.000000000000000D+00
      2   0.000000000000000D+00  0.000000000000000D+00  0.000000000000000D+00
      3   0.000000000000000D+00  0.000000000000000D+00  0.000000000000000D+00
      4   0.000000000000000D+00  0.000000000000000D+00  0.000000000000000D+00
      5   0.000000000000000D+00  0.000000000000000D+00  0.000000000000000D+00
      6   0.000000000000000D+00  0.000000000000000D+00  0.000000000000000D+00
      7   0.000000000000000D+00  0.000000000000000D+00  0.000000000000000D+00
      8   0.000000000000000D+00  0.000000000000000D+00  0.000000000000000D+00
  
 expanded density matrix P (real):
                 1             2             3             4             5 
      1   0.642742204986335D+00 -0.465821033616987D+00 -0.663840201850645D-01  0.907115726889875D-01  0.000000000000000D+00
      2  -0.465821033616987D+00  0.337599170673118D+00  0.481111597439211D-01 -0.657423119614573D-01  0.000000000000000D+00
      3  -0.663840201850645D-01  0.481111597439211D-01  0.685630739936355D-02 -0.936891778023619D-02  0.000000000000000D+00
      4   0.907115726889875D-01 -0.657423119614573D-01 -0.936891778023619D-02  0.128023169411824D-01  0.000000000000000D+00
      5   0.000000000000000D+00  0.000000000000000D+00  0.000000000000000D+00  0.000000000000000D+00  0.642742204986336D+00
      6   0.000000000000000D+00  0.000000000000000D+00  0.000000000000000D+00  0.000000000000000D+00  0.465821033616987D+00
      7   0.000000000000000D+00  0.000000000000000D+00  0.000000000000000D+00  0.000000000000000D+00 -0.663840201850663D-01
      8   0.000000000000000D+00  0.000000000000000D+00  0.000000000000000D+00  0.000000000000000D+00 -0.907115726889871D-01
                 6             7             8 
      1   0.000000000000000D+00  0.000000000000000D+00  0.000000000000000D+00
      2   0.000000000000000D+00  0.000000000000000D+00  0.000000000000000D+00
      3   0.000000000000000D+00  0.000000000000000D+00  0.000000000000000D+00
      4   0.000000000000000D+00  0.000000000000000D+00  0.000000000000000D+00
      5   0.465821033616987D+00 -0.663840201850663D-01 -0.907115726889871D-01
      6   0.337599170673117D+00 -0.481111597439224D-01 -0.657423119614569D-01
      7  -0.481111597439224D-01  0.685630739936392D-02  0.936891778023640D-02
      8  -0.657423119614569D-01  0.936891778023640D-02  0.128023169411822D-01
 expanded density matrix P (imaginary):
                 1             2             3             4             5 
      1   0.000000000000000D+00  0.000000000000000D+00  0.000000000000000D+00  0.000000000000000D+00  0.000000000000000D+00
      2   0.000000000000000D+00  0.000000000000000D+00  0.000000000000000D+00  0.000000000000000D+00  0.000000000000000D+00
      3   0.000000000000000D+00  0.000000000000000D+00  0.000000000000000D+00  0.000000000000000D+00  0.000000000000000D+00
      4   0.000000000000000D+00  0.000000000000000D+00  0.000000000000000D+00  0.000000000000000D+00  0.000000000000000D+00
      5   0.000000000000000D+00  0.000000000000000D+00  0.000000000000000D+00  0.000000000000000D+00  0.000000000000000D+00
      6   0.000000000000000D+00  0.000000000000000D+00  0.000000000000000D+00  0.000000000000000D+00  0.000000000000000D+00
      7   0.000000000000000D+00  0.000000000000000D+00  0.000000000000000D+00  0.000000000000000D+00  0.000000000000000D+00
      8   0.000000000000000D+00  0.000000000000000D+00  0.000000000000000D+00  0.000000000000000D+00  0.000000000000000D+00
                 6             7             8 
      1   0.000000000000000D+00  0.000000000000000D+00  0.000000000000000D+00
      2   0.000000000000000D+00  0.000000000000000D+00  0.000000000000000D+00
      3   0.000000000000000D+00  0.000000000000000D+00  0.000000000000000D+00
      4   0.000000000000000D+00  0.000000000000000D+00  0.000000000000000D+00
      5   0.000000000000000D+00  0.000000000000000D+00  0.000000000000000D+00
      6   0.000000000000000D+00  0.000000000000000D+00  0.000000000000000D+00
      7   0.000000000000000D+00  0.000000000000000D+00  0.000000000000000D+00
      8   0.000000000000000D+00  0.000000000000000D+00  0.000000000000000D+00
  
 density matrix (NO) (real):
                 1             2             3             4             5 
      1   0.999999999999999D+00  0.000000000000000D+00  0.000000000000000D+00  0.000000000000000D+00  0.000000000000000D+00
      2   0.000000000000000D+00  0.999999999999999D+00  0.000000000000000D+00  0.000000000000000D+00  0.000000000000000D+00
      3   0.000000000000000D+00  0.000000000000000D+00  0.000000000000000D+00  0.000000000000000D+00  0.000000000000000D+00
      4   0.000000000000000D+00  0.000000000000000D+00  0.000000000000000D+00  0.000000000000000D+00  0.000000000000000D+00
      5   0.000000000000000D+00  0.000000000000000D+00  0.000000000000000D+00  0.000000000000000D+00  0.000000000000000D+00
      6   0.000000000000000D+00  0.000000000000000D+00  0.000000000000000D+00  0.000000000000000D+00  0.000000000000000D+00
      7   0.000000000000000D+00  0.000000000000000D+00  0.000000000000000D+00  0.000000000000000D+00  0.000000000000000D+00
      8   0.000000000000000D+00  0.000000000000000D+00  0.000000000000000D+00  0.000000000000000D+00  0.000000000000000D+00
                 6             7             8 
      1   0.000000000000000D+00  0.000000000000000D+00  0.000000000000000D+00
      2   0.000000000000000D+00  0.000000000000000D+00  0.000000000000000D+00
      3   0.000000000000000D+00  0.000000000000000D+00  0.000000000000000D+00
      4   0.000000000000000D+00  0.000000000000000D+00  0.000000000000000D+00
      5   0.000000000000000D+00  0.000000000000000D+00  0.000000000000000D+00
      6   0.000000000000000D+00  0.000000000000000D+00  0.000000000000000D+00
      7   0.000000000000000D+00  0.000000000000000D+00  0.000000000000000D+00
      8   0.000000000000000D+00  0.000000000000000D+00  0.000000000000000D+00
 density matrix (NO) (imaginary):
                 1             2             3             4             5 
      1   0.000000000000000D+00  0.000000000000000D+00  0.000000000000000D+00  0.000000000000000D+00  0.000000000000000D+00
      2   0.000000000000000D+00  0.000000000000000D+00  0.000000000000000D+00  0.000000000000000D+00  0.000000000000000D+00
      3   0.000000000000000D+00  0.000000000000000D+00  0.000000000000000D+00  0.000000000000000D+00  0.000000000000000D+00
      4   0.000000000000000D+00  0.000000000000000D+00  0.000000000000000D+00  0.000000000000000D+00  0.000000000000000D+00
      5   0.000000000000000D+00  0.000000000000000D+00  0.000000000000000D+00  0.000000000000000D+00  0.000000000000000D+00
      6   0.000000000000000D+00  0.000000000000000D+00  0.000000000000000D+00  0.000000000000000D+00  0.000000000000000D+00
      7   0.000000000000000D+00  0.000000000000000D+00  0.000000000000000D+00  0.000000000000000D+00  0.000000000000000D+00
      8   0.000000000000000D+00  0.000000000000000D+00  0.000000000000000D+00  0.000000000000000D+00  0.000000000000000D+00
                 6             7             8 
      1   0.000000000000000D+00  0.000000000000000D+00  0.000000000000000D+00
      2   0.000000000000000D+00  0.000000000000000D+00  0.000000000000000D+00
      3   0.000000000000000D+00  0.000000000000000D+00  0.000000000000000D+00
      4   0.000000000000000D+00  0.000000000000000D+00  0.000000000000000D+00
      5   0.000000000000000D+00  0.000000000000000D+00  0.000000000000000D+00
      6   0.000000000000000D+00  0.000000000000000D+00  0.000000000000000D+00
      7   0.000000000000000D+00  0.000000000000000D+00  0.000000000000000D+00
      8   0.000000000000000D+00  0.000000000000000D+00  0.000000000000000D+00
 
Start formng/pg
igrda/b/g:   1   1   1,  Alpha=    0.0000, Beta=    0.0624, Gamma=    0.0000
  
 D(g) (NO) (real):
                 1             2             3             4             5 
      1   0.999513685211590D+00  0.932992599999729D-02  0.000000000000000D+00  0.000000000000000D+00  0.000000000000000D+00
      2  -0.932992599999729D-02  0.999513685211590D+00  0.690649174337839D-02  0.155771706912235D-01  0.243925742929340D-01
      3   0.000000000000000D+00 -0.690649174337839D-02  0.999513685211590D+00  0.000000000000000D+00  0.000000000000000D+00
      4   0.000000000000000D+00 -0.155771706912235D-01  0.000000000000000D+00  0.999513685211590D+00  0.000000000000000D+00
      5   0.000000000000000D+00 -0.243925742929340D-01  0.000000000000000D+00  0.000000000000000D+00  0.999513685211589D+00
      6  -0.689649356430264D-02  0.000000000000000D+00 -0.613332813233311D-02 -0.255045773294609D-01  0.153860414834619D-01
      7  -0.574823881190725D-02  0.000000000000000D+00 -0.293328418731809D-01  0.887365269045343D-02  0.439887349275064D-03
      8  -0.283679693080063D-01  0.000000000000000D+00  0.516334389803138D-02 -0.720868349869279D-03 -0.118520724221306D-01
                 6             7             8 
      1   0.689649356430264D-02  0.574823881190725D-02  0.283679693080063D-01
      2   0.000000000000000D+00  0.000000000000000D+00  0.000000000000000D+00
      3   0.613332813233311D-02  0.293328418731809D-01 -0.516334389803138D-02
      4   0.255045773294609D-01 -0.887365269045343D-02  0.720868349869279D-03
      5  -0.153860414834619D-01 -0.439887349275064D-03  0.118520724221306D-01
      6   0.999513685211590D+00  0.000000000000000D+00  0.000000000000000D+00
      7   0.000000000000000D+00  0.999513685211590D+00  0.000000000000000D+00
      8   0.000000000000000D+00  0.000000000000000D+00  0.999513685211590D+00
 D(g) (NO) (imaginary):
                 1             2             3             4             5 
      1   0.000000000000000D+00  0.000000000000000D+00  0.000000000000000D+00  0.000000000000000D+00  0.000000000000000D+00
      2   0.000000000000000D+00  0.000000000000000D+00  0.000000000000000D+00  0.000000000000000D+00  0.000000000000000D+00
      3   0.000000000000000D+00  0.000000000000000D+00  0.000000000000000D+00  0.000000000000000D+00  0.000000000000000D+00
      4   0.000000000000000D+00  0.000000000000000D+00  0.000000000000000D+00  0.000000000000000D+00  0.000000000000000D+00
      5   0.000000000000000D+00  0.000000000000000D+00  0.000000000000000D+00  0.000000000000000D+00  0.000000000000000D+00
      6   0.000000000000000D+00  0.000000000000000D+00  0.000000000000000D+00  0.000000000000000D+00  0.000000000000000D+00
      7   0.000000000000000D+00  0.000000000000000D+00  0.000000000000000D+00  0.000000000000000D+00  0.000000000000000D+00
      8   0.000000000000000D+00  0.000000000000000D+00  0.000000000000000D+00  0.000000000000000D+00  0.000000000000000D+00
                 6             7             8 
      1   0.000000000000000D+00  0.000000000000000D+00  0.000000000000000D+00
      2   0.000000000000000D+00  0.000000000000000D+00  0.000000000000000D+00
      3   0.000000000000000D+00  0.000000000000000D+00  0.000000000000000D+00
      4   0.000000000000000D+00  0.000000000000000D+00  0.000000000000000D+00
      5   0.000000000000000D+00  0.000000000000000D+00  0.000000000000000D+00
      6   0.000000000000000D+00  0.000000000000000D+00  0.000000000000000D+00
      7   0.000000000000000D+00  0.000000000000000D+00  0.000000000000000D+00
      8   0.000000000000000D+00  0.000000000000000D+00  0.000000000000000D+00
  
 N(g) (    1, 1, 1) (real):
                 1             2 
      1   0.100039938436034D+01 -0.933819352813460D-02
      2   0.933819352813460D-02  0.100039938436034D+01
 N(g) (    1, 1, 1) (imaginary):
                 1             2 
      1   0.000000000000000D+00  0.000000000000000D+00
      2   0.000000000000000D+00  0.000000000000000D+00
igrda/b/g:   1   2   1,  Alpha=    0.0000, Beta=    0.3194, Gamma=    0.0000
  
 D(g) (NO) (real):
                 1             2             3             4             5 
      1   0.987275388202000D+00  0.475782614431175D-01  0.000000000000000D+00  0.000000000000000D+00  0.000000000000000D+00
      2  -0.475782614431175D-01  0.987275388202000D+00  0.352198795383034D-01  0.794362891722091D-01  0.124390726891105D+00
      3   0.000000000000000D+00 -0.352198795383034D-01  0.987275388201999D+00  0.000000000000000D+00  0.000000000000000D+00
      4   0.000000000000000D+00 -0.794362891722091D-01  0.000000000000000D+00  0.987275388202000D+00  0.000000000000000D+00
      5   0.000000000000000D+00 -0.124390726891105D+00  0.000000000000000D+00  0.000000000000000D+00  0.987275388201999D+00
      6  -0.351688934985405D-01  0.000000000000000D+00 -0.312771065276034D-01 -0.130061422585522D+00  0.784616195535755D-01
      7  -0.293133309986036D-01  0.000000000000000D+00 -0.149583782284257D+00  0.452514808436786D-01  0.224321986147961D-02
      8  -0.144663383219443D+00  0.000000000000000D+00  0.263306403396269D-01 -0.367609162346617D-02 -0.604400292502917D-01
                 6             7             8 
      1   0.351688934985405D-01  0.293133309986036D-01  0.144663383219443D+00
      2   0.000000000000000D+00  0.000000000000000D+00  0.000000000000000D+00
      3   0.312771065276035D-01  0.149583782284257D+00 -0.263306403396269D-01
      4   0.130061422585522D+00 -0.452514808436786D-01  0.367609162346617D-02
      5  -0.784616195535755D-01 -0.224321986147961D-02  0.604400292502917D-01
      6   0.987275388202000D+00  0.000000000000000D+00  0.000000000000000D+00
      7   0.000000000000000D+00  0.987275388202000D+00  0.000000000000000D+00
      8   0.000000000000000D+00  0.000000000000000D+00  0.987275388202000D+00
 D(g) (NO) (imaginary):
                 1             2             3             4             5 
      1   0.000000000000000D+00  0.000000000000000D+00  0.000000000000000D+00  0.000000000000000D+00  0.000000000000000D+00
      2   0.000000000000000D+00  0.000000000000000D+00  0.000000000000000D+00  0.000000000000000D+00  0.000000000000000D+00
      3   0.000000000000000D+00  0.000000000000000D+00  0.000000000000000D+00  0.000000000000000D+00  0.000000000000000D+00
      4   0.000000000000000D+00  0.000000000000000D+00  0.000000000000000D+00  0.000000000000000D+00  0.000000000000000D+00
      5   0.000000000000000D+00  0.000000000000000D+00  0.000000000000000D+00  0.000000000000000D+00  0.000000000000000D+00
      6   0.000000000000000D+00  0.000000000000000D+00  0.000000000000000D+00  0.000000000000000D+00  0.000000000000000D+00
      7   0.000000000000000D+00  0.000000000000000D+00  0.000000000000000D+00  0.000000000000000D+00  0.000000000000000D+00
      8   0.000000000000000D+00  0.000000000000000D+00  0.000000000000000D+00  0.000000000000000D+00  0.000000000000000D+00
                 6             7             8 
      1   0.000000000000000D+00  0.000000000000000D+00  0.000000000000000D+00
      2   0.000000000000000D+00  0.000000000000000D+00  0.000000000000000D+00
      3   0.000000000000000D+00  0.000000000000000D+00  0.000000000000000D+00
      4   0.000000000000000D+00  0.000000000000000D+00  0.000000000000000D+00
      5   0.000000000000000D+00  0.000000000000000D+00  0.000000000000000D+00
      6   0.000000000000000D+00  0.000000000000000D+00  0.000000000000000D+00
      7   0.000000000000000D+00  0.000000000000000D+00  0.000000000000000D+00
      8   0.000000000000000D+00  0.000000000000000D+00  0.000000000000000D+00
  
 N(g) (    2, 1, 1) (real):
                 1             2 
      1   0.101054171346276D+01 -0.486995000755248D-01
      2   0.486995000755249D-01  0.101054171346276D+01
 N(g) (    2, 1, 1) (imaginary):
                 1             2 
      1   0.000000000000000D+00  0.000000000000000D+00
      2   0.000000000000000D+00  0.000000000000000D+00
igrda/b/g:   1   3   1,  Alpha=    0.0000, Beta=    0.7453, Gamma=    0.0000
  
 D(g) (NO) (real):
                 1             2             3             4             5 
      1   0.931367258055444D+00  0.108931975011010D+00  0.000000000000000D+00  0.000000000000000D+00  0.000000000000000D+00
      2  -0.108931975011010D+00  0.931367258055444D+00  0.806370582150019D-01  0.181871964309158D+00  0.284796609676526D+00
      3   0.000000000000000D+00 -0.806370582150019D-01  0.931367258055444D+00  0.000000000000000D+00  0.000000000000000D+00
      4   0.000000000000000D+00 -0.181871964309158D+00  0.000000000000000D+00  0.931367258055444D+00  0.000000000000000D+00
      5   0.000000000000000D+00 -0.284796609676526D+00  0.000000000000000D+00  0.000000000000000D+00  0.931367258055443D+00
      6  -0.805203240208363D-01  0.000000000000000D+00 -0.716099513378594D-01 -0.297779851664420D+00  0.179640426558080D+00
      7  -0.671138234768615D-01  0.000000000000000D+00 -0.342476928319922D+00  0.103604735250112D+00  0.513592473712061D-02
      8  -0.331211514836638D+00  0.000000000000000D+00  0.602848563293823D-01 -0.841653117872651D-02 -0.138379410181451D+00
                 6             7             8 
      1   0.805203240208363D-01  0.671138234768615D-01  0.331211514836638D+00
      2   0.000000000000000D+00  0.000000000000000D+00  0.000000000000000D+00
      3   0.716099513378594D-01  0.342476928319922D+00 -0.602848563293823D-01
      4   0.297779851664420D+00 -0.103604735250112D+00  0.841653117872651D-02
      5  -0.179640426558080D+00 -0.513592473712061D-02  0.138379410181451D+00
      6   0.931367258055444D+00  0.000000000000000D+00  0.000000000000000D+00
      7   0.000000000000000D+00  0.931367258055444D+00  0.000000000000000D+00
      8   0.000000000000000D+00  0.000000000000000D+00  0.931367258055444D+00
 D(g) (NO) (imaginary):
                 1             2             3             4             5 
      1   0.000000000000000D+00  0.000000000000000D+00  0.000000000000000D+00  0.000000000000000D+00  0.000000000000000D+00
      2   0.000000000000000D+00  0.000000000000000D+00  0.000000000000000D+00  0.000000000000000D+00  0.000000000000000D+00
      3   0.000000000000000D+00  0.000000000000000D+00  0.000000000000000D+00  0.000000000000000D+00  0.000000000000000D+00
      4   0.000000000000000D+00  0.000000000000000D+00  0.000000000000000D+00  0.000000000000000D+00  0.000000000000000D+00
      5   0.000000000000000D+00  0.000000000000000D+00  0.000000000000000D+00  0.000000000000000D+00  0.000000000000000D+00
      6   0.000000000000000D+00  0.000000000000000D+00  0.000000000000000D+00  0.000000000000000D+00  0.000000000000000D+00
      7   0.000000000000000D+00  0.000000000000000D+00  0.000000000000000D+00  0.000000000000000D+00  0.000000000000000D+00
      8   0.000000000000000D+00  0.000000000000000D+00  0.000000000000000D+00  0.000000000000000D+00  0.000000000000000D+00
                 6             7             8 
      1   0.000000000000000D+00  0.000000000000000D+00  0.000000000000000D+00
      2   0.000000000000000D+00  0.000000000000000D+00  0.000000000000000D+00
      3   0.000000000000000D+00  0.000000000000000D+00  0.000000000000000D+00
      4   0.000000000000000D+00  0.000000000000000D+00  0.000000000000000D+00
      5   0.000000000000000D+00  0.000000000000000D+00  0.000000000000000D+00
      6   0.000000000000000D+00  0.000000000000000D+00  0.000000000000000D+00
      7   0.000000000000000D+00  0.000000000000000D+00  0.000000000000000D+00
      8   0.000000000000000D+00  0.000000000000000D+00  0.000000000000000D+00
  
 N(g) (    3, 1, 1) (real):
                 1             2 
      1   0.105920101640941D+01 -0.123883309890069D+00
      2   0.123883309890069D+00  0.105920101640941D+01
 N(g) (    3, 1, 1) (imaginary):
                 1             2 
      1   0.000000000000000D+00  0.000000000000000D+00
      2   0.000000000000000D+00  0.000000000000000D+00
igrda/b/g:   1   4   1,  Alpha=    0.0000, Beta=    1.2827, Gamma=    0.0000
  
 D(g) (NO) (real):
                 1             2             3             4             5 
      1   0.801301417664392D+00  0.178997864708420D+00  0.000000000000000D+00  0.000000000000000D+00  0.000000000000000D+00
      2  -0.178997864708420D+00  0.801301417664392D+00  0.132503438365044D+00  0.298853419837241D+00  0.467979993965435D+00
      3   0.000000000000000D+00 -0.132503438365044D+00  0.801301417664392D+00  0.000000000000000D+00  0.000000000000000D+00
      4   0.000000000000000D+00 -0.298853419837241D+00  0.000000000000000D+00  0.801301417664392D+00  0.000000000000000D+00
      5   0.000000000000000D+00 -0.467979993965435D+00  0.000000000000000D+00  0.000000000000000D+00  0.801301417664391D+00
      6  -0.132311619833415D+00  0.000000000000000D+00 -0.117670026455089D+00 -0.489314157718464D+00  0.295186539727715D+00
      7  -0.110281954344092D+00  0.000000000000000D+00 -0.562760740131341D+00  0.170244103088894D+00  0.843939129126065D-02
      8  -0.544249325476814D+00  0.000000000000000D+00  0.990605426563013D-01 -0.138301091951341D-01 -0.227386118167662D+00
                 6             7             8 
      1   0.132311619833415D+00  0.110281954344092D+00  0.544249325476814D+00
      2   0.000000000000000D+00  0.000000000000000D+00  0.000000000000000D+00
      3   0.117670026455089D+00  0.562760740131341D+00 -0.990605426563012D-01
      4   0.489314157718465D+00 -0.170244103088894D+00  0.138301091951341D-01
      5  -0.295186539727715D+00 -0.843939129126062D-02  0.227386118167662D+00
      6   0.801301417664392D+00  0.000000000000000D+00  0.000000000000000D+00
      7   0.000000000000000D+00  0.801301417664392D+00  0.000000000000000D+00
      8   0.000000000000000D+00  0.000000000000000D+00  0.801301417664392D+00
 D(g) (NO) (imaginary):
                 1             2             3             4             5 
      1   0.000000000000000D+00  0.000000000000000D+00  0.000000000000000D+00  0.000000000000000D+00  0.000000000000000D+00
      2   0.000000000000000D+00  0.000000000000000D+00  0.000000000000000D+00  0.000000000000000D+00  0.000000000000000D+00
      3   0.000000000000000D+00  0.000000000000000D+00  0.000000000000000D+00  0.000000000000000D+00  0.000000000000000D+00
      4   0.000000000000000D+00  0.000000000000000D+00  0.000000000000000D+00  0.000000000000000D+00  0.000000000000000D+00
      5   0.000000000000000D+00  0.000000000000000D+00  0.000000000000000D+00  0.000000000000000D+00  0.000000000000000D+00
      6   0.000000000000000D+00  0.000000000000000D+00  0.000000000000000D+00  0.000000000000000D+00  0.000000000000000D+00
      7   0.000000000000000D+00  0.000000000000000D+00  0.000000000000000D+00  0.000000000000000D+00  0.000000000000000D+00
      8   0.000000000000000D+00  0.000000000000000D+00  0.000000000000000D+00  0.000000000000000D+00  0.000000000000000D+00
                 6             7             8 
      1   0.000000000000000D+00  0.000000000000000D+00  0.000000000000000D+00
      2   0.000000000000000D+00  0.000000000000000D+00  0.000000000000000D+00
      3   0.000000000000000D+00  0.000000000000000D+00  0.000000000000000D+00
      4   0.000000000000000D+00  0.000000000000000D+00  0.000000000000000D+00
      5   0.000000000000000D+00  0.000000000000000D+00  0.000000000000000D+00
      6   0.000000000000000D+00  0.000000000000000D+00  0.000000000000000D+00
      7   0.000000000000000D+00  0.000000000000000D+00  0.000000000000000D+00
      8   0.000000000000000D+00  0.000000000000000D+00  0.000000000000000D+00
  
 N(g) (    4, 1, 1) (real):
                 1             2 
      1   0.118865547418548D+01 -0.265526538531956D+00
      2   0.265526538531956D+00  0.118865547418548D+01
 N(g) (    4, 1, 1) (imaginary):
                 1             2 
      1   0.000000000000000D+00  0.000000000000000D+00
      2   0.000000000000000D+00  0.000000000000000D+00
igrda/b/g:   1   5   1,  Alpha=    0.0000, Beta=    1.8589, Gamma=    0.0000
  
 D(g) (NO) (real):
                 1             2             3             4             5 
      1   0.598260844489288D+00  0.239747000110291D+00  0.000000000000000D+00  0.000000000000000D+00  0.000000000000000D+00
      2  -0.239747000110291D+00  0.598260844489288D+00  0.177473077145729D+00  0.400279696047734D+00  0.626805240652501D+00
      3   0.000000000000000D+00 -0.177473077145729D+00  0.598260844489288D+00  0.000000000000000D+00  0.000000000000000D+00
      4   0.000000000000000D+00 -0.400279696047734D+00  0.000000000000000D+00  0.598260844489288D+00  0.000000000000000D+00
      5   0.000000000000000D+00 -0.626805240652501D+00  0.000000000000000D+00  0.000000000000000D+00  0.598260844489287D+00
      6  -0.177216158340588D+00  0.000000000000000D+00 -0.157605432285245D+00 -0.655379893026050D+00  0.395368332957147D+00
      7  -0.147709961587338D+00  0.000000000000000D+00 -0.753753121279493D+00  0.228022345788963D+00  0.113035915156449D-01
      8  -0.728959215841292D+00  0.000000000000000D+00  0.132680174536342D+00 -0.185238365615832D-01 -0.304557486125457D+00
                 6             7             8 
      1   0.177216158340588D+00  0.147709961587338D+00  0.728959215841292D+00
      2   0.000000000000000D+00  0.000000000000000D+00  0.000000000000000D+00
      3   0.157605432285245D+00  0.753753121279493D+00 -0.132680174536342D+00
      4   0.655379893026050D+00 -0.228022345788963D+00  0.185238365615832D-01
      5  -0.395368332957147D+00 -0.113035915156449D-01  0.304557486125457D+00
      6   0.598260844489288D+00  0.000000000000000D+00  0.000000000000000D+00
      7   0.000000000000000D+00  0.598260844489288D+00  0.000000000000000D+00
      8   0.000000000000000D+00  0.000000000000000D+00  0.598260844489288D+00
 D(g) (NO) (imaginary):
                 1             2             3             4             5 
      1   0.000000000000000D+00  0.000000000000000D+00  0.000000000000000D+00  0.000000000000000D+00  0.000000000000000D+00
      2   0.000000000000000D+00  0.000000000000000D+00  0.000000000000000D+00  0.000000000000000D+00  0.000000000000000D+00
      3   0.000000000000000D+00  0.000000000000000D+00  0.000000000000000D+00  0.000000000000000D+00  0.000000000000000D+00
      4   0.000000000000000D+00  0.000000000000000D+00  0.000000000000000D+00  0.000000000000000D+00  0.000000000000000D+00
      5   0.000000000000000D+00  0.000000000000000D+00  0.000000000000000D+00  0.000000000000000D+00  0.000000000000000D+00
      6   0.000000000000000D+00  0.000000000000000D+00  0.000000000000000D+00  0.000000000000000D+00  0.000000000000000D+00
      7   0.000000000000000D+00  0.000000000000000D+00  0.000000000000000D+00  0.000000000000000D+00  0.000000000000000D+00
      8   0.000000000000000D+00  0.000000000000000D+00  0.000000000000000D+00  0.000000000000000D+00  0.000000000000000D+00
                 6             7             8 
      1   0.000000000000000D+00  0.000000000000000D+00  0.000000000000000D+00
      2   0.000000000000000D+00  0.000000000000000D+00  0.000000000000000D+00
      3   0.000000000000000D+00  0.000000000000000D+00  0.000000000000000D+00
      4   0.000000000000000D+00  0.000000000000000D+00  0.000000000000000D+00
      5   0.000000000000000D+00  0.000000000000000D+00  0.000000000000000D+00
      6   0.000000000000000D+00  0.000000000000000D+00  0.000000000000000D+00
      7   0.000000000000000D+00  0.000000000000000D+00  0.000000000000000D+00
      8   0.000000000000000D+00  0.000000000000000D+00  0.000000000000000D+00
  
 N(g) (    5, 1, 1) (real):
                 1             2 
      1   0.144022275454647D+01 -0.577154744579442D+00
      2   0.577154744579442D+00  0.144022275454647D+01
 N(g) (    5, 1, 1) (imaginary):
                 1             2 
      1   0.000000000000000D+00  0.000000000000000D+00
      2   0.000000000000000D+00  0.000000000000000D+00
igrda/b/g:   1   6   1,  Alpha=    0.0000, Beta=    2.3963, Gamma=    0.0000
  
 D(g) (NO) (real):
                 1             2             3             4             5 
      1   0.364081076990117D+00  0.278662312579685D+00  0.000000000000000D+00  0.000000000000000D+00  0.000000000000000D+00
      2  -0.278662312579685D+00  0.364081076990118D+00  0.206280195686748D+00  0.465252394098955D+00  0.728547167709878D+00
      3   0.000000000000000D+00 -0.206280195686748D+00  0.364081076990117D+00  0.000000000000000D+00  0.000000000000000D+00
      4   0.000000000000000D+00 -0.465252394098955D+00  0.000000000000000D+00  0.364081076990118D+00  0.000000000000000D+00
      5   0.000000000000000D+00 -0.728547167709878D+00  0.000000000000000D+00  0.000000000000000D+00  0.364081076990117D+00
      6  -0.205981574271870D+00  0.000000000000000D+00 -0.183187669566348D+00 -0.761760007528147D+00  0.459543827167514D+00
      7  -0.171685983424396D+00  0.000000000000000D+00 -0.876101005615393D+00  0.265034532937498D+00  0.131383706605575D-01
      8  -0.847282596942448D+00  0.000000000000000D+00  0.154216587706060D+00 -0.215305932158661D-01 -0.353992722987705D+00
                 6             7             8 
      1   0.205981574271870D+00  0.171685983424396D+00  0.847282596942448D+00
      2   0.000000000000000D+00  0.000000000000000D+00  0.000000000000000D+00
      3   0.183187669566348D+00  0.876101005615393D+00 -0.154216587706060D+00
      4   0.761760007528147D+00 -0.265034532937498D+00  0.215305932158661D-01
      5  -0.459543827167514D+00 -0.131383706605575D-01  0.353992722987705D+00
      6   0.364081076990117D+00  0.000000000000000D+00  0.000000000000000D+00
      7   0.000000000000000D+00  0.364081076990118D+00  0.000000000000000D+00
      8   0.000000000000000D+00  0.000000000000000D+00  0.364081076990118D+00
 D(g) (NO) (imaginary):
                 1             2             3             4             5 
      1   0.000000000000000D+00  0.000000000000000D+00  0.000000000000000D+00  0.000000000000000D+00  0.000000000000000D+00
      2   0.000000000000000D+00  0.000000000000000D+00  0.000000000000000D+00  0.000000000000000D+00  0.000000000000000D+00
      3   0.000000000000000D+00  0.000000000000000D+00  0.000000000000000D+00  0.000000000000000D+00  0.000000000000000D+00
      4   0.000000000000000D+00  0.000000000000000D+00  0.000000000000000D+00  0.000000000000000D+00  0.000000000000000D+00
      5   0.000000000000000D+00  0.000000000000000D+00  0.000000000000000D+00  0.000000000000000D+00  0.000000000000000D+00
      6   0.000000000000000D+00  0.000000000000000D+00  0.000000000000000D+00  0.000000000000000D+00  0.000000000000000D+00
      7   0.000000000000000D+00  0.000000000000000D+00  0.000000000000000D+00  0.000000000000000D+00  0.000000000000000D+00
      8   0.000000000000000D+00  0.000000000000000D+00  0.000000000000000D+00  0.000000000000000D+00  0.000000000000000D+00
                 6             7             8 
      1   0.000000000000000D+00  0.000000000000000D+00  0.000000000000000D+00
      2   0.000000000000000D+00  0.000000000000000D+00  0.000000000000000D+00
      3   0.000000000000000D+00  0.000000000000000D+00  0.000000000000000D+00
      4   0.000000000000000D+00  0.000000000000000D+00  0.000000000000000D+00
      5   0.000000000000000D+00  0.000000000000000D+00  0.000000000000000D+00
      6   0.000000000000000D+00  0.000000000000000D+00  0.000000000000000D+00
      7   0.000000000000000D+00  0.000000000000000D+00  0.000000000000000D+00
      8   0.000000000000000D+00  0.000000000000000D+00  0.000000000000000D+00
  
 N(g) (    6, 1, 1) (real):
                 1             2 
      1   0.173200625324818D+01 -0.132565216495916D+01
      2   0.132565216495916D+01  0.173200625324818D+01
 N(g) (    6, 1, 1) (imaginary):
                 1             2 
      1   0.000000000000000D+00  0.000000000000000D+00
      2   0.000000000000000D+00  0.000000000000000D+00
igrda/b/g:   1   7   1,  Alpha=    0.0000, Beta=    2.8222, Gamma=    0.0000
  
 D(g) (NO) (real):
                 1             2             3             4             5 
      1   0.159019834770983D+00  0.295389858780067D+00  0.000000000000000D+00  0.000000000000000D+00  0.000000000000000D+00
      2  -0.295389858780067D+00  0.159019834770983D+00  0.218662786901293D+00  0.493180572994344D+00  0.772280409906163D+00
      3   0.000000000000000D+00 -0.218662786901293D+00  0.159019834770983D+00  0.000000000000000D+00  0.000000000000000D+00
      4   0.000000000000000D+00 -0.493180572994344D+00  0.000000000000000D+00  0.159019834770983D+00  0.000000000000000D+00
      5   0.000000000000000D+00 -0.772280409906163D+00  0.000000000000000D+00  0.000000000000000D+00  0.159019834770982D+00
      6  -0.218346239834870D+00  0.000000000000000D+00 -0.194184062216808D+00 -0.807486950657159D+00  0.487129332106746D+00
      7  -0.181991952656846D+00  0.000000000000000D+00 -0.928691612188507D+00  0.280944030541846D+00  0.139270410056346D-01
      8  -0.898143291572911D+00  0.000000000000000D+00  0.163473903745094D+00 -0.228230320440878D-01 -0.375242204388899D+00
                 6             7             8 
      1   0.218346239834870D+00  0.181991952656846D+00  0.898143291572911D+00
      2   0.000000000000000D+00  0.000000000000000D+00  0.000000000000000D+00
      3   0.194184062216808D+00  0.928691612188507D+00 -0.163473903745094D+00
      4   0.807486950657159D+00 -0.280944030541846D+00  0.228230320440878D-01
      5  -0.487129332106746D+00 -0.139270410056346D-01  0.375242204388899D+00
      6   0.159019834770983D+00  0.000000000000000D+00  0.000000000000000D+00
      7   0.000000000000000D+00  0.159019834770983D+00  0.000000000000000D+00
      8   0.000000000000000D+00  0.000000000000000D+00  0.159019834770983D+00
 D(g) (NO) (imaginary):
                 1             2             3             4             5 
      1   0.000000000000000D+00  0.000000000000000D+00  0.000000000000000D+00  0.000000000000000D+00  0.000000000000000D+00
      2   0.000000000000000D+00  0.000000000000000D+00  0.000000000000000D+00  0.000000000000000D+00  0.000000000000000D+00
      3   0.000000000000000D+00  0.000000000000000D+00  0.000000000000000D+00  0.000000000000000D+00  0.000000000000000D+00
      4   0.000000000000000D+00  0.000000000000000D+00  0.000000000000000D+00  0.000000000000000D+00  0.000000000000000D+00
      5   0.000000000000000D+00  0.000000000000000D+00  0.000000000000000D+00  0.000000000000000D+00  0.000000000000000D+00
      6   0.000000000000000D+00  0.000000000000000D+00  0.000000000000000D+00  0.000000000000000D+00  0.000000000000000D+00
      7   0.000000000000000D+00  0.000000000000000D+00  0.000000000000000D+00  0.000000000000000D+00  0.000000000000000D+00
      8   0.000000000000000D+00  0.000000000000000D+00  0.000000000000000D+00  0.000000000000000D+00  0.000000000000000D+00
                 6             7             8 
      1   0.000000000000000D+00  0.000000000000000D+00  0.000000000000000D+00
      2   0.000000000000000D+00  0.000000000000000D+00  0.000000000000000D+00
      3   0.000000000000000D+00  0.000000000000000D+00  0.000000000000000D+00
      4   0.000000000000000D+00  0.000000000000000D+00  0.000000000000000D+00
      5   0.000000000000000D+00  0.000000000000000D+00  0.000000000000000D+00
      6   0.000000000000000D+00  0.000000000000000D+00  0.000000000000000D+00
      7   0.000000000000000D+00  0.000000000000000D+00  0.000000000000000D+00
      8   0.000000000000000D+00  0.000000000000000D+00  0.000000000000000D+00
  
 N(g) (    7, 1, 1) (real):
                 1             2 
      1   0.141297614631518D+01 -0.262469662932768D+01
      2   0.262469662932769D+01  0.141297614631518D+01
 N(g) (    7, 1, 1) (imaginary):
                 1             2 
      1   0.000000000000000D+00  0.000000000000000D+00
      2   0.000000000000000D+00  0.000000000000000D+00
igrda/b/g:   1   8   1,  Alpha=    0.0000, Beta=    3.0792, Gamma=    0.0000
  
 D(g) (NO) (real):
                 1             2             3             4             5 
      1   0.311832178382315D-01  0.299051520833605D+00  0.000000000000000D+00  0.000000000000000D+00  0.000000000000000D+00
      2  -0.299051520833605D+00  0.311832178382315D-01  0.221373337739511D+00  0.499294055011410D+00  0.781853622349281D+00
      3   0.000000000000000D+00 -0.221373337739511D+00  0.311832178382315D-01  0.000000000000000D+00  0.000000000000000D+00
      4   0.000000000000000D+00 -0.499294055011410D+00  0.000000000000000D+00  0.311832178382315D-01  0.000000000000000D+00
      5   0.000000000000000D+00 -0.781853622349281D+00  0.000000000000000D+00  0.000000000000000D+00  0.311832178382315D-01
      6  -0.221052866745618D+00  0.000000000000000D+00 -0.196591174007841D+00 -0.817496584495502D+00  0.493167802749940D+00
      7  -0.184247930671274D+00  0.000000000000000D+00 -0.940203702853480D+00  0.284426621650598D+00  0.140996810474391D-01
      8  -0.909276704287127D+00  0.000000000000000D+00  0.165500331438175D+00 -0.231059470728152D-01 -0.379893718649989D+00
                 6             7             8 
      1   0.221052866745618D+00  0.184247930671274D+00  0.909276704287127D+00
      2   0.000000000000000D+00  0.000000000000000D+00  0.000000000000000D+00
      3   0.196591174007841D+00  0.940203702853480D+00 -0.165500331438175D+00
      4   0.817496584495502D+00 -0.284426621650598D+00  0.231059470728151D-01
      5  -0.493167802749940D+00 -0.140996810474391D-01  0.379893718649989D+00
      6   0.311832178382315D-01  0.000000000000000D+00  0.000000000000000D+00
      7   0.000000000000000D+00  0.311832178382315D-01  0.000000000000000D+00
      8   0.000000000000000D+00  0.000000000000000D+00  0.311832178382315D-01
 D(g) (NO) (imaginary):
                 1             2             3             4             5 
      1   0.000000000000000D+00  0.000000000000000D+00  0.000000000000000D+00  0.000000000000000D+00  0.000000000000000D+00
      2   0.000000000000000D+00  0.000000000000000D+00  0.000000000000000D+00  0.000000000000000D+00  0.000000000000000D+00
      3   0.000000000000000D+00  0.000000000000000D+00  0.000000000000000D+00  0.000000000000000D+00  0.000000000000000D+00
      4   0.000000000000000D+00  0.000000000000000D+00  0.000000000000000D+00  0.000000000000000D+00  0.000000000000000D+00
      5   0.000000000000000D+00  0.000000000000000D+00  0.000000000000000D+00  0.000000000000000D+00  0.000000000000000D+00
      6   0.000000000000000D+00  0.000000000000000D+00  0.000000000000000D+00  0.000000000000000D+00  0.000000000000000D+00
      7   0.000000000000000D+00  0.000000000000000D+00  0.000000000000000D+00  0.000000000000000D+00  0.000000000000000D+00
      8   0.000000000000000D+00  0.000000000000000D+00  0.000000000000000D+00  0.000000000000000D+00  0.000000000000000D+00
                 6             7             8 
      1   0.000000000000000D+00  0.000000000000000D+00  0.000000000000000D+00
      2   0.000000000000000D+00  0.000000000000000D+00  0.000000000000000D+00
      3   0.000000000000000D+00  0.000000000000000D+00  0.000000000000000D+00
      4   0.000000000000000D+00  0.000000000000000D+00  0.000000000000000D+00
      5   0.000000000000000D+00  0.000000000000000D+00  0.000000000000000D+00
      6   0.000000000000000D+00  0.000000000000000D+00  0.000000000000000D+00
      7   0.000000000000000D+00  0.000000000000000D+00  0.000000000000000D+00
      8   0.000000000000000D+00  0.000000000000000D+00  0.000000000000000D+00
  
 N(g) (    8, 1, 1) (real):
                 1             2 
      1   0.344931054628589D+00 -0.330793816739950D+01
      2   0.330793816739950D+01  0.344931054628589D+00
 N(g) (    8, 1, 1) (imaginary):
                 1             2 
      1   0.000000000000000D+00  0.000000000000000D+00
      2   0.000000000000000D+00  0.000000000000000D+00
  
 P(g) (    1, 1, 1) (real):
                 1             2             3             4             5 
      1   0.100000000000000D+01  0.000000000000000D+00  0.000000000000000D+00  0.000000000000000D+00  0.000000000000000D+00
      2   0.000000000000000D+00  0.100000000000000D+01  0.000000000000000D+00  0.000000000000000D+00  0.000000000000000D+00
      3  -0.644941565001783D-04 -0.690925008816551D-02  0.000000000000000D+00  0.000000000000000D+00  0.000000000000000D+00
      4  -0.145462634535443D-03 -0.155833919695759D-01  0.000000000000000D+00  0.000000000000000D+00  0.000000000000000D+00
      5  -0.227782579396974D-03 -0.244023163056151D-01  0.000000000000000D+00  0.000000000000000D+00  0.000000000000000D+00
      6  -0.689924791597341D-02  0.644007915691958D-04  0.000000000000000D+00  0.000000000000000D+00  0.000000000000000D+00
      7  -0.575053456858822D-02  0.536781664716842D-04  0.000000000000000D+00  0.000000000000000D+00  0.000000000000000D+00
      8  -0.283792990312825D-01  0.264905587398467D-03  0.000000000000000D+00  0.000000000000000D+00  0.000000000000000D+00
                 6             7             8 
      1   0.000000000000000D+00  0.000000000000000D+00  0.000000000000000D+00
      2   0.000000000000000D+00  0.000000000000000D+00  0.000000000000000D+00
      3   0.000000000000000D+00  0.000000000000000D+00  0.000000000000000D+00
      4   0.000000000000000D+00  0.000000000000000D+00  0.000000000000000D+00
      5   0.000000000000000D+00  0.000000000000000D+00  0.000000000000000D+00
      6   0.000000000000000D+00  0.000000000000000D+00  0.000000000000000D+00
      7   0.000000000000000D+00  0.000000000000000D+00  0.000000000000000D+00
      8   0.000000000000000D+00  0.000000000000000D+00  0.000000000000000D+00
 P(g) (    1, 1, 1) (imaginary):
                 1             2             3             4             5 
      1   0.000000000000000D+00  0.000000000000000D+00  0.000000000000000D+00  0.000000000000000D+00  0.000000000000000D+00
      2   0.000000000000000D+00  0.000000000000000D+00  0.000000000000000D+00  0.000000000000000D+00  0.000000000000000D+00
      3   0.000000000000000D+00  0.000000000000000D+00  0.000000000000000D+00  0.000000000000000D+00  0.000000000000000D+00
      4   0.000000000000000D+00  0.000000000000000D+00  0.000000000000000D+00  0.000000000000000D+00  0.000000000000000D+00
      5   0.000000000000000D+00  0.000000000000000D+00  0.000000000000000D+00  0.000000000000000D+00  0.000000000000000D+00
      6   0.000000000000000D+00  0.000000000000000D+00  0.000000000000000D+00  0.000000000000000D+00  0.000000000000000D+00
      7   0.000000000000000D+00  0.000000000000000D+00  0.000000000000000D+00  0.000000000000000D+00  0.000000000000000D+00
      8   0.000000000000000D+00  0.000000000000000D+00  0.000000000000000D+00  0.000000000000000D+00  0.000000000000000D+00
                 6             7             8 
      1   0.000000000000000D+00  0.000000000000000D+00  0.000000000000000D+00
      2   0.000000000000000D+00  0.000000000000000D+00  0.000000000000000D+00
      3   0.000000000000000D+00  0.000000000000000D+00  0.000000000000000D+00
      4   0.000000000000000D+00  0.000000000000000D+00  0.000000000000000D+00
      5   0.000000000000000D+00  0.000000000000000D+00  0.000000000000000D+00
      6   0.000000000000000D+00  0.000000000000000D+00  0.000000000000000D+00
      7   0.000000000000000D+00  0.000000000000000D+00  0.000000000000000D+00
      8   0.000000000000000D+00  0.000000000000000D+00  0.000000000000000D+00
  
 P(g) (    2, 1, 1) (real):
                 1             2             3             4             5 
      1   0.100000000000000D+01  0.000000000000000D+00  0.000000000000000D+00  0.000000000000000D+00  0.000000000000000D+00
      2   0.000000000000000D+00  0.100000000000000D+01  0.000000000000000D+00  0.000000000000000D+00  0.000000000000000D+00
      3  -0.171519052623563D-02 -0.355911574165890D-01  0.000000000000000D+00  0.000000000000000D+00  0.000000000000000D+00
      4  -0.386850757054145D-02 -0.802736837712073D-01  0.000000000000000D+00  0.000000000000000D+00  0.000000000000000D+00
      5  -0.605776621362799D-02 -0.125702018291415D+00  0.000000000000000D+00  0.000000000000000D+00  0.000000000000000D+00
      6  -0.355396338966043D-01  0.171270753158848D-02  0.000000000000000D+00  0.000000000000000D+00  0.000000000000000D+00
      7  -0.296223437346298D-01  0.142754456518051D-02  0.000000000000000D+00  0.000000000000000D+00  0.000000000000000D+00
      8  -0.146188383153896D+00  0.704503444202096D-02  0.000000000000000D+00  0.000000000000000D+00  0.000000000000000D+00
                 6             7             8 
      1   0.000000000000000D+00  0.000000000000000D+00  0.000000000000000D+00
      2   0.000000000000000D+00  0.000000000000000D+00  0.000000000000000D+00
      3   0.000000000000000D+00  0.000000000000000D+00  0.000000000000000D+00
      4   0.000000000000000D+00  0.000000000000000D+00  0.000000000000000D+00
      5   0.000000000000000D+00  0.000000000000000D+00  0.000000000000000D+00
      6   0.000000000000000D+00  0.000000000000000D+00  0.000000000000000D+00
      7   0.000000000000000D+00  0.000000000000000D+00  0.000000000000000D+00
      8   0.000000000000000D+00  0.000000000000000D+00  0.000000000000000D+00
 P(g) (    2, 1, 1) (imaginary):
                 1             2             3             4             5 
      1   0.000000000000000D+00  0.000000000000000D+00  0.000000000000000D+00  0.000000000000000D+00  0.000000000000000D+00
      2   0.000000000000000D+00  0.000000000000000D+00  0.000000000000000D+00  0.000000000000000D+00  0.000000000000000D+00
      3   0.000000000000000D+00  0.000000000000000D+00  0.000000000000000D+00  0.000000000000000D+00  0.000000000000000D+00
      4   0.000000000000000D+00  0.000000000000000D+00  0.000000000000000D+00  0.000000000000000D+00  0.000000000000000D+00
      5   0.000000000000000D+00  0.000000000000000D+00  0.000000000000000D+00  0.000000000000000D+00  0.000000000000000D+00
      6   0.000000000000000D+00  0.000000000000000D+00  0.000000000000000D+00  0.000000000000000D+00  0.000000000000000D+00
      7   0.000000000000000D+00  0.000000000000000D+00  0.000000000000000D+00  0.000000000000000D+00  0.000000000000000D+00
      8   0.000000000000000D+00  0.000000000000000D+00  0.000000000000000D+00  0.000000000000000D+00  0.000000000000000D+00
                 6             7             8 
      1   0.000000000000000D+00  0.000000000000000D+00  0.000000000000000D+00
      2   0.000000000000000D+00  0.000000000000000D+00  0.000000000000000D+00
      3   0.000000000000000D+00  0.000000000000000D+00  0.000000000000000D+00
      4   0.000000000000000D+00  0.000000000000000D+00  0.000000000000000D+00
      5   0.000000000000000D+00  0.000000000000000D+00  0.000000000000000D+00
      6   0.000000000000000D+00  0.000000000000000D+00  0.000000000000000D+00
      7   0.000000000000000D+00  0.000000000000000D+00  0.000000000000000D+00
      8   0.000000000000000D+00  0.000000000000000D+00  0.000000000000000D+00
  
 P(g) (    3, 1, 1) (real):
                 1             2             3             4             5 
      1   0.100000000000000D+01  0.000000000000000D+00  0.000000000000000D+00  0.000000000000000D+00  0.000000000000000D+00
      2   0.000000000000000D+00  0.100000000000000D+01  0.000000000000000D+00  0.000000000000000D+00  0.000000000000000D+00
      3  -0.998958567147264D-02 -0.854108540215950D-01  0.000000000000000D+00  0.000000000000000D+00  0.000000000000000D+00
      4  -0.225309009148270D-01 -0.192638969452636D+00  0.000000000000000D+00  0.000000000000000D+00  0.000000000000000D+00
      5  -0.352815466521981D-01 -0.301656858439330D+00  0.000000000000000D+00  0.000000000000000D+00  0.000000000000000D+00
      6  -0.852872090444850D-01  0.997512425312221D-02  0.000000000000000D+00  0.000000000000000D+00  0.000000000000000D+00
      7  -0.710870300418135D-01  0.831428259169157D-02  0.000000000000000D+00  0.000000000000000D+00  0.000000000000000D+00
      8  -0.350819573161469D+00  0.410315787316665D-01  0.000000000000000D+00  0.000000000000000D+00  0.000000000000000D+00
                 6             7             8 
[...]
      5   0.236712131271158D+00  0.257050570560499D-01  0.000000000000000D+00  0.000000000000000D+00  0.000000000000000D+00
      6  -0.265158980094637D+00  0.244178984575005D+01  0.000000000000000D+00  0.000000000000000D+00  0.000000000000000D+00
      7  -0.122105659697922D+00  0.112444375767542D+01  0.000000000000000D+00  0.000000000000000D+00  0.000000000000000D+00
      8  -0.206922415725008D+00  0.190550232692502D+01  0.000000000000000D+00  0.000000000000000D+00  0.000000000000000D+00
                 6             7             8 
      1   0.265158980094637D+00  0.122105659697922D+00  0.206922415725008D+00
      2   0.244178984575005D+01  0.112444375767542D+01  0.190550232692502D+01
      3   0.000000000000000D+00  0.000000000000000D+00  0.000000000000000D+00
      4   0.000000000000000D+00  0.000000000000000D+00  0.000000000000000D+00
      5   0.000000000000000D+00  0.000000000000000D+00  0.000000000000000D+00
      6   0.000000000000000D+00  0.000000000000000D+00  0.000000000000000D+00
      7   0.000000000000000D+00  0.000000000000000D+00  0.000000000000000D+00
      8   0.000000000000000D+00  0.000000000000000D+00  0.000000000000000D+00
 X(g) (    8, 1, 1) (imaginary):
                 1             2             3             4             5 
      1   0.000000000000000D+00  0.000000000000000D+00  0.000000000000000D+00  0.000000000000000D+00  0.000000000000000D+00
      2   0.000000000000000D+00  0.000000000000000D+00  0.000000000000000D+00  0.000000000000000D+00  0.000000000000000D+00
      3   0.000000000000000D+00  0.000000000000000D+00  0.000000000000000D+00  0.000000000000000D+00  0.000000000000000D+00
      4   0.000000000000000D+00  0.000000000000000D+00  0.000000000000000D+00  0.000000000000000D+00  0.000000000000000D+00
      5   0.000000000000000D+00  0.000000000000000D+00  0.000000000000000D+00  0.000000000000000D+00  0.000000000000000D+00
      6   0.000000000000000D+00  0.000000000000000D+00  0.000000000000000D+00  0.000000000000000D+00  0.000000000000000D+00
      7   0.000000000000000D+00  0.000000000000000D+00  0.000000000000000D+00  0.000000000000000D+00  0.000000000000000D+00
      8   0.000000000000000D+00  0.000000000000000D+00  0.000000000000000D+00  0.000000000000000D+00  0.000000000000000D+00
                 6             7             8 
      1   0.000000000000000D+00  0.000000000000000D+00  0.000000000000000D+00
      2   0.000000000000000D+00  0.000000000000000D+00  0.000000000000000D+00
      3   0.000000000000000D+00  0.000000000000000D+00  0.000000000000000D+00
      4   0.000000000000000D+00  0.000000000000000D+00  0.000000000000000D+00
      5   0.000000000000000D+00  0.000000000000000D+00  0.000000000000000D+00
      6   0.000000000000000D+00  0.000000000000000D+00  0.000000000000000D+00
      7   0.000000000000000D+00  0.000000000000000D+00  0.000000000000000D+00
      8   0.000000000000000D+00  0.000000000000000D+00  0.000000000000000D+00
 X(g) int (real):
                 1             2             3             4             5 
      1   0.200000000000000D+01  0.000000000000000D+00 -0.250923253751608D+00  0.363865638045212D-01  0.182614757400833D-01
      2   0.000000000000000D+00  0.200000000000000D+01  0.685956640150055D+00 -0.994710720540185D-01 -0.499219596253490D-01
      3  -0.250923253751608D+00 -0.685956640150055D+00  0.000000000000000D+00  0.000000000000000D+00  0.000000000000000D+00
      4   0.363865638045212D-01  0.994710720540186D-01  0.000000000000000D+00  0.000000000000000D+00  0.000000000000000D+00
      5   0.182614757400833D-01  0.499219596253490D-01  0.000000000000000D+00  0.000000000000000D+00  0.000000000000000D+00
      6  -0.514966991503632D+00  0.188375161809792D+00  0.000000000000000D+00  0.000000000000000D+00  0.000000000000000D+00
      7  -0.237142201247579D+00  0.867467260406494D-01  0.000000000000000D+00  0.000000000000000D+00  0.000000000000000D+00
      8  -0.401865378508168D+00  0.147002539873851D+00  0.000000000000000D+00  0.000000000000000D+00  0.000000000000000D+00
                 6             7             8 
      1   0.514966991503632D+00  0.237142201247579D+00  0.401865378508168D+00
      2   0.188375161809792D+00  0.867467260406494D-01  0.147002539873851D+00
      3   0.000000000000000D+00  0.000000000000000D+00  0.000000000000000D+00
      4   0.000000000000000D+00  0.000000000000000D+00  0.000000000000000D+00
      5   0.000000000000000D+00  0.000000000000000D+00  0.000000000000000D+00
      6   0.000000000000000D+00  0.000000000000000D+00  0.000000000000000D+00
      7   0.000000000000000D+00  0.000000000000000D+00  0.000000000000000D+00
      8   0.000000000000000D+00  0.000000000000000D+00  0.000000000000000D+00
 X(g) int (imaginary):
                 1             2             3             4             5 
      1   0.000000000000000D+00  0.000000000000000D+00  0.000000000000000D+00  0.000000000000000D+00  0.000000000000000D+00
      2   0.000000000000000D+00  0.000000000000000D+00  0.000000000000000D+00  0.000000000000000D+00  0.000000000000000D+00
      3   0.000000000000000D+00  0.000000000000000D+00  0.000000000000000D+00  0.000000000000000D+00  0.000000000000000D+00
      4   0.000000000000000D+00  0.000000000000000D+00  0.000000000000000D+00  0.000000000000000D+00  0.000000000000000D+00
      5   0.000000000000000D+00  0.000000000000000D+00  0.000000000000000D+00  0.000000000000000D+00  0.000000000000000D+00
      6   0.000000000000000D+00  0.000000000000000D+00  0.000000000000000D+00  0.000000000000000D+00  0.000000000000000D+00
      7   0.000000000000000D+00  0.000000000000000D+00  0.000000000000000D+00  0.000000000000000D+00  0.000000000000000D+00
      8   0.000000000000000D+00  0.000000000000000D+00  0.000000000000000D+00  0.000000000000000D+00  0.000000000000000D+00
                 6             7             8 
      1   0.000000000000000D+00  0.000000000000000D+00  0.000000000000000D+00
      2   0.000000000000000D+00  0.000000000000000D+00  0.000000000000000D+00
      3   0.000000000000000D+00  0.000000000000000D+00  0.000000000000000D+00
      4   0.000000000000000D+00  0.000000000000000D+00  0.000000000000000D+00
      5   0.000000000000000D+00  0.000000000000000D+00  0.000000000000000D+00
      6   0.000000000000000D+00  0.000000000000000D+00  0.000000000000000D+00
      7   0.000000000000000D+00  0.000000000000000D+00  0.000000000000000D+00
      8   0.000000000000000D+00  0.000000000000000D+00  0.000000000000000D+00
  
 Core Hamiltonian (NO) (real):
                 1             2             3             4             5 
      1  -0.766530545799377D+00  0.000000000000000D+00  0.539727526901735D-01 -0.485989575718543D-02  0.105925824548725D-01
      2   0.000000000000000D+00 -0.766530545799376D+00  0.000000000000000D+00  0.000000000000000D+00  0.000000000000000D+00
      3   0.539727526901734D-01  0.000000000000000D+00 -0.704682593136168D+00  0.170070347595532D+00  0.668189934557239D-01
      4  -0.485989575718539D-02  0.000000000000000D+00  0.170070347595532D+00  0.384864407891930D+00  0.149916808287567D-02
      5   0.105925824548725D-01  0.000000000000000D+00  0.668189934557239D-01  0.149916808287577D-02  0.313315870028261D+00
      6   0.000000000000000D+00 -0.312936377740928D-01  0.000000000000000D+00  0.000000000000000D+00  0.000000000000000D+00
      7   0.000000000000000D+00 -0.154847532914798D-01  0.000000000000000D+00  0.000000000000000D+00  0.000000000000000D+00
      8   0.000000000000000D+00 -0.427762793280866D-01  0.000000000000000D+00  0.000000000000000D+00  0.000000000000000D+00
                 6             7             8 
      1   0.000000000000000D+00  0.000000000000000D+00  0.000000000000000D+00
      2  -0.312936377740929D-01 -0.154847532914798D-01 -0.427762793280865D-01
      3   0.000000000000000D+00  0.000000000000000D+00  0.000000000000000D+00
      4   0.000000000000000D+00  0.000000000000000D+00  0.000000000000000D+00
      5   0.000000000000000D+00  0.000000000000000D+00  0.000000000000000D+00
      6  -0.245862701798572D+00 -0.285096109919403D+00 -0.444421548627979D+00
      7  -0.285096109919403D+00  0.272369557807174D+00 -0.241187729678701D+00
      8  -0.444421548627979D+00 -0.241187729678700D+00 -0.330091712245807D-01
 Core Hamiltonian (NO) (imaginary):
                 1             2             3             4             5 
      1   0.000000000000000D+00  0.000000000000000D+00  0.000000000000000D+00  0.000000000000000D+00  0.000000000000000D+00
      2   0.000000000000000D+00  0.000000000000000D+00  0.000000000000000D+00  0.000000000000000D+00  0.000000000000000D+00
      3   0.000000000000000D+00  0.000000000000000D+00  0.000000000000000D+00  0.000000000000000D+00  0.000000000000000D+00
      4   0.000000000000000D+00  0.000000000000000D+00  0.000000000000000D+00  0.000000000000000D+00  0.000000000000000D+00
      5   0.000000000000000D+00  0.000000000000000D+00  0.000000000000000D+00  0.000000000000000D+00  0.000000000000000D+00
      6   0.000000000000000D+00  0.000000000000000D+00  0.000000000000000D+00  0.000000000000000D+00  0.000000000000000D+00
      7   0.000000000000000D+00  0.000000000000000D+00  0.000000000000000D+00  0.000000000000000D+00  0.000000000000000D+00
      8   0.000000000000000D+00  0.000000000000000D+00  0.000000000000000D+00  0.000000000000000D+00  0.000000000000000D+00
                 6             7             8 
      1   0.000000000000000D+00  0.000000000000000D+00  0.000000000000000D+00
      2   0.000000000000000D+00  0.000000000000000D+00  0.000000000000000D+00
      3   0.000000000000000D+00  0.000000000000000D+00  0.000000000000000D+00
      4   0.000000000000000D+00  0.000000000000000D+00  0.000000000000000D+00
      5   0.000000000000000D+00  0.000000000000000D+00  0.000000000000000D+00
      6   0.000000000000000D+00  0.000000000000000D+00  0.000000000000000D+00
      7   0.000000000000000D+00  0.000000000000000D+00  0.000000000000000D+00
      8   0.000000000000000D+00  0.000000000000000D+00  0.000000000000000D+00
trh  -1.53309   0.00000trg   0.27192   0.00000
trh  -1.53382   0.00000trg   0.27229   0.00000
trh  -1.53748   0.00000trg   0.27414   0.00000
trh  -1.54867   0.00000trg   0.27980   0.00000
trh  -1.57882   0.00000trg   0.29503   0.00000
trh  -1.65750   0.00000trg   0.33479   0.00000
trh  -1.80302   0.00000trg   0.40833   0.00000
trh  -1.88373   0.00000trg   0.44911   0.00000
  
 Feff (real):
                 1             2             3             4             5 
      1   0.000000000000000D+00  0.000000000000000D+00  0.000000000000000D+00  0.000000000000000D+00  0.000000000000000D+00
      2   0.000000000000000D+00  0.000000000000000D+00  0.226807590430779D-01  0.204641998100931D-01 -0.113289506817065D-01
      3   0.000000000000000D+00 -0.226807590430776D-01  0.000000000000000D+00  0.000000000000000D+00  0.000000000000000D+00
      4   0.000000000000000D+00 -0.204641998100930D-01  0.000000000000000D+00  0.000000000000000D+00  0.000000000000000D+00
      5   0.000000000000000D+00  0.113289506817062D-01  0.000000000000000D+00  0.000000000000000D+00  0.000000000000000D+00
      6  -0.273610332820725D-01  0.000000000000000D+00  0.000000000000000D+00  0.000000000000000D+00  0.000000000000000D+00
      7   0.152369791014989D-01  0.000000000000000D+00  0.000000000000000D+00  0.000000000000000D+00  0.000000000000000D+00
      8  -0.898630924150357D-02  0.000000000000000D+00  0.000000000000000D+00  0.000000000000000D+00  0.000000000000000D+00
                 6             7             8 
      1   0.273610332820725D-01 -0.152369791014989D-01  0.898630924150345D-02
      2   0.000000000000000D+00  0.000000000000000D+00  0.000000000000000D+00
      3   0.000000000000000D+00  0.000000000000000D+00  0.000000000000000D+00
      4   0.000000000000000D+00  0.000000000000000D+00  0.000000000000000D+00
      5   0.000000000000000D+00  0.000000000000000D+00  0.000000000000000D+00
      6   0.000000000000000D+00  0.000000000000000D+00  0.000000000000000D+00
      7   0.000000000000000D+00  0.000000000000000D+00  0.000000000000000D+00
      8   0.000000000000000D+00  0.000000000000000D+00  0.000000000000000D+00
 Feff (imaginary):
                 1             2             3             4             5 
      1   0.000000000000000D+00  0.000000000000000D+00  0.000000000000000D+00  0.000000000000000D+00  0.000000000000000D+00
      2   0.000000000000000D+00  0.000000000000000D+00  0.000000000000000D+00  0.000000000000000D+00  0.000000000000000D+00
      3   0.000000000000000D+00  0.000000000000000D+00  0.000000000000000D+00  0.000000000000000D+00  0.000000000000000D+00
      4   0.000000000000000D+00  0.000000000000000D+00  0.000000000000000D+00  0.000000000000000D+00  0.000000000000000D+00
      5   0.000000000000000D+00  0.000000000000000D+00  0.000000000000000D+00  0.000000000000000D+00  0.000000000000000D+00
      6   0.000000000000000D+00  0.000000000000000D+00  0.000000000000000D+00  0.000000000000000D+00  0.000000000000000D+00
      7   0.000000000000000D+00  0.000000000000000D+00  0.000000000000000D+00  0.000000000000000D+00  0.000000000000000D+00
      8   0.000000000000000D+00  0.000000000000000D+00  0.000000000000000D+00  0.000000000000000D+00  0.000000000000000D+00
                 6             7             8 
      1   0.000000000000000D+00  0.000000000000000D+00  0.000000000000000D+00
      2   0.000000000000000D+00  0.000000000000000D+00  0.000000000000000D+00
      3   0.000000000000000D+00  0.000000000000000D+00  0.000000000000000D+00
      4   0.000000000000000D+00  0.000000000000000D+00  0.000000000000000D+00
      5   0.000000000000000D+00  0.000000000000000D+00  0.000000000000000D+00
      6   0.000000000000000D+00  0.000000000000000D+00  0.000000000000000D+00
      7   0.000000000000000D+00  0.000000000000000D+00  0.000000000000000D+00
      8   0.000000000000000D+00  0.000000000000000D+00  0.000000000000000D+00
  
 Effective Fock (alpha, real):
                1             2             3             4 
      1   0.000000000000000D+00
      2   0.000000000000000D+00  0.000000000000000D+00
      3   0.000000000000000D+00  0.000000000000000D+00  0.000000000000000D+00
      4   0.000000000000000D+00  0.000000000000000D+00  0.000000000000000D+00  0.000000000000000D+00
 Effective Fock (alpha, imaginary):
                1             2             3             4 
      1   0.000000000000000D+00
      2  -0.000000000000000D+00  0.000000000000000D+00
      3  -0.000000000000000D+00 -0.000000000000000D+00  0.000000000000000D+00
      4  -0.000000000000000D+00 -0.000000000000000D+00 -0.000000000000000D+00  0.000000000000000D+00
 Effective Fock (beta, real):
                1             2             3             4 
      1   0.000000000000000D+00
      2   0.000000000000000D+00  0.000000000000000D+00
      3   0.000000000000000D+00  0.000000000000000D+00  0.000000000000000D+00
      4   0.000000000000000D+00  0.000000000000000D+00  0.000000000000000D+00  0.000000000000000D+00
 Effective Fock (beta, imaginary):
                1             2             3             4 
      1   0.000000000000000D+00
      2  -0.000000000000000D+00  0.000000000000000D+00
      3  -0.000000000000000D+00 -0.000000000000000D+00  0.000000000000000D+00
      4  -0.000000000000000D+00 -0.000000000000000D+00 -0.000000000000000D+00  0.000000000000000D+00
ifsel =     2, useproj    T
  
 Effective Fock (alpha, real):
                1             2             3             4 
      1  -0.230816688359139D+00
      2   0.331870772501456D+00  0.305688739957857D-02
      3   0.223661448135382D+00  0.736696330133778D-01  0.112118939948888D+01
      4   0.397982546895363D-01  0.330663213676945D+00  0.508694119015594D-01  0.111665983939566D+01
 Effective Fock (alpha, imaginary):
                1             2             3             4 
      1   0.000000000000000D+00
      2  -0.000000000000000D+00  0.000000000000000D+00
      3  -0.000000000000000D+00 -0.000000000000000D+00  0.000000000000000D+00
      4  -0.000000000000000D+00 -0.000000000000000D+00 -0.000000000000000D+00  0.000000000000000D+00
 Effective Fock (beta, real):
                1             2             3             4 
      1  -0.230816688359139D+00
      2  -0.331870772501456D+00  0.305688739957838D-02
      3   0.223661448135384D+00 -0.736696330133757D-01  0.112118939948888D+01
      4  -0.397982546895373D-01  0.330663213676945D+00 -0.508694119015616D-01  0.111665983939566D+01
 Effective Fock (beta, imaginary):
                1             2             3             4 
      1   0.000000000000000D+00
      2  -0.000000000000000D+00  0.000000000000000D+00
      3  -0.000000000000000D+00 -0.000000000000000D+00  0.000000000000000D+00
      4  -0.000000000000000D+00 -0.000000000000000D+00 -0.000000000000000D+00  0.000000000000000D+00
  
 New P (alpha, real):
                1             2             3             4 
      1   0.636104820200244D+00
      2  -0.468868541643191D+00  0.345599816824857D+00
      3  -0.692763456556470D-01  0.510631237595522D-01  0.754468747130370D-02
      4   0.826955652272005D-01 -0.609543393433666D-01 -0.900613606270931D-02  0.107506755035961D-01
 New P (alpha, imaginary):
                1             2             3             4 
      1   0.000000000000000D+00
      2  -0.000000000000000D+00  0.000000000000000D+00
      3  -0.000000000000000D+00 -0.000000000000000D+00  0.000000000000000D+00
      4  -0.000000000000000D+00 -0.000000000000000D+00 -0.000000000000000D+00  0.000000000000000D+00
 New P (beta, real):
                1             2             3             4 
      1   0.636104820200243D+00
      2   0.468868541643191D+00  0.345599816824856D+00
      3  -0.692763456556483D-01 -0.510631237595533D-01  0.754468747130401D-02
      4  -0.826955652272001D-01 -0.609543393433663D-01  0.900613606270946D-02  0.107506755035960D-01
 New P (beta, imaginary):
                1             2             3             4 
      1   0.000000000000000D+00
      2  -0.000000000000000D+00  0.000000000000000D+00
      3  -0.000000000000000D+00 -0.000000000000000D+00  0.000000000000000D+00
      4  -0.000000000000000D+00 -0.000000000000000D+00 -0.000000000000000D+00  0.000000000000000D+00

 Fock eigenvalues (alpha):
      orbital --                 1                2                3                4
       energy --    -4.9462081D-01    1.2192775D-01    1.0988238D+00    1.2839587D+00

 Fock eigenvalues (beta):
      orbital --                 1                2                3                4
       energy --    -4.9462081D-01    1.2192775D-01    1.0988238D+00    1.2839587D+00

 *** cycle =   17 ***

        E =      -1.009944954646      DE =      -0.000000000000
      Hsp =      -1.560113926476     Hph =       0.285580367535
   <S**2> =       0.000000000000
    RMSDP =       7.3225D-09        MaxP =       1.5712D-08

   E (HF) =      -0.996562752096

 ********************


 *** SCF Done after   17 cycles ***

        E =      -1.009944954646    conv =           7.3225E-09
      Hsp =      -1.560113926476     Hph =       0.285580367535
   <S**2> =       0.000000000000

 **********************************


 PHF SCF - quitting the program

 Leave Link  530 at Wed Oct 28 21:09:27 2020, MaxMem=  536870912 cpu:       0.5
 (Enter /share/home/srwang/g09/l9999.exe)

 Test job not archived.
 1\1\GINC-XCLUSTER\SP\CUHF\3-21G\H2\SRWANG\28-Oct-2020\0\\#p uhf/3-21g 
 nosymm guess=mix scf=conver=4 extralink=l530 iop(5/206=9, 5/207=4, 5/2
 16=0) pop=none\\title\\0,1\H,0,0.,0.,0.\H,0,0.,0.,2.\\Version=EM64L-G0
 9RevC.01\HF=-1.009945\S2=0.\S2-1=0.\S2A=0.\RMSD=7.323e-09\PG=D*H [C*(H
 1.H1)]\\@


 EDUCATION IS NOT TRAINING BUT RATHER THE PROCESS THAT EQUIPS YOU TO
 ENTERTAIN YOURSELF, A FRIEND, OR AN IDEA.  -- WALLACE STERLING
 Job cpu time:  0 days  0 hours  0 minutes  1.0 seconds.
 File lengths (MBytes):  RWF=     72 Int=      0 D2E=      0 Chk=      2 Scr=      2
 Normal termination of Gaussian 09 at Wed Oct 28 21:09:27 2020.
