 Entering Gaussian System, Link 0=g09
 Input=test_n2.gjf
 Output=test_n2.log
 Initial command:
 /share/apps/gaussian/G09C01Z/srwang-mod-2020/g09/l1.exe /scratch/scr/srwang/gau/Gau-2428.inp -scrdir=/scratch/scr/srwang/gau/
 Entering Link 1 = /share/apps/gaussian/G09C01Z/srwang-mod-2020/g09/l1.exe PID=      2434.
  
 Copyright (c) 1988,1990,1992,1993,1995,1998,2003,2009,2011,
            Gaussian, Inc.  All Rights Reserved.
  
 This is part of the Gaussian(R) 09 program.  It is based on
 the Gaussian(R) 03 system (copyright 2003, Gaussian, Inc.),
 the Gaussian(R) 98 system (copyright 1998, Gaussian, Inc.),
 the Gaussian(R) 94 system (copyright 1995, Gaussian, Inc.),
 the Gaussian 92(TM) system (copyright 1992, Gaussian, Inc.),
 the Gaussian 90(TM) system (copyright 1990, Gaussian, Inc.),
 the Gaussian 88(TM) system (copyright 1988, Gaussian, Inc.),
 the Gaussian 86(TM) system (copyright 1986, Carnegie Mellon
 University), and the Gaussian 82(TM) system (copyright 1983,
 Carnegie Mellon University). Gaussian is a federally registered
 trademark of Gaussian, Inc.
  
 This software contains proprietary and confidential information,
 including trade secrets, belonging to Gaussian, Inc.
  
 This software is provided under written license and may be
 used, copied, transmitted, or stored only in accord with that
 written license.
  
 The following legend is applicable only to US Government
 contracts under FAR:
  
                    RESTRICTED RIGHTS LEGEND
  
 Use, reproduction and disclosure by the US Government is
 subject to restrictions as set forth in subparagraphs (a)
 and (c) of the Commercial Computer Software - Restricted
 Rights clause in FAR 52.227-19.
  
 Gaussian, Inc.
 340 Quinnipiac St., Bldg. 40, Wallingford CT 06492
  
  
 ---------------------------------------------------------------
 Warning -- This program may not be used in any manner that
 competes with the business of Gaussian, Inc. or will provide
 assistance to any competitor of Gaussian, Inc.  The licensee
 of this program is prohibited from giving any competitor of
 Gaussian, Inc. access to this program.  By using this program,
 the user acknowledges that Gaussian, Inc. is engaged in the
 business of creating and licensing software in the field of
 computational chemistry and represents and warrants to the
 licensee that it is not a competitor of Gaussian, Inc. and that
 it will not use this program in any manner prohibited above.
 ---------------------------------------------------------------
  

 Cite this work as:
 Gaussian 09, Revision C.01,
 M. J. Frisch, G. W. Trucks, H. B. Schlegel, G. E. Scuseria, 
 M. A. Robb, J. R. Cheeseman, G. Scalmani, V. Barone, B. Mennucci, 
 G. A. Petersson, H. Nakatsuji, M. Caricato, X. Li, H. P. Hratchian, 
 A. F. Izmaylov, J. Bloino, G. Zheng, J. L. Sonnenberg, M. Hada, 
 M. Ehara, K. Toyota, R. Fukuda, J. Hasegawa, M. Ishida, T. Nakajima, 
 Y. Honda, O. Kitao, H. Nakai, T. Vreven, J. A. Montgomery, Jr., 
 J. E. Peralta, F. Ogliaro, M. Bearpark, J. J. Heyd, E. Brothers, 
 K. N. Kudin, V. N. Staroverov, T. Keith, R. Kobayashi, J. Normand, 
 K. Raghavachari, A. Rendell, J. C. Burant, S. S. Iyengar, J. Tomasi, 
 M. Cossi, N. Rega, J. M. Millam, M. Klene, J. E. Knox, J. B. Cross, 
 V. Bakken, C. Adamo, J. Jaramillo, R. Gomperts, R. E. Stratmann, 
 O. Yazyev, A. J. Austin, R. Cammi, C. Pomelli, J. W. Ochterski, 
 R. L. Martin, K. Morokuma, V. G. Zakrzewski, G. A. Voth, 
 P. Salvador, J. J. Dannenberg, S. Dapprich, A. D. Daniels, 
 O. Farkas, J. B. Foresman, J. V. Ortiz, J. Cioslowski, 
 and D. J. Fox, Gaussian, Inc., Wallingford CT, 2010.
 
 ******************************************
 Gaussian 09:  EM64L-G09RevC.01 23-Sep-2011
                25-Jan-2021 
 ******************************************
 %subst l530 ../../phf
 %nproc=1
 Will use up to    1 processors via shared memory.
 %mem=4GB
 %oldchk=../scan_n2/uhf-1.30.chk
 %chk=test_n2.chk
 Copying data from "../scan_n2/uhf-1.30.chk" to current chk file "test_n2.chk".
 ----------------------------------------------------------------------
 #p uhf/cc-pvdz nosymm guess=read scf=conver=2 # extralink=l530 iop(5/2
 06=6, 5/207=4, 5/216=1, 5/218=40) pop=none
 ----------------------------------------------------------------------
 1/38=1/1;
 2/12=2,15=1,17=6,18=5,40=1/2;
 3/5=16,11=2,16=1,25=1,30=1,116=2/1,2,3;
 4/5=1/1;
 5/5=2,6=2,38=6,206=6,207=4,216=1,218=40/2,30;
 99/5=1,9=1/99;
 Leave Link    1 at Mon Jan 25 20:05:49 2021, MaxMem=  536870912 cpu:       0.0
 (Enter /share/apps/gaussian/G09C01Z/srwang-mod-2020/g09/l101.exe)
 -----
 title
 -----
 Charge =  0 Multiplicity = 1
 Symbolic Z-Matrix:
 N                     0.        0.        0. 
 N                     0.        0.        0.9 
 
 NAtoms=      2 NQM=        0 NQMF=       0 NMMI=      2 NMMIF=      0
                NMic=       0 NMicF=      0.
                    Isotopes and Nuclear Properties:
 (Nuclear quadrupole moments (NQMom) in fm**2, nuclear magnetic moments (NMagM)
  in nuclear magnetons)

  Atom         1           2
 IAtWgt=          14          14
 AtmWgt=  14.0030740  14.0030740
 NucSpn=           2           2
 AtZEff=   0.0000000   0.0000000
 NQMom=    2.0440000   2.0440000
 NMagM=    0.4037610   0.4037610
 Leave Link  101 at Mon Jan 25 20:05:50 2021, MaxMem=  536870912 cpu:       0.0
 (Enter /share/apps/gaussian/G09C01Z/srwang-mod-2020/g09/l202.exe)
                          Input orientation:                          
 ---------------------------------------------------------------------
 Center     Atomic      Atomic             Coordinates (Angstroms)
 Number     Number       Type             X           Y           Z
 ---------------------------------------------------------------------
      1          7           0        0.000000    0.000000    0.000000
      2          7           0        0.000000    0.000000    0.900000
 ---------------------------------------------------------------------
 Symmetry turned off by external request.
 Stoichiometry    N2
 Framework group  D*H[C*(N.N)]
 Deg. of freedom     1
 Full point group                 D*H     NOp   8
 Rotational constants (GHZ):      0.0000000     89.1125330     89.1125330
 Leave Link  202 at Mon Jan 25 20:05:50 2021, MaxMem=  536870912 cpu:       0.0
 (Enter /share/apps/gaussian/G09C01Z/srwang-mod-2020/g09/l301.exe)
 Standard basis: CC-pVDZ (5D, 7F)
 Ernie: Thresh=  0.10000D-02 Tol=  0.10000D-05 Strict=F.
 Ernie:  4 primitive shells out of 44 were deleted.
 Integral buffers will be    131072 words long.
 Raffenetti 2 integral format.
 Two-electron integral symmetry is turned off.
    28 basis functions,    66 primitive gaussians,    30 cartesian basis functions
     7 alpha electrons        7 beta electrons
       nuclear repulsion energy        28.8107591343 Hartrees.
 IExCor=    0 DFT=F Ex=HF Corr=None ExCW=0 ScaHFX=  1.000000
 ScaDFX=  1.000000  1.000000  1.000000  1.000000 ScalE2=  1.000000  1.000000
 IRadAn=      0 IRanWt=     -1 IRanGd=            0 ICorTp=0
 NAtoms=    2 NActive=    2 NUniq=    2 SFac= 1.00D+00 NAtFMM=   60 NAOKFM=F Big=F
 Leave Link  301 at Mon Jan 25 20:05:50 2021, MaxMem=  536870912 cpu:       0.0
 (Enter /share/apps/gaussian/G09C01Z/srwang-mod-2020/g09/l302.exe)
 NPDir=0 NMtPBC=     1 NCelOv=     1 NCel=       1 NClECP=     1 NCelD=      1
         NCelK=      1 NCelE2=     1 NClLst=     1 CellRange=     0.0.
 One-electron integrals computed using PRISM.
 Bad symmetry data in SVDSVc:  NBasis=   28 NT=   28 NBlks=1 MaxCmp=1 NBF=   28
 NBasis=    28 RedAO= T  NBF=    28
 NBsUse=    28 1.00D-06 NBFU=    28
 Leave Link  302 at Mon Jan 25 20:05:50 2021, MaxMem=  536870912 cpu:       0.1
 (Enter /share/apps/gaussian/G09C01Z/srwang-mod-2020/g09/l303.exe)
 DipDrv:  MaxL=1.
 Leave Link  303 at Mon Jan 25 20:05:50 2021, MaxMem=  536870912 cpu:       0.0
 (Enter /share/apps/gaussian/G09C01Z/srwang-mod-2020/g09/l401.exe)
 Initial guess read from the checkpoint file:  test_n2.chk
 B after Tr=     0.000000    0.000000    0.850377
         Rot=    0.000000   -0.000000    1.000000   -0.000000 Ang= 180.00 deg.
 Guess basis will be translated and rotated to current coordinates.
 Initial guess <Sx>= 0.0000 <Sy>= 0.0000 <Sz>= 0.0000 <S**2>= 0.7052 S= 0.4773
 Leave Link  401 at Mon Jan 25 20:05:50 2021, MaxMem=  536870912 cpu:       0.1
 (Enter /share/apps/gaussian/G09C01Z/srwang-mod-2020/g09/l502.exe)
 UHF open shell SCF:
 Requested convergence on RMS density matrix=1.00D-02 within 128 cycles.
 Requested convergence on MAX density matrix=1.00D+00.
 Requested convergence on             energy=1.00D+00.
 No special actions if energy rises.
 Using DIIS extrapolation, IDIIS=  1040.
 Two-electron integral symmetry not used.
 Keep R1 and R2 ints in memory in canonical form, NReq=1057921.
 IEnd=       21210 IEndB=       21210 NGot=   536870912 MDV=   536650555
 LenX=   536650555 LenY=   536649214
 Symmetry not used in FoFDir.
 MinBra= 0 MaxBra= 2 Meth= 1.
 IRaf=       0 NMat=   1 IRICut=       1 DoRegI=T DoRafI=F ISym2E= 0 JSym2E=0.

 Cycle   1  Pass 1  IDiag  1:
 E= -108.549614352126    
 DIIS: error= 5.27D-02 at cycle   1 NSaved=   1.
 NSaved= 1 IEnMin= 1 EnMin= -108.549614352126     IErMin= 1 ErrMin= 5.27D-02
 ErrMax= 5.27D-02 EMaxC= 1.00D-01 BMatC= 5.48D-01 BMatP= 5.48D-01
 IDIUse=3 WtCom= 4.73D-01 WtEn= 5.27D-01
 Coeff-Com:  0.100D+01
 Coeff-En:   0.100D+01
 Coeff:      0.100D+01
 Gap=     1.110 Goal=   None    Shift=    0.000
 Gap=     1.110 Goal=   None    Shift=    0.000
 GapD=    1.110 DampG=2.000 DampE=0.500 DampFc=1.0000 IDamp=-1.
 RMSDP=1.24D-02 MaxDP=7.20D-02              OVMax= 1.33D-01

 Cycle   2  Pass 1  IDiag  1:
 E= -108.719953462469     Delta-E=       -0.170339110343 Rises=F Damp=F
 DIIS: error= 2.85D-02 at cycle   2 NSaved=   2.
 NSaved= 2 IEnMin= 2 EnMin= -108.719953462469     IErMin= 2 ErrMin= 2.85D-02
 ErrMax= 2.85D-02 EMaxC= 1.00D-01 BMatC= 6.53D-02 BMatP= 5.48D-01
 IDIUse=3 WtCom= 7.15D-01 WtEn= 2.85D-01
 Coeff-Com:  0.177D-01 0.982D+00
 Coeff-En:   0.000D+00 0.100D+01
 Coeff:      0.126D-01 0.987D+00
 Gap=     0.920 Goal=   None    Shift=    0.000
 Gap=     0.920 Goal=   None    Shift=    0.000
 DSYEVD returned Info=          57 IAlg= 4 N=    28 NDim=    28 NE2=    19166042 trying DSYEV.
 RMSDP=4.70D-03 MaxDP=4.37D-02 DE=-1.70D-01 OVMax= 5.79D-02

 SCF Done:  E(UHF) =  -108.719953462     A.U. after    2 cycles
             Convg  =    0.4697D-02             -V/T =  1.9813
 <Sx>= 0.0000 <Sy>= 0.0000 <Sz>= 0.0000 <S**2>= 0.2123 S= 0.1799
 <L.S>= 0.000000000000E+00
 KE= 1.107972826104D+02 PE=-3.150894239798D+02 EE= 6.676142877258D+01
 Annihilation of the first spin contaminant:
 S**2 before annihilation     0.2123,   after     0.0526
 Leave Link  502 at Mon Jan 25 20:05:50 2021, MaxMem=  536870912 cpu:       0.1
  
  +-------------------------------------------+
  |                                           |
  |  LINK 530 - Projected Hartree-Fock (PHF)  |
  |     Self-Consistent Field (SCF) Code      |
  |                                           |
  |                                           |
  |         the Scuseria group, v0.2, 07.2011 |
  +-------------------------------------------+
  
 (Enter ../../phf/l530.exe)

 PHF SCF was invoked with the following options:

   method selection:
 iprint =  6
 iphf   =  4, [ UHF + spin projection ]

   general options:
 maxcyc =    512, S      =      0
 ngrda  =      1, ngrdb  =      8, ngrdg  =      1

   accuracy requested:
 conv criterion (RMSDP, RMSDK) =     1.0000E-08
 requested integral accuracy   =     1.0000E-10

   use of symmetry:
 two-electron integral symmetry not used

   strategy options:
 level shifting is turned off
 use of DIIS extrapolation is turned on
 mxscfc =     20, idisgo =     40
 istrat =      1, continue as usual if energy rises
 modified PHF effective Fock matrix used

   initial guess options:
 igues1 =  1, read GDV guess


 PHF SCF - preparing initial guess


 PHF SCF - starting SCF procedure

beta in GauLeg
grd=    0.0624    0.3194    0.7453    1.2827    1.8589    2.3963    2.8222    3.0792
wgt=    0.0099    0.1097    0.3342    0.5462    0.5462    0.3342    0.1097    0.0099
WigArr: s=    0, sz=    0, isint=    T, ncis=                       1, dind=    0.0000
dmt=    1.0000    1.0000    1.0000    1.0000    1.0000    1.0000    1.0000    1.0000
*********  Start Cycle  1  *************
 
Start hffock

 Symmetry not used in FoFDir.
 MinBra= 0 MaxBra= 2 Meth= 1.
 IRaf=       1 NMat=   2 IRICut=       1 DoRegI=T DoRafI=F ISym2E= 0 JSym2E=0.
 PrsmSu:  NPrtUS=   1 ThrOK=F IAlg=1 NPAlg=1 LenDen=           0.
 Prism:   IPart=     0 DynPar=F LinDyn=F Incr=          30.
 PRISM was handed   536809828 working-precision words and    78 shell-pairs
 IPart=  0 NShTot=        3081 NBatch=         210 AvBLen=        14.7
 PrSmSu:  NxtVal=             31.
 
Start hfdmdg: find NO basis
 
Start formng/pg
 
Start formgg

 Symmetry not used in FoFDir.
 MinBra= 0 MaxBra= 2 Meth= 1.
 IRaf=       1 NMat=  64 IRICut=       1 DoRegI=T DoRafI=F ISym2E= 0 JSym2E=0.
 PrsmSu:  NPrtUS=   1 ThrOK=F IAlg=1 NPAlg=1 LenDen=           0.
 Prism:   IPart=     0 DynPar=F LinDyn=F Incr=          30.
 PRISM was handed   536674208 working-precision words and    78 shell-pairs
 IPart=  0 NShTot=        3081 NBatch=         210 AvBLen=        14.7
 PrSmSu:  NxtVal=             31.
 
Start evalsmt/hmt
 Smt (real):
                 1 
      1   0.179555D+01
 Smt (imaginary):
                 1 
      1   0.000000D+00
 Hmt (real):
                 1 
      1  -0.247089D+03
 Hmt (imaginary):
                 1 
      1   0.000000D+00
 
Form Fock eff
ifsel =     2, useproj    T
 DIIS: error= 9.88D-03 at cycle   1 NSaved=   1.
 NSaved= 1 IEnMin= 1 EnMin= -108.801440358033     IErMin= 1 ErrMin= 9.88D-03
 ErrMax= 9.88D-03 EMaxC= 1.00D+00 BMatC= 7.54D-03 BMatP= 7.54D-03
 IDIUse=1 WtCom= 1.00D+00 WtEn= 0.00D+00
 Coeff-Com:  0.100D+01
 Coeff:      0.100D+01
 
Diag Fock

 Fock eigenvalues (alpha):
      orbital --                 1                2                3                4
       energy --    -1.5641324D+01   -1.5610532D+01   -1.6213954D+00   -7.1705661D-01
      orbital --                 5                6                7                8
       energy --    -7.1705661D-01   -7.1365608D-01   -6.3064962D-01    2.9252076D-01
      orbital --                 9               10               11               12
       energy --     2.9252076D-01    6.2680130D-01    7.5491688D-01    7.9868049D-01
      orbital --                13               14               15               16
       energy --     7.9868049D-01    1.0238821D+00    1.1150541D+00    1.1150541D+00
      orbital --                17               18               19               20
       energy --     1.4379831D+00    1.7003725D+00    1.7003725D+00    1.9446501D+00
      orbital --                21               22               23               24
       energy --     2.1280087D+00    2.1280087D+00    2.4517505D+00    2.4517505D+00
      orbital --                25               26               27               28
       energy --     2.9728773D+00    3.2390045D+00    3.2390045D+00    4.1991480D+00

 Fock eigenvalues (beta):
      orbital --                 1                2                3                4
       energy --    -1.5641324D+01   -1.5610532D+01   -1.6213954D+00   -7.1705661D-01
      orbital --                 5                6                7                8
       energy --    -7.1705661D-01   -7.1365608D-01   -6.3064962D-01    2.9252076D-01
      orbital --                 9               10               11               12
       energy --     2.9252076D-01    6.2680130D-01    7.5491688D-01    7.9868049D-01
      orbital --                13               14               15               16
       energy --     7.9868049D-01    1.0238821D+00    1.1150541D+00    1.1150541D+00
      orbital --                17               18               19               20
       energy --     1.4379831D+00    1.7003725D+00    1.7003725D+00    1.9446501D+00
      orbital --                21               22               23               24
       energy --     2.1280087D+00    2.1280087D+00    2.4517505D+00    2.4517505D+00
      orbital --                25               26               27               28
       energy --     2.9728773D+00    3.2390045D+00    3.2390045D+00    4.1991480D+00

 *** cycle =    1 ***

        E =    -108.801440358033
      Hsp =    -203.889005483248     Hph =      66.276805990871
   <S**2> =       0.000000000370
    RMSDP =       1.5494D-03        MaxP =       1.6915D-02

   E (HF) =    -108.751819429046

 ********************

*********  Start Cycle  2  *************
 
Start hffock

 Symmetry not used in FoFDir.
 MinBra= 0 MaxBra= 2 Meth= 1.
 IRaf=       1 NMat=   2 IRICut=       1 DoRegI=T DoRafI=F ISym2E= 0 JSym2E=0.
 PrsmSu:  NPrtUS=   1 ThrOK=F IAlg=1 NPAlg=1 LenDen=           0.
 Prism:   IPart=     0 DynPar=F LinDyn=F Incr=          30.
 PRISM was handed   536809828 working-precision words and    78 shell-pairs
 IPart=  0 NShTot=        3081 NBatch=         210 AvBLen=        14.7
 PrSmSu:  NxtVal=             31.
 
Start hfdmdg: find NO basis
 
Start formng/pg
 
Start formgg

 Symmetry not used in FoFDir.
 MinBra= 0 MaxBra= 2 Meth= 1.
 IRaf=       1 NMat=  64 IRICut=       1 DoRegI=T DoRafI=F ISym2E= 0 JSym2E=0.
 PrsmSu:  NPrtUS=   1 ThrOK=F IAlg=1 NPAlg=1 LenDen=           0.
 Prism:   IPart=     0 DynPar=F LinDyn=F Incr=          30.
 PRISM was handed   536674208 working-precision words and    78 shell-pairs
 IPart=  0 NShTot=        3081 NBatch=         210 AvBLen=        14.7
 PrSmSu:  NxtVal=             31.
 
Start evalsmt/hmt
 Smt (real):
                 1 
      1   0.174660D+01
 Smt (imaginary):
                 1 
      1   0.000000D+00
 Hmt (real):
                 1 
      1  -0.240362D+03
 Hmt (imaginary):
                 1 
      1   0.000000D+00
 
Form Fock eff
ifsel =     2, useproj    T
 DIIS: error= 1.00D-02 at cycle   2 NSaved=   2.
 NSaved= 2 IEnMin= 2 EnMin= -108.806142065855     IErMin= 1 ErrMin= 9.88D-03
 ErrMax= 1.00D-02 EMaxC= 1.00D+00 BMatC= 7.23D-03 BMatP= 7.54D-03
 IDIUse=1 WtCom= 1.00D+00 WtEn= 0.00D+00
 Coeff-Com:  0.000D+00 0.100D+01
 Coeff:      0.000D+00 0.100D+01
 
Diag Fock

 Fock eigenvalues (alpha):
      orbital --                 1                2                3                4
       energy --    -1.5631897D+01   -1.5597723D+01   -1.6158866D+00   -7.1441235D-01
      orbital --                 5                6                7                8
       energy --    -7.1441235D-01   -7.1111686D-01   -6.2461158D-01    2.9610209D-01
      orbital --                 9               10               11               12
       energy --     2.9610209D-01    6.2873297D-01    7.5678381D-01    8.0007933D-01
      orbital --                13               14               15               16
       energy --     8.0007933D-01    1.0269015D+00    1.1190927D+00    1.1190927D+00
      orbital --                17               18               19               20
       energy --     1.4412036D+00    1.7032232D+00    1.7032232D+00    1.9488026D+00
      orbital --                21               22               23               24
       energy --     2.1319176D+00    2.1319176D+00    2.4549342D+00    2.4549342D+00
      orbital --                25               26               27               28
       energy --     2.9765827D+00    3.2430618D+00    3.2430618D+00    4.2060921D+00

 Fock eigenvalues (beta):
      orbital --                 1                2                3                4
       energy --    -1.5631897D+01   -1.5597723D+01   -1.6158866D+00   -7.1441235D-01
      orbital --                 5                6                7                8
       energy --    -7.1441235D-01   -7.1111686D-01   -6.2461158D-01    2.9610209D-01
      orbital --                 9               10               11               12
       energy --     2.9610209D-01    6.2873297D-01    7.5678381D-01    8.0007933D-01
      orbital --                13               14               15               16
       energy --     8.0007933D-01    1.0269015D+00    1.1190927D+00    1.1190927D+00
      orbital --                17               18               19               20
       energy --     1.4412036D+00    1.7032232D+00    1.7032232D+00    1.9488026D+00
      orbital --                21               22               23               24
       energy --     2.1319176D+00    2.1319176D+00    2.4549342D+00    2.4549342D+00
      orbital --                25               26               27               28
       energy --     2.9765827D+00    3.2430618D+00    3.2430618D+00    4.2060921D+00

 *** cycle =    2 ***

        E =    -108.806142065855      DE =      -0.004701707822
      Hsp =    -203.968428471648     Hph =      66.351527271449
   <S**2> =       0.000000000597
    RMSDP =       1.5170D-03        MaxP =       1.6860D-02

   E (HF) =    -108.743358963831

 ********************

*********  Start Cycle  3  *************
 
Start hffock

 Symmetry not used in FoFDir.
 MinBra= 0 MaxBra= 2 Meth= 1.
 IRaf=       1 NMat=   2 IRICut=       1 DoRegI=T DoRafI=F ISym2E= 0 JSym2E=0.
 PrsmSu:  NPrtUS=   1 ThrOK=F IAlg=1 NPAlg=1 LenDen=           0.
 Prism:   IPart=     0 DynPar=F LinDyn=F Incr=          30.
 PRISM was handed   536809828 working-precision words and    78 shell-pairs
 IPart=  0 NShTot=        3081 NBatch=         210 AvBLen=        14.7
 PrSmSu:  NxtVal=             31.
 
Start hfdmdg: find NO basis
 
Start formng/pg
 
Start formgg

 Symmetry not used in FoFDir.
 MinBra= 0 MaxBra= 2 Meth= 1.
 IRaf=       1 NMat=  64 IRICut=       1 DoRegI=T DoRafI=F ISym2E= 0 JSym2E=0.
 PrsmSu:  NPrtUS=   1 ThrOK=F IAlg=1 NPAlg=1 LenDen=           0.
 Prism:   IPart=     0 DynPar=F LinDyn=F Incr=          30.
 PRISM was handed   536674208 working-precision words and    78 shell-pairs
 IPart=  0 NShTot=        3081 NBatch=         210 AvBLen=        14.7
 PrSmSu:  NxtVal=             31.
 
Start evalsmt/hmt
 Smt (real):
                 1 
      1   0.169327D+01
 Smt (imaginary):
                 1 
      1   0.000000D+00
 Hmt (real):
                 1 
      1  -0.233031D+03
 Hmt (imaginary):
                 1 
      1   0.000000D+00
 
Form Fock eff
ifsel =     2, useproj    T
 DIIS: error= 9.72D-03 at cycle   3 NSaved=   3.
 NSaved= 3 IEnMin= 3 EnMin= -108.810766880645     IErMin= 3 ErrMin= 9.72D-03
 ErrMax= 9.72D-03 EMaxC= 1.00D+00 BMatC= 7.30D-03 BMatP= 7.23D-03
 IDIUse=1 WtCom= 1.00D+00 WtEn= 0.00D+00
 Coeff-Com:  0.000D+00 0.000D+00 0.100D+01
 Coeff:      0.000D+00 0.000D+00 0.100D+01
 
Diag Fock

 Fock eigenvalues (alpha):
      orbital --                 1                2                3                4
       energy --    -1.5633522D+01   -1.5595898D+01   -1.6173400D+00   -7.1618610D-01
      orbital --                 5                6                7                8
       energy --    -7.1618610D-01   -7.1270969D-01   -6.2216156D-01    2.9622676D-01
      orbital --                 9               10               11               12
       energy --     2.9622676D-01    6.2919374D-01    7.5661681D-01    7.9906247D-01
      orbital --                13               14               15               16
       energy --     7.9906247D-01    1.0270141D+00    1.1193571D+00    1.1193571D+00
      orbital --                17               18               19               20
       energy --     1.4411902D+00    1.7020235D+00    1.7020235D+00    1.9482349D+00
      orbital --                21               22               23               24
       energy --     2.1312536D+00    2.1312536D+00    2.4544820D+00    2.4544820D+00
      orbital --                25               26               27               28
       energy --     2.9763641D+00    3.2428916D+00    3.2428916D+00    4.2055508D+00

 Fock eigenvalues (beta):
      orbital --                 1                2                3                4
       energy --    -1.5633522D+01   -1.5595898D+01   -1.6173400D+00   -7.1618610D-01
      orbital --                 5                6                7                8
       energy --    -7.1618610D-01   -7.1270969D-01   -6.2216156D-01    2.9622676D-01
      orbital --                 9               10               11               12
       energy --     2.9622676D-01    6.2919374D-01    7.5661681D-01    7.9906247D-01
      orbital --                13               14               15               16
       energy --     7.9906247D-01    1.0270141D+00    1.1193571D+00    1.1193571D+00
      orbital --                17               18               19               20
       energy --     1.4411902D+00    1.7020235D+00    1.7020235D+00    1.9482349D+00
      orbital --                21               22               23               24
       energy --     2.1312536D+00    2.1312536D+00    2.4544820D+00    2.4544820D+00
      orbital --                25               26               27               28
       energy --     2.9763641D+00    3.2428916D+00    3.2428916D+00    4.2055508D+00

 *** cycle =    3 ***

        E =    -108.810766880645      DE =      -0.004624814790
      Hsp =    -203.951535632373     Hph =      66.330009617383
   <S**2> =       0.000000000921
    RMSDP =       1.4823D-03        MaxP =       1.5986D-02

   E (HF) =    -108.733058778675

 ********************

*********  Start Cycle  4  *************
 
Start hffock

 Symmetry not used in FoFDir.
 MinBra= 0 MaxBra= 2 Meth= 1.
 IRaf=       1 NMat=   2 IRICut=       1 DoRegI=T DoRafI=F ISym2E= 0 JSym2E=0.
 PrsmSu:  NPrtUS=   1 ThrOK=F IAlg=1 NPAlg=1 LenDen=           0.
 Prism:   IPart=     0 DynPar=F LinDyn=F Incr=          30.
 PRISM was handed   536809828 working-precision words and    78 shell-pairs
 IPart=  0 NShTot=        3081 NBatch=         210 AvBLen=        14.7
 PrSmSu:  NxtVal=             31.
 
Start hfdmdg: find NO basis
 
Start formng/pg
 
Start formgg

 Symmetry not used in FoFDir.
 MinBra= 0 MaxBra= 2 Meth= 1.
 IRaf=       1 NMat=  64 IRICut=       1 DoRegI=T DoRafI=F ISym2E= 0 JSym2E=0.
 PrsmSu:  NPrtUS=   1 ThrOK=F IAlg=1 NPAlg=1 LenDen=           0.
 Prism:   IPart=     0 DynPar=F LinDyn=F Incr=          30.
 PRISM was handed   536674208 working-precision words and    78 shell-pairs
 IPart=  0 NShTot=        3081 NBatch=         210 AvBLen=        14.7
 PrSmSu:  NxtVal=             31.
 
Start evalsmt/hmt
 Smt (real):
                 1 
      1   0.163837D+01
 Smt (imaginary):
                 1 
      1   0.000000D+00
 Hmt (real):
                 1 
      1  -0.225482D+03
 Hmt (imaginary):
                 1 
      1   0.000000D+00
 
Form Fock eff
ifsel =     2, useproj    T
 DIIS: error= 8.91D-03 at cycle   4 NSaved=   4.
 NSaved= 4 IEnMin= 4 EnMin= -108.815193929419     IErMin= 4 ErrMin= 8.91D-03
 ErrMax= 8.91D-03 EMaxC= 1.00D+00 BMatC= 6.87D-03 BMatP= 7.23D-03
 IDIUse=1 WtCom= 1.00D+00 WtEn= 0.00D+00
 Coeff-Com:  0.000D+00 0.000D+00 0.000D+00 0.100D+01
 Coeff:      0.000D+00 0.000D+00 0.000D+00 0.100D+01
 
Diag Fock

 Fock eigenvalues (alpha):
      orbital --                 1                2                3                4
       energy --    -1.5631951D+01   -1.5590821D+01   -1.6167739D+00   -7.1650049D-01
      orbital --                 5                6                7                8
       energy --    -7.1650049D-01   -7.1328942D-01   -6.1853264D-01    2.9722150D-01
      orbital --                 9               10               11               12
       energy --     2.9722150D-01    6.2980586D-01    7.5698184D-01    7.9886870D-01
      orbital --                13               14               15               16
       energy --     7.9886870D-01    1.0279430D+00    1.1206928D+00    1.1206928D+00
      orbital --                17               18               19               20
       energy --     1.4422250D+00    1.7020850D+00    1.7020850D+00    1.9488158D+00
      orbital --                21               22               23               24
       energy --     2.1318606D+00    2.1318606D+00    2.4551673D+00    2.4551673D+00
      orbital --                25               26               27               28
       energy --     2.9771574D+00    3.2438675D+00    3.2438675D+00    4.2070238D+00

 Fock eigenvalues (beta):
      orbital --                 1                2                3                4
       energy --    -1.5631951D+01   -1.5590821D+01   -1.6167739D+00   -7.1650049D-01
      orbital --                 5                6                7                8
       energy --    -7.1650049D-01   -7.1328942D-01   -6.1853264D-01    2.9722150D-01
      orbital --                 9               10               11               12
       energy --     2.9722150D-01    6.2980586D-01    7.5698184D-01    7.9886870D-01
      orbital --                13               14               15               16
       energy --     7.9886870D-01    1.0279430D+00    1.1206928D+00    1.1206928D+00
      orbital --                17               18               19               20
       energy --     1.4422250D+00    1.7020850D+00    1.7020850D+00    1.9488158D+00
      orbital --                21               22               23               24
       energy --     2.1318606D+00    2.1318606D+00    2.4551673D+00    2.4551673D+00
      orbital --                25               26               27               28
       energy --     2.9771574D+00    3.2438675D+00    3.2438675D+00    4.2070238D+00

 *** cycle =    4 ***

        E =    -108.815193929419      DE =      -0.004427048774
      Hsp =    -203.958752236640     Hph =      66.332799172876
   <S**2> =       0.000000001346
    RMSDP =       1.3787D-03        MaxP =       1.4316D-02

   E (HF) =    -108.721488978878

 ********************

*********  Start Cycle  5  *************
 
Start hffock

 Symmetry not used in FoFDir.
 MinBra= 0 MaxBra= 2 Meth= 1.
 IRaf=       1 NMat=   2 IRICut=       1 DoRegI=T DoRafI=F ISym2E= 0 JSym2E=0.
 PrsmSu:  NPrtUS=   1 ThrOK=F IAlg=1 NPAlg=1 LenDen=           0.
 Prism:   IPart=     0 DynPar=F LinDyn=F Incr=          30.
 PRISM was handed   536809828 working-precision words and    78 shell-pairs
 IPart=  0 NShTot=        3081 NBatch=         210 AvBLen=        14.7
 PrSmSu:  NxtVal=             31.
 
Start hfdmdg: find NO basis
 
Start formng/pg
 
Start formgg

 Symmetry not used in FoFDir.
 MinBra= 0 MaxBra= 2 Meth= 1.
 IRaf=       1 NMat=  64 IRICut=       1 DoRegI=T DoRafI=F ISym2E= 0 JSym2E=0.
 PrsmSu:  NPrtUS=   1 ThrOK=F IAlg=1 NPAlg=1 LenDen=           0.
 Prism:   IPart=     0 DynPar=F LinDyn=F Incr=          30.
 PRISM was handed   536674208 working-precision words and    78 shell-pairs
 IPart=  0 NShTot=        3081 NBatch=         210 AvBLen=        14.7
 PrSmSu:  NxtVal=             31.
 
Start evalsmt/hmt
 Smt (real):
                 1 
      1   0.158561D+01
 Smt (imaginary):
                 1 
      1   0.000000D+00
 Hmt (real):
                 1 
      1  -0.218227D+03
 Hmt (imaginary):
                 1 
      1   0.000000D+00
 
Form Fock eff
ifsel =     2, useproj    T
 DIIS: error= 7.65D-03 at cycle   5 NSaved=   5.
 NSaved= 5 IEnMin= 5 EnMin= -108.819068015310     IErMin= 5 ErrMin= 7.65D-03
 ErrMax= 7.65D-03 EMaxC= 1.00D+00 BMatC= 5.95D-03 BMatP= 6.87D-03
 IDIUse=1 WtCom= 1.00D+00 WtEn= 0.00D+00
 Coeff-Com:  0.000D+00 0.000D+00 0.000D+00 0.000D+00 0.100D+01
 Coeff:      0.000D+00 0.000D+00 0.000D+00 0.000D+00 0.100D+01
 
Diag Fock

 Fock eigenvalues (alpha):
      orbital --                 1                2                3                4
       energy --    -1.5630670D+01   -1.5586157D+01   -1.6163869D+00   -7.1688789D-01
      orbital --                 5                6                7                8
       energy --    -7.1688789D-01   -7.1387396D-01   -6.1506464D-01    2.9806774D-01
      orbital --                 9               10               11               12
       energy --     2.9806774D-01    6.3033871D-01    7.5723972D-01    7.9860704D-01
      orbital --                13               14               15               16
       energy --     7.9860704D-01    1.0287751D+00    1.1218236D+00    1.1218236D+00
      orbital --                17               18               19               20
       energy --     1.4431519D+00    1.7020063D+00    1.7020063D+00    1.9491773D+00
      orbital --                21               22               23               24
       energy --     2.1323138D+00    2.1323138D+00    2.4557242D+00    2.4557242D+00
      orbital --                25               26               27               28
       energy --     2.9777698D+00    3.2446756D+00    3.2446756D+00    4.2082258D+00

 Fock eigenvalues (beta):
      orbital --                 1                2                3                4
       energy --    -1.5630670D+01   -1.5586157D+01   -1.6163869D+00   -7.1688789D-01
      orbital --                 5                6                7                8
       energy --    -7.1688789D-01   -7.1387396D-01   -6.1506464D-01    2.9806774D-01
      orbital --                 9               10               11               12
       energy --     2.9806774D-01    6.3033871D-01    7.5723972D-01    7.9860704D-01
      orbital --                13               14               15               16
       energy --     7.9860704D-01    1.0287751D+00    1.1218236D+00    1.1218236D+00
      orbital --                17               18               19               20
       energy --     1.4431519D+00    1.7020063D+00    1.7020063D+00    1.9491773D+00
      orbital --                21               22               23               24
       energy --     2.1323138D+00    2.1323138D+00    2.4557242D+00    2.4557242D+00
      orbital --                25               26               27               28
       energy --     2.9777698D+00    3.2446756D+00    3.2446756D+00    4.2082258D+00

 *** cycle =    5 ***

        E =    -108.819068015310      DE =      -0.003874085891
      Hsp =    -203.960351163606     Hph =      66.330524013951
   <S**2> =       0.000000001844
    RMSDP =       1.2148D-03        MaxP =       1.1997D-02

   E (HF) =    -108.709239175898

 ********************

*********  Start Cycle  6  *************
 
Start hffock

 Symmetry not used in FoFDir.
 MinBra= 0 MaxBra= 2 Meth= 1.
 IRaf=       1 NMat=   2 IRICut=       1 DoRegI=T DoRafI=F ISym2E= 0 JSym2E=0.
 PrsmSu:  NPrtUS=   1 ThrOK=F IAlg=1 NPAlg=1 LenDen=           0.
 Prism:   IPart=     0 DynPar=F LinDyn=F Incr=          30.
 PRISM was handed   536809828 working-precision words and    78 shell-pairs
 IPart=  0 NShTot=        3081 NBatch=         210 AvBLen=        14.7
 PrSmSu:  NxtVal=             31.
 
Start hfdmdg: find NO basis
 
Start formng/pg
 
Start formgg

 Symmetry not used in FoFDir.
 MinBra= 0 MaxBra= 2 Meth= 1.
 IRaf=       1 NMat=  64 IRICut=       1 DoRegI=T DoRafI=F ISym2E= 0 JSym2E=0.
 PrsmSu:  NPrtUS=   1 ThrOK=F IAlg=1 NPAlg=1 LenDen=           0.
 Prism:   IPart=     0 DynPar=F LinDyn=F Incr=          30.
 PRISM was handed   536674208 working-precision words and    78 shell-pairs
 IPart=  0 NShTot=        3081 NBatch=         210 AvBLen=        14.7
 PrSmSu:  NxtVal=             31.
 
Start evalsmt/hmt
 Smt (real):
                 1 
      1   0.153848D+01
 Smt (imaginary):
                 1 
      1   0.000000D+00
 Hmt (real):
                 1 
      1  -0.211746D+03
 Hmt (imaginary):
                 1 
      1   0.000000D+00
 
Form Fock eff
ifsel =     2, useproj    T
 DIIS: error= 6.49D-03 at cycle   6 NSaved=   6.
 NSaved= 6 IEnMin= 6 EnMin= -108.822151669852     IErMin= 6 ErrMin= 6.49D-03
 ErrMax= 6.49D-03 EMaxC= 1.00D+00 BMatC= 4.79D-03 BMatP= 5.95D-03
 IDIUse=1 WtCom= 1.00D+00 WtEn= 0.00D+00
 Coeff-Com:  0.000D+00 0.000D+00 0.000D+00 0.000D+00 0.000D+00 0.100D+01
 Coeff:      0.000D+00 0.000D+00 0.000D+00 0.000D+00 0.000D+00 0.100D+01
 
Diag Fock

 Fock eigenvalues (alpha):
      orbital --                 1                2                3                4
       energy --    -1.5629015D+01   -1.5581379D+01   -1.6156469D+00   -7.1703031D-01
      orbital --                 5                6                7                8
       energy --    -7.1703031D-01   -7.1414633D-01   -6.1169551D-01    2.9897889D-01
      orbital --                 9               10               11               12
       energy --     2.9897889D-01    6.3083296D-01    7.5751486D-01    7.9847416D-01
      orbital --                13               14               15               16
       energy --     7.9847416D-01    1.0296596D+00    1.1229491D+00    1.1229491D+00
      orbital --                17               18               19               20
       energy --     1.4441398D+00    1.7021006D+00    1.7021006D+00    1.9496150D+00
      orbital --                21               22               23               24
       energy --     2.1329062D+00    2.1329062D+00    2.4563839D+00    2.4563839D+00
      orbital --                25               26               27               28
       energy --     2.9784187D+00    3.2455458D+00    3.2455458D+00    4.2096127D+00

 Fock eigenvalues (beta):
      orbital --                 1                2                3                4
       energy --    -1.5629015D+01   -1.5581379D+01   -1.6156469D+00   -7.1703031D-01
      orbital --                 5                6                7                8
       energy --    -7.1703031D-01   -7.1414633D-01   -6.1169551D-01    2.9897889D-01
      orbital --                 9               10               11               12
       energy --     2.9897889D-01    6.3083296D-01    7.5751486D-01    7.9847416D-01
      orbital --                13               14               15               16
       energy --     7.9847416D-01    1.0296596D+00    1.1229491D+00    1.1229491D+00
      orbital --                17               18               19               20
       energy --     1.4441398D+00    1.7021006D+00    1.7021006D+00    1.9496150D+00
      orbital --                21               22               23               24
       energy --     2.1329062D+00    2.1329062D+00    2.4563839D+00    2.4563839D+00
      orbital --                25               26               27               28
       energy --     2.9784187D+00    3.2455458D+00    3.2455458D+00    4.2096127D+00

 *** cycle =    6 ***

        E =    -108.822151669852      DE =      -0.003083654542
      Hsp =    -203.963015819416     Hph =      66.330105015220
   <S**2> =       0.000000002355
    RMSDP =       1.0151D-03        MaxP =       9.3596D-03

   E (HF) =    -108.697097776729

 ********************

*********  Start Cycle  7  *************
 
Start hffock

 Symmetry not used in FoFDir.
 MinBra= 0 MaxBra= 2 Meth= 1.
 IRaf=       1 NMat=   2 IRICut=       1 DoRegI=T DoRafI=F ISym2E= 0 JSym2E=0.
 PrsmSu:  NPrtUS=   1 ThrOK=F IAlg=1 NPAlg=1 LenDen=           0.
 Prism:   IPart=     0 DynPar=F LinDyn=F Incr=          30.
 PRISM was handed   536809828 working-precision words and    78 shell-pairs
 IPart=  0 NShTot=        3081 NBatch=         210 AvBLen=        14.7
 PrSmSu:  NxtVal=             31.
 
Start hfdmdg: find NO basis
 
Start formng/pg
 
Start formgg

 Symmetry not used in FoFDir.
 MinBra= 0 MaxBra= 2 Meth= 1.
 IRaf=       1 NMat=  64 IRICut=       1 DoRegI=T DoRafI=F ISym2E= 0 JSym2E=0.
 PrsmSu:  NPrtUS=   1 ThrOK=F IAlg=1 NPAlg=1 LenDen=           0.
 Prism:   IPart=     0 DynPar=F LinDyn=F Incr=          30.
 PRISM was handed   536674208 working-precision words and    78 shell-pairs
 IPart=  0 NShTot=        3081 NBatch=         210 AvBLen=        14.7
 PrSmSu:  NxtVal=             31.
 
Start evalsmt/hmt
 Smt (real):
                 1 
      1   0.149935D+01
 Smt (imaginary):
                 1 
      1   0.000000D+00
 Hmt (real):
                 1 
      1  -0.206364D+03
 Hmt (imaginary):
                 1 
      1   0.000000D+00
 
Form Fock eff
ifsel =     2, useproj    T
 DIIS: error= 6.08D-03 at cycle   7 NSaved=   7.
 NSaved= 7 IEnMin= 7 EnMin= -108.824407953354     IErMin= 7 ErrMin= 6.08D-03
 ErrMax= 6.08D-03 EMaxC= 1.00D+00 BMatC= 3.65D-03 BMatP= 4.79D-03
 IDIUse=1 WtCom= 1.00D+00 WtEn= 0.00D+00
 Coeff-Com:  0.000D+00 0.000D+00 0.000D+00 0.000D+00 0.000D+00 0.000D+00
 Coeff-Com:  0.100D+01
 Coeff:      0.000D+00 0.000D+00 0.000D+00 0.000D+00 0.000D+00 0.000D+00
 Coeff:      0.100D+01
 
Diag Fock

 Fock eigenvalues (alpha):
      orbital --                 1                2                3                4
       energy --    -1.5627357D+01   -1.5576963D+01   -1.6147299D+00   -7.1706918D-01
      orbital --                 5                6                7                8
       energy --    -7.1706918D-01   -7.1419317D-01   -6.0866189D-01    2.9986680D-01
      orbital --                 9               10               11               12
       energy --     2.9986680D-01    6.3124093D-01    7.5774983D-01    7.9841486D-01
      orbital --                13               14               15               16
       energy --     7.9841486D-01    1.0304816D+00    1.1239343D+00    1.1239343D+00
      orbital --                17               18               19               20
       energy --     1.4450529D+00    1.7022674D+00    1.7022674D+00    1.9500033D+00
      orbital --                21               22               23               24
       energy --     2.1335094D+00    2.1335094D+00    2.4570254D+00    2.4570254D+00
      orbital --                25               26               27               28
       energy --     2.9789817D+00    3.2463388D+00    3.2463388D+00    4.2109511D+00

 Fock eigenvalues (beta):
      orbital --                 1                2                3                4
       energy --    -1.5627357D+01   -1.5576963D+01   -1.6147299D+00   -7.1706918D-01
      orbital --                 5                6                7                8
       energy --    -7.1706918D-01   -7.1419317D-01   -6.0866189D-01    2.9986680D-01
      orbital --                 9               10               11               12
       energy --     2.9986680D-01    6.3124093D-01    7.5774983D-01    7.9841486D-01
      orbital --                13               14               15               16
       energy --     7.9841486D-01    1.0304816D+00    1.1239343D+00    1.1239343D+00
      orbital --                17               18               19               20
       energy --     1.4450529D+00    1.7022674D+00    1.7022674D+00    1.9500033D+00
      orbital --                21               22               23               24
       energy --     2.1335094D+00    2.1335094D+00    2.4570254D+00    2.4570254D+00
      orbital --                25               26               27               28
       energy --     2.9789817D+00    3.2463388D+00    3.2463388D+00    4.2109511D+00

 *** cycle =    7 ***

        E =    -108.824407953354      DE =      -0.002256283502
      Hsp =    -203.964873616073     Hph =      66.329706528374
   <S**2> =       0.000000002802
    RMSDP =       8.1341D-04        MaxP =       6.7844D-03

   E (HF) =    -108.685823838003

 ********************

*********  Start Cycle  8  *************
 
Start hffock

 Symmetry not used in FoFDir.
 MinBra= 0 MaxBra= 2 Meth= 1.
 IRaf=       1 NMat=   2 IRICut=       1 DoRegI=T DoRafI=F ISym2E= 0 JSym2E=0.
 PrsmSu:  NPrtUS=   1 ThrOK=F IAlg=1 NPAlg=1 LenDen=           0.
 Prism:   IPart=     0 DynPar=F LinDyn=F Incr=          30.
 PRISM was handed   536809828 working-precision words and    78 shell-pairs
 IPart=  0 NShTot=        3081 NBatch=         210 AvBLen=        14.7
 PrSmSu:  NxtVal=             31.
 
Start hfdmdg: find NO basis
 
Start formng/pg
 
Start formgg

 Symmetry not used in FoFDir.
 MinBra= 0 MaxBra= 2 Meth= 1.
 IRaf=       1 NMat=  64 IRICut=       1 DoRegI=T DoRafI=F ISym2E= 0 JSym2E=0.
 PrsmSu:  NPrtUS=   1 ThrOK=F IAlg=1 NPAlg=1 LenDen=           0.
 Prism:   IPart=     0 DynPar=F LinDyn=F Incr=          30.
 PRISM was handed   536674208 working-precision words and    78 shell-pairs
 IPart=  0 NShTot=        3081 NBatch=         210 AvBLen=        14.7
 PrSmSu:  NxtVal=             31.
 
Start evalsmt/hmt
 Smt (real):
                 1 
      1   0.146895D+01
 Smt (imaginary):
                 1 
      1   0.000000D+00
 Hmt (real):
                 1 
      1  -0.202182D+03
 Hmt (imaginary):
                 1 
      1   0.000000D+00
 
Form Fock eff
ifsel =     2, useproj    T
 DIIS: error= 5.56D-03 at cycle   8 NSaved=   8.
 NSaved= 8 IEnMin= 8 EnMin= -108.825965818999     IErMin= 8 ErrMin= 5.56D-03
 ErrMax= 5.56D-03 EMaxC= 1.00D+00 BMatC= 2.70D-03 BMatP= 3.65D-03
 IDIUse=1 WtCom= 1.00D+00 WtEn= 0.00D+00
 Coeff-Com:  0.000D+00 0.000D+00 0.000D+00 0.000D+00 0.000D+00 0.000D+00
 Coeff-Com:  0.000D+00 0.100D+01
 Coeff:      0.000D+00 0.000D+00 0.000D+00 0.000D+00 0.000D+00 0.000D+00
 Coeff:      0.000D+00 0.100D+01
 
Diag Fock

 Fock eigenvalues (alpha):
      orbital --                 1                2                3                4
       energy --    -1.5625795D+01   -1.5573047D+01   -1.6136713D+00   -7.1703664D-01
      orbital --                 5                6                7                8
       energy --    -7.1703664D-01   -7.1405235D-01   -6.0604526D-01    3.0071580D-01
      orbital --                 9               10               11               12
       energy --     3.0071580D-01    6.3154855D-01    7.5794114D-01    7.9842753D-01
      orbital --                13               14               15               16
       energy --     7.9842753D-01    1.0312061D+00    1.1247654D+00    1.1247654D+00
      orbital --                17               18               19               20
       energy --     1.4458547D+00    1.7024983D+00    1.7024983D+00    1.9503271D+00
      orbital --                21               22               23               24
       energy --     2.1341009D+00    2.1341009D+00    2.4576261D+00    2.4576261D+00
      orbital --                25               26               27               28
       energy --     2.9794408D+00    3.2470285D+00    3.2470285D+00    4.2121895D+00

 Fock eigenvalues (beta):
      orbital --                 1                2                3                4
       energy --    -1.5625795D+01   -1.5573047D+01   -1.6136713D+00   -7.1703664D-01
      orbital --                 5                6                7                8
       energy --    -7.1703664D-01   -7.1405235D-01   -6.0604526D-01    3.0071580D-01
      orbital --                 9               10               11               12
       energy --     3.0071580D-01    6.3154855D-01    7.5794114D-01    7.9842753D-01
      orbital --                13               14               15               16
       energy --     7.9842753D-01    1.0312061D+00    1.1247654D+00    1.1247654D+00
      orbital --                17               18               19               20
       energy --     1.4458547D+00    1.7024983D+00    1.7024983D+00    1.9503271D+00
      orbital --                21               22               23               24
       energy --     2.1341009D+00    2.1341009D+00    2.4576261D+00    2.4576261D+00
      orbital --                25               26               27               28
       energy --     2.9794408D+00    3.2470285D+00    3.2470285D+00    4.2121895D+00

 *** cycle =    8 ***

        E =    -108.825965818999      DE =      -0.001557865645
      Hsp =    -203.966411553137     Hph =      66.329686599793
   <S**2> =       0.000000003126
    RMSDP =       6.3814D-04        MaxP =       4.5697D-03

   E (HF) =    -108.675935053771

 ********************

*********  Start Cycle  9  *************
 
Start hffock

 Symmetry not used in FoFDir.
 MinBra= 0 MaxBra= 2 Meth= 1.
 IRaf=       1 NMat=   2 IRICut=       1 DoRegI=T DoRafI=F ISym2E= 0 JSym2E=0.
 PrsmSu:  NPrtUS=   1 ThrOK=F IAlg=1 NPAlg=1 LenDen=           0.
 Prism:   IPart=     0 DynPar=F LinDyn=F Incr=          30.
 PRISM was handed   536809828 working-precision words and    78 shell-pairs
 IPart=  0 NShTot=        3081 NBatch=         210 AvBLen=        14.7
 PrSmSu:  NxtVal=             31.
 
Start hfdmdg: find NO basis
 
Start formng/pg
 
Start formgg

 Symmetry not used in FoFDir.
 MinBra= 0 MaxBra= 2 Meth= 1.
 IRaf=       1 NMat=  64 IRICut=       1 DoRegI=T DoRafI=F ISym2E= 0 JSym2E=0.
 PrsmSu:  NPrtUS=   1 ThrOK=F IAlg=1 NPAlg=1 LenDen=           0.
 Prism:   IPart=     0 DynPar=F LinDyn=F Incr=          30.
 PRISM was handed   536674208 working-precision words and    78 shell-pairs
 IPart=  0 NShTot=        3081 NBatch=         210 AvBLen=        14.7
 PrSmSu:  NxtVal=             31.
 
Start evalsmt/hmt
 Smt (real):
                 1 
      1   0.144658D+01
 Smt (imaginary):
                 1 
      1   0.000000D+00
 Hmt (real):
                 1 
      1  -0.199104D+03
 Hmt (imaginary):
                 1 
      1   0.000000D+00
 
Form Fock eff
ifsel =     2, useproj    T
 DIIS: error= 4.98D-03 at cycle   9 NSaved=   9.
 NSaved= 9 IEnMin= 9 EnMin= -108.827018134022     IErMin= 9 ErrMin= 4.98D-03
 ErrMax= 4.98D-03 EMaxC= 1.00D+00 BMatC= 1.98D-03 BMatP= 2.70D-03
 IDIUse=1 WtCom= 1.00D+00 WtEn= 0.00D+00
 Coeff-Com:  0.000D+00 0.000D+00 0.000D+00 0.000D+00 0.000D+00 0.000D+00
 Coeff-Com:  0.000D+00 0.000D+00 0.100D+01
 Coeff:      0.000D+00 0.000D+00 0.000D+00 0.000D+00 0.000D+00 0.000D+00
 Coeff:      0.000D+00 0.000D+00 0.100D+01
 
Diag Fock

 Fock eigenvalues (alpha):
      orbital --                 1                2                3                4
       energy --    -1.5624441D+01   -1.5569731D+01   -1.6125593D+00   -7.1698158D-01
      orbital --                 5                6                7                8
       energy --    -7.1698158D-01   -7.1380153D-01   -6.0386703D-01    3.0149268D-01
      orbital --                 9               10               11               12
       energy --     3.0149268D-01    6.3175496D-01    7.5808219D-01    7.9848735D-01
      orbital --                13               14               15               16
       energy --     7.9848735D-01    1.0318047D+00    1.1254340D+00    1.1254340D+00
      orbital --                17               18               19               20
       energy --     1.4465162D+00    1.7027545D+00    1.7027545D+00    1.9505606D+00
      orbital --                21               22               23               24
       energy --     2.1346416D+00    2.1346416D+00    2.4581540D+00    2.4581540D+00
      orbital --                25               26               27               28
       energy --     2.9797791D+00    3.2475899D+00    3.2475899D+00    4.2132632D+00

 Fock eigenvalues (beta):
      orbital --                 1                2                3                4
       energy --    -1.5624441D+01   -1.5569731D+01   -1.6125593D+00   -7.1698158D-01
      orbital --                 5                6                7                8
       energy --    -7.1698158D-01   -7.1380153D-01   -6.0386703D-01    3.0149268D-01
      orbital --                 9               10               11               12
       energy --     3.0149268D-01    6.3175496D-01    7.5808219D-01    7.9848735D-01
      orbital --                13               14               15               16
       energy --     7.9848735D-01    1.0318047D+00    1.1254340D+00    1.1254340D+00
      orbital --                17               18               19               20
       energy --     1.4465162D+00    1.7027545D+00    1.7027545D+00    1.9505606D+00
      orbital --                21               22               23               24
       energy --     2.1346416D+00    2.1346416D+00    2.4581540D+00    2.4581540D+00
      orbital --                25               26               27               28
       energy --     2.9797791D+00    3.2475899D+00    3.2475899D+00    4.2132632D+00

 *** cycle =    9 ***

        E =    -108.827018134022      DE =      -0.001052315023
      Hsp =    -203.967589579713     Hph =      66.329812311346
   <S**2> =       0.000000003304
    RMSDP =       5.0277D-04        MaxP =       3.3046D-03

   E (HF) =    -108.667615085685

 ********************

*********  Start Cycle 10  *************
 
Start hffock

 Symmetry not used in FoFDir.
 MinBra= 0 MaxBra= 2 Meth= 1.
 IRaf=       1 NMat=   2 IRICut=       1 DoRegI=T DoRafI=F ISym2E= 0 JSym2E=0.
 PrsmSu:  NPrtUS=   1 ThrOK=F IAlg=1 NPAlg=1 LenDen=           0.
 Prism:   IPart=     0 DynPar=F LinDyn=F Incr=          30.
 PRISM was handed   536809828 working-precision words and    78 shell-pairs
 IPart=  0 NShTot=        3081 NBatch=         210 AvBLen=        14.7
 PrSmSu:  NxtVal=             31.
 
Start hfdmdg: find NO basis
 
Start formng/pg
 
Start formgg

 Symmetry not used in FoFDir.
 MinBra= 0 MaxBra= 2 Meth= 1.
 IRaf=       1 NMat=  64 IRICut=       1 DoRegI=T DoRafI=F ISym2E= 0 JSym2E=0.
 PrsmSu:  NPrtUS=   1 ThrOK=F IAlg=1 NPAlg=1 LenDen=           0.
 Prism:   IPart=     0 DynPar=F LinDyn=F Incr=          30.
 PRISM was handed   536674208 working-precision words and    78 shell-pairs
 IPart=  0 NShTot=        3081 NBatch=         210 AvBLen=        14.7
 PrSmSu:  NxtVal=             31.
 
Start evalsmt/hmt
 Smt (real):
                 1 
      1   0.143075D+01
 Smt (imaginary):
                 1 
      1   0.000000D+00
 Hmt (real):
                 1 
      1  -0.196926D+03
 Hmt (imaginary):
                 1 
      1   0.000000D+00
 
Form Fock eff
ifsel =     2, useproj    T
 DIIS: error= 4.40D-03 at cycle  10 NSaved=  10.
 NSaved=10 IEnMin=10 EnMin= -108.827737073575     IErMin=10 ErrMin= 4.40D-03
 ErrMax= 4.40D-03 EMaxC= 1.00D+00 BMatC= 1.47D-03 BMatP= 1.98D-03
 IDIUse=1 WtCom= 1.00D+00 WtEn= 0.00D+00
 Coeff-Com:  0.000D+00 0.000D+00 0.000D+00 0.000D+00 0.000D+00 0.000D+00
 Coeff-Com:  0.000D+00 0.000D+00 0.000D+00 0.100D+01
 Coeff:      0.000D+00 0.000D+00 0.000D+00 0.000D+00 0.000D+00 0.000D+00
 Coeff:      0.000D+00 0.000D+00 0.000D+00 0.100D+01
 
Diag Fock

 Fock eigenvalues (alpha):
      orbital --                 1                2                3                4
       energy --    -1.5623331D+01   -1.5567000D+01   -1.6114602D+00   -7.1692833D-01
      orbital --                 5                6                7                8
       energy --    -7.1692833D-01   -7.1350644D-01   -6.0208393D-01    3.0217869D-01
      orbital --                 9               10               11               12
       energy --     3.0217869D-01    6.3187444D-01    7.5817707D-01    7.9857350D-01
      orbital --                13               14               15               16
       energy --     7.9857350D-01    1.0322763D+00    1.1259578D+00    1.1259578D+00
      orbital --                17               18               19               20
       energy --     1.4470396D+00    1.7030089D+00    1.7030089D+00    1.9507021D+00
      orbital --                21               22               23               24
       energy --     2.1351142D+00    2.1351142D+00    2.4585993D+00    2.4585993D+00
      orbital --                25               26               27               28
       energy --     2.9800051D+00    3.2480271D+00    3.2480271D+00    4.2141537D+00

 Fock eigenvalues (beta):
      orbital --                 1                2                3                4
       energy --    -1.5623331D+01   -1.5567000D+01   -1.6114602D+00   -7.1692833D-01
      orbital --                 5                6                7                8
       energy --    -7.1692833D-01   -7.1350644D-01   -6.0208393D-01    3.0217869D-01
      orbital --                 9               10               11               12
       energy --     3.0217869D-01    6.3187444D-01    7.5817707D-01    7.9857350D-01
      orbital --                13               14               15               16
       energy --     7.9857350D-01    1.0322763D+00    1.1259578D+00    1.1259578D+00
      orbital --                17               18               19               20
       energy --     1.4470396D+00    1.7030089D+00    1.7030089D+00    1.9507021D+00
      orbital --                21               22               23               24
       energy --     2.1351142D+00    2.1351142D+00    2.4585993D+00    2.4585993D+00
      orbital --                25               26               27               28
       energy --     2.9800051D+00    3.2480271D+00    3.2480271D+00    4.2141537D+00

 *** cycle =   10 ***

        E =    -108.827737073575      DE =      -0.000718939553
      Hsp =    -203.968514402614     Hph =      66.330018194694
   <S**2> =       0.000000003345
    RMSDP =       4.0586D-04        MaxP =       2.9971D-03

   E (HF) =    -108.660776863518

 ********************

*********  Start Cycle 11  *************
 
Start hffock

 Symmetry not used in FoFDir.
 MinBra= 0 MaxBra= 2 Meth= 1.
 IRaf=       1 NMat=   2 IRICut=       1 DoRegI=T DoRafI=F ISym2E= 0 JSym2E=0.
 PrsmSu:  NPrtUS=   1 ThrOK=F IAlg=1 NPAlg=1 LenDen=           0.
 Prism:   IPart=     0 DynPar=F LinDyn=F Incr=          30.
 PRISM was handed   536809828 working-precision words and    78 shell-pairs
 IPart=  0 NShTot=        3081 NBatch=         210 AvBLen=        14.7
 PrSmSu:  NxtVal=             31.
 
Start hfdmdg: find NO basis
 
Start formng/pg
 
Start formgg

 Symmetry not used in FoFDir.
 MinBra= 0 MaxBra= 2 Meth= 1.
 IRaf=       1 NMat=  64 IRICut=       1 DoRegI=T DoRafI=F ISym2E= 0 JSym2E=0.
 PrsmSu:  NPrtUS=   1 ThrOK=F IAlg=1 NPAlg=1 LenDen=           0.
 Prism:   IPart=     0 DynPar=F LinDyn=F Incr=          30.
 PRISM was handed   536674208 working-precision words and    78 shell-pairs
 IPart=  0 NShTot=        3081 NBatch=         210 AvBLen=        14.7
 PrSmSu:  NxtVal=             31.
 
Start evalsmt/hmt
 Smt (real):
                 1 
      1   0.141979D+01
 Smt (imaginary):
                 1 
      1   0.000000D+00
 Hmt (real):
                 1 
      1  -0.195419D+03
 Hmt (imaginary):
                 1 
      1   0.000000D+00
 
Form Fock eff
ifsel =     2, useproj    T
 DIIS: error= 3.85D-03 at cycle  11 NSaved=  11.
 NSaved=11 IEnMin=11 EnMin= -108.828243279648     IErMin=11 ErrMin= 3.85D-03
 ErrMax= 3.85D-03 EMaxC= 1.00D+00 BMatC= 1.10D-03 BMatP= 1.47D-03
 IDIUse=1 WtCom= 1.00D+00 WtEn= 0.00D+00
 Coeff-Com:  0.000D+00 0.000D+00 0.000D+00 0.000D+00 0.000D+00 0.000D+00
 Coeff-Com:  0.000D+00 0.000D+00 0.000D+00 0.000D+00 0.100D+01
 Coeff:      0.000D+00 0.000D+00 0.000D+00 0.000D+00 0.000D+00 0.000D+00
 Coeff:      0.000D+00 0.000D+00 0.000D+00 0.000D+00 0.100D+01
 
Diag Fock

 Fock eigenvalues (alpha):
      orbital --                 1                2                3                4
       energy --    -1.5622462D+01   -1.5564788D+01   -1.6104221D+00   -7.1688963D-01
      orbital --                 5                6                7                8
       energy --    -7.1688963D-01   -7.1321682D-01   -6.0062718D-01    3.0276617D-01
      orbital --                 9               10               11               12
       energy --     3.0276617D-01    6.3192682D-01    7.5823329D-01    7.9866864D-01
      orbital --                13               14               15               16
       energy --     7.9866864D-01    1.0326338D+00    1.1263613D+00    1.1263613D+00
      orbital --                17               18               19               20
       energy --     1.4474414D+00    1.7032422D+00    1.7032422D+00    1.9507608D+00
      orbital --                21               22               23               24
       energy --     2.1355125D+00    2.1355125D+00    2.4589628D+00    2.4589628D+00
      orbital --                25               26               27               28
       energy --     2.9801374D+00    3.2483558D+00    3.2483558D+00    4.2148658D+00

 Fock eigenvalues (beta):
      orbital --                 1                2                3                4
       energy --    -1.5622462D+01   -1.5564788D+01   -1.6104221D+00   -7.1688963D-01
      orbital --                 5                6                7                8
       energy --    -7.1688963D-01   -7.1321682D-01   -6.0062718D-01    3.0276617D-01
      orbital --                 9               10               11               12
       energy --     3.0276617D-01    6.3192682D-01    7.5823329D-01    7.9866864D-01
      orbital --                13               14               15               16
       energy --     7.9866864D-01    1.0326338D+00    1.1263613D+00    1.1263613D+00
      orbital --                17               18               19               20
       energy --     1.4474414D+00    1.7032422D+00    1.7032422D+00    1.9507608D+00
      orbital --                21               22               23               24
       energy --     2.1355125D+00    2.1355125D+00    2.4589628D+00    2.4589628D+00
      orbital --                25               26               27               28
       energy --     2.9801374D+00    3.2483558D+00    3.2483558D+00    4.2148658D+00

 *** cycle =   11 ***

        E =    -108.828243279648      DE =      -0.000506206073
      Hsp =    -203.969232351667     Hph =      66.330229937674
   <S**2> =       0.000000003281
    RMSDP =       3.3800D-04        MaxP =       2.7058D-03

   E (HF) =    -108.655195204399

 ********************

*********  Start Cycle 12  *************
 
Start hffock

 Symmetry not used in FoFDir.
 MinBra= 0 MaxBra= 2 Meth= 1.
 IRaf=       1 NMat=   2 IRICut=       1 DoRegI=T DoRafI=F ISym2E= 0 JSym2E=0.
 PrsmSu:  NPrtUS=   1 ThrOK=F IAlg=1 NPAlg=1 LenDen=           0.
 Prism:   IPart=     0 DynPar=F LinDyn=F Incr=          30.
 PRISM was handed   536809828 working-precision words and    78 shell-pairs
 IPart=  0 NShTot=        3081 NBatch=         210 AvBLen=        14.7
 PrSmSu:  NxtVal=             31.
 
Start hfdmdg: find NO basis
 
Start formng/pg
 
Start formgg

 Symmetry not used in FoFDir.
 MinBra= 0 MaxBra= 2 Meth= 1.
 IRaf=       1 NMat=  64 IRICut=       1 DoRegI=T DoRafI=F ISym2E= 0 JSym2E=0.
 PrsmSu:  NPrtUS=   1 ThrOK=F IAlg=1 NPAlg=1 LenDen=           0.
 Prism:   IPart=     0 DynPar=F LinDyn=F Incr=          30.
 PRISM was handed   536674208 working-precision words and    78 shell-pairs
 IPart=  0 NShTot=        3081 NBatch=         210 AvBLen=        14.7
 PrSmSu:  NxtVal=             31.
 
Start evalsmt/hmt
 Smt (real):
                 1 
      1   0.141229D+01
 Smt (imaginary):
                 1 
      1   0.000000D+00
 Hmt (real):
                 1 
      1  -0.194387D+03
 Hmt (imaginary):
                 1 
      1   0.000000D+00
 
Form Fock eff
ifsel =     2, useproj    T
 DIIS: error= 3.34D-03 at cycle  12 NSaved=  12.
 NSaved=12 IEnMin=12 EnMin= -108.828611628458     IErMin=12 ErrMin= 3.34D-03
 ErrMax= 3.34D-03 EMaxC= 1.00D+00 BMatC= 8.35D-04 BMatP= 1.10D-03
 IDIUse=1 WtCom= 1.00D+00 WtEn= 0.00D+00
 Coeff-Com:  0.000D+00 0.000D+00 0.000D+00 0.000D+00 0.000D+00 0.000D+00
 Coeff-Com:  0.000D+00 0.000D+00 0.000D+00 0.000D+00 0.000D+00 0.100D+01
 Coeff:      0.000D+00 0.000D+00 0.000D+00 0.000D+00 0.000D+00 0.000D+00
 Coeff:      0.000D+00 0.000D+00 0.000D+00 0.000D+00 0.000D+00 0.100D+01
 
Diag Fock

 Fock eigenvalues (alpha):
      orbital --                 1                2                3                4
       energy --    -1.5621805D+01   -1.5563007D+01   -1.6094719D+00   -7.1686933D-01
      orbital --                 5                6                7                8
       energy --    -7.1686933D-01   -7.1296275D-01   -5.9942566D-01    3.0325809D-01
      orbital --                 9               10               11               12
       energy --     3.0325809D-01    6.3193176D-01    7.5825978D-01    7.9876157D-01
      orbital --                13               14               15               16
       energy --     7.9876157D-01    1.0328962D+00    1.1266705D+00    1.1266705D+00
      orbital --                17               18               19               20
       energy --     1.4477442D+00    1.7034450D+00    1.7034450D+00    1.9507527D+00
      orbital --                21               22               23               24
       energy --     2.1358400D+00    2.1358400D+00    2.4592528D+00    2.4592528D+00
      orbital --                25               26               27               28
       energy --     2.9801980D+00    3.2485965D+00    3.2485965D+00    4.2154199D+00

 Fock eigenvalues (beta):
      orbital --                 1                2                3                4
       energy --    -1.5621805D+01   -1.5563007D+01   -1.6094719D+00   -7.1686933D-01
      orbital --                 5                6                7                8
       energy --    -7.1686933D-01   -7.1296275D-01   -5.9942566D-01    3.0325809D-01
      orbital --                 9               10               11               12
       energy --     3.0325809D-01    6.3193176D-01    7.5825978D-01    7.9876157D-01
      orbital --                13               14               15               16
       energy --     7.9876157D-01    1.0328962D+00    1.1266705D+00    1.1266705D+00
      orbital --                17               18               19               20
       energy --     1.4477442D+00    1.7034450D+00    1.7034450D+00    1.9507527D+00
      orbital --                21               22               23               24
       energy --     2.1358400D+00    2.1358400D+00    2.4592528D+00    2.4592528D+00
      orbital --                25               26               27               28
       energy --     2.9801980D+00    3.2485965D+00    3.2485965D+00    4.2154199D+00

 *** cycle =   12 ***

        E =    -108.828611628458      DE =      -0.000368348810
      Hsp =    -203.969782768269     Hph =      66.330412005467
   <S**2> =       0.000000003144
    RMSDP =       2.8900D-04        MaxP =       2.4378D-03

   E (HF) =    -108.650618251719

 ********************

*********  Start Cycle 13  *************
 
Start hffock

 Symmetry not used in FoFDir.
 MinBra= 0 MaxBra= 2 Meth= 1.
 IRaf=       1 NMat=   2 IRICut=       1 DoRegI=T DoRafI=F ISym2E= 0 JSym2E=0.
 PrsmSu:  NPrtUS=   1 ThrOK=F IAlg=1 NPAlg=1 LenDen=           0.
 Prism:   IPart=     0 DynPar=F LinDyn=F Incr=          30.
 PRISM was handed   536809828 working-precision words and    78 shell-pairs
 IPart=  0 NShTot=        3081 NBatch=         210 AvBLen=        14.7
 PrSmSu:  NxtVal=             31.
 
Start hfdmdg: find NO basis
 
Start formng/pg
 
Start formgg

 Symmetry not used in FoFDir.
 MinBra= 0 MaxBra= 2 Meth= 1.
 IRaf=       1 NMat=  64 IRICut=       1 DoRegI=T DoRafI=F ISym2E= 0 JSym2E=0.
 PrsmSu:  NPrtUS=   1 ThrOK=F IAlg=1 NPAlg=1 LenDen=           0.
 Prism:   IPart=     0 DynPar=F LinDyn=F Incr=          30.
 PRISM was handed   536674208 working-precision words and    78 shell-pairs
 IPart=  0 NShTot=        3081 NBatch=         210 AvBLen=        14.7
 PrSmSu:  NxtVal=             31.
 
Start evalsmt/hmt
 Smt (real):
                 1 
      1   0.140715D+01
 Smt (imaginary):
                 1 
      1   0.000000D+00
 Hmt (real):
                 1 
      1  -0.193680D+03
 Hmt (imaginary):
                 1 
      1   0.000000D+00
 
Form Fock eff
ifsel =     2, useproj    T
 DIIS: error= 2.89D-03 at cycle  13 NSaved=  13.
 NSaved=13 IEnMin=13 EnMin= -108.828886948414     IErMin=13 ErrMin= 2.89D-03
 ErrMax= 2.89D-03 EMaxC= 1.00D+00 BMatC= 6.40D-04 BMatP= 8.35D-04
 IDIUse=1 WtCom= 1.00D+00 WtEn= 0.00D+00
 Coeff-Com:  0.000D+00 0.000D+00 0.000D+00 0.000D+00 0.000D+00 0.000D+00
 Coeff-Com:  0.000D+00 0.000D+00 0.000D+00 0.000D+00 0.000D+00 0.000D+00
 Coeff-Com:  0.100D+01
 Coeff:      0.000D+00 0.000D+00 0.000D+00 0.000D+00 0.000D+00 0.000D+00
 Coeff:      0.000D+00 0.000D+00 0.000D+00 0.000D+00 0.000D+00 0.000D+00
 Coeff:      0.100D+01
 
Diag Fock

 Fock eigenvalues (alpha):
      orbital --                 1                2                3                4
       energy --    -1.5621322D+01   -1.5561573D+01   -1.6086202D+00   -7.1686704D-01
      orbital --                 5                6                7                8
       energy --    -7.1686704D-01   -7.1275903D-01   -5.9841888D-01    3.0366347D-01
      orbital --                 9               10               11               12
       energy --     3.0366347D-01    6.3190557D-01    7.5826473D-01    7.9884609D-01
      orbital --                13               14               15               16
       energy --     7.9884609D-01    1.0330833D+00    1.1269073D+00    1.1269073D+00
      orbital --                17               18               19               20
       energy --     1.4479702D+00    1.7036145D+00    1.7036145D+00    1.9506948D+00
      orbital --                21               22               23               24
       energy --     2.1361046D+00    2.1361046D+00    2.4594801D+00    2.4594801D+00
      orbital --                25               26               27               28
       energy --     2.9802071D+00    3.2487691D+00    3.2487691D+00    4.2158413D+00

 Fock eigenvalues (beta):
      orbital --                 1                2                3                4
       energy --    -1.5621322D+01   -1.5561573D+01   -1.6086202D+00   -7.1686704D-01
      orbital --                 5                6                7                8
       energy --    -7.1686704D-01   -7.1275903D-01   -5.9841888D-01    3.0366347D-01
      orbital --                 9               10               11               12
       energy --     3.0366347D-01    6.3190557D-01    7.5826473D-01    7.9884609D-01
      orbital --                13               14               15               16
       energy --     7.9884609D-01    1.0330833D+00    1.1269073D+00    1.1269073D+00
      orbital --                17               18               19               20
       energy --     1.4479702D+00    1.7036145D+00    1.7036145D+00    1.9506948D+00
      orbital --                21               22               23               24
       energy --     2.1361046D+00    2.1361046D+00    2.4594801D+00    2.4594801D+00
      orbital --                25               26               27               28
       energy --     2.9802071D+00    3.2487691D+00    3.2487691D+00    4.2158413D+00

 *** cycle =   13 ***

        E =    -108.828886948414      DE =      -0.000275319956
      Hsp =    -203.970192415171     Hph =      66.330546332413
   <S**2> =       0.000000002962
    RMSDP =       2.5152D-04        MaxP =       2.1952D-03

   E (HF) =    -108.646825479912

 ********************

*********  Start Cycle 14  *************
 
Start hffock

 Symmetry not used in FoFDir.
 MinBra= 0 MaxBra= 2 Meth= 1.
 IRaf=       1 NMat=   2 IRICut=       1 DoRegI=T DoRafI=F ISym2E= 0 JSym2E=0.
 PrsmSu:  NPrtUS=   1 ThrOK=F IAlg=1 NPAlg=1 LenDen=           0.
 Prism:   IPart=     0 DynPar=F LinDyn=F Incr=          30.
 PRISM was handed   536809828 working-precision words and    78 shell-pairs
 IPart=  0 NShTot=        3081 NBatch=         210 AvBLen=        14.7
 PrSmSu:  NxtVal=             31.
 
Start hfdmdg: find NO basis
 
Start formng/pg
 
Start formgg

 Symmetry not used in FoFDir.
 MinBra= 0 MaxBra= 2 Meth= 1.
 IRaf=       1 NMat=  64 IRICut=       1 DoRegI=T DoRafI=F ISym2E= 0 JSym2E=0.
 PrsmSu:  NPrtUS=   1 ThrOK=F IAlg=1 NPAlg=1 LenDen=           0.
 Prism:   IPart=     0 DynPar=F LinDyn=F Incr=          30.
 PRISM was handed   536674208 working-precision words and    78 shell-pairs
 IPart=  0 NShTot=        3081 NBatch=         210 AvBLen=        14.7
 PrSmSu:  NxtVal=             31.
 
Start evalsmt/hmt
 Smt (real):
                 1 
      1   0.140359D+01
 Smt (imaginary):
                 1 
      1   0.000000D+00
 Hmt (real):
                 1 
      1  -0.193190D+03
 Hmt (imaginary):
                 1 
      1   0.000000D+00
 
Form Fock eff
ifsel =     2, useproj    T
 DIIS: error= 2.49D-03 at cycle  14 NSaved=  14.
 NSaved=14 IEnMin=14 EnMin= -108.829096722554     IErMin=14 ErrMin= 2.49D-03
 ErrMax= 2.49D-03 EMaxC= 1.00D+00 BMatC= 4.95D-04 BMatP= 6.40D-04
 IDIUse=1 WtCom= 1.00D+00 WtEn= 0.00D+00
 Coeff-Com:  0.000D+00 0.000D+00 0.000D+00 0.000D+00 0.000D+00 0.000D+00
 Coeff-Com:  0.000D+00 0.000D+00 0.000D+00 0.000D+00 0.000D+00 0.000D+00
 Coeff-Com:  0.000D+00 0.100D+01
 Coeff:      0.000D+00 0.000D+00 0.000D+00 0.000D+00 0.000D+00 0.000D+00
 Coeff:      0.000D+00 0.000D+00 0.000D+00 0.000D+00 0.000D+00 0.000D+00
 Coeff:      0.000D+00 0.100D+01
 
Diag Fock

 Fock eigenvalues (alpha):
      orbital --                 1                2                3                4
       energy --    -1.5620978D+01   -1.5560411D+01   -1.6078676D+00   -7.1688033D-01
      orbital --                 5                6                7                8
       energy --    -7.1688033D-01   -7.1261006D-01   -5.9755999D-01    3.0399385D-01
      orbital --                 9               10               11               12
       energy --     3.0399385D-01    6.3186056D-01    7.5825494D-01    7.9891956D-01
      orbital --                13               14               15               16
       energy --     7.9891957D-01    1.0332121D+00    1.1270894D+00    1.1270894D+00
      orbital --                17               18               19               20
       energy --     1.4481382D+00    1.7037521D+00    1.7037521D+00    1.9506025D+00
      orbital --                21               22               23               24
       energy --     2.1363158D+00    2.1363158D+00    2.4596560D+00    2.4596560D+00
      orbital --                25               26               27               28
       energy --     2.9801816D+00    3.2488901D+00    3.2488901D+00    4.2161550D+00

 Fock eigenvalues (beta):
      orbital --                 1                2                3                4
       energy --    -1.5620978D+01   -1.5560411D+01   -1.6078676D+00   -7.1688033D-01
      orbital --                 5                6                7                8
       energy --    -7.1688033D-01   -7.1261006D-01   -5.9755999D-01    3.0399385D-01
      orbital --                 9               10               11               12
       energy --     3.0399385D-01    6.3186056D-01    7.5825494D-01    7.9891956D-01
      orbital --                13               14               15               16
       energy --     7.9891957D-01    1.0332121D+00    1.1270894D+00    1.1270894D+00
      orbital --                17               18               19               20
       energy --     1.4481382D+00    1.7037521D+00    1.7037521D+00    1.9506025D+00
      orbital --                21               22               23               24
       energy --     2.1363158D+00    2.1363158D+00    2.4596560D+00    2.4596560D+00
      orbital --                25               26               27               28
       energy --     2.9801816D+00    3.2488901D+00    3.2488901D+00    4.2161550D+00

 *** cycle =   14 ***

        E =    -108.829096722554      DE =      -0.000209774140
      Hsp =    -203.970484631239     Hph =      66.330628774341
   <S**2> =       0.000000002758
    RMSDP =       2.2124D-04        MaxP =       1.9774D-03

   E (HF) =    -108.643644184184

 ********************

*********  Start Cycle 15  *************
 
Start hffock

 Symmetry not used in FoFDir.
 MinBra= 0 MaxBra= 2 Meth= 1.
 IRaf=       1 NMat=   2 IRICut=       1 DoRegI=T DoRafI=F ISym2E= 0 JSym2E=0.
 PrsmSu:  NPrtUS=   1 ThrOK=F IAlg=1 NPAlg=1 LenDen=           0.
 Prism:   IPart=     0 DynPar=F LinDyn=F Incr=          30.
 PRISM was handed   536809828 working-precision words and    78 shell-pairs
 IPart=  0 NShTot=        3081 NBatch=         210 AvBLen=        14.7
 PrSmSu:  NxtVal=             31.
 
Start hfdmdg: find NO basis
 
Start formng/pg
 
Start formgg

 Symmetry not used in FoFDir.
 MinBra= 0 MaxBra= 2 Meth= 1.
 IRaf=       1 NMat=  64 IRICut=       1 DoRegI=T DoRafI=F ISym2E= 0 JSym2E=0.
 PrsmSu:  NPrtUS=   1 ThrOK=F IAlg=1 NPAlg=1 LenDen=           0.
 Prism:   IPart=     0 DynPar=F LinDyn=F Incr=          30.
 PRISM was handed   536674208 working-precision words and    78 shell-pairs
 IPart=  0 NShTot=        3081 NBatch=         210 AvBLen=        14.7
 PrSmSu:  NxtVal=             31.
 
Start evalsmt/hmt
 Smt (real):
                 1 
      1   0.140109D+01
 Smt (imaginary):
                 1 
      1   0.000000D+00
 Hmt (real):
                 1 
      1  -0.192846D+03
 Hmt (imaginary):
                 1 
      1   0.000000D+00
 
Form Fock eff
ifsel =     2, useproj    T
 DIIS: error= 2.14D-03 at cycle  15 NSaved=  15.
 NSaved=15 IEnMin=15 EnMin= -108.829258721417     IErMin=15 ErrMin= 2.14D-03
 ErrMax= 2.14D-03 EMaxC= 1.00D+00 BMatC= 3.86D-04 BMatP= 4.95D-04
 IDIUse=1 WtCom= 1.00D+00 WtEn= 0.00D+00
 Coeff-Com:  0.000D+00 0.000D+00 0.000D+00 0.000D+00 0.000D+00 0.000D+00
 Coeff-Com:  0.000D+00 0.000D+00 0.000D+00 0.000D+00 0.000D+00 0.000D+00
 Coeff-Com:  0.000D+00 0.000D+00 0.100D+01
 Coeff:      0.000D+00 0.000D+00 0.000D+00 0.000D+00 0.000D+00 0.000D+00
 Coeff:      0.000D+00 0.000D+00 0.000D+00 0.000D+00 0.000D+00 0.000D+00
 Coeff:      0.000D+00 0.000D+00 0.100D+01
 
Diag Fock

 Fock eigenvalues (alpha):
      orbital --                 1                2                3                4
       energy --    -1.5620742D+01   -1.5559463D+01   -1.6072086D+00   -7.1690609D-01
      orbital --                 5                6                7                8
       energy --    -7.1690609D-01   -7.1251409D-01   -5.9681449D-01    3.0426105D-01
      orbital --                 9               10               11               12
       energy --     3.0426105D-01    6.3180541D-01    7.5823562D-01    7.9898153D-01
      orbital --                13               14               15               16
       energy --     7.9898153D-01    1.0332968D+00    1.1272302D+00    1.1272302D+00
      orbital --                17               18               19               20
       energy --     1.4482629D+00    1.7038615D+00    1.7038615D+00    1.9504887D+00
      orbital --                21               22               23               24
       energy --     2.1364827D+00    2.1364827D+00    2.4597904D+00    2.4597904D+00
      orbital --                25               26               27               28
       energy --     2.9801343D+00    3.2489729D+00    3.2489729D+00    4.2163832D+00

 Fock eigenvalues (beta):
      orbital --                 1                2                3                4
       energy --    -1.5620742D+01   -1.5559463D+01   -1.6072086D+00   -7.1690609D-01
      orbital --                 5                6                7                8
       energy --    -7.1690609D-01   -7.1251409D-01   -5.9681449D-01    3.0426105D-01
      orbital --                 9               10               11               12
       energy --     3.0426105D-01    6.3180541D-01    7.5823562D-01    7.9898153D-01
      orbital --                13               14               15               16
       energy --     7.9898153D-01    1.0332968D+00    1.1272302D+00    1.1272302D+00
      orbital --                17               18               19               20
       energy --     1.4482629D+00    1.7038615D+00    1.7038615D+00    1.9504887D+00
      orbital --                21               22               23               24
       energy --     2.1364827D+00    2.1364827D+00    2.4597904D+00    2.4597904D+00
      orbital --                25               26               27               28
       energy --     2.9801343D+00    3.2489729D+00    3.2489729D+00    4.2163832D+00

 *** cycle =   15 ***

        E =    -108.829258721417      DE =      -0.000161998863
[...]
       energy --     2.9794583D+00    3.2487152D+00    3.2487152D+00    4.2158155D+00

 *** cycle =   50 ***

        E =    -108.829933525867      DE =      -0.000000000013
      Hsp =    -203.968503947279     Hph =      66.327811287068
   <S**2> =      -0.000000000551
    RMSDP =       5.3138D-08        MaxP =       6.8813D-07

   E (HF) =    -108.621230781226

 ********************

*********  Start Cycle 51  *************
 
Start hffock

 Symmetry not used in FoFDir.
 MinBra= 0 MaxBra= 2 Meth= 1.
 IRaf=       1 NMat=   2 IRICut=       1 DoRegI=T DoRafI=F ISym2E= 0 JSym2E=0.
 PrsmSu:  NPrtUS=   1 ThrOK=F IAlg=1 NPAlg=1 LenDen=           0.
 Prism:   IPart=     0 DynPar=F LinDyn=F Incr=          30.
 PRISM was handed   536809828 working-precision words and    78 shell-pairs
 IPart=  0 NShTot=        3081 NBatch=         210 AvBLen=        14.7
 PrSmSu:  NxtVal=             31.
 
Start hfdmdg: find NO basis
 
Start formng/pg
 
Start formgg

 Symmetry not used in FoFDir.
 MinBra= 0 MaxBra= 2 Meth= 1.
 IRaf=       1 NMat=  64 IRICut=       1 DoRegI=T DoRafI=F ISym2E= 0 JSym2E=0.
 PrsmSu:  NPrtUS=   1 ThrOK=F IAlg=1 NPAlg=1 LenDen=           0.
 Prism:   IPart=     0 DynPar=F LinDyn=F Incr=          30.
 PRISM was handed   536674208 working-precision words and    78 shell-pairs
 IPart=  0 NShTot=        3081 NBatch=         210 AvBLen=        14.7
 PrSmSu:  NxtVal=             31.
 
Start evalsmt/hmt
 Smt (real):
                 1 
      1   0.139300D+01
 Smt (imaginary):
                 1 
      1   0.000000D+00
 Hmt (real):
                 1 
      1  -0.191733D+03
 Hmt (imaginary):
                 1 
      1   0.000000D+00
 
Form Fock eff
ifsel =     2, useproj    T
 DIIS: error= 1.46D-07 at cycle  51 NSaved=  11.
 NSaved=11 IEnMin=11 EnMin= -108.829933525869     IErMin=11 ErrMin= 1.46D-07
 ErrMax= 1.46D-07 EMaxC= 1.00D+00 BMatC= 1.28D-12 BMatP= 2.19D-12
 IDIUse=1 WtCom= 1.00D+00 WtEn= 0.00D+00
 Coeff-Com:  0.123D+00-0.148D+00 0.120D+00-0.111D+00-0.108D+00 0.214D+00
 Coeff-Com: -0.478D+00 0.386D+00 0.476D+00-0.365D+01 0.417D+01
 Coeff:      0.123D+00-0.148D+00 0.120D+00-0.111D+00-0.108D+00 0.214D+00
 Coeff:     -0.478D+00 0.386D+00 0.476D+00-0.365D+01 0.417D+01
 
Diag Fock

 Fock eigenvalues (alpha):
      orbital --                 1                2                3                4
       energy --    -1.5622105D+01   -1.5553489D+01   -1.6028764D+00   -7.1798097D-01
      orbital --                 5                6                7                8
       energy --    -7.1798097D-01   -7.1660842D-01   -5.8806166D-01    3.0500312D-01
      orbital --                 9               10               11               12
       energy --     3.0500312D-01    6.3097772D-01    7.5772923D-01    7.9914265D-01
      orbital --                13               14               15               16
       energy --     7.9914265D-01    1.0324677D+00    1.1276070D+00    1.1276070D+00
      orbital --                17               18               19               20
       energy --     1.4484817D+00    1.7039197D+00    1.7039197D+00    1.9485989D+00
      orbital --                21               22               23               24
       energy --     2.1368302D+00    2.1368302D+00    2.4598151D+00    2.4598151D+00
      orbital --                25               26               27               28
       energy --     2.9794583D+00    3.2487152D+00    3.2487152D+00    4.2158155D+00

 Fock eigenvalues (beta):
      orbital --                 1                2                3                4
       energy --    -1.5622105D+01   -1.5553489D+01   -1.6028764D+00   -7.1798097D-01
      orbital --                 5                6                7                8
       energy --    -7.1798097D-01   -7.1660842D-01   -5.8806166D-01    3.0500312D-01
      orbital --                 9               10               11               12
       energy --     3.0500312D-01    6.3097772D-01    7.5772923D-01    7.9914265D-01
      orbital --                13               14               15               16
       energy --     7.9914265D-01    1.0324677D+00    1.1276070D+00    1.1276070D+00
      orbital --                17               18               19               20
       energy --     1.4484817D+00    1.7039197D+00    1.7039197D+00    1.9485989D+00
      orbital --                21               22               23               24
       energy --     2.1368302D+00    2.1368302D+00    2.4598151D+00    2.4598151D+00
      orbital --                25               26               27               28
       energy --     2.9794583D+00    3.2487152D+00    3.2487152D+00    4.2158155D+00

 *** cycle =   51 ***

        E =    -108.829933525869      DE =      -0.000000000002
      Hsp =    -203.968503788363     Hph =      66.327811128149
   <S**2> =      -0.000000000551
    RMSDP =       9.1267D-08        MaxP =       8.6957D-07

   E (HF) =    -108.621230644684

 ********************

*********  Start Cycle 52  *************
 
Start hffock

 Symmetry not used in FoFDir.
 MinBra= 0 MaxBra= 2 Meth= 1.
 IRaf=       1 NMat=   2 IRICut=       1 DoRegI=T DoRafI=F ISym2E= 0 JSym2E=0.
 PrsmSu:  NPrtUS=   1 ThrOK=F IAlg=1 NPAlg=1 LenDen=           0.
 Prism:   IPart=     0 DynPar=F LinDyn=F Incr=          30.
 PRISM was handed   536809828 working-precision words and    78 shell-pairs
 IPart=  0 NShTot=        3081 NBatch=         210 AvBLen=        14.7
 PrSmSu:  NxtVal=             31.
 
Start hfdmdg: find NO basis
 
Start formng/pg
 
Start formgg

 Symmetry not used in FoFDir.
 MinBra= 0 MaxBra= 2 Meth= 1.
 IRaf=       1 NMat=  64 IRICut=       1 DoRegI=T DoRafI=F ISym2E= 0 JSym2E=0.
 PrsmSu:  NPrtUS=   1 ThrOK=F IAlg=1 NPAlg=1 LenDen=           0.
 Prism:   IPart=     0 DynPar=F LinDyn=F Incr=          30.
 PRISM was handed   536674208 working-precision words and    78 shell-pairs
 IPart=  0 NShTot=        3081 NBatch=         210 AvBLen=        14.7
 PrSmSu:  NxtVal=             31.
 
Start evalsmt/hmt
 Smt (real):
                 1 
      1   0.139300D+01
 Smt (imaginary):
                 1 
      1   0.000000D+00
 Hmt (real):
                 1 
      1  -0.191733D+03
 Hmt (imaginary):
                 1 
      1   0.000000D+00
 
Form Fock eff
ifsel =     2, useproj    T
 DIIS: error= 2.24D-08 at cycle  52 NSaved=  12.
 NSaved=12 IEnMin=12 EnMin= -108.829933525871     IErMin=12 ErrMin= 2.24D-08
 ErrMax= 2.24D-08 EMaxC= 1.00D+00 BMatC= 8.57D-14 BMatP= 1.28D-12
 IDIUse=1 WtCom= 1.00D+00 WtEn= 0.00D+00
 Coeff-Com: -0.498D-01 0.601D-01-0.462D-01 0.428D-01 0.381D-01-0.768D-01
 Coeff-Com:  0.169D+00-0.165D+00-0.864D-02 0.706D+00-0.108D+01 0.141D+01
 Coeff:     -0.498D-01 0.601D-01-0.462D-01 0.428D-01 0.381D-01-0.768D-01
 Coeff:      0.169D+00-0.165D+00-0.864D-02 0.706D+00-0.108D+01 0.141D+01
 
Diag Fock

 Fock eigenvalues (alpha):
      orbital --                 1                2                3                4
       energy --    -1.5622105D+01   -1.5553489D+01   -1.6028764D+00   -7.1798096D-01
      orbital --                 5                6                7                8
       energy --    -7.1798096D-01   -7.1660841D-01   -5.8806166D-01    3.0500313D-01
      orbital --                 9               10               11               12
       energy --     3.0500313D-01    6.3097770D-01    7.5772921D-01    7.9914266D-01
      orbital --                13               14               15               16
       energy --     7.9914266D-01    1.0324677D+00    1.1276070D+00    1.1276070D+00
      orbital --                17               18               19               20
       energy --     1.4484817D+00    1.7039197D+00    1.7039197D+00    1.9485989D+00
      orbital --                21               22               23               24
       energy --     2.1368302D+00    2.1368302D+00    2.4598151D+00    2.4598151D+00
      orbital --                25               26               27               28
       energy --     2.9794583D+00    3.2487152D+00    3.2487152D+00    4.2158155D+00

 Fock eigenvalues (beta):
      orbital --                 1                2                3                4
       energy --    -1.5622105D+01   -1.5553489D+01   -1.6028764D+00   -7.1798096D-01
      orbital --                 5                6                7                8
       energy --    -7.1798096D-01   -7.1660841D-01   -5.8806166D-01    3.0500313D-01
      orbital --                 9               10               11               12
       energy --     3.0500313D-01    6.3097770D-01    7.5772921D-01    7.9914266D-01
      orbital --                13               14               15               16
       energy --     7.9914266D-01    1.0324677D+00    1.1276070D+00    1.1276070D+00
      orbital --                17               18               19               20
       energy --     1.4484817D+00    1.7039197D+00    1.7039197D+00    1.9485989D+00
      orbital --                21               22               23               24
       energy --     2.1368302D+00    2.1368302D+00    2.4598151D+00    2.4598151D+00
      orbital --                25               26               27               28
       energy --     2.9794583D+00    3.2487152D+00    3.2487152D+00    4.2158155D+00

 *** cycle =   52 ***

        E =    -108.829933525871      DE =      -0.000000000002
      Hsp =    -203.968503462011     Hph =      66.327810801796
   <S**2> =      -0.000000000551
    RMSDP =       1.7118D-08        MaxP =       1.5584D-07

   E (HF) =    -108.621230486995

 ********************

*********  Start Cycle 53  *************
 
Start hffock

 Symmetry not used in FoFDir.
 MinBra= 0 MaxBra= 2 Meth= 1.
 IRaf=       1 NMat=   2 IRICut=       1 DoRegI=T DoRafI=F ISym2E= 0 JSym2E=0.
 PrsmSu:  NPrtUS=   1 ThrOK=F IAlg=1 NPAlg=1 LenDen=           0.
 Prism:   IPart=     0 DynPar=F LinDyn=F Incr=          30.
 PRISM was handed   536809828 working-precision words and    78 shell-pairs
 IPart=  0 NShTot=        3081 NBatch=         210 AvBLen=        14.7
 PrSmSu:  NxtVal=             31.
 
Start hfdmdg: find NO basis
 
Start formng/pg
 
Start formgg

 Symmetry not used in FoFDir.
 MinBra= 0 MaxBra= 2 Meth= 1.
 IRaf=       1 NMat=  64 IRICut=       1 DoRegI=T DoRafI=F ISym2E= 0 JSym2E=0.
 PrsmSu:  NPrtUS=   1 ThrOK=F IAlg=1 NPAlg=1 LenDen=           0.
 Prism:   IPart=     0 DynPar=F LinDyn=F Incr=          30.
 PRISM was handed   536674208 working-precision words and    78 shell-pairs
 IPart=  0 NShTot=        3081 NBatch=         210 AvBLen=        14.7
 PrSmSu:  NxtVal=             31.
 
Start evalsmt/hmt
 Smt (real):
                 1 
      1   0.139300D+01
 Smt (imaginary):
                 1 
      1   0.000000D+00
 Hmt (real):
                 1 
      1  -0.191733D+03
 Hmt (imaginary):
                 1 
      1   0.000000D+00
 
Form Fock eff
ifsel =     2, useproj    T
 DIIS: error= 1.37D-08 at cycle  53 NSaved=  13.
 NSaved=13 IEnMin=12 EnMin= -108.829933525871     IErMin=13 ErrMin= 1.37D-08
 ErrMax= 1.37D-08 EMaxC= 1.00D+00 BMatC= 3.12D-14 BMatP= 8.57D-14
 IDIUse=1 WtCom= 1.00D+00 WtEn= 0.00D+00
 Coeff-Com:  0.140D+00-0.169D+00 0.129D+00-0.120D+00-0.105D+00 0.213D+00
 Coeff-Com: -0.473D+00 0.474D+00-0.357D-01-0.180D+01 0.295D+01-0.464D+01
 Coeff-Com:  0.444D+01
 Coeff:      0.140D+00-0.169D+00 0.129D+00-0.120D+00-0.105D+00 0.213D+00
 Coeff:     -0.473D+00 0.474D+00-0.357D-01-0.180D+01 0.295D+01-0.464D+01
 Coeff:      0.444D+01
 
Diag Fock

 Fock eigenvalues (alpha):
      orbital --                 1                2                3                4
       energy --    -1.5622105D+01   -1.5553489D+01   -1.6028765D+00   -7.1798099D-01
      orbital --                 5                6                7                8
       energy --    -7.1798099D-01   -7.1660846D-01   -5.8806166D-01    3.0500310D-01
      orbital --                 9               10               11               12
       energy --     3.0500310D-01    6.3097770D-01    7.5772919D-01    7.9914264D-01
      orbital --                13               14               15               16
       energy --     7.9914264D-01    1.0324677D+00    1.1276070D+00    1.1276070D+00
      orbital --                17               18               19               20
       energy --     1.4484817D+00    1.7039197D+00    1.7039197D+00    1.9485989D+00
      orbital --                21               22               23               24
       energy --     2.1368302D+00    2.1368302D+00    2.4598151D+00    2.4598151D+00
      orbital --                25               26               27               28
       energy --     2.9794583D+00    3.2487152D+00    3.2487152D+00    4.2158155D+00

 Fock eigenvalues (beta):
      orbital --                 1                2                3                4
       energy --    -1.5622105D+01   -1.5553489D+01   -1.6028765D+00   -7.1798100D-01
      orbital --                 5                6                7                8
       energy --    -7.1798100D-01   -7.1660846D-01   -5.8806166D-01    3.0500311D-01
      orbital --                 9               10               11               12
       energy --     3.0500311D-01    6.3097770D-01    7.5772919D-01    7.9914264D-01
      orbital --                13               14               15               16
       energy --     7.9914264D-01    1.0324677D+00    1.1276070D+00    1.1276070D+00
      orbital --                17               18               19               20
       energy --     1.4484817D+00    1.7039197D+00    1.7039197D+00    1.9485989D+00
      orbital --                21               22               23               24
       energy --     2.1368302D+00    2.1368302D+00    2.4598151D+00    2.4598151D+00
      orbital --                25               26               27               28
       energy --     2.9794583D+00    3.2487152D+00    3.2487152D+00    4.2158155D+00

 *** cycle =   53 ***

        E =    -108.829933525871      DE =       0.000000000000
      Hsp =    -203.968503449356     Hph =      66.327810789140
   <S**2> =      -0.000000000551
    RMSDP =       1.0227D-08        MaxP =       9.0228D-08

   E (HF) =    -108.621230502566

 ********************

*********  Start Cycle 54  *************
 
Start hffock

 Symmetry not used in FoFDir.
 MinBra= 0 MaxBra= 2 Meth= 1.
 IRaf=       1 NMat=   2 IRICut=       1 DoRegI=T DoRafI=F ISym2E= 0 JSym2E=0.
 PrsmSu:  NPrtUS=   1 ThrOK=F IAlg=1 NPAlg=1 LenDen=           0.
 Prism:   IPart=     0 DynPar=F LinDyn=F Incr=          30.
 PRISM was handed   536809828 working-precision words and    78 shell-pairs
 IPart=  0 NShTot=        3081 NBatch=         210 AvBLen=        14.7
 PrSmSu:  NxtVal=             31.
 
Start hfdmdg: find NO basis
 
Start formng/pg
 
Start formgg

 Symmetry not used in FoFDir.
 MinBra= 0 MaxBra= 2 Meth= 1.
 IRaf=       1 NMat=  64 IRICut=       1 DoRegI=T DoRafI=F ISym2E= 0 JSym2E=0.
 PrsmSu:  NPrtUS=   1 ThrOK=F IAlg=1 NPAlg=1 LenDen=           0.
 Prism:   IPart=     0 DynPar=F LinDyn=F Incr=          30.
 PRISM was handed   536674208 working-precision words and    78 shell-pairs
 IPart=  0 NShTot=        3081 NBatch=         210 AvBLen=        14.7
 PrSmSu:  NxtVal=             31.
 
Start evalsmt/hmt
 Smt (real):
                 1 
      1   0.139300D+01
 Smt (imaginary):
                 1 
      1   0.000000D+00
 Hmt (real):
                 1 
      1  -0.191733D+03
 Hmt (imaginary):
                 1 
      1   0.000000D+00
 
Form Fock eff
ifsel =     2, useproj    T
 DIIS: error= 4.54D-09 at cycle  54 NSaved=  14.
 NSaved=14 IEnMin=14 EnMin= -108.829933525871     IErMin=14 ErrMin= 4.54D-09
 ErrMax= 4.54D-09 EMaxC= 1.00D+00 BMatC= 2.90D-15 BMatP= 3.12D-14
 IDIUse=1 WtCom= 1.00D+00 WtEn= 0.00D+00
 Coeff-Com: -0.141D-01 0.170D-01-0.128D-01 0.118D-01 0.102D-01-0.210D-01
 Coeff-Com:  0.475D-01-0.486D-01 0.924D-02 0.157D+00-0.275D+00 0.489D+00
 Coeff-Com: -0.783D+00 0.141D+01
 Coeff:     -0.141D-01 0.170D-01-0.128D-01 0.118D-01 0.102D-01-0.210D-01
 Coeff:      0.475D-01-0.486D-01 0.924D-02 0.157D+00-0.275D+00 0.489D+00
 Coeff:     -0.783D+00 0.141D+01
 
Diag Fock

 Fock eigenvalues (alpha):
      orbital --                 1                2                3                4
       energy --    -1.5622105D+01   -1.5553489D+01   -1.6028765D+00   -7.1798101D-01
      orbital --                 5                6                7                8
       energy --    -7.1798101D-01   -7.1660846D-01   -5.8806166D-01    3.0500310D-01
      orbital --                 9               10               11               12
       energy --     3.0500310D-01    6.3097770D-01    7.5772918D-01    7.9914264D-01
      orbital --                13               14               15               16
       energy --     7.9914264D-01    1.0324677D+00    1.1276070D+00    1.1276070D+00
      orbital --                17               18               19               20
       energy --     1.4484817D+00    1.7039197D+00    1.7039197D+00    1.9485989D+00
      orbital --                21               22               23               24
       energy --     2.1368302D+00    2.1368302D+00    2.4598151D+00    2.4598151D+00
      orbital --                25               26               27               28
       energy --     2.9794583D+00    3.2487152D+00    3.2487152D+00    4.2158155D+00

 Fock eigenvalues (beta):
      orbital --                 1                2                3                4
       energy --    -1.5622105D+01   -1.5553489D+01   -1.6028765D+00   -7.1798100D-01
      orbital --                 5                6                7                8
       energy --    -7.1798100D-01   -7.1660846D-01   -5.8806166D-01    3.0500310D-01
      orbital --                 9               10               11               12
       energy --     3.0500310D-01    6.3097770D-01    7.5772918D-01    7.9914264D-01
      orbital --                13               14               15               16
       energy --     7.9914264D-01    1.0324677D+00    1.1276070D+00    1.1276070D+00
      orbital --                17               18               19               20
       energy --     1.4484817D+00    1.7039197D+00    1.7039197D+00    1.9485989D+00
      orbital --                21               22               23               24
       energy --     2.1368302D+00    2.1368302D+00    2.4598151D+00    2.4598151D+00
      orbital --                25               26               27               28
       energy --     2.9794583D+00    3.2487152D+00    3.2487152D+00    4.2158155D+00

 *** cycle =   54 ***

        E =    -108.829933525871      DE =      -0.000000000000
      Hsp =    -203.968503352469     Hph =      66.327810692254
   <S**2> =      -0.000000000551
    RMSDP =       3.4815D-09        MaxP =       2.5506D-08

   E (HF) =    -108.621230528878

 ********************


 *** SCF Done after   54 cycles ***

        E =    -108.829933525871    conv =           3.4815E-09
      Hsp =    -203.968503352469     Hph =      66.327810692254
   <S**2> =      -0.000000000551

 **********************************


 PHF SCF - quitting the program

 Leave Link  530 at Mon Jan 25 20:05:55 2021, MaxMem=  536870912 cpu:       5.4
 (Enter /share/apps/gaussian/G09C01Z/srwang-mod-2020/g09/l9999.exe)

 Test job not archived.
 1\1\GINC-XN01\SP\CUHF\CC-pVDZ\N2\SRWANG\25-Jan-2021\0\\#p uhf/cc-pvdz 
 nosymm guess=read scf=conver=2 # extralink=l530 iop(5/206=6, 5/207=4, 
 5/216=1, 5/218=40) pop=none\\title\\0,1\N,0,0.,0.,0.\N,0,0.,0.,0.9\\Ve
 rsion=EM64L-G09RevC.01\HF=-108.8299335\S2=0.\S2-1=0.\S2A=0.\RMSD=3.482
 e-09\PG=D*H [C*(N1.N1)]\\@


 IT MATTERS NOT HOW DEEP YOU PLOW,
 BUT HOW LONG YOU STAY IN THE FURROW.
 Job cpu time:  0 days  0 hours  0 minutes  5.8 seconds.
 File lengths (MBytes):  RWF=      9 Int=      0 D2E=      0 Chk=      8 Scr=      1
 Normal termination of Gaussian 09 at Mon Jan 25 20:05:55 2021.
