 Entering Gaussian System, Link 0=g09
 Input=test_n2_qz.gjf
 Output=test_n2_qz.log
 Initial command:
 /share/apps/gaussian/G09C01Z/srwang-mod-2020/g09/l1.exe /scratch/scr/srwang/gau/Gau-2721.inp -scrdir=/scratch/scr/srwang/gau/
 Entering Link 1 = /share/apps/gaussian/G09C01Z/srwang-mod-2020/g09/l1.exe PID=      2722.
  
 Copyright (c) 1988,1990,1992,1993,1995,1998,2003,2009,2011,
            Gaussian, Inc.  All Rights Reserved.
  
 This is part of the Gaussian(R) 09 program.  It is based on
 the Gaussian(R) 03 system (copyright 2003, Gaussian, Inc.),
 the Gaussian(R) 98 system (copyright 1998, Gaussian, Inc.),
 the Gaussian(R) 94 system (copyright 1995, Gaussian, Inc.),
 the Gaussian 92(TM) system (copyright 1992, Gaussian, Inc.),
 the Gaussian 90(TM) system (copyright 1990, Gaussian, Inc.),
 the Gaussian 88(TM) system (copyright 1988, Gaussian, Inc.),
 the Gaussian 86(TM) system (copyright 1986, Carnegie Mellon
 University), and the Gaussian 82(TM) system (copyright 1983,
 Carnegie Mellon University). Gaussian is a federally registered
 trademark of Gaussian, Inc.
  
 This software contains proprietary and confidential information,
 including trade secrets, belonging to Gaussian, Inc.
  
 This software is provided under written license and may be
 used, copied, transmitted, or stored only in accord with that
 written license.
  
 The following legend is applicable only to US Government
 contracts under FAR:
  
                    RESTRICTED RIGHTS LEGEND
  
 Use, reproduction and disclosure by the US Government is
 subject to restrictions as set forth in subparagraphs (a)
 and (c) of the Commercial Computer Software - Restricted
 Rights clause in FAR 52.227-19.
  
 Gaussian, Inc.
 340 Quinnipiac St., Bldg. 40, Wallingford CT 06492
  
  
 ---------------------------------------------------------------
 Warning -- This program may not be used in any manner that
 competes with the business of Gaussian, Inc. or will provide
 assistance to any competitor of Gaussian, Inc.  The licensee
 of this program is prohibited from giving any competitor of
 Gaussian, Inc. access to this program.  By using this program,
 the user acknowledges that Gaussian, Inc. is engaged in the
 business of creating and licensing software in the field of
 computational chemistry and represents and warrants to the
 licensee that it is not a competitor of Gaussian, Inc. and that
 it will not use this program in any manner prohibited above.
 ---------------------------------------------------------------
  

 Cite this work as:
 Gaussian 09, Revision C.01,
 M. J. Frisch, G. W. Trucks, H. B. Schlegel, G. E. Scuseria, 
 M. A. Robb, J. R. Cheeseman, G. Scalmani, V. Barone, B. Mennucci, 
 G. A. Petersson, H. Nakatsuji, M. Caricato, X. Li, H. P. Hratchian, 
 A. F. Izmaylov, J. Bloino, G. Zheng, J. L. Sonnenberg, M. Hada, 
 M. Ehara, K. Toyota, R. Fukuda, J. Hasegawa, M. Ishida, T. Nakajima, 
 Y. Honda, O. Kitao, H. Nakai, T. Vreven, J. A. Montgomery, Jr., 
 J. E. Peralta, F. Ogliaro, M. Bearpark, J. J. Heyd, E. Brothers, 
 K. N. Kudin, V. N. Staroverov, T. Keith, R. Kobayashi, J. Normand, 
 K. Raghavachari, A. Rendell, J. C. Burant, S. S. Iyengar, J. Tomasi, 
 M. Cossi, N. Rega, J. M. Millam, M. Klene, J. E. Knox, J. B. Cross, 
 V. Bakken, C. Adamo, J. Jaramillo, R. Gomperts, R. E. Stratmann, 
 O. Yazyev, A. J. Austin, R. Cammi, C. Pomelli, J. W. Ochterski, 
 R. L. Martin, K. Morokuma, V. G. Zakrzewski, G. A. Voth, 
 P. Salvador, J. J. Dannenberg, S. Dapprich, A. D. Daniels, 
 O. Farkas, J. B. Foresman, J. V. Ortiz, J. Cioslowski, 
 and D. J. Fox, Gaussian, Inc., Wallingford CT, 2010.
 
 ******************************************
 Gaussian 09:  EM64L-G09RevC.01 23-Sep-2011
                21-Dec-2020 
 ******************************************
 %subst l530 ../../phf
 %nproc=1
 Will use up to    1 processors via shared memory.
 %mem=4GB
 %oldchk=../scan_n2/uhf-1.30.chk
 %chk=test_n2_qz.chk
 Copying data from "../scan_n2/uhf-1.30.chk" to current chk file "test_n2_qz.chk".
 ----------------------------------------------------------------------
 #p uhf/cc-pvqz nosymm guess=read scf=conver=4 # extralink=l530 iop(5/2
 06=6, 5/207=4, 5/216=1, 5/218=100) pop=none
 ----------------------------------------------------------------------
 1/38=1/1;
 2/12=2,15=1,17=6,18=5,40=1/2;
 3/5=16,6=2,11=2,16=1,25=1,30=1,116=2/1,2,3;
 4/5=1/1;
 5/5=2,6=4,38=6,206=6,207=4,216=1,218=100/2,30;
 99/5=1,9=1/99;
 Leave Link    1 at Mon Dec 21 12:58:54 2020, MaxMem=  536870912 cpu:       0.0
 (Enter /share/apps/gaussian/G09C01Z/srwang-mod-2020/g09/l101.exe)
 -----
 title
 -----
 Charge =  0 Multiplicity = 1
 Symbolic Z-Matrix:
 N                     0.        0.        0. 
 N                     0.        0.        0.9 
 
 NAtoms=      2 NQM=        0 NQMF=       0 NMMI=      2 NMMIF=      0
                NMic=       0 NMicF=      0.
                    Isotopes and Nuclear Properties:
 (Nuclear quadrupole moments (NQMom) in fm**2, nuclear magnetic moments (NMagM)
  in nuclear magnetons)

  Atom         1           2
 IAtWgt=          14          14
 AtmWgt=  14.0030740  14.0030740
 NucSpn=           2           2
 AtZEff=   0.0000000   0.0000000
 NQMom=    2.0440000   2.0440000
 NMagM=    0.4037610   0.4037610
 Leave Link  101 at Mon Dec 21 12:58:54 2020, MaxMem=  536870912 cpu:       0.1
 (Enter /share/apps/gaussian/G09C01Z/srwang-mod-2020/g09/l202.exe)
                          Input orientation:                          
 ---------------------------------------------------------------------
 Center     Atomic      Atomic             Coordinates (Angstroms)
 Number     Number       Type             X           Y           Z
 ---------------------------------------------------------------------
      1          7           0        0.000000    0.000000    0.000000
      2          7           0        0.000000    0.000000    0.900000
 ---------------------------------------------------------------------
 Symmetry turned off by external request.
 Stoichiometry    N2
 Framework group  D*H[C*(N.N)]
 Deg. of freedom     1
 Full point group                 D*H     NOp   8
 Rotational constants (GHZ):      0.0000000     89.1125330     89.1125330
 Leave Link  202 at Mon Dec 21 12:58:54 2020, MaxMem=  536870912 cpu:       0.0
 (Enter /share/apps/gaussian/G09C01Z/srwang-mod-2020/g09/l301.exe)
 Standard basis: CC-pVQZ (5D, 7F)
 Ernie: Thresh=  0.10000D-02 Tol=  0.10000D-05 Strict=F.
 Ernie:  6 primitive shells out of 66 were deleted.
 Integral buffers will be    131072 words long.
 Raffenetti 2 integral format.
 Two-electron integral symmetry is turned off.
   110 basis functions,   178 primitive gaussians,   140 cartesian basis functions
     7 alpha electrons        7 beta electrons
       nuclear repulsion energy        28.8107591343 Hartrees.
 IExCor=    0 DFT=F Ex=HF Corr=None ExCW=0 ScaHFX=  1.000000
 ScaDFX=  1.000000  1.000000  1.000000  1.000000 ScalE2=  1.000000  1.000000
 IRadAn=      0 IRanWt=     -1 IRanGd=            0 ICorTp=0
 NAtoms=    2 NActive=    2 NUniq=    2 SFac= 1.00D+00 NAtFMM=   60 NAOKFM=F Big=F
 Leave Link  301 at Mon Dec 21 12:58:54 2020, MaxMem=  536870912 cpu:       0.0
 (Enter /share/apps/gaussian/G09C01Z/srwang-mod-2020/g09/l302.exe)
 NPDir=0 NMtPBC=     1 NCelOv=     1 NCel=       1 NClECP=     1 NCelD=      1
         NCelK=      1 NCelE2=     1 NClLst=     1 CellRange=     0.0.
 One-electron integrals computed using PRISM.
 Bad symmetry data in SVDSVc:  NBasis=  110 NT=  110 NBlks=1 MaxCmp=1 NBF=  110
 NBasis=   110 RedAO= T  NBF=   110
 NBsUse=   110 1.00D-06 NBFU=   110
 Leave Link  302 at Mon Dec 21 12:58:54 2020, MaxMem=  536870912 cpu:       0.1
 (Enter /share/apps/gaussian/G09C01Z/srwang-mod-2020/g09/l303.exe)
 DipDrv:  MaxL=1.
 Leave Link  303 at Mon Dec 21 12:58:54 2020, MaxMem=  536870912 cpu:       0.0
 (Enter /share/apps/gaussian/G09C01Z/srwang-mod-2020/g09/l401.exe)
 Initial guess read from the checkpoint file:  test_n2_qz.chk
 B after Tr=     0.000000    0.000000    0.850377
         Rot=    0.000000   -0.000000    1.000000   -0.000000 Ang= 180.00 deg.
 Guess basis will be translated and rotated to current coordinates.
 Initial guess <Sx>= 0.0000 <Sy>= 0.0000 <Sz>= 0.0000 <S**2>= 0.7053 S= 0.4774
 Leave Link  401 at Mon Dec 21 12:58:54 2020, MaxMem=  536870912 cpu:       0.1
 (Enter /share/apps/gaussian/G09C01Z/srwang-mod-2020/g09/l502.exe)
 UHF open shell SCF:
 Requested convergence on RMS density matrix=1.00D-04 within 128 cycles.
 Requested convergence on MAX density matrix=1.00D-02.
 Requested convergence on             energy=1.00D-02.
 No special actions if energy rises.
 Using DIIS extrapolation, IDIIS=  1040.
 Two-electron integral symmetry not used.
 Keep R1 and R2 ints in memory in canonical form, NReq=102014248.
 IEnd=       78630 IEndB=       78630 NGot=   536870912 MDV=   439401865
 LenX=   439401865 LenY=   439381824
 Symmetry not used in FoFDir.
 MinBra= 0 MaxBra= 4 Meth= 1.
 IRaf=       0 NMat=   1 IRICut=       1 DoRegI=T DoRafI=F ISym2E= 0 JSym2E=0.

 Cycle   1  Pass 1  IDiag  1:
 E= -108.570623723761    
 DIIS: error= 1.00D-01 at cycle   1 NSaved=   1.
 NSaved= 1 IEnMin= 1 EnMin= -108.570623723761     IErMin= 1 ErrMin= 1.00D-01
 ErrMax= 1.00D-01 EMaxC= 1.00D-01 BMatC= 1.35D+00 BMatP= 1.35D+00
 IDIUse=3 WtCom= 0.00D+00 WtEn= 1.00D+00
 Coeff-Com:  0.100D+01
 Coeff-En:   0.100D+01
 Coeff:      0.100D+01
 Gap=     1.124 Goal=   None    Shift=    0.000
 Gap=     1.124 Goal=   None    Shift=    0.000
 GapD=    1.124 DampG=2.000 DampE=0.250 DampFc=0.5000 IDamp=-1.
 Damping current iteration by 5.00D-01
 RMSDP=1.38D-02 MaxDP=4.72D-01              OVMax= 1.39D-01

 Cycle   2  Pass 1  IDiag  1:
 E= -108.675024142472     Delta-E=       -0.104400418711 Rises=F Damp=T
 DIIS: error= 4.55D-02 at cycle   2 NSaved=   2.
 NSaved= 2 IEnMin= 2 EnMin= -108.675024142472     IErMin= 2 ErrMin= 4.55D-02
 ErrMax= 4.55D-02 EMaxC= 1.00D-01 BMatC= 3.54D-01 BMatP= 1.35D+00
 IDIUse=3 WtCom= 5.45D-01 WtEn= 4.55D-01
 Coeff-Com: -0.837D+00 0.184D+01
 Coeff-En:   0.000D+00 0.100D+01
 Coeff:     -0.456D+00 0.146D+01
 Gap=     0.882 Goal=   None    Shift=    0.000
 DSYEVD returned Info=         221 IAlg= 4 N=   110 NDim=   110 NE2=     3994379 trying DSYEV.
 Gap=     0.882 Goal=   None    Shift=    0.000
 RMSDP=8.39D-03 MaxDP=2.72D-01 DE=-1.04D-01 OVMax= 4.32D-02

 Cycle   3  Pass 1  IDiag  1:
 E= -108.813996985180     Delta-E=       -0.138972842708 Rises=F Damp=F
 DIIS: error= 2.43D-02 at cycle   3 NSaved=   3.
 NSaved= 3 IEnMin= 3 EnMin= -108.813996985180     IErMin= 3 ErrMin= 2.43D-02
 ErrMax= 2.43D-02 EMaxC= 1.00D-01 BMatC= 2.77D-02 BMatP= 3.54D-01
 IDIUse=3 WtCom= 7.57D-01 WtEn= 2.43D-01
 Coeff-Com:  0.382D+00-0.879D+00 0.150D+01
 Coeff-En:   0.000D+00 0.000D+00 0.100D+01
 Coeff:      0.289D+00-0.665D+00 0.138D+01
 Gap=     0.887 Goal=   None    Shift=    0.000
 DSYEVD returned Info=         221 IAlg= 4 N=   110 NDim=   110 NE2=     3994379 trying DSYEV.
 Gap=     0.887 Goal=   None    Shift=    0.000
 DSYEVD returned Info=         221 IAlg= 4 N=   110 NDim=   110 NE2=     3994379 trying DSYEV.
 RMSDP=1.09D-03 MaxDP=3.22D-02 DE=-1.39D-01 OVMax= 5.90D-02

 Cycle   4  Pass 1  IDiag  1:
 E= -108.835003602329     Delta-E=       -0.021006617150 Rises=F Damp=F
 DIIS: error= 1.56D-02 at cycle   4 NSaved=   4.
 NSaved= 4 IEnMin= 4 EnMin= -108.835003602329     IErMin= 4 ErrMin= 1.56D-02
 ErrMax= 1.56D-02 EMaxC= 1.00D-01 BMatC= 1.03D-02 BMatP= 2.77D-02
 IDIUse=3 WtCom= 8.44D-01 WtEn= 1.56D-01
 Coeff-Com: -0.199D+00 0.471D+00-0.171D+01 0.244D+01
 Coeff-En:   0.000D+00 0.000D+00 0.000D+00 0.100D+01
 Coeff:     -0.168D+00 0.398D+00-0.145D+01 0.222D+01
 Gap=     0.894 Goal=   None    Shift=    0.000
 DSYEVD returned Info=         221 IAlg= 4 N=   110 NDim=   110 NE2=     3994379 trying DSYEV.
 Gap=     0.894 Goal=   None    Shift=    0.000
 RMSDP=7.52D-04 MaxDP=1.93D-02 DE=-2.10D-02 OVMax= 7.27D-02

 Cycle   5  Pass 1  IDiag  1:
 E= -108.848645392658     Delta-E=       -0.013641790329 Rises=F Damp=F
 DIIS: error= 5.94D-03 at cycle   5 NSaved=   5.
 NSaved= 5 IEnMin= 5 EnMin= -108.848645392658     IErMin= 5 ErrMin= 5.94D-03
 ErrMax= 5.94D-03 EMaxC= 1.00D-01 BMatC= 1.66D-03 BMatP= 1.03D-02
 IDIUse=3 WtCom= 9.41D-01 WtEn= 5.94D-02
 Coeff-Com: -0.298D-02-0.185D-01 0.473D+00-0.142D+01 0.197D+01
 Coeff-En:   0.000D+00 0.000D+00 0.000D+00 0.000D+00 0.100D+01
 Coeff:     -0.281D-02-0.174D-01 0.445D+00-0.134D+01 0.192D+01
 Gap=     0.898 Goal=   None    Shift=    0.000
 Gap=     0.898 Goal=   None    Shift=    0.000
 DSYEVD returned Info=         221 IAlg= 4 N=   110 NDim=   110 NE2=     3994379 trying DSYEV.
 RMSDP=5.14D-04 MaxDP=1.38D-02 DE=-1.36D-02 OVMax= 4.43D-02

 Cycle   6  Pass 1  IDiag  1:
 E= -108.851210358340     Delta-E=       -0.002564965682 Rises=F Damp=F
 DIIS: error= 3.87D-04 at cycle   6 NSaved=   6.
 NSaved= 6 IEnMin= 6 EnMin= -108.851210358340     IErMin= 6 ErrMin= 3.87D-04
 ErrMax= 3.87D-04 EMaxC= 1.00D-01 BMatC= 2.51D-05 BMatP= 1.66D-03
 IDIUse=3 WtCom= 9.96D-01 WtEn= 3.87D-03
 Coeff-Com:  0.858D-02-0.129D-01-0.937D-01 0.387D+00-0.710D+00 0.142D+01
 Coeff-En:   0.000D+00 0.000D+00 0.000D+00 0.000D+00 0.000D+00 0.100D+01
 Coeff:      0.854D-02-0.128D-01-0.934D-01 0.386D+00-0.707D+00 0.142D+01
 Gap=     0.896 Goal=   None    Shift=    0.000
 DSYEVD returned Info=         221 IAlg= 4 N=   110 NDim=   110 NE2=     3994379 trying DSYEV.
 Gap=     0.896 Goal=   None    Shift=    0.000
 DSYEVD returned Info=         221 IAlg= 4 N=   110 NDim=   110 NE2=     3994379 trying DSYEV.
 RMSDP=7.71D-05 MaxDP=1.95D-03 DE=-2.56D-03 OVMax= 3.34D-03

 SCF Done:  E(UHF) =  -108.851210358     A.U. after    6 cycles
             Convg  =    0.7714D-04             -V/T =  1.9830
 <Sx>= 0.0000 <Sy>= 0.0000 <Sz>= 0.0000 <S**2>= 0.0000 S= 0.0000
 <L.S>= 0.000000000000E+00
 KE= 1.107312352338D+02 PE=-3.148468490562D+02 EE= 6.645364432973D+01
 Annihilation of the first spin contaminant:
 S**2 before annihilation     0.0000,   after     0.0000
 Leave Link  502 at Mon Dec 21 12:58:58 2020, MaxMem=  536870912 cpu:       3.6
  
  +-------------------------------------------+
  |                                           |
  |  LINK 530 - Projected Hartree-Fock (PHF)  |
  |     Self-Consistent Field (SCF) Code      |
  |                                           |
  |                                           |
  |         the Scuseria group, v0.2, 07.2011 |
  +-------------------------------------------+
  
 (Enter ../../phf/l530.exe)

 PHF SCF was invoked with the following options:

   method selection:
 iprint =  6
 iphf   =  4, [ UHF + spin projection ]

   general options:
 maxcyc =    512, S      =      0
 ngrda  =      1, ngrdb  =      8, ngrdg  =      1

   accuracy requested:
 conv criterion (RMSDP, RMSDK) =     1.0000E-08
 requested integral accuracy   =     1.0000E-10

   use of symmetry:
 two-electron integral symmetry not used

   strategy options:
 level shifting is turned off
 use of DIIS extrapolation is turned on
 mxscfc =     20, idisgo =    100
 istrat =      1, continue as usual if energy rises
 modified PHF effective Fock matrix used

   initial guess options:
 igues1 =  1, read GDV guess


 PHF SCF - preparing initial guess


 PHF SCF - starting SCF procedure

beta in GauLeg
grd=    0.0624    0.3194    0.7453    1.2827    1.8589    2.3963    2.8222    3.0792
wgt=    0.0099    0.1097    0.3342    0.5462    0.5462    0.3342    0.1097    0.0099
WigArr: s=    0, sz=    0, isint=    T, ncis=                       1, dind=    0.0000
dmt=    1.0000    1.0000    1.0000    1.0000    1.0000    1.0000    1.0000    1.0000
*********  Start Cycle  1  *************
 
Start hffock

 Symmetry not used in FoFDir.
 MinBra= 0 MaxBra= 4 Meth= 1.
 IRaf=       1 NMat=   2 IRICut=       1 DoRegI=T DoRafI=F ISym2E= 0 JSym2E=0.
 PrsmSu:  NPrtUS=   1 ThrOK=F IAlg=1 NPAlg=1 LenDen=           0.
 Prism:   IPart=     0 DynPar=F LinDyn=F Incr=         512.
 PRISM was handed   536104519 working-precision words and   465 shell-pairs
 IPart=  0 NShTot=      108345 NBatch=         869 AvBLen=       124.7
 PrSmSu:  NxtVal=            513.
 
Start hfdmdg: find NO basis
 
Start formng/pg
 
Start formgg

 Symmetry not used in FoFDir.
 MinBra= 0 MaxBra= 4 Meth= 1.
 IRaf=       1 NMat=  64 IRICut=       1 DoRegI=T DoRafI=F ISym2E= 0 JSym2E=0.
 PrsmSu:  NPrtUS=   1 ThrOK=F IAlg=1 NPAlg=1 LenDen=           0.
 Prism:   IPart=     0 DynPar=F LinDyn=F Incr=         512.
 PRISM was handed   533342489 working-precision words and   465 shell-pairs
 IPart=  0 NShTot=      108345 NBatch=         863 AvBLen=       125.5
 PrSmSu:  NxtVal=            513.
 
Start evalsmt/hmt
 Smt (real):
                 1 
      1   0.200000D+01
 Smt (imaginary):
                 1 
      1   0.000000D+00
 Hmt (real):
                 1 
      1  -0.275324D+03
 Hmt (imaginary):
                 1 
      1   0.000000D+00
 
Form Fock eff
ifsel =     2, useproj    T
 DIIS: error= 7.11D-05 at cycle   1 NSaved=   1.
 NSaved= 1 IEnMin= 1 EnMin= -108.851232172208     IErMin= 1 ErrMin= 7.11D-05
 ErrMax= 7.11D-05 EMaxC= 1.00D+00 BMatC= 4.93D-07 BMatP= 4.93D-07
 IDIUse=1 WtCom= 1.00D+00 WtEn= 0.00D+00
 Coeff-Com:  0.100D+01
 Coeff:      0.100D+01
 
Diag Fock

 Fock eigenvalues (alpha):
      orbital --                 1                2                3                4
       energy --    -1.5609469D+01   -1.5594499D+01   -1.6107345D+00   -7.1585457D-01
      orbital --                 5                6                7                8
       energy --    -7.1585457D-01   -7.0869009D-01   -6.4973230D-01    2.4688597D-01
      orbital --                 9               10               11               12
       energy --     2.4688597D-01    2.8875629D-01    3.9551884D-01    3.9551884D-01
      orbital --                13               14               15               16
       energy --     4.0591629D-01    4.5372054D-01    6.0073940D-01    6.0073940D-01
      orbital --                17               18               19               20
       energy --     7.8435385D-01    7.8435385D-01    8.4991271D-01    1.0519616D+00
      orbital --                21               22               23               24
       energy --     1.1420672D+00    1.1420672D+00    1.1520939D+00    1.1781207D+00
      orbital --                25               26               27               28
       energy --     1.1781207D+00    1.3678353D+00    1.3678353D+00    1.9177133D+00
      orbital --                29               30               31               32
       energy --     1.9813014D+00    1.9813014D+00    2.2595805D+00    2.4433596D+00
      orbital --                33               34               35               36
       energy --     2.4433596D+00    2.5049803D+00    2.5049803D+00    2.5403859D+00
      orbital --                37               38               39               40
       energy --     2.5778754D+00    2.5915491D+00    2.5915491D+00    2.8491909D+00
      orbital --                41               42               43               44
       energy --     2.8491909D+00    3.0515274D+00    3.0515274D+00    3.0600190D+00
      orbital --                45               46               47               48
       energy --     3.0600190D+00    3.0640263D+00    3.0999309D+00    3.0999309D+00
      orbital --                49               50               51               52
       energy --     3.1091384D+00    3.1091384D+00    3.4119189D+00    3.8197377D+00
      orbital --                53               54               55               56
       energy --     3.8197377D+00    4.0069175D+00    4.0590702D+00    4.0590702D+00
      orbital --                57               58               59               60
       energy --     5.3403007D+00    5.3403007D+00    5.5282437D+00    5.5711515D+00
      orbital --                61               62               63               64
       energy --     6.8042452D+00    6.8042452D+00    6.8186326D+00    6.8186326D+00
      orbital --                65               66               67               68
       energy --     6.9883008D+00    7.5533207D+00    7.5533207D+00    7.5661259D+00
      orbital --                69               70               71               72
       energy --     7.5661259D+00    7.6614380D+00    7.6614380D+00    7.7701233D+00
      orbital --                73               74               75               76
       energy --     7.7701233D+00    8.2434447D+00    8.2434447D+00    8.2792996D+00
      orbital --                77               78               79               80
       energy --     8.2792996D+00    8.5404635D+00    8.6184800D+00    8.6184800D+00
      orbital --                81               82               83               84
       energy --     8.6847516D+00    8.6847516D+00    8.7171550D+00    8.7171550D+00
      orbital --                85               86               87               88
       energy --     8.7697827D+00    8.7697827D+00    8.9493995D+00    9.0313019D+00
      orbital --                89               90               91               92
       energy --     9.0313019D+00    9.1285744D+00    9.2105842D+00    9.2105842D+00
      orbital --                93               94               95               96
       energy --     9.5004788D+00    9.5004788D+00    9.8149863D+00    9.8149863D+00
      orbital --                97               98               99              100
       energy --     1.0464192D+01    1.1002163D+01    1.1002163D+01    1.1504570D+01
      orbital --               101              102              103              104
       energy --     1.1814732D+01    1.1814732D+01    1.2002410D+01    1.2002410D+01
      orbital --               105              106              107              108
       energy --     1.3871173D+01    1.3931761D+01    1.4585383D+01    1.4585383D+01
      orbital --               109              110
       energy --     3.0963928D+01    3.8353543D+01

 Fock eigenvalues (beta):
      orbital --                 1                2                3                4
       energy --    -1.5609469D+01   -1.5594499D+01   -1.6107345D+00   -7.1585457D-01
      orbital --                 5                6                7                8
       energy --    -7.1585457D-01   -7.0869009D-01   -6.4973230D-01    2.4688597D-01
      orbital --                 9               10               11               12
       energy --     2.4688597D-01    2.8875629D-01    3.9551884D-01    3.9551884D-01
      orbital --                13               14               15               16
       energy --     4.0591629D-01    4.5372054D-01    6.0073940D-01    6.0073940D-01
      orbital --                17               18               19               20
       energy --     7.8435385D-01    7.8435385D-01    8.4991271D-01    1.0519616D+00
      orbital --                21               22               23               24
       energy --     1.1420672D+00    1.1420672D+00    1.1520939D+00    1.1781207D+00
      orbital --                25               26               27               28
       energy --     1.1781207D+00    1.3678353D+00    1.3678353D+00    1.9177133D+00
      orbital --                29               30               31               32
       energy --     1.9813014D+00    1.9813014D+00    2.2595805D+00    2.4433596D+00
      orbital --                33               34               35               36
       energy --     2.4433596D+00    2.5049803D+00    2.5049803D+00    2.5403859D+00
      orbital --                37               38               39               40
       energy --     2.5778754D+00    2.5915491D+00    2.5915491D+00    2.8491909D+00
      orbital --                41               42               43               44
       energy --     2.8491909D+00    3.0515274D+00    3.0515274D+00    3.0600190D+00
      orbital --                45               46               47               48
       energy --     3.0600190D+00    3.0640263D+00    3.0999309D+00    3.0999309D+00
      orbital --                49               50               51               52
       energy --     3.1091384D+00    3.1091384D+00    3.4119189D+00    3.8197377D+00
      orbital --                53               54               55               56
       energy --     3.8197377D+00    4.0069175D+00    4.0590702D+00    4.0590702D+00
      orbital --                57               58               59               60
       energy --     5.3403007D+00    5.3403007D+00    5.5282437D+00    5.5711515D+00
      orbital --                61               62               63               64
       energy --     6.8042452D+00    6.8042452D+00    6.8186326D+00    6.8186326D+00
      orbital --                65               66               67               68
       energy --     6.9883008D+00    7.5533207D+00    7.5533207D+00    7.5661259D+00
      orbital --                69               70               71               72
       energy --     7.5661259D+00    7.6614380D+00    7.6614380D+00    7.7701233D+00
      orbital --                73               74               75               76
       energy --     7.7701233D+00    8.2434447D+00    8.2434447D+00    8.2792996D+00
      orbital --                77               78               79               80
       energy --     8.2792996D+00    8.5404635D+00    8.6184800D+00    8.6184800D+00
      orbital --                81               82               83               84
       energy --     8.6847516D+00    8.6847516D+00    8.7171550D+00    8.7171550D+00
      orbital --                85               86               87               88
       energy --     8.7697827D+00    8.7697827D+00    8.9493995D+00    9.0313019D+00
      orbital --                89               90               91               92
       energy --     9.0313019D+00    9.1285744D+00    9.2105842D+00    9.2105842D+00
      orbital --                93               94               95               96
       energy --     9.5004788D+00    9.5004788D+00    9.8149863D+00    9.8149863D+00
      orbital --                97               98               99              100
       energy --     1.0464192D+01    1.1002163D+01    1.1002163D+01    1.1504570D+01
      orbital --               101              102              103              104
       energy --     1.1814732D+01    1.1814732D+01    1.2002410D+01    1.2002410D+01
      orbital --               105              106              107              108
       energy --     1.3871173D+01    1.3931761D+01    1.4585383D+01    1.4585383D+01
      orbital --               109              110
       energy --     3.0963928D+01    3.8353543D+01

 *** cycle =    1 ***

        E =    -108.851232172208
      Hsp =    -204.114315237688     Hph =      66.452323931135
   <S**2> =      -0.000000000000
    RMSDP =       1.5756D-06        MaxP =       4.0183D-05

   E (HF) =    -108.851231520878

 ********************

*********  Start Cycle  2  *************
 
Start hffock

 Symmetry not used in FoFDir.
 MinBra= 0 MaxBra= 4 Meth= 1.
 IRaf=       1 NMat=   2 IRICut=       1 DoRegI=T DoRafI=F ISym2E= 0 JSym2E=0.
 PrsmSu:  NPrtUS=   1 ThrOK=F IAlg=1 NPAlg=1 LenDen=           0.
 Prism:   IPart=     0 DynPar=F LinDyn=F Incr=         512.
 PRISM was handed   536104519 working-precision words and   465 shell-pairs
 IPart=  0 NShTot=      108345 NBatch=         869 AvBLen=       124.7
 PrSmSu:  NxtVal=            513.
 
Start hfdmdg: find NO basis
 
Start formng/pg
 
Start formgg

 Symmetry not used in FoFDir.
 MinBra= 0 MaxBra= 4 Meth= 1.
 IRaf=       1 NMat=  64 IRICut=       1 DoRegI=T DoRafI=F ISym2E= 0 JSym2E=0.
 PrsmSu:  NPrtUS=   1 ThrOK=F IAlg=1 NPAlg=1 LenDen=           0.
 Prism:   IPart=     0 DynPar=F LinDyn=F Incr=         512.
 PRISM was handed   533342489 working-precision words and   465 shell-pairs
 IPart=  0 NShTot=      108345 NBatch=         863 AvBLen=       125.5
 PrSmSu:  NxtVal=            513.
 
Start evalsmt/hmt
 Smt (real):
                 1 
      1   0.200000D+01
 Smt (imaginary):
                 1 
      1   0.000000D+00
 Hmt (real):
                 1 
      1  -0.275324D+03
 Hmt (imaginary):
                 1 
      1   0.000000D+00
 
Form Fock eff
ifsel =     2, useproj    T
 DIIS: error= 2.40D-05 at cycle   2 NSaved=   2.
 NSaved= 2 IEnMin= 2 EnMin= -108.851232247025     IErMin= 2 ErrMin= 2.40D-05
 ErrMax= 2.40D-05 EMaxC= 1.00D+00 BMatC= 5.82D-08 BMatP= 4.93D-07
 IDIUse=1 WtCom= 1.00D+00 WtEn= 0.00D+00
 Coeff-Com:  0.000D+00 0.100D+01
 Coeff:      0.000D+00 0.100D+01
 
Diag Fock

 Fock eigenvalues (alpha):
      orbital --                 1                2                3                4
       energy --    -1.5609379D+01   -1.5594409D+01   -1.6107057D+00   -7.1583166D-01
      orbital --                 5                6                7                8
       energy --    -7.1583166D-01   -7.0865337D-01   -6.4970500D-01    2.4690170D-01
      orbital --                 9               10               11               12
       energy --     2.4690170D-01    2.8876099D-01    3.9552162D-01    3.9552162D-01
      orbital --                13               14               15               16
       energy --     4.0591838D-01    4.5373198D-01    6.0075497D-01    6.0075497D-01
      orbital --                17               18               19               20
       energy --     7.8436062D-01    7.8436062D-01    8.4992080D-01    1.0519765D+00
      orbital --                21               22               23               24
       energy --     1.1420792D+00    1.1420792D+00    1.1521013D+00    1.1781265D+00
      orbital --                25               26               27               28
       energy --     1.1781265D+00    1.3678468D+00    1.3678468D+00    1.9177373D+00
      orbital --                29               30               31               32
       energy --     1.9813177D+00    1.9813177D+00    2.2595994D+00    2.4433670D+00
      orbital --                33               34               35               36
       energy --     2.4433670D+00    2.5050014D+00    2.5050014D+00    2.5404106D+00
      orbital --                37               38               39               40
       energy --     2.5779069D+00    2.5915620D+00    2.5915620D+00    2.8492192D+00
      orbital --                41               42               43               44
       energy --     2.8492192D+00    3.0515465D+00    3.0515465D+00    3.0600284D+00
      orbital --                45               46               47               48
       energy --     3.0600284D+00    3.0640503D+00    3.0999503D+00    3.0999503D+00
      orbital --                49               50               51               52
       energy --     3.1091571D+00    3.1091571D+00    3.4119401D+00    3.8197572D+00
      orbital --                53               54               55               56
       energy --     3.8197572D+00    4.0069374D+00    4.0590863D+00    4.0590863D+00
      orbital --                57               58               59               60
       energy --     5.3403304D+00    5.3403304D+00    5.5282787D+00    5.5711873D+00
      orbital --                61               62               63               64
       energy --     6.8042611D+00    6.8042611D+00    6.8186507D+00    6.8186507D+00
      orbital --                65               66               67               68
       energy --     6.9883324D+00    7.5533428D+00    7.5533428D+00    7.5661439D+00
      orbital --                69               70               71               72
       energy --     7.5661439D+00    7.6614678D+00    7.6614678D+00    7.7701610D+00
      orbital --                73               74               75               76
       energy --     7.7701610D+00    8.2435003D+00    8.2435003D+00    8.2793395D+00
      orbital --                77               78               79               80
       energy --     8.2793395D+00    8.5405092D+00    8.6185103D+00    8.6185103D+00
      orbital --                81               82               83               84
       energy --     8.6847849D+00    8.6847849D+00    8.7172022D+00    8.7172022D+00
      orbital --                85               86               87               88
       energy --     8.7698323D+00    8.7698323D+00    8.9494418D+00    9.0313440D+00
      orbital --                89               90               91               92
       energy --     9.0313440D+00    9.1286327D+00    9.2106107D+00    9.2106107D+00
      orbital --                93               94               95               96
       energy --     9.5005216D+00    9.5005216D+00    9.8150276D+00    9.8150276D+00
      orbital --                97               98               99              100
       energy --     1.0464238D+01    1.1002210D+01    1.1002210D+01    1.1504619D+01
      orbital --               101              102              103              104
       energy --     1.1814767D+01    1.1814767D+01    1.2002456D+01    1.2002456D+01
      orbital --               105              106              107              108
       energy --     1.3871232D+01    1.3931819D+01    1.4585432D+01    1.4585432D+01
      orbital --               109              110
       energy --     3.0964006D+01    3.8353620D+01

 Fock eigenvalues (beta):
      orbital --                 1                2                3                4
       energy --    -1.5609379D+01   -1.5594409D+01   -1.6107057D+00   -7.1583166D-01
      orbital --                 5                6                7                8
       energy --    -7.1583166D-01   -7.0865337D-01   -6.4970500D-01    2.4690170D-01
      orbital --                 9               10               11               12
       energy --     2.4690170D-01    2.8876099D-01    3.9552162D-01    3.9552162D-01
      orbital --                13               14               15               16
       energy --     4.0591838D-01    4.5373198D-01    6.0075497D-01    6.0075497D-01
      orbital --                17               18               19               20
       energy --     7.8436062D-01    7.8436062D-01    8.4992080D-01    1.0519765D+00
      orbital --                21               22               23               24
       energy --     1.1420792D+00    1.1420792D+00    1.1521013D+00    1.1781265D+00
      orbital --                25               26               27               28
       energy --     1.1781265D+00    1.3678468D+00    1.3678468D+00    1.9177373D+00
      orbital --                29               30               31               32
       energy --     1.9813177D+00    1.9813177D+00    2.2595994D+00    2.4433670D+00
      orbital --                33               34               35               36
       energy --     2.4433670D+00    2.5050014D+00    2.5050014D+00    2.5404106D+00
      orbital --                37               38               39               40
       energy --     2.5779069D+00    2.5915620D+00    2.5915620D+00    2.8492192D+00
      orbital --                41               42               43               44
       energy --     2.8492192D+00    3.0515465D+00    3.0515465D+00    3.0600284D+00
      orbital --                45               46               47               48
       energy --     3.0600284D+00    3.0640503D+00    3.0999503D+00    3.0999503D+00
      orbital --                49               50               51               52
       energy --     3.1091571D+00    3.1091571D+00    3.4119401D+00    3.8197572D+00
      orbital --                53               54               55               56
       energy --     3.8197572D+00    4.0069374D+00    4.0590863D+00    4.0590863D+00
      orbital --                57               58               59               60
       energy --     5.3403304D+00    5.3403304D+00    5.5282787D+00    5.5711873D+00
      orbital --                61               62               63               64
       energy --     6.8042611D+00    6.8042611D+00    6.8186507D+00    6.8186507D+00
      orbital --                65               66               67               68
       energy --     6.9883324D+00    7.5533428D+00    7.5533428D+00    7.5661439D+00
      orbital --                69               70               71               72
       energy --     7.5661439D+00    7.6614678D+00    7.6614678D+00    7.7701610D+00
      orbital --                73               74               75               76
       energy --     7.7701610D+00    8.2435003D+00    8.2435003D+00    8.2793395D+00
      orbital --                77               78               79               80
       energy --     8.2793395D+00    8.5405092D+00    8.6185103D+00    8.6185103D+00
      orbital --                81               82               83               84
       energy --     8.6847849D+00    8.6847849D+00    8.7172022D+00    8.7172022D+00
      orbital --                85               86               87               88
       energy --     8.7698323D+00    8.7698323D+00    8.9494418D+00    9.0313440D+00
      orbital --                89               90               91               92
       energy --     9.0313440D+00    9.1286327D+00    9.2106107D+00    9.2106107D+00
      orbital --                93               94               95               96
       energy --     9.5005216D+00    9.5005216D+00    9.8150276D+00    9.8150276D+00
      orbital --                97               98               99              100
       energy --     1.0464238D+01    1.1002210D+01    1.1002210D+01    1.1504619D+01
      orbital --               101              102              103              104
       energy --     1.1814767D+01    1.1814767D+01    1.2002456D+01    1.2002456D+01
      orbital --               105              106              107              108
       energy --     1.3871232D+01    1.3931819D+01    1.4585432D+01    1.4585432D+01
      orbital --               109              110
       energy --     3.0964006D+01    3.8353620D+01

 *** cycle =    2 ***

        E =    -108.851232247025      DE =      -0.000000074817
      Hsp =    -204.114952921903     Hph =      66.452961540534
   <S**2> =       0.000000000000
    RMSDP =       9.1678D-07        MaxP =       2.9517D-05

   E (HF) =    -108.851231468707

 ********************

*********  Start Cycle  3  *************
 
Start hffock

 Symmetry not used in FoFDir.
 MinBra= 0 MaxBra= 4 Meth= 1.
 IRaf=       1 NMat=   2 IRICut=       1 DoRegI=T DoRafI=F ISym2E= 0 JSym2E=0.
 PrsmSu:  NPrtUS=   1 ThrOK=F IAlg=1 NPAlg=1 LenDen=           0.
 Prism:   IPart=     0 DynPar=F LinDyn=F Incr=         512.
 PRISM was handed   536104519 working-precision words and   465 shell-pairs
 IPart=  0 NShTot=      108345 NBatch=         869 AvBLen=       124.7
 PrSmSu:  NxtVal=            513.
 
Start hfdmdg: find NO basis
 
Start formng/pg
 
Start formgg

 Symmetry not used in FoFDir.
 MinBra= 0 MaxBra= 4 Meth= 1.
 IRaf=       1 NMat=  64 IRICut=       1 DoRegI=T DoRafI=F ISym2E= 0 JSym2E=0.
 PrsmSu:  NPrtUS=   1 ThrOK=F IAlg=1 NPAlg=1 LenDen=           0.
 Prism:   IPart=     0 DynPar=F LinDyn=F Incr=         512.
 PRISM was handed   533342489 working-precision words and   465 shell-pairs
 IPart=  0 NShTot=      108345 NBatch=         863 AvBLen=       125.5
 PrSmSu:  NxtVal=            513.
 
Start evalsmt/hmt
 Smt (real):
                 1 
      1   0.200000D+01
 Smt (imaginary):
                 1 
      1   0.000000D+00
 Hmt (real):
                 1 
      1  -0.275324D+03
 Hmt (imaginary):
                 1 
      1   0.000000D+00
 
Form Fock eff
ifsel =     2, useproj    T
 DIIS: error= 2.65D-05 at cycle   3 NSaved=   3.
 NSaved= 3 IEnMin= 3 EnMin= -108.851232276489     IErMin= 2 ErrMin= 2.40D-05
 ErrMax= 2.65D-05 EMaxC= 1.00D+00 BMatC= 6.27D-08 BMatP= 5.82D-08
 IDIUse=1 WtCom= 1.00D+00 WtEn= 0.00D+00
 Coeff-Com:  0.000D+00 0.000D+00 0.100D+01
 Coeff:      0.000D+00 0.000D+00 0.100D+01
 
Diag Fock

 Fock eigenvalues (alpha):
      orbital --                 1                2                3                4
       energy --    -1.5609400D+01   -1.5594430D+01   -1.6107168D+00   -7.1584010D-01
      orbital --                 5                6                7                8
       energy --    -7.1584010D-01   -7.0865859D-01   -6.4971340D-01    2.4689686D-01
      orbital --                 9               10               11               12
       energy --     2.4689686D-01    2.8876022D-01    3.9551957D-01    3.9551957D-01
      orbital --                13               14               15               16
       energy --     4.0591649D-01    4.5373054D-01    6.0075058D-01    6.0075058D-01
      orbital --                17               18               19               20
       energy --     7.8435741D-01    7.8435741D-01    8.4991906D-01    1.0519733D+00
      orbital --                21               22               23               24
       energy --     1.1420764D+00    1.1420764D+00    1.1520976D+00    1.1781243D+00
      orbital --                25               26               27               28
       energy --     1.1781243D+00    1.3678436D+00    1.3678436D+00    1.9177295D+00
      orbital --                29               30               31               32
       energy --     1.9813109D+00    1.9813109D+00    2.2595934D+00    2.4433628D+00
      orbital --                33               34               35               36
       energy --     2.4433628D+00    2.5049948D+00    2.5049948D+00    2.5404036D+00
      orbital --                37               38               39               40
       energy --     2.5778994D+00    2.5915558D+00    2.5915558D+00    2.8492112D+00
      orbital --                41               42               43               44
       energy --     2.8492112D+00    3.0515407D+00    3.0515407D+00    3.0600245D+00
      orbital --                45               46               47               48
       energy --     3.0600245D+00    3.0640437D+00    3.0999449D+00    3.0999449D+00
      orbital --                49               50               51               52
       energy --     3.1091511D+00    3.1091511D+00    3.4119336D+00    3.8197513D+00
      orbital --                53               54               55               56
       energy --     3.8197513D+00    4.0069311D+00    4.0590803D+00    4.0590803D+00
      orbital --                57               58               59               60
       energy --     5.3403218D+00    5.3403218D+00    5.5282693D+00    5.5711769D+00
      orbital --                61               62               63               64
       energy --     6.8042537D+00    6.8042537D+00    6.8186427D+00    6.8186427D+00
      orbital --                65               66               67               68
       energy --     6.9883218D+00    7.5533335D+00    7.5533335D+00    7.5661364D+00
      orbital --                69               70               71               72
       energy --     7.5661364D+00    7.6614574D+00    7.6614574D+00    7.7701504D+00
      orbital --                73               74               75               76
       energy --     7.7701504D+00    8.2434859D+00    8.2434859D+00    8.2793293D+00
      orbital --                77               78               79               80
       energy --     8.2793293D+00    8.5404982D+00    8.6185013D+00    8.6185013D+00
      orbital --                81               82               83               84
       energy --     8.6847740D+00    8.6847740D+00    8.7171904D+00    8.7171904D+00
      orbital --                85               86               87               88
       energy --     8.7698197D+00    8.7698197D+00    8.9494304D+00    9.0313328D+00
      orbital --                89               90               91               92
       energy --     9.0313328D+00    9.1286183D+00    9.2106005D+00    9.2106005D+00
      orbital --                93               94               95               96
       energy --     9.5005088D+00    9.5005088D+00    9.8150150D+00    9.8150150D+00
      orbital --                97               98               99              100
       energy --     1.0464225D+01    1.1002197D+01    1.1002197D+01    1.1504606D+01
      orbital --               101              102              103              104
       energy --     1.1814756D+01    1.1814756D+01    1.2002443D+01    1.2002443D+01
      orbital --               105              106              107              108
       energy --     1.3871217D+01    1.3931804D+01    1.4585419D+01    1.4585419D+01
      orbital --               109              110
       energy --     3.0963987D+01    3.8353601D+01

 Fock eigenvalues (beta):
      orbital --                 1                2                3                4
       energy --    -1.5609400D+01   -1.5594430D+01   -1.6107168D+00   -7.1584010D-01
      orbital --                 5                6                7                8
       energy --    -7.1584010D-01   -7.0865859D-01   -6.4971340D-01    2.4689686D-01
      orbital --                 9               10               11               12
       energy --     2.4689686D-01    2.8876022D-01    3.9551957D-01    3.9551957D-01
      orbital --                13               14               15               16
       energy --     4.0591649D-01    4.5373054D-01    6.0075058D-01    6.0075058D-01
      orbital --                17               18               19               20
       energy --     7.8435741D-01    7.8435741D-01    8.4991906D-01    1.0519733D+00
      orbital --                21               22               23               24
       energy --     1.1420764D+00    1.1420764D+00    1.1520976D+00    1.1781243D+00
      orbital --                25               26               27               28
       energy --     1.1781243D+00    1.3678436D+00    1.3678436D+00    1.9177295D+00
      orbital --                29               30               31               32
       energy --     1.9813109D+00    1.9813109D+00    2.2595934D+00    2.4433628D+00
      orbital --                33               34               35               36
       energy --     2.4433628D+00    2.5049948D+00    2.5049948D+00    2.5404036D+00
      orbital --                37               38               39               40
       energy --     2.5778994D+00    2.5915558D+00    2.5915558D+00    2.8492112D+00
      orbital --                41               42               43               44
       energy --     2.8492112D+00    3.0515407D+00    3.0515407D+00    3.0600245D+00
      orbital --                45               46               47               48
       energy --     3.0600245D+00    3.0640437D+00    3.0999449D+00    3.0999449D+00
      orbital --                49               50               51               52
       energy --     3.1091511D+00    3.1091511D+00    3.4119336D+00    3.8197513D+00
      orbital --                53               54               55               56
       energy --     3.8197513D+00    4.0069311D+00    4.0590803D+00    4.0590803D+00
      orbital --                57               58               59               60
       energy --     5.3403218D+00    5.3403218D+00    5.5282693D+00    5.5711769D+00
      orbital --                61               62               63               64
       energy --     6.8042537D+00    6.8042537D+00    6.8186427D+00    6.8186427D+00
      orbital --                65               66               67               68
       energy --     6.9883218D+00    7.5533335D+00    7.5533335D+00    7.5661364D+00
      orbital --                69               70               71               72
       energy --     7.5661364D+00    7.6614574D+00    7.6614574D+00    7.7701504D+00
      orbital --                73               74               75               76
       energy --     7.7701504D+00    8.2434859D+00    8.2434859D+00    8.2793293D+00
      orbital --                77               78               79               80
       energy --     8.2793293D+00    8.5404982D+00    8.6185013D+00    8.6185013D+00
      orbital --                81               82               83               84
       energy --     8.6847740D+00    8.6847740D+00    8.7171904D+00    8.7171904D+00
      orbital --                85               86               87               88
       energy --     8.7698197D+00    8.7698197D+00    8.9494304D+00    9.0313328D+00
      orbital --                89               90               91               92
       energy --     9.0313328D+00    9.1286183D+00    9.2106005D+00    9.2106005D+00
      orbital --                93               94               95               96
       energy --     9.5005088D+00    9.5005088D+00    9.8150150D+00    9.8150150D+00
      orbital --                97               98               99              100
       energy --     1.0464225D+01    1.1002197D+01    1.1002197D+01    1.1504606D+01
      orbital --               101              102              103              104
       energy --     1.1814756D+01    1.1814756D+01    1.2002443D+01    1.2002443D+01
      orbital --               105              106              107              108
       energy --     1.3871217D+01    1.3931804D+01    1.4585419D+01    1.4585419D+01
      orbital --               109              110
       energy --     3.0963987D+01    3.8353601D+01

 *** cycle =    3 ***

        E =    -108.851232276489      DE =      -0.000000029464
      Hsp =    -204.114786471986     Hph =      66.452795061153
   <S**2> =      -0.000000000000
    RMSDP =       9.3821D-07        MaxP =       3.2483D-05

   E (HF) =    -108.851231344629

 ********************

*********  Start Cycle  4  *************
 
Start hffock

 Symmetry not used in FoFDir.
 MinBra= 0 MaxBra= 4 Meth= 1.
 IRaf=       1 NMat=   2 IRICut=       1 DoRegI=T DoRafI=F ISym2E= 0 JSym2E=0.
 PrsmSu:  NPrtUS=   1 ThrOK=F IAlg=1 NPAlg=1 LenDen=           0.
 Prism:   IPart=     0 DynPar=F LinDyn=F Incr=         512.
 PRISM was handed   536104519 working-precision words and   465 shell-pairs
 IPart=  0 NShTot=      108345 NBatch=         869 AvBLen=       124.7
 PrSmSu:  NxtVal=            513.
 
Start hfdmdg: find NO basis
 
Start formng/pg
 
Start formgg

 Symmetry not used in FoFDir.
 MinBra= 0 MaxBra= 4 Meth= 1.
 IRaf=       1 NMat=  64 IRICut=       1 DoRegI=T DoRafI=F ISym2E= 0 JSym2E=0.
 PrsmSu:  NPrtUS=   1 ThrOK=F IAlg=1 NPAlg=1 LenDen=           0.
 Prism:   IPart=     0 DynPar=F LinDyn=F Incr=         512.
 PRISM was handed   533342489 working-precision words and   465 shell-pairs
 IPart=  0 NShTot=      108345 NBatch=         863 AvBLen=       125.5
 PrSmSu:  NxtVal=            513.
 
Start evalsmt/hmt
 Smt (real):
                 1 
      1   0.200000D+01
 Smt (imaginary):
                 1 
      1   0.000000D+00
 Hmt (real):
                 1 
      1  -0.275324D+03
 Hmt (imaginary):
                 1 
      1   0.000000D+00
 
Form Fock eff
ifsel =     2, useproj    T
 DIIS: error= 2.92D-05 at cycle   4 NSaved=   4.
 NSaved= 4 IEnMin= 4 EnMin= -108.851232309671     IErMin= 2 ErrMin= 2.40D-05
 ErrMax= 2.92D-05 EMaxC= 1.00D+00 BMatC= 7.57D-08 BMatP= 5.82D-08
 IDIUse=1 WtCom= 1.00D+00 WtEn= 0.00D+00
 Coeff-Com:  0.000D+00 0.000D+00 0.000D+00 0.100D+01
 Coeff:      0.000D+00 0.000D+00 0.000D+00 0.100D+01
 
Diag Fock

 Fock eigenvalues (alpha):
      orbital --                 1                2                3                4
       energy --    -1.5609396D+01   -1.5594426D+01   -1.6107143D+00   -7.1583867D-01
      orbital --                 5                6                7                8
       energy --    -7.1583867D-01   -7.0865739D-01   -6.4971222D-01    2.4689735D-01
      orbital --                 9               10               11               12
       energy --     2.4689735D-01    2.8876024D-01    3.9551978D-01    3.9551978D-01
      orbital --                13               14               15               16
       energy --     4.0591641D-01    4.5373114D-01    6.0075122D-01    6.0075122D-01
      orbital --                17               18               19               20
       energy --     7.8435797D-01    7.8435797D-01    8.4991932D-01    1.0519736D+00
      orbital --                21               22               23               24
       energy --     1.1420767D+00    1.1420767D+00    1.1520977D+00    1.1781245D+00
      orbital --                25               26               27               28
       energy --     1.1781245D+00    1.3678439D+00    1.3678439D+00    1.9177308D+00
      orbital --                29               30               31               32
       energy --     1.9813120D+00    1.9813120D+00    2.2595941D+00    2.4433635D+00
      orbital --                33               34               35               36
       energy --     2.4433635D+00    2.5049958D+00    2.5049958D+00    2.5404045D+00
      orbital --                37               38               39               40
       energy --     2.5779000D+00    2.5915571D+00    2.5915571D+00    2.8492122D+00
      orbital --                41               42               43               44
       energy --     2.8492122D+00    3.0515413D+00    3.0515413D+00    3.0600249D+00
      orbital --                45               46               47               48
       energy --     3.0600249D+00    3.0640442D+00    3.0999451D+00    3.0999451D+00
      orbital --                49               50               51               52
       energy --     3.1091516D+00    3.1091516D+00    3.4119343D+00    3.8197518D+00
      orbital --                53               54               55               56
       energy --     3.8197518D+00    4.0069320D+00    4.0590811D+00    4.0590811D+00
      orbital --                57               58               59               60
       energy --     5.3403228D+00    5.3403228D+00    5.5282704D+00    5.5711784D+00
      orbital --                61               62               63               64
       energy --     6.8042548D+00    6.8042548D+00    6.8186441D+00    6.8186441D+00
      orbital --                65               66               67               68
       energy --     6.9883240D+00    7.5533358D+00    7.5533358D+00    7.5661374D+00
      orbital --                69               70               71               72
       energy --     7.5661374D+00    7.6614601D+00    7.6614601D+00    7.7701515D+00
      orbital --                73               74               75               76
       energy --     7.7701515D+00    8.2434882D+00    8.2434882D+00    8.2793298D+00
      orbital --                77               78               79               80
       energy --     8.2793298D+00    8.5404987D+00    8.6185020D+00    8.6185020D+00
      orbital --                81               82               83               84
       energy --     8.6847755D+00    8.6847755D+00    8.7171913D+00    8.7171913D+00
      orbital --                85               86               87               88
       energy --     8.7698210D+00    8.7698210D+00    8.9494317D+00    9.0313336D+00
      orbital --                89               90               91               92
       energy --     9.0313336D+00    9.1286204D+00    9.2106023D+00    9.2106023D+00
      orbital --                93               94               95               96
       energy --     9.5005109D+00    9.5005109D+00    9.8150174D+00    9.8150174D+00
      orbital --                97               98               99              100
       energy --     1.0464227D+01    1.1002200D+01    1.1002200D+01    1.1504608D+01
      orbital --               101              102              103              104
       energy --     1.1814757D+01    1.1814757D+01    1.2002445D+01    1.2002445D+01
      orbital --               105              106              107              108
       energy --     1.3871220D+01    1.3931807D+01    1.4585421D+01    1.4585421D+01
      orbital --               109              110
       energy --     3.0963991D+01    3.8353605D+01

 Fock eigenvalues (beta):
      orbital --                 1                2                3                4
       energy --    -1.5609396D+01   -1.5594426D+01   -1.6107143D+00   -7.1583867D-01
      orbital --                 5                6                7                8
       energy --    -7.1583867D-01   -7.0865739D-01   -6.4971222D-01    2.4689735D-01
      orbital --                 9               10               11               12
       energy --     2.4689735D-01    2.8876024D-01    3.9551978D-01    3.9551978D-01
      orbital --                13               14               15               16
       energy --     4.0591641D-01    4.5373114D-01    6.0075122D-01    6.0075122D-01
      orbital --                17               18               19               20
       energy --     7.8435797D-01    7.8435797D-01    8.4991932D-01    1.0519736D+00
      orbital --                21               22               23               24
       energy --     1.1420767D+00    1.1420767D+00    1.1520977D+00    1.1781245D+00
      orbital --                25               26               27               28
       energy --     1.1781245D+00    1.3678439D+00    1.3678439D+00    1.9177308D+00
      orbital --                29               30               31               32
       energy --     1.9813120D+00    1.9813120D+00    2.2595941D+00    2.4433635D+00
      orbital --                33               34               35               36
       energy --     2.4433635D+00    2.5049958D+00    2.5049958D+00    2.5404045D+00
      orbital --                37               38               39               40
       energy --     2.5779000D+00    2.5915571D+00    2.5915571D+00    2.8492122D+00
      orbital --                41               42               43               44
       energy --     2.8492122D+00    3.0515413D+00    3.0515413D+00    3.0600249D+00
      orbital --                45               46               47               48
       energy --     3.0600249D+00    3.0640442D+00    3.0999451D+00    3.0999451D+00
      orbital --                49               50               51               52
       energy --     3.1091516D+00    3.1091516D+00    3.4119343D+00    3.8197518D+00
      orbital --                53               54               55               56
       energy --     3.8197518D+00    4.0069320D+00    4.0590811D+00    4.0590811D+00
      orbital --                57               58               59               60
       energy --     5.3403228D+00    5.3403228D+00    5.5282704D+00    5.5711784D+00
      orbital --                61               62               63               64
       energy --     6.8042548D+00    6.8042548D+00    6.8186441D+00    6.8186441D+00
      orbital --                65               66               67               68
       energy --     6.9883240D+00    7.5533358D+00    7.5533358D+00    7.5661374D+00
      orbital --                69               70               71               72
       energy --     7.5661374D+00    7.6614601D+00    7.6614601D+00    7.7701515D+00
      orbital --                73               74               75               76
       energy --     7.7701515D+00    8.2434882D+00    8.2434882D+00    8.2793298D+00
      orbital --                77               78               79               80
       energy --     8.2793298D+00    8.5404987D+00    8.6185020D+00    8.6185020D+00
      orbital --                81               82               83               84
       energy --     8.6847755D+00    8.6847755D+00    8.7171913D+00    8.7171913D+00
      orbital --                85               86               87               88
       energy --     8.7698210D+00    8.7698210D+00    8.9494317D+00    9.0313336D+00
      orbital --                89               90               91               92
       energy --     9.0313336D+00    9.1286204D+00    9.2106023D+00    9.2106023D+00
      orbital --                93               94               95               96
       energy --     9.5005109D+00    9.5005109D+00    9.8150174D+00    9.8150174D+00
      orbital --                97               98               99              100
       energy --     1.0464227D+01    1.1002200D+01    1.1002200D+01    1.1504608D+01
      orbital --               101              102              103              104
       energy --     1.1814757D+01    1.1814757D+01    1.2002445D+01    1.2002445D+01
      orbital --               105              106              107              108
       energy --     1.3871220D+01    1.3931807D+01    1.4585421D+01    1.4585421D+01
      orbital --               109              110
       energy --     3.0963991D+01    3.8353605D+01

 *** cycle =    4 ***

        E =    -108.851232309671      DE =      -0.000000033183
      Hsp =    -204.114818100882     Hph =      66.452826656866
   <S**2> =      -0.000000000000
    RMSDP =       1.0344D-06        MaxP =       3.5763D-05

   E (HF) =    -108.851231191997

 ********************

*********  Start Cycle  5  *************
 
Start hffock

 Symmetry not used in FoFDir.
 MinBra= 0 MaxBra= 4 Meth= 1.
 IRaf=       1 NMat=   2 IRICut=       1 DoRegI=T DoRafI=F ISym2E= 0 JSym2E=0.
 PrsmSu:  NPrtUS=   1 ThrOK=F IAlg=1 NPAlg=1 LenDen=           0.
 Prism:   IPart=     0 DynPar=F LinDyn=F Incr=         512.
 PRISM was handed   536104519 working-precision words and   465 shell-pairs
 IPart=  0 NShTot=      108345 NBatch=         869 AvBLen=       124.7
 PrSmSu:  NxtVal=            513.
 
Start hfdmdg: find NO basis
 
Start formng/pg
 
Start formgg

 Symmetry not used in FoFDir.
 MinBra= 0 MaxBra= 4 Meth= 1.
 IRaf=       1 NMat=  64 IRICut=       1 DoRegI=T DoRafI=F ISym2E= 0 JSym2E=0.
 PrsmSu:  NPrtUS=   1 ThrOK=F IAlg=1 NPAlg=1 LenDen=           0.
 Prism:   IPart=     0 DynPar=F LinDyn=F Incr=         512.
 PRISM was handed   533342489 working-precision words and   465 shell-pairs
 IPart=  0 NShTot=      108345 NBatch=         863 AvBLen=       125.5
 PrSmSu:  NxtVal=            513.
 
Start evalsmt/hmt
 Smt (real):
                 1 
      1   0.200000D+01
 Smt (imaginary):
                 1 
      1   0.000000D+00
 Hmt (real):
                 1 
      1  -0.275324D+03
 Hmt (imaginary):
                 1 
      1   0.000000D+00
 
Form Fock eff
ifsel =     2, useproj    T
 DIIS: error= 3.22D-05 at cycle   5 NSaved=   5.
 NSaved= 5 IEnMin= 5 EnMin= -108.851232350123     IErMin= 2 ErrMin= 2.40D-05
 ErrMax= 3.22D-05 EMaxC= 1.00D+00 BMatC= 9.24D-08 BMatP= 5.82D-08
 IDIUse=1 WtCom= 1.00D+00 WtEn= 0.00D+00
 Coeff-Com:  0.000D+00 0.000D+00 0.000D+00 0.000D+00 0.100D+01
 Coeff:      0.000D+00 0.000D+00 0.000D+00 0.000D+00 0.100D+01
 
Diag Fock

 Fock eigenvalues (alpha):
      orbital --                 1                2                3                4
       energy --    -1.5609398D+01   -1.5594427D+01   -1.6107153D+00   -7.1583940D-01
      orbital --                 5                6                7                8
       energy --    -7.1583940D-01   -7.0865797D-01   -6.4971265D-01    2.4689693D-01
      orbital --                 9               10               11               12
       energy --     2.4689693D-01    2.8876017D-01    3.9551959D-01    3.9551959D-01
      orbital --                13               14               15               16
       energy --     4.0591625D-01    4.5373101D-01    6.0075084D-01    6.0075084D-01
      orbital --                17               18               19               20
       energy --     7.8435767D-01    7.8435767D-01    8.4991917D-01    1.0519734D+00
      orbital --                21               22               23               24
       energy --     1.1420765D+00    1.1420765D+00    1.1520974D+00    1.1781243D+00
      orbital --                25               26               27               28
       energy --     1.1781243D+00    1.3678436D+00    1.3678436D+00    1.9177301D+00
      orbital --                29               30               31               32
       energy --     1.9813114D+00    1.9813114D+00    2.2595936D+00    2.4433631D+00
      orbital --                33               34               35               36
       energy --     2.4433631D+00    2.5049952D+00    2.5049952D+00    2.5404039D+00
      orbital --                37               38               39               40
       energy --     2.5778995D+00    2.5915565D+00    2.5915565D+00    2.8492116D+00
      orbital --                41               42               43               44
       energy --     2.8492116D+00    3.0515408D+00    3.0515408D+00    3.0600246D+00
      orbital --                45               46               47               48
       energy --     3.0600246D+00    3.0640436D+00    3.0999447D+00    3.0999447D+00
      orbital --                49               50               51               52
       energy --     3.1091511D+00    3.1091511D+00    3.4119338D+00    3.8197513D+00
      orbital --                53               54               55               56
       energy --     3.8197513D+00    4.0069315D+00    4.0590805D+00    4.0590805D+00
      orbital --                57               58               59               60
       energy --     5.3403221D+00    5.3403221D+00    5.5282697D+00    5.5711775D+00
      orbital --                61               62               63               64
       energy --     6.8042541D+00    6.8042541D+00    6.8186434D+00    6.8186434D+00
      orbital --                65               66               67               68
       energy --     6.9883231D+00    7.5533349D+00    7.5533349D+00    7.5661368D+00
      orbital --                69               70               71               72
       energy --     7.5661368D+00    7.6614591D+00    7.6614591D+00    7.7701506D+00
      orbital --                73               74               75               76
       energy --     7.7701506D+00    8.2434871D+00    8.2434871D+00    8.2793290D+00
      orbital --                77               78               79               80
       energy --     8.2793290D+00    8.5404979D+00    8.6185013D+00    8.6185013D+00
      orbital --                81               82               83               84
       energy --     8.6847746D+00    8.6847746D+00    8.7171904D+00    8.7171904D+00
      orbital --                85               86               87               88
       energy --     8.7698200D+00    8.7698200D+00    8.9494307D+00    9.0313327D+00
      orbital --                89               90               91               92
       energy --     9.0313327D+00    9.1286193D+00    9.2106014D+00    9.2106014D+00
      orbital --                93               94               95               96
       energy --     9.5005098D+00    9.5005098D+00    9.8150163D+00    9.8150163D+00
      orbital --                97               98               99              100
       energy --     1.0464226D+01    1.1002199D+01    1.1002199D+01    1.1504607D+01
      orbital --               101              102              103              104
       energy --     1.1814756D+01    1.1814756D+01    1.2002444D+01    1.2002444D+01
      orbital --               105              106              107              108
       energy --     1.3871219D+01    1.3931806D+01    1.4585420D+01    1.4585420D+01
      orbital --               109              110
       energy --     3.0963989D+01    3.8353604D+01

 Fock eigenvalues (beta):
      orbital --                 1                2                3                4
       energy --    -1.5609398D+01   -1.5594427D+01   -1.6107153D+00   -7.1583940D-01
      orbital --                 5                6                7                8
       energy --    -7.1583940D-01   -7.0865797D-01   -6.4971265D-01    2.4689693D-01
      orbital --                 9               10               11               12
       energy --     2.4689693D-01    2.8876017D-01    3.9551959D-01    3.9551959D-01
      orbital --                13               14               15               16
       energy --     4.0591625D-01    4.5373101D-01    6.0075084D-01    6.0075084D-01
      orbital --                17               18               19               20
       energy --     7.8435767D-01    7.8435767D-01    8.4991917D-01    1.0519734D+00
      orbital --                21               22               23               24
       energy --     1.1420765D+00    1.1420765D+00    1.1520974D+00    1.1781243D+00
      orbital --                25               26               27               28
       energy --     1.1781243D+00    1.3678436D+00    1.3678436D+00    1.9177301D+00
      orbital --                29               30               31               32
       energy --     1.9813114D+00    1.9813114D+00    2.2595936D+00    2.4433631D+00
      orbital --                33               34               35               36
       energy --     2.4433631D+00    2.5049952D+00    2.5049952D+00    2.5404039D+00
      orbital --                37               38               39               40
       energy --     2.5778995D+00    2.5915565D+00    2.5915565D+00    2.8492116D+00
      orbital --                41               42               43               44
       energy --     2.8492116D+00    3.0515408D+00    3.0515408D+00    3.0600246D+00
      orbital --                45               46               47               48
       energy --     3.0600246D+00    3.0640436D+00    3.0999447D+00    3.0999447D+00
      orbital --                49               50               51               52
       energy --     3.1091511D+00    3.1091511D+00    3.4119338D+00    3.8197513D+00
      orbital --                53               54               55               56
       energy --     3.8197513D+00    4.0069315D+00    4.0590805D+00    4.0590805D+00
      orbital --                57               58               59               60
       energy --     5.3403221D+00    5.3403221D+00    5.5282697D+00    5.5711775D+00
      orbital --                61               62               63               64
       energy --     6.8042541D+00    6.8042541D+00    6.8186434D+00    6.8186434D+00
      orbital --                65               66               67               68
       energy --     6.9883231D+00    7.5533349D+00    7.5533349D+00    7.5661368D+00
      orbital --                69               70               71               72
       energy --     7.5661368D+00    7.6614591D+00    7.6614591D+00    7.7701506D+00
      orbital --                73               74               75               76
       energy --     7.7701506D+00    8.2434871D+00    8.2434871D+00    8.2793290D+00
      orbital --                77               78               79               80
       energy --     8.2793290D+00    8.5404979D+00    8.6185013D+00    8.6185013D+00
      orbital --                81               82               83               84
       energy --     8.6847746D+00    8.6847746D+00    8.7171904D+00    8.7171904D+00
      orbital --                85               86               87               88
       energy --     8.7698200D+00    8.7698200D+00    8.9494307D+00    9.0313327D+00
      orbital --                89               90               91               92
       energy --     9.0313327D+00    9.1286193D+00    9.2106014D+00    9.2106014D+00
      orbital --                93               94               95               96
       energy --     9.5005098D+00    9.5005098D+00    9.8150163D+00    9.8150163D+00
      orbital --                97               98               99              100
       energy --     1.0464226D+01    1.1002199D+01    1.1002199D+01    1.1504607D+01
      orbital --               101              102              103              104
       energy --     1.1814756D+01    1.1814756D+01    1.2002444D+01    1.2002444D+01
      orbital --               105              106              107              108
       energy --     1.3871219D+01    1.3931806D+01    1.4585420D+01    1.4585420D+01
      orbital --               109              110
       energy --     3.0963989D+01    3.8353604D+01

 *** cycle =    5 ***

        E =    -108.851232350123      DE =      -0.000000040451
      Hsp =    -204.114804986147     Hph =      66.452813501680
   <S**2> =       0.000000000000
    RMSDP =       1.1478D-06        MaxP =       3.9393D-05

   E (HF) =    -108.851231007302

 ********************

*********  Start Cycle  6  *************
 
Start hffock

 Symmetry not used in FoFDir.
 MinBra= 0 MaxBra= 4 Meth= 1.
 IRaf=       1 NMat=   2 IRICut=       1 DoRegI=T DoRafI=F ISym2E= 0 JSym2E=0.
 PrsmSu:  NPrtUS=   1 ThrOK=F IAlg=1 NPAlg=1 LenDen=           0.
 Prism:   IPart=     0 DynPar=F LinDyn=F Incr=         512.
 PRISM was handed   536104519 working-precision words and   465 shell-pairs
 IPart=  0 NShTot=      108345 NBatch=         869 AvBLen=       124.7
 PrSmSu:  NxtVal=            513.
 
Start hfdmdg: find NO basis
 
Start formng/pg
 
Start formgg

 Symmetry not used in FoFDir.
 MinBra= 0 MaxBra= 4 Meth= 1.
 IRaf=       1 NMat=  64 IRICut=       1 DoRegI=T DoRafI=F ISym2E= 0 JSym2E=0.
 PrsmSu:  NPrtUS=   1 ThrOK=F IAlg=1 NPAlg=1 LenDen=           0.
 Prism:   IPart=     0 DynPar=F LinDyn=F Incr=         512.
 PRISM was handed   533342489 working-precision words and   465 shell-pairs
 IPart=  0 NShTot=      108345 NBatch=         863 AvBLen=       125.5
 PrSmSu:  NxtVal=            513.
 
Start evalsmt/hmt
 Smt (real):
                 1 
      1   0.200000D+01
 Smt (imaginary):
                 1 
      1   0.000000D+00
 Hmt (real):
                 1 
      1  -0.275323D+03
 Hmt (imaginary):
                 1 
      1   0.000000D+00
 
Form Fock eff
ifsel =     2, useproj    T
 DIIS: error= 3.56D-05 at cycle   6 NSaved=   6.
 NSaved= 6 IEnMin= 6 EnMin= -108.851232399816     IErMin= 2 ErrMin= 2.40D-05
 ErrMax= 3.56D-05 EMaxC= 1.00D+00 BMatC= 1.13D-07 BMatP= 5.82D-08
 IDIUse=1 WtCom= 1.00D+00 WtEn= 0.00D+00
 Coeff-Com:  0.000D+00 0.000D+00 0.000D+00 0.000D+00 0.000D+00 0.100D+01
 Coeff:      0.000D+00 0.000D+00 0.000D+00 0.000D+00 0.000D+00 0.100D+01
 
Diag Fock

 Fock eigenvalues (alpha):
      orbital --                 1                2                3                4
       energy --    -1.5609398D+01   -1.5594427D+01   -1.6107151D+00   -7.1583932D-01
      orbital --                 5                6                7                8
       energy --    -7.1583932D-01   -7.0865810D-01   -6.4971231D-01    2.4689694D-01
      orbital --                 9               10               11               12
       energy --     2.4689694D-01    2.8876015D-01    3.9551960D-01    3.9551960D-01
      orbital --                13               14               15               16
       energy --     4.0591623D-01    4.5373103D-01    6.0075088D-01    6.0075088D-01
      orbital --                17               18               19               20
       energy --     7.8435769D-01    7.8435769D-01    8.4991918D-01    1.0519734D+00
      orbital --                21               22               23               24
       energy --     1.1420765D+00    1.1420765D+00    1.1520974D+00    1.1781243D+00
      orbital --                25               26               27               28
       energy --     1.1781243D+00    1.3678436D+00    1.3678436D+00    1.9177302D+00
      orbital --                29               30               31               32
       energy --     1.9813114D+00    1.9813114D+00    2.2595936D+00    2.4433631D+00
      orbital --                33               34               35               36
       energy --     2.4433631D+00    2.5049952D+00    2.5049952D+00    2.5404039D+00
      orbital --                37               38               39               40
       energy --     2.5778995D+00    2.5915566D+00    2.5915566D+00    2.8492116D+00
      orbital --                41               42               43               44
       energy --     2.8492116D+00    3.0515408D+00    3.0515408D+00    3.0600246D+00
      orbital --                45               46               47               48
       energy --     3.0600246D+00    3.0640436D+00    3.0999447D+00    3.0999447D+00
      orbital --                49               50               51               52
       energy --     3.1091511D+00    3.1091511D+00    3.4119338D+00    3.8197513D+00
      orbital --                53               54               55               56
       energy --     3.8197513D+00    4.0069315D+00    4.0590806D+00    4.0590806D+00
      orbital --                57               58               59               60
       energy --     5.3403222D+00    5.3403222D+00    5.5282697D+00    5.5711776D+00
      orbital --                61               62               63               64
       energy --     6.8042542D+00    6.8042542D+00    6.8186434D+00    6.8186434D+00
      orbital --                65               66               67               68
       energy --     6.9883232D+00    7.5533350D+00    7.5533350D+00    7.5661368D+00
      orbital --                69               70               71               72
       energy --     7.5661368D+00    7.6614593D+00    7.6614593D+00    7.7701506D+00
      orbital --                73               74               75               76
       energy --     7.7701506D+00    8.2434872D+00    8.2434872D+00    8.2793290D+00
      orbital --                77               78               79               80
       energy --     8.2793290D+00    8.5404978D+00    8.6185013D+00    8.6185013D+00
      orbital --                81               82               83               84
       energy --     8.6847746D+00    8.6847746D+00    8.7171904D+00    8.7171904D+00
      orbital --                85               86               87               88
       energy --     8.7698201D+00    8.7698201D+00    8.9494308D+00    9.0313327D+00
      orbital --                89               90               91               92
       energy --     9.0313327D+00    9.1286194D+00    9.2106015D+00    9.2106015D+00
      orbital --                93               94               95               96
       energy --     9.5005100D+00    9.5005100D+00    9.8150165D+00    9.8150165D+00
      orbital --                97               98               99              100
       energy --     1.0464226D+01    1.1002199D+01    1.1002199D+01    1.1504608D+01
      orbital --               101              102              103              104
       energy --     1.1814757D+01    1.1814757D+01    1.2002444D+01    1.2002444D+01
      orbital --               105              106              107              108
       energy --     1.3871219D+01    1.3931806D+01    1.4585420D+01    1.4585420D+01
      orbital --               109              110
       energy --     3.0963989D+01    3.8353604D+01

 Fock eigenvalues (beta):
      orbital --                 1                2                3                4
       energy --    -1.5609398D+01   -1.5594427D+01   -1.6107151D+00   -7.1583932D-01
      orbital --                 5                6                7                8
       energy --    -7.1583932D-01   -7.0865810D-01   -6.4971231D-01    2.4689694D-01
      orbital --                 9               10               11               12
[...]
      orbital --                61               62               63               64
       energy --     6.8030858D+00    6.8030858D+00    6.8164897D+00    6.8164897D+00
      orbital --                65               66               67               68
       energy --     6.9904343D+00    7.5509768D+00    7.5509768D+00    7.5685899D+00
      orbital --                69               70               71               72
       energy --     7.5685899D+00    7.6624858D+00    7.6624858D+00    7.7781821D+00
      orbital --                73               74               75               76
       energy --     7.7781821D+00    8.2592210D+00    8.2592210D+00    8.2913568D+00
      orbital --                77               78               79               80
       energy --     8.2913568D+00    8.5534573D+00    8.6215628D+00    8.6215628D+00
      orbital --                81               82               83               84
       energy --     8.6974772D+00    8.6974772D+00    8.7280593D+00    8.7280593D+00
      orbital --                85               86               87               88
       energy --     8.7878632D+00    8.7878632D+00    8.9595501D+00    9.0440058D+00
      orbital --                89               90               91               92
       energy --     9.0440058D+00    9.1439733D+00    9.2162152D+00    9.2162152D+00
      orbital --                93               94               95               96
       energy --     9.5064887D+00    9.5064887D+00    9.8316448D+00    9.8316448D+00
      orbital --                97               98               99              100
       energy --     1.0475594D+01    1.1014655D+01    1.1014655D+01    1.1517699D+01
      orbital --               101              102              103              104
       energy --     1.1821136D+01    1.1821136D+01    1.2013085D+01    1.2013085D+01
      orbital --               105              106              107              108
       energy --     1.3884535D+01    1.3946253D+01    1.4596552D+01    1.4596552D+01
      orbital --               109              110
       energy --     3.0989662D+01    3.8378089D+01

 Fock eigenvalues (beta):
      orbital --                 1                2                3                4
       energy --    -1.5603429D+01   -1.5538352D+01   -1.6012942D+00   -7.2529353D-01
      orbital --                 5                6                7                8
       energy --    -7.2509410D-01   -7.2509410D-01   -5.9658082D-01    2.5128610D-01
      orbital --                 9               10               11               12
       energy --     2.5128610D-01    2.9153110D-01    3.9633349D-01    3.9633349D-01
      orbital --                13               14               15               16
       energy --     4.0726125D-01    4.5692330D-01    6.1177821D-01    6.1177821D-01
      orbital --                17               18               19               20
       energy --     7.8296861D-01    7.8296861D-01    8.5282314D-01    1.0534241D+00
      orbital --                21               22               23               24
       energy --     1.1432375D+00    1.1432375D+00    1.1531279D+00    1.1772476D+00
      orbital --                25               26               27               28
       energy --     1.1772476D+00    1.3697786D+00    1.3697786D+00    1.9183730D+00
      orbital --                29               30               31               32
       energy --     1.9816812D+00    1.9816812D+00    2.2625506D+00    2.4393816D+00
      orbital --                33               34               35               36
       energy --     2.4393816D+00    2.5103823D+00    2.5103823D+00    2.5413141D+00
      orbital --                37               38               39               40
       energy --     2.5883268D+00    2.5883268D+00    2.5941420D+00    2.8540437D+00
      orbital --                41               42               43               44
       energy --     2.8540437D+00    3.0428875D+00    3.0428875D+00    3.0592662D+00
      orbital --                45               46               47               48
       energy --     3.0592662D+00    3.0702414D+00    3.1059749D+00    3.1059749D+00
      orbital --                49               50               51               52
       energy --     3.1260002D+00    3.1260002D+00    3.4168830D+00    3.8227891D+00
      orbital --                53               54               55               56
       energy --     3.8227891D+00    4.0086800D+00    4.0606253D+00    4.0606253D+00
      orbital --                57               58               59               60
       energy --     5.3483638D+00    5.3483638D+00    5.5345928D+00    5.5826564D+00
      orbital --                61               62               63               64
       energy --     6.8030858D+00    6.8030858D+00    6.8164897D+00    6.8164897D+00
      orbital --                65               66               67               68
       energy --     6.9904343D+00    7.5509768D+00    7.5509768D+00    7.5685899D+00
      orbital --                69               70               71               72
       energy --     7.5685899D+00    7.6624858D+00    7.6624858D+00    7.7781821D+00
      orbital --                73               74               75               76
       energy --     7.7781821D+00    8.2592210D+00    8.2592210D+00    8.2913568D+00
      orbital --                77               78               79               80
       energy --     8.2913568D+00    8.5534573D+00    8.6215628D+00    8.6215628D+00
      orbital --                81               82               83               84
       energy --     8.6974772D+00    8.6974772D+00    8.7280593D+00    8.7280593D+00
      orbital --                85               86               87               88
       energy --     8.7878632D+00    8.7878632D+00    8.9595501D+00    9.0440058D+00
      orbital --                89               90               91               92
       energy --     9.0440058D+00    9.1439733D+00    9.2162152D+00    9.2162152D+00
      orbital --                93               94               95               96
       energy --     9.5064887D+00    9.5064887D+00    9.8316448D+00    9.8316448D+00
      orbital --                97               98               99              100
       energy --     1.0475594D+01    1.1014655D+01    1.1014655D+01    1.1517699D+01
      orbital --               101              102              103              104
       energy --     1.1821136D+01    1.1821136D+01    1.2013085D+01    1.2013085D+01
      orbital --               105              106              107              108
       energy --     1.3884535D+01    1.3946253D+01    1.4596552D+01    1.4596552D+01
      orbital --               109              110
       energy --     3.0989662D+01    3.8378089D+01

 *** cycle =  111 ***

        E =    -108.899484226094      DE =      -0.000000000000
      Hsp =    -204.137052232910     Hph =      66.426808872472
   <S**2> =      -0.000000001639
    RMSDP =       1.1120D-08        MaxP =       3.5562D-07

   E (HF) =    -108.688326417727

 ********************

*********  Start Cycle112  *************
 
Start hffock

 Symmetry not used in FoFDir.
 MinBra= 0 MaxBra= 4 Meth= 1.
 IRaf=       1 NMat=   2 IRICut=       1 DoRegI=T DoRafI=F ISym2E= 0 JSym2E=0.
 PrsmSu:  NPrtUS=   1 ThrOK=F IAlg=1 NPAlg=1 LenDen=           0.
 Prism:   IPart=     0 DynPar=F LinDyn=F Incr=         512.
 PRISM was handed   536104519 working-precision words and   465 shell-pairs
 IPart=  0 NShTot=      108345 NBatch=         869 AvBLen=       124.7
 PrSmSu:  NxtVal=            513.
 
Start hfdmdg: find NO basis
 
Start formng/pg
 
Start formgg

 Symmetry not used in FoFDir.
 MinBra= 0 MaxBra= 4 Meth= 1.
 IRaf=       1 NMat=  64 IRICut=       1 DoRegI=T DoRafI=F ISym2E= 0 JSym2E=0.
 PrsmSu:  NPrtUS=   1 ThrOK=F IAlg=1 NPAlg=1 LenDen=           0.
 Prism:   IPart=     0 DynPar=F LinDyn=F Incr=         512.
 PRISM was handed   533342489 working-precision words and   465 shell-pairs
 IPart=  0 NShTot=      108345 NBatch=         863 AvBLen=       125.5
 PrSmSu:  NxtVal=            513.
 
Start evalsmt/hmt
 Smt (real):
                 1 
      1   0.138443D+01
 Smt (imaginary):
                 1 
      1   0.000000D+00
 Hmt (real):
                 1 
      1  -0.190650D+03
 Hmt (imaginary):
                 1 
      1   0.000000D+00
 
Form Fock eff
ifsel =     2, useproj    T
 DIIS: error= 1.71D-08 at cycle 112 NSaved=  12.
 NSaved=12 IEnMin=12 EnMin= -108.899484226094     IErMin=12 ErrMin= 1.71D-08
 ErrMax= 1.71D-08 EMaxC= 1.00D+00 BMatC= 2.70D-14 BMatP= 1.45D-13
 IDIUse=1 WtCom= 1.00D+00 WtEn= 0.00D+00
 Coeff-Com: -0.370D+00 0.423D+00-0.703D-01-0.317D-01 0.222D+00-0.453D+00
 Coeff-Com:  0.462D+00-0.132D+00-0.845D+00 0.192D+01-0.212D+01 0.200D+01
 Coeff:     -0.370D+00 0.423D+00-0.703D-01-0.317D-01 0.222D+00-0.453D+00
 Coeff:      0.462D+00-0.132D+00-0.845D+00 0.192D+01-0.212D+01 0.200D+01
 
Diag Fock

 Fock eigenvalues (alpha):
      orbital --                 1                2                3                4
       energy --    -1.5603429D+01   -1.5538352D+01   -1.6012942D+00   -7.2529355D-01
      orbital --                 5                6                7                8
       energy --    -7.2509409D-01   -7.2509409D-01   -5.9658081D-01    2.5128610D-01
      orbital --                 9               10               11               12
       energy --     2.5128610D-01    2.9153110D-01    3.9633349D-01    3.9633349D-01
      orbital --                13               14               15               16
       energy --     4.0726125D-01    4.5692330D-01    6.1177821D-01    6.1177821D-01
      orbital --                17               18               19               20
       energy --     7.8296861D-01    7.8296861D-01    8.5282314D-01    1.0534241D+00
      orbital --                21               22               23               24
       energy --     1.1432375D+00    1.1432375D+00    1.1531279D+00    1.1772476D+00
      orbital --                25               26               27               28
       energy --     1.1772476D+00    1.3697786D+00    1.3697786D+00    1.9183730D+00
      orbital --                29               30               31               32
       energy --     1.9816812D+00    1.9816812D+00    2.2625506D+00    2.4393816D+00
      orbital --                33               34               35               36
       energy --     2.4393816D+00    2.5103823D+00    2.5103823D+00    2.5413141D+00
      orbital --                37               38               39               40
       energy --     2.5883268D+00    2.5883268D+00    2.5941420D+00    2.8540437D+00
      orbital --                41               42               43               44
       energy --     2.8540437D+00    3.0428875D+00    3.0428875D+00    3.0592662D+00
      orbital --                45               46               47               48
       energy --     3.0592662D+00    3.0702414D+00    3.1059749D+00    3.1059749D+00
      orbital --                49               50               51               52
       energy --     3.1260002D+00    3.1260002D+00    3.4168830D+00    3.8227891D+00
      orbital --                53               54               55               56
       energy --     3.8227891D+00    4.0086800D+00    4.0606253D+00    4.0606253D+00
      orbital --                57               58               59               60
       energy --     5.3483638D+00    5.3483638D+00    5.5345928D+00    5.5826564D+00
      orbital --                61               62               63               64
       energy --     6.8030858D+00    6.8030858D+00    6.8164897D+00    6.8164897D+00
      orbital --                65               66               67               68
       energy --     6.9904343D+00    7.5509768D+00    7.5509768D+00    7.5685899D+00
      orbital --                69               70               71               72
       energy --     7.5685899D+00    7.6624858D+00    7.6624858D+00    7.7781821D+00
      orbital --                73               74               75               76
       energy --     7.7781821D+00    8.2592210D+00    8.2592210D+00    8.2913568D+00
      orbital --                77               78               79               80
       energy --     8.2913568D+00    8.5534573D+00    8.6215628D+00    8.6215628D+00
      orbital --                81               82               83               84
       energy --     8.6974772D+00    8.6974772D+00    8.7280593D+00    8.7280593D+00
      orbital --                85               86               87               88
       energy --     8.7878632D+00    8.7878632D+00    8.9595501D+00    9.0440058D+00
      orbital --                89               90               91               92
       energy --     9.0440058D+00    9.1439733D+00    9.2162152D+00    9.2162152D+00
      orbital --                93               94               95               96
       energy --     9.5064888D+00    9.5064888D+00    9.8316448D+00    9.8316448D+00
      orbital --                97               98               99              100
       energy --     1.0475594D+01    1.1014655D+01    1.1014655D+01    1.1517699D+01
      orbital --               101              102              103              104
       energy --     1.1821136D+01    1.1821136D+01    1.2013085D+01    1.2013085D+01
      orbital --               105              106              107              108
       energy --     1.3884535D+01    1.3946253D+01    1.4596552D+01    1.4596552D+01
      orbital --               109              110
       energy --     3.0989662D+01    3.8378089D+01

 Fock eigenvalues (beta):
      orbital --                 1                2                3                4
       energy --    -1.5603429D+01   -1.5538352D+01   -1.6012942D+00   -7.2529355D-01
      orbital --                 5                6                7                8
       energy --    -7.2509410D-01   -7.2509410D-01   -5.9658080D-01    2.5128610D-01
      orbital --                 9               10               11               12
       energy --     2.5128610D-01    2.9153110D-01    3.9633349D-01    3.9633349D-01
      orbital --                13               14               15               16
       energy --     4.0726125D-01    4.5692330D-01    6.1177821D-01    6.1177821D-01
      orbital --                17               18               19               20
       energy --     7.8296861D-01    7.8296861D-01    8.5282314D-01    1.0534241D+00
      orbital --                21               22               23               24
       energy --     1.1432375D+00    1.1432375D+00    1.1531279D+00    1.1772476D+00
      orbital --                25               26               27               28
       energy --     1.1772476D+00    1.3697786D+00    1.3697786D+00    1.9183730D+00
      orbital --                29               30               31               32
       energy --     1.9816812D+00    1.9816812D+00    2.2625506D+00    2.4393816D+00
      orbital --                33               34               35               36
       energy --     2.4393816D+00    2.5103823D+00    2.5103823D+00    2.5413141D+00
      orbital --                37               38               39               40
       energy --     2.5883268D+00    2.5883268D+00    2.5941420D+00    2.8540437D+00
      orbital --                41               42               43               44
       energy --     2.8540437D+00    3.0428875D+00    3.0428875D+00    3.0592662D+00
      orbital --                45               46               47               48
       energy --     3.0592662D+00    3.0702414D+00    3.1059749D+00    3.1059749D+00
      orbital --                49               50               51               52
       energy --     3.1260002D+00    3.1260002D+00    3.4168830D+00    3.8227891D+00
      orbital --                53               54               55               56
       energy --     3.8227891D+00    4.0086800D+00    4.0606253D+00    4.0606253D+00
      orbital --                57               58               59               60
       energy --     5.3483638D+00    5.3483638D+00    5.5345928D+00    5.5826564D+00
      orbital --                61               62               63               64
       energy --     6.8030858D+00    6.8030858D+00    6.8164897D+00    6.8164897D+00
      orbital --                65               66               67               68
       energy --     6.9904343D+00    7.5509768D+00    7.5509768D+00    7.5685899D+00
      orbital --                69               70               71               72
       energy --     7.5685899D+00    7.6624858D+00    7.6624858D+00    7.7781821D+00
      orbital --                73               74               75               76
       energy --     7.7781821D+00    8.2592210D+00    8.2592210D+00    8.2913568D+00
      orbital --                77               78               79               80
       energy --     8.2913568D+00    8.5534573D+00    8.6215628D+00    8.6215628D+00
      orbital --                81               82               83               84
       energy --     8.6974772D+00    8.6974772D+00    8.7280593D+00    8.7280593D+00
      orbital --                85               86               87               88
       energy --     8.7878632D+00    8.7878632D+00    8.9595501D+00    9.0440058D+00
      orbital --                89               90               91               92
       energy --     9.0440058D+00    9.1439733D+00    9.2162152D+00    9.2162152D+00
      orbital --                93               94               95               96
       energy --     9.5064887D+00    9.5064887D+00    9.8316448D+00    9.8316448D+00
      orbital --                97               98               99              100
       energy --     1.0475594D+01    1.1014655D+01    1.1014655D+01    1.1517699D+01
      orbital --               101              102              103              104
       energy --     1.1821136D+01    1.1821136D+01    1.2013085D+01    1.2013085D+01
      orbital --               105              106              107              108
       energy --     1.3884535D+01    1.3946253D+01    1.4596552D+01    1.4596552D+01
      orbital --               109              110
       energy --     3.0989662D+01    3.8378089D+01

 *** cycle =  112 ***

        E =    -108.899484226094      DE =      -0.000000000000
      Hsp =    -204.137052056776     Hph =      66.426808696338
   <S**2> =      -0.000000001639
    RMSDP =       1.0772D-09        MaxP =       2.7586D-08

   E (HF) =    -108.688326358178

 ********************


 *** SCF Done after  112 cycles ***

        E =    -108.899484226094    conv =           1.0772E-09
      Hsp =    -204.137052056776     Hph =      66.426808696338
   <S**2> =      -0.000000001639

 **********************************


 PHF SCF - quitting the program

 Leave Link  530 at Mon Dec 21 13:11:57 2020, MaxMem=  536870912 cpu:     778.6
 (Enter /share/apps/gaussian/G09C01Z/srwang-mod-2020/g09/l9999.exe)

 Test job not archived.
 1\1\GINC-XN01\SP\CUHF\CC-pVQZ\N2\SRWANG\21-Dec-2020\0\\#p uhf/cc-pvqz 
 nosymm guess=read scf=conver=4 # extralink=l530 iop(5/206=6, 5/207=4, 
 5/216=1, 5/218=100) pop=none\\title\\0,1\N,0,0.,0.,0.\N,0,0.,0.,0.9\\V
 ersion=EM64L-G09RevC.01\HF=-108.8994842\S2=0.\S2-1=0.\S2A=0.\RMSD=1.07
 7e-09\PG=D*H [C*(N1.N1)]\\@


 SACRED COWS MAKE GREAT HAMBURGERS -- ROBERT REISNER
 Job cpu time:  0 days  0 hours 13 minutes  2.8 seconds.
 File lengths (MBytes):  RWF=     40 Int=      0 D2E=      0 Chk=      8 Scr=      1
 Normal termination of Gaussian 09 at Mon Dec 21 13:11:57 2020.
