 Entering Gaussian System, Link 0=g09
 Input=test1.gjf
 Output=test1.log
 Initial command:
 /share/home/srwang/g09/l1.exe /share/home/srwang/gauscr/Gau-24909.inp -scrdir=/share/home/srwang/gauscr/
 Entering Link 1 = /share/home/srwang/g09/l1.exe PID=     24910.
  
 Copyright (c) 1988,1990,1992,1993,1995,1998,2003,2009,2011,
            Gaussian, Inc.  All Rights Reserved.
  
 This is part of the Gaussian(R) 09 program.  It is based on
 the Gaussian(R) 03 system (copyright 2003, Gaussian, Inc.),
 the Gaussian(R) 98 system (copyright 1998, Gaussian, Inc.),
 the Gaussian(R) 94 system (copyright 1995, Gaussian, Inc.),
 the Gaussian 92(TM) system (copyright 1992, Gaussian, Inc.),
 the Gaussian 90(TM) system (copyright 1990, Gaussian, Inc.),
 the Gaussian 88(TM) system (copyright 1988, Gaussian, Inc.),
 the Gaussian 86(TM) system (copyright 1986, Carnegie Mellon
 University), and the Gaussian 82(TM) system (copyright 1983,
 Carnegie Mellon University). Gaussian is a federally registered
 trademark of Gaussian, Inc.
  
 This software contains proprietary and confidential information,
 including trade secrets, belonging to Gaussian, Inc.
  
 This software is provided under written license and may be
 used, copied, transmitted, or stored only in accord with that
 written license.
  
 The following legend is applicable only to US Government
 contracts under FAR:
  
                    RESTRICTED RIGHTS LEGEND
  
 Use, reproduction and disclosure by the US Government is
 subject to restrictions as set forth in subparagraphs (a)
 and (c) of the Commercial Computer Software - Restricted
 Rights clause in FAR 52.227-19.
  
 Gaussian, Inc.
 340 Quinnipiac St., Bldg. 40, Wallingford CT 06492
  
  
 ---------------------------------------------------------------
 Warning -- This program may not be used in any manner that
 competes with the business of Gaussian, Inc. or will provide
 assistance to any competitor of Gaussian, Inc.  The licensee
 of this program is prohibited from giving any competitor of
 Gaussian, Inc. access to this program.  By using this program,
 the user acknowledges that Gaussian, Inc. is engaged in the
 business of creating and licensing software in the field of
 computational chemistry and represents and warrants to the
 licensee that it is not a competitor of Gaussian, Inc. and that
 it will not use this program in any manner prohibited above.
 ---------------------------------------------------------------
  

 Cite this work as:
 Gaussian 09, Revision C.01,
 M. J. Frisch, G. W. Trucks, H. B. Schlegel, G. E. Scuseria, 
 M. A. Robb, J. R. Cheeseman, G. Scalmani, V. Barone, B. Mennucci, 
 G. A. Petersson, H. Nakatsuji, M. Caricato, X. Li, H. P. Hratchian, 
 A. F. Izmaylov, J. Bloino, G. Zheng, J. L. Sonnenberg, M. Hada, 
 M. Ehara, K. Toyota, R. Fukuda, J. Hasegawa, M. Ishida, T. Nakajima, 
 Y. Honda, O. Kitao, H. Nakai, T. Vreven, J. A. Montgomery, Jr., 
 J. E. Peralta, F. Ogliaro, M. Bearpark, J. J. Heyd, E. Brothers, 
 K. N. Kudin, V. N. Staroverov, T. Keith, R. Kobayashi, J. Normand, 
 K. Raghavachari, A. Rendell, J. C. Burant, S. S. Iyengar, J. Tomasi, 
 M. Cossi, N. Rega, J. M. Millam, M. Klene, J. E. Knox, J. B. Cross, 
 V. Bakken, C. Adamo, J. Jaramillo, R. Gomperts, R. E. Stratmann, 
 O. Yazyev, A. J. Austin, R. Cammi, C. Pomelli, J. W. Ochterski, 
 R. L. Martin, K. Morokuma, V. G. Zakrzewski, G. A. Voth, 
 P. Salvador, J. J. Dannenberg, S. Dapprich, A. D. Daniels, 
 O. Farkas, J. B. Foresman, J. V. Ortiz, J. Cioslowski, 
 and D. J. Fox, Gaussian, Inc., Wallingford CT, 2010.
 
 ******************************************
 Gaussian 09:  EM64L-G09RevC.01 23-Sep-2011
                 3-Oct-2020 
 ******************************************
 %subst l530 ../phf
 %nproc=1
 Will use up to    1 processors via shared memory.
 %mem=4GB
 %chk=test.chk
 ----------------------------------------------------------------------
 #p hf/3-21g scf=conver=4 extralink=l530 iop(5/206=9, 5/207=1, 5/216=1)
  pop=none
 ----------------------------------------------------------------------
 1/38=1/1;
 2/12=2,17=6,18=5,40=1/2;
 3/5=5,11=9,16=1,25=1,30=1/1,2,3;
 4//1;
 5/5=2,6=4,38=5,206=9,207=1,216=1/2,30;
 99/5=1,9=1/99;
 Leave Link    1 at Sat Oct  3 15:42:37 2020, MaxMem=  536870912 cpu:       0.0
 (Enter /share/home/srwang/g09/l101.exe)
 -----
 title
 -----
 Charge =  0 Multiplicity = 1
 Symbolic Z-Matrix:
 H                     0.        0.        0. 
 H                     0.        0.        2. 
 
 NAtoms=      2 NQM=        0 NQMF=       0 NMMI=      2 NMMIF=      0
                NMic=       0 NMicF=      0.
                    Isotopes and Nuclear Properties:
 (Nuclear quadrupole moments (NQMom) in fm**2, nuclear magnetic moments (NMagM)
  in nuclear magnetons)

  Atom         1           2
 IAtWgt=           1           1
 AtmWgt=   1.0078250   1.0078250
 NucSpn=           1           1
 AtZEff=   0.0000000   0.0000000
 NQMom=    0.0000000   0.0000000
 NMagM=    2.7928460   2.7928460
 Leave Link  101 at Sat Oct  3 15:42:37 2020, MaxMem=  536870912 cpu:       0.0
 (Enter /share/home/srwang/g09/l202.exe)
                          Input orientation:                          
 ---------------------------------------------------------------------
 Center     Atomic      Atomic             Coordinates (Angstroms)
 Number     Number       Type             X           Y           Z
 ---------------------------------------------------------------------
      1          1           0        0.000000    0.000000    0.000000
      2          1           0        0.000000    0.000000    2.000000
 ---------------------------------------------------------------------
 Stoichiometry    H2
 Framework group  D*H[C*(H.H)]
 Deg. of freedom     1
 Full point group                 D*H     NOp   8
 Largest Abelian subgroup         D2H     NOp   8
 Largest concise Abelian subgroup C2      NOp   2
                         Standard orientation:                         
 ---------------------------------------------------------------------
 Center     Atomic      Atomic             Coordinates (Angstroms)
 Number     Number       Type             X           Y           Z
 ---------------------------------------------------------------------
      1          1           0        0.000000    0.000000    1.000000
      2          1           0        0.000000    0.000000   -1.000000
 ---------------------------------------------------------------------
 Rotational constants (GHZ):      0.0000000    250.7275501    250.7275501
 Leave Link  202 at Sat Oct  3 15:42:37 2020, MaxMem=  536870912 cpu:       0.0
 (Enter /share/home/srwang/g09/l301.exe)
 Standard basis: 3-21G (6D, 7F)
 Ernie: Thresh=  0.10000D-02 Tol=  0.10000D-05 Strict=F.
 There are     2 symmetry adapted basis functions of AG  symmetry.
 There are     0 symmetry adapted basis functions of B1G symmetry.
 There are     0 symmetry adapted basis functions of B2G symmetry.
 There are     0 symmetry adapted basis functions of B3G symmetry.
 There are     0 symmetry adapted basis functions of AU  symmetry.
 There are     2 symmetry adapted basis functions of B1U symmetry.
 There are     0 symmetry adapted basis functions of B2U symmetry.
 There are     0 symmetry adapted basis functions of B3U symmetry.
 Integral buffers will be    131072 words long.
 Raffenetti 1 integral format.
 Two-electron integral symmetry is turned on.
     4 basis functions,     6 primitive gaussians,     4 cartesian basis functions
     1 alpha electrons        1 beta electrons
       nuclear repulsion energy         0.2645886043 Hartrees.
 IExCor=    0 DFT=F Ex=HF Corr=None ExCW=0 ScaHFX=  1.000000
 ScaDFX=  1.000000  1.000000  1.000000  1.000000 ScalE2=  1.000000  1.000000
 IRadAn=      0 IRanWt=     -1 IRanGd=            0 ICorTp=0
 NAtoms=    2 NActive=    2 NUniq=    1 SFac= 4.00D+00 NAtFMM=   60 NAOKFM=F Big=F
 Leave Link  301 at Sat Oct  3 15:42:37 2020, MaxMem=  536870912 cpu:       0.0
 (Enter /share/home/srwang/g09/l302.exe)
 NPDir=0 NMtPBC=     1 NCelOv=     1 NCel=       1 NClECP=     1 NCelD=      1
         NCelK=      1 NCelE2=     1 NClLst=     1 CellRange=     0.0.
 One-electron integrals computed using PRISM.
 One-electron integral symmetry used in STVInt
 NBasis=     4 RedAO= T  NBF=     2     0     0     0     0     2     0     0
 NBsUse=     4 1.00D-06 NBFU=     2     0     0     0     0     2     0     0
 Leave Link  302 at Sat Oct  3 15:42:37 2020, MaxMem=  536870912 cpu:       0.0
 (Enter /share/home/srwang/g09/l303.exe)
 DipDrv:  MaxL=1.
 Leave Link  303 at Sat Oct  3 15:42:37 2020, MaxMem=  536870912 cpu:       0.0
 (Enter /share/home/srwang/g09/l401.exe)
 Harris functional with IExCor=  205 diagonalized for initial guess.
 ExpMin= 1.83D-01 ExpMax= 5.45D+00 ExpMxC= 5.45D+00 IAcc=1 IRadAn=         1 AccDes= 0.00D+00
 HarFok:  IExCor=  205 AccDes= 0.00D+00 IRadAn=         1 IDoV= 1
 ScaDFX=  1.000000  1.000000  1.000000  1.000000
 FoFCou: FMM=F IPFlag=           0 FMFlag=      100000 FMFlg1=           0
         NFxFlg=           0 DoJE=T BraDBF=F KetDBF=T FulRan=T
         Omega=  0.000000  0.000000  1.000000  0.000000  0.000000 ICntrl=     500 IOpCl=  0
         NMat0=    1 NMatS0=    1 NMatT0=    0 NMatD0=    1 NMtDS0=    0 NMtDT0=    0
         I1Cent=           4 NGrid=           0.
 Petite list used in FoFCou.
 Harris En=-0.998534334700695    
 Initial guess orbital symmetries:
       Occupied  (SGG)
       Virtual   (SGU) (SGG) (SGU)
 The electronic state of the initial guess is 1-SGG.
 Leave Link  401 at Sat Oct  3 15:42:38 2020, MaxMem=  536870912 cpu:       0.1
 (Enter /share/home/srwang/g09/l502.exe)
 Closed shell SCF:
 Requested convergence on RMS density matrix=1.00D-04 within 128 cycles.
 Requested convergence on MAX density matrix=1.00D-02.
 Requested convergence on             energy=1.00D-02.
 No special actions if energy rises.
 Using DIIS extrapolation, IDIIS=  1040.
 Integral symmetry usage will be decided dynamically.
 Keep R1 ints in memory in canonical form, NReq=819834.
 IEnd=       19765 IEndB=       19765 NGot=   536870912 MDV=   536868167
 LenX=   536868167 LenY=   536867285
 Symmetry not used in FoFDir.
 MinBra= 0 MaxBra= 0 Meth= 1.
 IRaf=       0 NMat=   1 IRICut=       1 DoRegI=T DoRafI=F ISym2E= 0 JSym2E=0.

 Cycle   1  Pass 1  IDiag  1:
 E=-0.905957580368850    
 DIIS: error= 1.72D-02 at cycle   1 NSaved=   1.
 NSaved= 1 IEnMin= 1 EnMin=-0.905957580368850     IErMin= 1 ErrMin= 1.72D-02
 ErrMax= 1.72D-02 EMaxC= 1.00D-01 BMatC= 1.19D-03 BMatP= 1.19D-03
 IDIUse=3 WtCom= 8.28D-01 WtEn= 1.72D-01
 Coeff-Com:  0.100D+01
 Coeff-En:   0.100D+01
 Coeff:      0.100D+01
 Gap=     0.361 Goal=   None    Shift=    0.000
 GapD=    0.361 DampG=1.000 DampE=0.500 DampFc=0.5000 IDamp=-1.
 Damping current iteration by 5.00D-01
 RMSDP=9.76D-03 MaxDP=1.46D-02              OVMax= 0.00D+00

 Cycle   2  Pass 1  IDiag  1:
 E=-0.906800050918975     Delta-E=       -0.000842470550 Rises=F Damp=T
 DIIS: error= 9.92D-03 at cycle   2 NSaved=   2.
 NSaved= 2 IEnMin= 2 EnMin=-0.906800050918975     IErMin= 2 ErrMin= 9.92D-03
 ErrMax= 9.92D-03 EMaxC= 1.00D-01 BMatC= 3.94D-04 BMatP= 1.19D-03
 IDIUse=3 WtCom= 9.01D-01 WtEn= 9.92D-02
 Coeff-Com: -0.136D+01 0.236D+01
 Coeff-En:   0.000D+00 0.100D+01
 Coeff:     -0.122D+01 0.222D+01
 Gap=     0.359 Goal=   None    Shift=    0.000
 RMSDP=6.55D-03 MaxDP=9.78D-03 DE=-8.42D-04 OVMax= 0.00D+00

 Cycle   3  Pass 1  IDiag  1:
 E=-0.907804814976493     Delta-E=       -0.001004764058 Rises=F Damp=F
 DIIS: error= 1.56D-04 at cycle   3 NSaved=   3.
 NSaved= 3 IEnMin= 3 EnMin=-0.907804814976493     IErMin= 3 ErrMin= 1.56D-04
 ErrMax= 1.56D-04 EMaxC= 1.00D-01 BMatC= 9.71D-08 BMatP= 3.94D-04
 IDIUse=3 WtCom= 9.98D-01 WtEn= 1.56D-03
 Large coefficients: NSaved=  3 BigCof=    0.00 CofMax=   10.00 Det=-4.48D-20
 Inversion failed.  Reducing to  2 matrices.
 Coeff-Com: -0.160D-01 0.102D+01
 Coeff-En:   0.000D+00 0.100D+01
 Coeff:     -0.159D-01 0.102D+01
 Gap=     0.359 Goal=   None    Shift=    0.000
 RMSDP=1.05D-04 MaxDP=1.57D-04 DE=-1.00D-03 OVMax= 0.00D+00

 Cycle   4  Pass 1  IDiag  1:
 E=-0.907804966634153     Delta-E=       -0.000000151658 Rises=F Damp=F
 DIIS: error= 2.03D-07 at cycle   4 NSaved=   3.
 NSaved= 3 IEnMin= 3 EnMin=-0.907804966634153     IErMin= 3 ErrMin= 2.03D-07
 ErrMax= 2.03D-07 EMaxC= 1.00D-01 BMatC= 1.66D-13 BMatP= 9.71D-08
 IDIUse=1 WtCom= 1.00D+00 WtEn= 0.00D+00
 Large coefficients: NSaved=  3 BigCof=    0.00 CofMax=   10.00 Det=-2.70D-23
 Inversion failed.  Reducing to  2 matrices.
 Coeff-Com: -0.131D-02 0.100D+01
 Coeff:     -0.131D-02 0.100D+01
 Gap=     0.359 Goal=   None    Shift=    0.000
 RMSDP=1.38D-07 MaxDP=2.05D-07 DE=-1.52D-07 OVMax= 0.00D+00

 SCF Done:  E(RHF) = -0.907804966634     A.U. after    4 cycles
             Convg  =    0.1379D-06             -V/T =  2.2392
 KE= 7.325535526350D-01 PE=-2.335935943818D+00 EE= 4.309888202533D-01
 Leave Link  502 at Sat Oct  3 15:42:38 2020, MaxMem=  536870912 cpu:       0.0
  
  +-------------------------------------------+
  |                                           |
  |  LINK 530 - Projected Hartree-Fock (PHF)  |
  |     Self-Consistent Field (SCF) Code      |
  |                                           |
  |                                           |
  |         the Scuseria group, v0.2, 07.2011 |
  +-------------------------------------------+
  
 (Enter ../phf/l530.exe)

 PHF SCF was invoked with the following options:

   method selection:
 iprint =  9
 iphf   =  1, [ RHF + complex projection ]

   general options:
 maxcyc =    512

   accuracy requested:
 conv criterion (RMSDP, RMSDK) =     1.0000E-08
 requested integral accuracy   =     1.0000E-10

   use of symmetry:
 two-electron integral symmetry not used

   strategy options:
 level shifting is turned off
 use of DIIS extrapolation is turned on
 mxscfc =     20, idisgo =      1
 istrat =      1, continue as usual if energy rises
 modified PHF effective Fock matrix used

   initial guess options:
 igues1 =  1, read GDV guess


 PHF SCF - preparing initial guess

  
 MO coefficients:
                 1             2             3             4 
      1   0.192017D+00  0.204933D+00  0.897517D+00  0.930682D+00
      2   0.504587D+00  0.647965D+00 -0.640372D+00 -0.906541D+00
      3   0.192017D+00 -0.204933D+00  0.897517D+00 -0.930682D+00
      4   0.504587D+00 -0.647965D+00 -0.640372D+00  0.906541D+00
 After transformation 
  
 MO coefficients (real):
                 1             2             3             4 
      1   0.987589D+00  0.000000D+00  0.157063D+00  0.000000D+00
      2  -0.157063D+00  0.000000D+00  0.987589D+00  0.000000D+00
      3   0.000000D+00  0.959056D+00  0.000000D+00  0.283218D+00
      4   0.000000D+00  0.283218D+00  0.000000D+00 -0.959056D+00
 MO coefficients (imaginary):
                 1             2             3             4 
      1   0.000000D+00  0.000000D+00  0.000000D+00  0.000000D+00
      2   0.000000D+00  0.000000D+00  0.000000D+00  0.000000D+00
      3   0.000000D+00  0.000000D+00  0.000000D+00  0.000000D+00
      4   0.000000D+00  0.000000D+00  0.000000D+00  0.000000D+00
  
 Overlap Matrix (real):
                1             2             3             4 
      1  0.100000D+01
      2  0.227256D-02  0.645898D+00
      3  0.746565D-01  0.227256D-02  0.100000D+01
      4  0.746565D-01  0.645898D+00  0.556036D+00  0.556036D+00
 Overlap Matrix (imaginary):
                1             2             3             4 
      1  0.645898D+00
      2 -0.746565D-01  0.100000D+01
      3 -0.270258D+00 -0.746565D-01  0.645898D+00
      4 -0.270258D+00 -0.100000D+01 -0.779314D+00  0.779314D+00
  
 density matrix (real):
                1             2             3             4 
      1  0.975331D+00
      2 -0.155114D+00  0.246688D-01
      3  0.000000D+00  0.000000D+00  0.000000D+00
      4  0.000000D+00  0.000000D+00  0.000000D+00  0.000000D+00
 density matrix (imaginary):
                1             2             3             4 
      1  0.000000D+00
      2 -0.000000D+00  0.000000D+00
      3 -0.000000D+00 -0.000000D+00  0.000000D+00
      4 -0.000000D+00 -0.000000D+00 -0.000000D+00  0.000000D+00

 PHF SCF - starting SCF procedure

  
 HF density matrix (real):
                1             2             3             4 
      1  0.975331D+00
      2 -0.155114D+00  0.246688D-01
      3  0.000000D+00  0.000000D+00  0.000000D+00
      4  0.000000D+00  0.000000D+00  0.000000D+00  0.000000D+00
 HF density matrix (imaginary):
                1             2             3             4 
      1  0.000000D+00
      2 -0.000000D+00  0.000000D+00
      3 -0.000000D+00 -0.000000D+00  0.000000D+00
      4 -0.000000D+00 -0.000000D+00 -0.000000D+00  0.000000D+00
  
 Core Hamiltonian (real):
                 1             2             3             4 
      1  -0.796723D+00  0.103744D+00  0.000000D+00  0.000000D+00
      2   0.103744D+00  0.306545D+00  0.000000D+00  0.000000D+00
      3   0.000000D+00  0.000000D+00 -0.658935D+00 -0.196746D+00
      4   0.000000D+00  0.000000D+00 -0.196746D+00  0.376081D+00
 Core Hamiltonian (imaginary):
                 1             2             3             4 
      1   0.000000D+00  0.000000D+00  0.000000D+00  0.000000D+00
      2   0.000000D+00  0.000000D+00  0.000000D+00  0.000000D+00
      3   0.000000D+00  0.000000D+00  0.000000D+00  0.000000D+00
      4   0.000000D+00  0.000000D+00  0.000000D+00  0.000000D+00

 Symmetry not used in FoFDir.
 MinBra= 0 MaxBra= 0 Meth= 1.
 IRaf=       1 NMat=   2 IRICut=       1 DoRegI=T DoRafI=F ISym2E= 0 JSym2E=0.
 PrsmSu:  NPrtUS=   1 ThrOK=F IAlg=1 NPAlg=1 LenDen=           0.
 Prism:   IPart=     0 DynPar=F LinDyn=F Incr=           1.
 PRISM was handed   536869286 working-precision words and    10 shell-pairs
 IPart=  0 NShTot=          55 NBatch=          10 AvBLen=         5.5
 PrSmSu:  NxtVal=              2.
  
 HF Fock matrix (real):
                1             2             3             4 
      1 -0.333336D+00
      2  0.234957D+00  0.110667D+01
      3  0.000000D+00  0.000000D+00  0.854305D-01
      4  0.000000D+00  0.000000D+00 -0.327448D+00  0.109756D+01
 HF Fock matrix (imaginary):
                1             2             3             4 
      1  0.000000D+00
      2 -0.000000D+00  0.000000D+00
      3 -0.000000D+00 -0.000000D+00  0.000000D+00
      4 -0.000000D+00 -0.000000D+00 -0.000000D+00  0.000000D+00
 End hffock
 End hfdmdg: find NO basis
  
 density matrix (NO) (real):
                 1             2             3             4 
      1   0.100000D+01  0.000000D+00  0.000000D+00  0.000000D+00
      2   0.000000D+00  0.000000D+00  0.000000D+00  0.000000D+00
      3   0.000000D+00  0.000000D+00  0.000000D+00  0.000000D+00
      4   0.000000D+00  0.000000D+00  0.000000D+00  0.000000D+00
 density matrix (NO) (imaginary):
                 1             2             3             4 
      1   0.000000D+00  0.000000D+00  0.000000D+00  0.000000D+00
      2   0.000000D+00  0.000000D+00  0.000000D+00  0.000000D+00
      3   0.000000D+00  0.000000D+00  0.000000D+00  0.000000D+00
      4   0.000000D+00  0.000000D+00  0.000000D+00  0.000000D+00
 End hfdmdg
  
 N(g) (    1, 1, 1) (real):
                 1 
      1   0.100000D+01
 N(g) (    1, 1, 1) (imaginary):
                 1 
      1   0.000000D+00
  
 N(g) (    1, 1, 2) (real):
                 1 
      1   0.100000D+01
 N(g) (    1, 1, 2) (imaginary):
                 1 
      1   0.000000D+00
  
 N(g) (    1, 2, 1) (real):
                 1 
      1   0.100000D+01
 N(g) (    1, 2, 1) (imaginary):
                 1 
      1   0.000000D+00
  
 N(g) (    1, 2, 2) (real):
                 1 
      1   0.100000D+01
 N(g) (    1, 2, 2) (imaginary):
                 1 
      1   0.000000D+00
  
 P(g) (    1, 1, 1) (real):
                 1             2             3             4 
      1   0.100000D+01  0.000000D+00  0.000000D+00  0.000000D+00
      2   0.000000D+00  0.000000D+00  0.000000D+00  0.000000D+00
      3   0.000000D+00  0.000000D+00  0.000000D+00  0.000000D+00
      4   0.000000D+00  0.000000D+00  0.000000D+00  0.000000D+00
 P(g) (    1, 1, 1) (imaginary):
                 1             2             3             4 
      1   0.000000D+00  0.000000D+00  0.000000D+00  0.000000D+00
      2   0.000000D+00  0.000000D+00  0.000000D+00  0.000000D+00
      3   0.000000D+00  0.000000D+00  0.000000D+00  0.000000D+00
      4   0.000000D+00  0.000000D+00  0.000000D+00  0.000000D+00
  
 P(g) (    1, 1, 2) (real):
                 1             2             3             4 
      1   0.100000D+01  0.000000D+00  0.000000D+00  0.000000D+00
      2   0.000000D+00  0.000000D+00  0.000000D+00  0.000000D+00
      3   0.000000D+00  0.000000D+00  0.000000D+00  0.000000D+00
      4   0.000000D+00  0.000000D+00  0.000000D+00  0.000000D+00
 P(g) (    1, 1, 2) (imaginary):
                 1             2             3             4 
      1   0.000000D+00  0.000000D+00  0.000000D+00  0.000000D+00
      2   0.000000D+00  0.000000D+00  0.000000D+00  0.000000D+00
      3   0.000000D+00  0.000000D+00  0.000000D+00  0.000000D+00
      4   0.000000D+00  0.000000D+00  0.000000D+00  0.000000D+00
  
 P(g) (    1, 2, 1) (real):
                 1             2             3             4 
      1   0.100000D+01  0.000000D+00  0.000000D+00  0.000000D+00
      2   0.000000D+00  0.000000D+00  0.000000D+00  0.000000D+00
      3   0.000000D+00  0.000000D+00  0.000000D+00  0.000000D+00
      4   0.000000D+00  0.000000D+00  0.000000D+00  0.000000D+00
 P(g) (    1, 2, 1) (imaginary):
                 1             2             3             4 
      1   0.000000D+00  0.000000D+00  0.000000D+00  0.000000D+00
      2   0.000000D+00  0.000000D+00  0.000000D+00  0.000000D+00
      3   0.000000D+00  0.000000D+00  0.000000D+00  0.000000D+00
      4   0.000000D+00  0.000000D+00  0.000000D+00  0.000000D+00
  
 P(g) (    1, 2, 2) (real):
                 1             2             3             4 
      1   0.100000D+01  0.000000D+00  0.000000D+00  0.000000D+00
      2   0.000000D+00  0.000000D+00  0.000000D+00  0.000000D+00
      3   0.000000D+00  0.000000D+00  0.000000D+00  0.000000D+00
      4   0.000000D+00  0.000000D+00  0.000000D+00  0.000000D+00
 P(g) (    1, 2, 2) (imaginary):
                 1             2             3             4 
      1   0.000000D+00  0.000000D+00  0.000000D+00  0.000000D+00
      2   0.000000D+00  0.000000D+00  0.000000D+00  0.000000D+00
      3   0.000000D+00  0.000000D+00  0.000000D+00  0.000000D+00
      4   0.000000D+00  0.000000D+00  0.000000D+00  0.000000D+00

 Symmetry not used in FoFDir.
 MinBra= 0 MaxBra= 0 Meth= 1.
 IRaf=       1 NMat=  16 IRICut=       1 DoRegI=T DoRafI=F ISym2E= 0 JSym2E=0.
 PrsmSu:  NPrtUS=   1 ThrOK=F IAlg=1 NPAlg=1 LenDen=           0.
 Prism:   IPart=     0 DynPar=F LinDyn=F Incr=           1.
 PRISM was handed   536869138 working-precision words and    10 shell-pairs
 IPart=  0 NShTot=          55 NBatch=          10 AvBLen=         5.5
 PrSmSu:  NxtVal=              2.
  
 G(g) (    1,  1) (real):
                 1             2             3             4 
      1   0.430989D+00  0.000000D+00 -0.724039D-01  0.386108D-02
      2   0.000000D+00  0.721483D+00 -0.696005D-02 -0.130517D+00
      3  -0.724039D-01 -0.696005D-02  0.832276D+00 -0.468798D-02
      4   0.386108D-02 -0.130517D+00 -0.468798D-02  0.744616D+00
 G(g) (    1,  1) (imaginary):
                 1             2             3             4 
      1   0.000000D+00  0.000000D+00  0.000000D+00  0.000000D+00
      2   0.000000D+00  0.000000D+00  0.000000D+00  0.000000D+00
      3   0.000000D+00  0.000000D+00  0.000000D+00  0.000000D+00
      4   0.000000D+00  0.000000D+00  0.000000D+00  0.000000D+00
  
 G(g) (    1,  2) (real):
                 1             2             3             4 
      1   0.430989D+00  0.000000D+00 -0.724039D-01  0.386108D-02
      2   0.000000D+00  0.721483D+00 -0.696005D-02 -0.130517D+00
      3  -0.724039D-01 -0.696005D-02  0.832276D+00 -0.468798D-02
      4   0.386108D-02 -0.130517D+00 -0.468798D-02  0.744616D+00
 G(g) (    1,  2) (imaginary):
                 1             2             3             4 
      1   0.000000D+00  0.000000D+00  0.000000D+00  0.000000D+00
      2   0.000000D+00  0.000000D+00  0.000000D+00  0.000000D+00
      3   0.000000D+00  0.000000D+00  0.000000D+00  0.000000D+00
      4   0.000000D+00  0.000000D+00  0.000000D+00  0.000000D+00
  
 G(g) (    1,  3) (real):
                 1             2             3             4 
      1   0.430989D+00  0.000000D+00 -0.724039D-01  0.386108D-02
      2   0.000000D+00  0.721483D+00 -0.696005D-02 -0.130517D+00
      3  -0.724039D-01 -0.696005D-02  0.832276D+00 -0.468798D-02
      4   0.386108D-02 -0.130517D+00 -0.468798D-02  0.744616D+00
 G(g) (    1,  3) (imaginary):
                 1             2             3             4 
      1   0.000000D+00  0.000000D+00  0.000000D+00  0.000000D+00
      2   0.000000D+00  0.000000D+00  0.000000D+00  0.000000D+00
      3   0.000000D+00  0.000000D+00  0.000000D+00  0.000000D+00
      4   0.000000D+00  0.000000D+00  0.000000D+00  0.000000D+00
  
 G(g) (    1,  4) (real):
                 1             2             3             4 
      1   0.430989D+00  0.000000D+00 -0.724039D-01  0.386108D-02
      2   0.000000D+00  0.721483D+00 -0.696005D-02 -0.130517D+00
      3  -0.724039D-01 -0.696005D-02  0.832276D+00 -0.468798D-02
      4   0.386108D-02 -0.130517D+00 -0.468798D-02  0.744616D+00
 G(g) (    1,  4) (imaginary):
                 1             2             3             4 
      1   0.000000D+00  0.000000D+00  0.000000D+00  0.000000D+00
      2   0.000000D+00  0.000000D+00  0.000000D+00  0.000000D+00
      3   0.000000D+00  0.000000D+00  0.000000D+00  0.000000D+00
      4   0.000000D+00  0.000000D+00  0.000000D+00  0.000000D+00
 End formgg
 End transform in smt
 End extract C in smt
 End Smt
 End build CI
 Smt (real):
                 1             2 
      1   0.100000D+01  0.100000D+01
      2   0.100000D+01  0.100000D+01
 Smt (imaginary):
                 1             2 
      1   0.000000D+00  0.000000D+00
      2   0.000000D+00  0.000000D+00
 Hmt (real):
                 1             2 
      1  -0.117239D+01 -0.117239D+01
      2  -0.117239D+01 -0.117239D+01
 Hmt (imaginary):
                 1             2 
      1   0.000000D+00  0.000000D+00
      2   0.000000D+00  0.000000D+00
  
 X(g) (    1, 1, 1) (real):
                 1             2             3             4 
      1   0.200000D+01  0.000000D+00  0.000000D+00  0.000000D+00
      2   0.000000D+00  0.000000D+00  0.000000D+00  0.000000D+00
      3   0.000000D+00  0.000000D+00  0.000000D+00  0.000000D+00
      4   0.000000D+00  0.000000D+00  0.000000D+00  0.000000D+00
 X(g) (    1, 1, 1) (imaginary):
                 1             2             3             4 
      1   0.000000D+00  0.000000D+00  0.000000D+00  0.000000D+00
      2   0.000000D+00  0.000000D+00  0.000000D+00  0.000000D+00
      3   0.000000D+00  0.000000D+00  0.000000D+00  0.000000D+00
      4   0.000000D+00  0.000000D+00  0.000000D+00  0.000000D+00
  
 X(g) (    1, 1, 2) (real):
                 1             2             3             4 
      1   0.200000D+01  0.000000D+00  0.000000D+00  0.000000D+00
      2   0.000000D+00  0.000000D+00  0.000000D+00  0.000000D+00
      3   0.000000D+00  0.000000D+00  0.000000D+00  0.000000D+00
      4   0.000000D+00  0.000000D+00  0.000000D+00  0.000000D+00
 X(g) (    1, 1, 2) (imaginary):
                 1             2             3             4 
      1   0.000000D+00  0.000000D+00  0.000000D+00  0.000000D+00
      2   0.000000D+00  0.000000D+00  0.000000D+00  0.000000D+00
      3   0.000000D+00  0.000000D+00  0.000000D+00  0.000000D+00
      4   0.000000D+00  0.000000D+00  0.000000D+00  0.000000D+00
  
 X(g) (    1, 2, 1) (real):
                 1             2             3             4 
      1   0.200000D+01  0.000000D+00  0.000000D+00  0.000000D+00
      2   0.000000D+00  0.000000D+00  0.000000D+00  0.000000D+00
      3   0.000000D+00  0.000000D+00  0.000000D+00  0.000000D+00
      4   0.000000D+00  0.000000D+00  0.000000D+00  0.000000D+00
 X(g) (    1, 2, 1) (imaginary):
                 1             2             3             4 
      1   0.000000D+00  0.000000D+00  0.000000D+00  0.000000D+00
      2   0.000000D+00  0.000000D+00  0.000000D+00  0.000000D+00
      3   0.000000D+00  0.000000D+00  0.000000D+00  0.000000D+00
      4   0.000000D+00  0.000000D+00  0.000000D+00  0.000000D+00
  
 X(g) (    1, 2, 2) (real):
                 1             2             3             4 
      1   0.200000D+01  0.000000D+00  0.000000D+00  0.000000D+00
      2   0.000000D+00  0.000000D+00  0.000000D+00  0.000000D+00
      3   0.000000D+00  0.000000D+00  0.000000D+00  0.000000D+00
      4   0.000000D+00  0.000000D+00  0.000000D+00  0.000000D+00
 X(g) (    1, 2, 2) (imaginary):
                 1             2             3             4 
      1   0.000000D+00  0.000000D+00  0.000000D+00  0.000000D+00
      2   0.000000D+00  0.000000D+00  0.000000D+00  0.000000D+00
      3   0.000000D+00  0.000000D+00  0.000000D+00  0.000000D+00
      4   0.000000D+00  0.000000D+00  0.000000D+00  0.000000D+00
  
 Effective Fock (real):
                1             2             3             4 
      1  0.000000D+00
      2  0.000000D+00  0.000000D+00
      3  0.000000D+00  0.000000D+00  0.000000D+00
      4  0.000000D+00  0.000000D+00  0.000000D+00  0.000000D+00
 Effective Fock (imaginary):
                1             2             3             4 
      1  0.000000D+00
      2 -0.000000D+00  0.000000D+00
      3 -0.000000D+00 -0.000000D+00  0.000000D+00
      4 -0.000000D+00 -0.000000D+00 -0.000000D+00  0.000000D+00
  
 Effective Fock (real):
                1             2             3             4 
      1 -0.333336D+00
      2  0.234957D+00  0.110667D+01
      3  0.000000D+00  0.000000D+00  0.854305D-01
      4  0.000000D+00  0.000000D+00 -0.327448D+00  0.109756D+01
 Effective Fock (imaginary):
                1             2             3             4 
      1  0.000000D+00
      2 -0.000000D+00  0.000000D+00
      3 -0.000000D+00 -0.000000D+00  0.000000D+00
      4 -0.000000D+00 -0.000000D+00 -0.000000D+00  0.000000D+00
 Alpha error matrix at iteration (real):
                1             2             3             4 
      1  0.000000D+00
      2  0.000000D+00  0.000000D+00
      3  0.000000D+00  0.000000D+00  0.000000D+00
      4  0.000000D+00  0.000000D+00  0.000000D+00  0.000000D+00
 Alpha error matrix at iteration (imaginary):
                1             2             3             4 
      1  0.000000D+00
      2 -0.000000D+00  0.000000D+00
      3 -0.000000D+00 -0.000000D+00  0.000000D+00
      4 -0.000000D+00 -0.000000D+00 -0.000000D+00  0.000000D+00
 DIIS: error= 2.44D-12 at cycle   1 NSaved=   1.
 B matrix at iteration          1
                 1             2 
      1   0.000000D+00 -0.100000D+01
      2  -0.100000D+01 -0.474715D-22
 NSaved= 1 IEnMin= 1 EnMin=-0.907804966634412     IErMin= 1 ErrMin= 2.44D-12
 ErrMax= 2.44D-12 EMaxC= 1.00D+00 BMatC= 4.75D-23 BMatP= 4.75D-23
 IDIUse=1 WtCom= 1.00D+00 WtEn= 0.00D+00
 Coeff-Com:  0.100D+01
 Coeff-En:   0.000D+00
 Coeff:      0.100D+01
 NewF-IndFok=    0
 NewF-Coef=   1.00D+00
 Extrapolated FA at iteration (real):
                1             2             3             4 
      1 -0.333336D+00
      2  0.234957D+00  0.110667D+01
      3  0.000000D+00  0.000000D+00  0.854305D-01
      4  0.000000D+00  0.000000D+00 -0.327448D+00  0.109756D+01
 Extrapolated FA at iteration (imaginary):
                1             2             3             4 
      1  0.000000D+00
      2 -0.000000D+00  0.000000D+00
      3 -0.000000D+00 -0.000000D+00  0.000000D+00
      4 -0.000000D+00 -0.000000D+00 -0.000000D+00  0.000000D+00

 Fock eigenvalues:
      orbital --                 1                2                3                4
       energy --    -3.7070242D-01   -1.1267627D-02    1.1440386D+00    1.1942622D+00

 *** cycle =    1 ***

        E =      -0.907804966634
      Hsp =      -1.603382299044     Hph =       0.430988728115
   <S**2> =      -0.000000000000
    RMSDP =       1.1371D-12        MaxP =       3.0578D-12

   E (HF) =      -0.907804966634

 ********************


 *** SCF Done after    1 cycles ***

        E =      -0.907804966634    conv =           1.1371E-12
      Hsp =      -1.603382299044     Hph =       0.430988728115
   <S**2> =      -0.000000000000

 **********************************


 PHF SCF - quitting the program

 Leave Link  530 at Sat Oct  3 15:42:38 2020, MaxMem=  536870912 cpu:       0.0
 (Enter /share/home/srwang/g09/l9999.exe)

 Test job not archived.
 1\1\GINC-XHPC\SP\CRHF\3-21G\H2\SRWANG\03-Oct-2020\0\\#p hf/3-21g scf=c
 onver=4 extralink=l530 iop(5/206=9, 5/207=1, 5/216=1) pop=none\\title\
 \0,1\H,0,0.,0.,0.\H,0,0.,0.,2.\\Version=EM64L-G09RevC.01\State=1-SGG\H
 F=-0.907805\RMSD=1.137e-12\PG=D*H [C*(H1.H1)]\\@


 ... A MOLECULAR SYSTEM ... (PASSES) ... FROM ONE STATE OF EQUILIBRIUM 
 TO ANOTHER ... BY MEANS OF ALL POSSIBLE INTERMEDIATE PATHS, 
 BUT THE PATH MOST ECONOMICAL OF ENERGY WILL BE THE MORE OFTEN TRAVELED.

                      -- HENRY EYRING, 1945
 Job cpu time:  0 days  0 hours  0 minutes  0.4 seconds.
 File lengths (MBytes):  RWF=     82 Int=      0 D2E=      0 Chk=      2 Scr=      2
 Normal termination of Gaussian 09 at Sat Oct  3 15:42:38 2020.
